<event>
 8    1  0.1207611E+005  0.1043930E+01  0.7957747E-01            NaN
         13   -1    0    0    0    0  0.00000000000E+00  0.00000000000E+00  0.74505805969E-08  0.10566000000E+00  0.10566000000E+00 0. -1.
     999900   -1    0    0    0    0 -0.00000000000E+00 -0.00000000000E+00 -0.74505805969E-08  0.93827000000E+00  0.93827000000E+00 0. -1.
     999902    2    1    2    0    0 -0.92570142229E-02  0.21107269964E-01  0.29928300691E-02  0.10206885244E+01  0.10204238813E+01 0.  0.
     999903    2    3    3    0    0  0.10735297333E+00  0.59866683554E-01  0.41424348228E-01  0.13131955542E+00  0.20498007898E-01 0.  0.
         14    1    1    2    0    0  0.92570142229E-02 -0.21107269964E-01 -0.29928300691E-02  0.23241475631E-01  0.00000000000E+00 0. -1.
     999901    1    3    3    0    0 -0.11660998755E+00 -0.38759413590E-01 -0.38431518159E-01  0.88936896895E+00  0.88000000000E+00 0. -1.
        -11    1    4    4    0    0  0.55057280590E-01  0.22319790455E-01  0.27417375530E-01  0.65432796012E-01  0.51100000000E-03 0. -1.
         11    1    4    4    0    0  0.52295692739E-01  0.37546893099E-01  0.14006972697E-01  0.65886759410E-01  0.51100000000E-03 0.  1.
</event>
<event>
 8    1  0.1207611E+005  0.1043930E+01  0.7957747E-01            NaN
         13   -1    0    0    0    0  0.00000000000E+00  0.00000000000E+00  0.74505805969E-08  0.10566000000E+00  0.10566000000E+00 0.  1.
     999900   -1    0    0    0    0 -0.00000000000E+00 -0.00000000000E+00 -0.74505805969E-08  0.93827000000E+00  0.93827000000E+00 0.  1.
     999902    2    1    2    0    0 -0.28854949430E-02  0.41423167085E-02 -0.23086033647E-01  0.10202984571E+01  0.10200247506E+01 0.  0.
     999903    2    3    3    0    0  0.92829998294E-01  0.76073636287E-01  0.44644743244E-01  0.12961162748E+00  0.20035322735E-01 0.  0.
         14    1    1    2    0    0  0.28854949430E-02 -0.41423167085E-02  0.23086033647E-01  0.23631542868E-01  0.00000000000E+00 0.  1.
     999901    1    3    3    0    0 -0.95715493237E-01 -0.71931319578E-01 -0.67730776890E-01  0.89068682965E+00  0.88000000000E+00 0.  1.
        -11    1    4    4    0    0  0.35950630478E-01  0.23799833489E-01  0.70282559622E-02  0.43686810467E-01  0.51100000000E-03 0.  1.
         11    1    4    4    0    0  0.56879367816E-01  0.52273802797E-01  0.37616487281E-01  0.85924817011E-01  0.51100000000E-03 0. -1.
</event>
<event>
 8    1  0.1207611E+005  0.1043930E+01  0.7957747E-01            NaN
         13   -1    0    0    0    0  0.00000000000E+00  0.00000000000E+00  0.74505805969E-08  0.10566000000E+00  0.10566000000E+00 0. -1.
     999900   -1    0    0    0    0 -0.00000000000E+00 -0.00000000000E+00 -0.74505805969E-08  0.93827000000E+00  0.93827000000E+00 0. -1.
     999902    2    1    2    0    0 -0.21776794089E-01  0.42448115486E-03  0.66500623410E-02  0.10211565006E+01  0.10209025255E+01 0.  0.
     999903    2    3    3    0    0  0.42213698588E-01 -0.12164046388E+00 -0.40624182127E-02  0.13036505971E+00  0.20003668389E-01 0.  0.
         14    1    1    2    0    0  0.21776794089E-01 -0.42448115486E-03 -0.66500623410E-02  0.22773499384E-01  0.00000000000E+00 0. -1.
     999901    1    3    3    0    0 -0.63990492677E-01  0.12206494503E+00  0.10712480554E-01  0.89079144091E+00  0.88000000000E+00 0.  1.
        -11    1    4    4    0    0  0.25814961183E-01 -0.92675219605E-01 -0.93519986442E-02  0.96658313400E-01  0.51100000000E-03 0.  1.
         11    1    4    4    0    0  0.16398737406E-01 -0.28965244275E-01  0.52895804315E-02  0.33706746306E-01  0.51100000000E-03 0. -1.
</event>
<event>
 8    1  0.1207611E+005  0.1043930E+01  0.7957747E-01            NaN
         13   -1    0    0    0    0  0.00000000000E+00  0.00000000000E+00  0.74505805969E-08  0.10566000000E+00  0.10566000000E+00 0.  1.
     999900   -1    0    0    0    0 -0.00000000000E+00 -0.00000000000E+00 -0.74505805969E-08  0.93827000000E+00  0.93827000000E+00 0. -1.
     999902    2    1    2    0    0 -0.84676790809E-02 -0.14774084387E-01  0.16047354555E-01  0.10205314371E+01  0.10202631628E+01 0.  0.
     999903    2    3    3    0    0 -0.60753605833E-01 -0.88085172523E-01 -0.73854135771E-01  0.13137981236E+00  0.18873883680E-01 0.  0.
         14    1    1    2    0    0  0.84676790809E-02  0.14774084387E-01 -0.16047354555E-01  0.23398562919E-01  0.00000000000E+00 0. -1.
     999901    1    3    3    0    0  0.52285926753E-01  0.73311088136E-01  0.89901490326E-01  0.88915162472E+00  0.88000000000E+00 0.  1.
        -11    1    4    4    0    0 -0.23989328938E-01 -0.36807288563E-01 -0.19384721622E-01  0.48023878931E-01  0.51100000000E-03 0.  1.
         11    1    4    4    0    0 -0.36764276895E-01 -0.51277883960E-01 -0.54469414149E-01  0.83355933429E-01  0.51100000000E-03 0. -1.
</event>
<event>
 8    1  0.1207611E+005  0.1043930E+01  0.7957747E-01            NaN
         13   -1    0    0    0    0  0.00000000000E+00  0.00000000000E+00  0.74505805969E-08  0.10566000000E+00  0.10566000000E+00 0.  1.
     999900   -1    0    0    0    0 -0.00000000000E+00 -0.00000000000E+00 -0.74505805969E-08  0.93827000000E+00  0.93827000000E+00 0. -1.
     999902    2    1    2    0    0  0.17970544577E-01  0.84340855681E-02 -0.10206394907E-01  0.10216086029E+01  0.10213647207E+01 0.  0.
     999903    2    3    3    0    0 -0.11502773077E+00  0.49652576760E-01  0.27200000737E-01  0.12987616337E+00  0.20765850494E-01 0.  0.
         14    1    1    2    0    0 -0.17970544577E-01 -0.84340855681E-02  0.10206394907E-01  0.22321397106E-01  0.00000000000E+00 0.  1.
     999901    1    3    3    0    0  0.13299827535E+00 -0.41218491192E-01 -0.37406395644E-01  0.89173243952E+00  0.88000000000E+00 0. -1.
        -11    1    4    4    0    0 -0.81625902546E-01  0.44257006309E-01  0.23881140678E-01  0.95875130117E-01  0.51100000000E-03 0.  1.
         11    1    4    4    0    0 -0.33401828226E-01  0.53955704510E-02  0.33188600590E-02  0.34001033255E-01  0.51100000000E-03 0. -1.
</event>
<event>
 8    1  0.1207611E+005  0.1043930E+01  0.7957747E-01            NaN
         13   -1    0    0    0    0  0.00000000000E+00  0.00000000000E+00  0.74505805969E-08  0.10566000000E+00  0.10566000000E+00 0. -1.
     999900   -1    0    0    0    0 -0.00000000000E+00 -0.00000000000E+00 -0.74505805969E-08  0.93827000000E+00  0.93827000000E+00 0.  1.
     999902    2    1    2    0    0  0.18282690662E-01  0.58264567121E-02 -0.14453895132E-01  0.10199066892E+01  0.10196237224E+01 0.  0.
     999903    2    3    3    0    0  0.83618396610E-01  0.96495364196E-01 -0.30380763557E-01  0.13269573890E+00  0.19539108600E-01 0.  0.
         14    1    1    2    0    0 -0.18282690662E-01 -0.58264567121E-02  0.14453895132E-01  0.24023310766E-01  0.00000000000E+00 0. -1.
     999901    1    3    3    0    0 -0.65335705947E-01 -0.90668907484E-01  0.15926868424E-01  0.88721095033E+00  0.88000000000E+00 0.  1.
        -11    1    4    4    0    0  0.69662259904E-01  0.87178302754E-01 -0.31245196801E-01  0.11588533285E+00  0.51100000000E-03 0. -1.
         11    1    4    4    0    0  0.13956136706E-01  0.93170614413E-02  0.86443324384E-03  0.16810406047E-01  0.51100000000E-03 0.  1.
</event>
<event>
 7    1  0.1207611E+005  0.1043930E+01  0.7957747E-01            NaN
         13   -1    0    0    0    0  0.00000000000E+00  0.00000000000E+00  0.74505805969E-08  0.10566000000E+00  0.10566000000E+00 0. -1.
     999900   -1    0    0    0    0 -0.00000000000E+00 -0.00000000000E+00 -0.74505805969E-08  0.93827000000E+00  0.93827000000E+00 0. -1.
     999903    2    1    2    0    0 -0.24737627414E-01  0.40053469292E-01 -0.68374458951E-01  0.85353746838E-01  0.19848547807E-01 0.  0.
         14    1    1    2    0    0 -0.88027104437E-02  0.18796414925E-01 -0.62925516232E-01  0.66260195580E-01  0.00000000000E+00 0.  1.
     999901    1    1    2    0    0  0.33540337858E-01 -0.58849884216E-01  0.13129997518E+00  0.89231605758E+00  0.88000000000E+00 0.  1.
        -11    1    3    3    0    0 -0.89956480133E-02  0.17926301217E-01 -0.45925956824E-01  0.50117148659E-01  0.51100000000E-03 0.  1.
         11    1    3    3    0    0 -0.15741979401E-01  0.22127168075E-01 -0.22448502126E-01  0.35236598178E-01  0.51100000000E-03 0. -1.
</event>
<event>
 8    1  0.1207611E+005  0.1043930E+01  0.7957747E-01            NaN
         13   -1    0    0    0    0  0.00000000000E+00  0.00000000000E+00  0.74505805969E-08  0.10566000000E+00  0.10566000000E+00 0. -1.
     999900   -1    0    0    0    0 -0.00000000000E+00 -0.00000000000E+00 -0.74505805969E-08  0.93827000000E+00  0.93827000000E+00 0.  1.
     999902    2    1    2    0    0  0.11390153778E-01 -0.14077030456E-01 -0.14581239420E-01  0.10206811090E+01  0.10204162951E+01 0.  0.
     999903    2    3    3    0    0 -0.62747711446E-01 -0.83529763619E-01  0.75103187445E-01  0.13030848946E+00  0.20623214102E-01 0.  0.
         14    1    1    2    0    0 -0.11390153778E-01  0.14077030456E-01  0.14581239420E-01  0.23248890997E-01  0.00000000000E+00 0. -1.
     999901    1    3    3    0    0  0.74137865224E-01  0.69452733163E-01 -0.89684426865E-01  0.89037261954E+00  0.88000000000E+00 0.  1.
        -11    1    4    4    0    0 -0.23418707607E-01 -0.17645364077E-01  0.26139726329E-01  0.39285380907E-01  0.51100000000E-03 0. -1.
         11    1    4    4    0    0 -0.39329003839E-01 -0.65884399542E-01  0.48963461116E-01  0.91023108557E-01  0.51100000000E-03 0.  1.
</event>
<event>
 8    1  0.1207611E+005  0.1043930E+01  0.7957747E-01            NaN
         13   -1    0    0    0    0  0.00000000000E+00  0.00000000000E+00  0.74505805969E-08  0.10566000000E+00  0.10566000000E+00 0. -1.
     999900   -1    0    0    0    0 -0.00000000000E+00 -0.00000000000E+00 -0.74505805969E-08  0.93827000000E+00  0.93827000000E+00 0. -1.
     999902    2    1    2    0    0  0.97657402837E-02  0.16097706023E-01  0.13754346615E-01  0.10206128845E+01  0.10203464962E+01 0.  0.
     999903    2    3    3    0    0  0.73886461657E-01 -0.97290873472E-01  0.41729720057E-01  0.13058420052E+00  0.19650460844E-01 0.  0.
         14    1    1    2    0    0 -0.97657402837E-02 -0.16097706023E-01 -0.13754346615E-01  0.23317115458E-01  0.00000000000E+00 0.  1.
     999901    1    3    3    0    0 -0.64120721373E-01  0.11338857949E+00 -0.27975373442E-01  0.89002868403E+00  0.88000000000E+00 0. -1.
        -11    1    4    4    0    0  0.65140161966E-01 -0.77223458882E-01  0.28383618168E-01  0.10494090815E+00  0.51100000000E-03 0.  1.
         11    1    4    4    0    0  0.87462996906E-02 -0.20067414590E-01  0.13346101889E-01  0.25643292364E-01  0.51100000000E-03 0. -1.
</event>
<event>
 8    1  0.1207611E+005  0.1043930E+01  0.7957747E-01            NaN
         13   -1    0    0    0    0  0.00000000000E+00  0.00000000000E+00  0.74505805969E-08  0.10566000000E+00  0.10566000000E+00 0. -1.
     999900   -1    0    0    0    0 -0.00000000000E+00 -0.00000000000E+00 -0.74505805969E-08  0.93827000000E+00  0.93827000000E+00 0.  1.
     999902    2    1    2    0    0  0.80093569814E-02  0.21492399605E-01  0.65093974880E-02  0.10200879092E+01  0.10198092455E+01 0.  0.
     999903    2    3    3    0    0 -0.38476718064E-01  0.26498200122E-02  0.12354306253E+00  0.13092376417E+00  0.19765230723E-01 0.  0.
         14    1    1    2    0    0 -0.80093569814E-02 -0.21492399605E-01 -0.65093974880E-02  0.23842090842E-01  0.00000000000E+00 0.  1.
     999901    1    3    3    0    0  0.46486075045E-01  0.18842579593E-01 -0.11703366504E+00  0.88916414499E+00  0.88000000000E+00 0.  1.
        -11    1    4    4    0    0 -0.16864940801E-01  0.10576150422E-01  0.48536801718E-01  0.52462971970E-01  0.51100000000E-03 0.  1.
         11    1    4    4    0    0 -0.21611777262E-01 -0.79263304099E-02  0.75006260815E-01  0.78460792200E-01  0.51100000000E-03 0. -1.
</event>
<event>
 8    1  0.1207611E+005  0.1043930E+01  0.7957747E-01            NaN
         13   -1    0    0    0    0  0.00000000000E+00  0.00000000000E+00  0.74505805969E-08  0.10566000000E+00  0.10566000000E+00 0. -1.
     999900   -1    0    0    0    0 -0.00000000000E+00 -0.00000000000E+00 -0.74505805969E-08  0.93827000000E+00  0.93827000000E+00 0.  1.
     999902    2    1    2    0    0 -0.12231739927E-01 -0.92639596721E-02 -0.16078415827E-01  0.10217049721E+01  0.10214632143E+01 0.  0.
     999903    2    3    3    0    0 -0.10860878648E+00  0.13557692736E-02  0.72128415705E-01  0.13199616642E+00  0.20561444157E-01 0.  0.
         14    1    1    2    0    0  0.12231739927E-01  0.92639596721E-02  0.16078415827E-01  0.22225027918E-01  0.00000000000E+00 0. -1.
     999901    1    3    3    0    0  0.96377046555E-01 -0.10619728946E-01 -0.88206831532E-01  0.88970880566E+00  0.88000000000E+00 0.  1.
        -11    1    4    4    0    0 -0.24838794732E-01 -0.76252897059E-02  0.12933752025E-01  0.29028500293E-01  0.51100000000E-03 0.  1.
         11    1    4    4    0    0 -0.83769991750E-01  0.89810589796E-02  0.59194663680E-01  0.10296766613E+00  0.51100000000E-03 0. -1.
</event>
<event>
 8    1  0.1207611E+005  0.1043930E+01  0.7957747E-01            NaN
         13   -1    0    0    0    0  0.00000000000E+00  0.00000000000E+00  0.74505805969E-08  0.10566000000E+00  0.10566000000E+00 0.  1.
     999900   -1    0    0    0    0 -0.00000000000E+00 -0.00000000000E+00 -0.74505805969E-08  0.93827000000E+00  0.93827000000E+00 0.  1.
     999902    2    1    2    0    0  0.12054535662E-01 -0.15551426732E-01  0.70080730240E-02  0.10230428798E+01  0.10228296349E+01 0.  0.
     999903    2    3    3    0    0  0.85036493135E-01  0.98497107555E-01  0.17041937705E-01  0.13263055242E+00  0.19171604830E-01 0.  0.
         14    1    1    2    0    0 -0.12054535662E-01  0.15551426732E-01 -0.70080730240E-02  0.20887120216E-01  0.00000000000E+00 0. -1.
     999901    1    3    3    0    0 -0.72981957474E-01 -0.11404853429E+00 -0.10033864681E-01  0.89041232737E+00  0.88000000000E+00 0.  1.
        -11    1    4    4    0    0  0.58762555488E-01  0.55684256865E-01  0.15135758750E-01  0.82359739582E-01  0.51100000000E-03 0. -1.
         11    1    4    4    0    0  0.26273937648E-01  0.42812850690E-01  0.19061789550E-02  0.50270812833E-01  0.51100000000E-03 0.  1.
</event>
<event>
 8    1  0.1207611E+005  0.1043930E+01  0.7957747E-01            NaN
         13   -1    0    0    0    0  0.00000000000E+00  0.00000000000E+00  0.74505805969E-08  0.10566000000E+00  0.10566000000E+00 0. -1.
     999900   -1    0    0    0    0 -0.00000000000E+00 -0.00000000000E+00 -0.74505805969E-08  0.93827000000E+00  0.93827000000E+00 0.  1.
     999902    2    1    2    0    0 -0.73892678448E-02 -0.18224508706E-01 -0.13485129104E-01  0.10200850277E+01  0.10198062958E+01 0.  0.
     999903    2    3    3    0    0  0.11505442612E+00 -0.57834307562E-02  0.54255881321E-01  0.12894189492E+00  0.20281581960E-01 0.  0.
         14    1    1    2    0    0  0.73892678448E-02  0.18224508706E-01  0.13485129104E-01  0.23844972296E-01  0.00000000000E+00 0. -1.
     999901    1    3    3    0    0 -0.12244369396E+00 -0.12441077950E-01 -0.67741010425E-01  0.89114313278E+00  0.88000000000E+00 0.  1.
        -11    1    4    4    0    0  0.58748986318E-01 -0.69642088177E-02  0.17528487925E-01  0.61704559052E-01  0.51100000000E-03 0.  1.
         11    1    4    4    0    0  0.56305439802E-01  0.11807780614E-02  0.36727393396E-01  0.67237335869E-01  0.51100000000E-03 0. -1.
</event>
<event>
 8    1  0.1207611E+005  0.1043930E+01  0.7957747E-01            NaN
         13   -1    0    0    0    0  0.00000000000E+00  0.00000000000E+00  0.74505805969E-08  0.10566000000E+00  0.10566000000E+00 0.  1.
     999900   -1    0    0    0    0 -0.00000000000E+00 -0.00000000000E+00 -0.74505805969E-08  0.93827000000E+00  0.93827000000E+00 0.  1.
     999902    2    1    2    0    0 -0.14169846111E-01  0.19792778858E-01 -0.39094200771E-02  0.10192759496E+01  0.10189777423E+01 0.  0.
     999903    2    3    3    0    0 -0.11806270339E+00  0.51198096968E-01 -0.23788820266E-01  0.13238519518E+00  0.19997121512E-01 0.  0.
         14    1    1    2    0    0  0.14169846111E-01 -0.19792778858E-01  0.39094200771E-02  0.24654050358E-01  0.00000000000E+00 0. -1.
     999901    1    3    3    0    0  0.10389285728E+00 -0.31405318109E-01  0.19879400189E-01  0.88689075446E+00  0.88000000000E+00 0. -1.
        -11    1    4    4    0    0 -0.60589318886E-01  0.24387049700E-01 -0.20695672699E-02  0.65347823114E-01  0.51100000000E-03 0.  1.
         11    1    4    4    0    0 -0.57473384502E-01  0.26811047268E-01 -0.21719252996E-01  0.67037372065E-01  0.51100000000E-03 0. -1.
</event>
<event>
 8    1  0.1207611E+005  0.1043930E+01  0.7957747E-01            NaN
         13   -1    0    0    0    0  0.00000000000E+00  0.00000000000E+00  0.74505805969E-08  0.10566000000E+00  0.10566000000E+00 0. -1.
     999900   -1    0    0    0    0 -0.00000000000E+00 -0.00000000000E+00 -0.74505805969E-08  0.93827000000E+00  0.93827000000E+00 0. -1.
     999902    2    1    2    0    0  0.10718664493E-01  0.21359006499E-01 -0.45986426808E-02  0.10195939272E+01  0.10193034542E+01 0.  0.
     999903    2    3    3    0    0  0.26641438058E-01  0.45858687710E-01  0.11770488112E+00  0.13065527852E+00  0.20089233549E-01 0.  0.
         14    1    1    2    0    0 -0.10718664493E-01 -0.21359006499E-01  0.45986426808E-02  0.24336072847E-01  0.00000000000E+00 0. -1.
     999901    1    3    3    0    0 -0.15922773564E-01 -0.24499681211E-01 -0.12230352380E+00  0.88893864863E+00  0.88000000000E+00 0. -1.
        -11    1    4    4    0    0  0.19585323995E-01  0.14331730577E-01  0.54867924921E-01  0.59997780988E-01  0.51100000000E-03 0.  1.
         11    1    4    4    0    0  0.70561140624E-02  0.31526957133E-01  0.62836956203E-01  0.70657497532E-01  0.51100000000E-03 0. -1.
</event>
<event>
 8    1  0.1207611E+005  0.1043930E+01  0.7957747E-01            NaN
         13   -1    0    0    0    0  0.00000000000E+00  0.00000000000E+00  0.74505805969E-08  0.10566000000E+00  0.10566000000E+00 0.  1.
     999900   -1    0    0    0    0 -0.00000000000E+00 -0.00000000000E+00 -0.74505805969E-08  0.93827000000E+00  0.93827000000E+00 0. -1.
     999902    2    1    2    0    0  0.43334815696E-02 -0.16681826281E-01 -0.15111520503E-01  0.10210079486E+01  0.10207506113E+01 0.  0.
     999903    2    3    3    0    0  0.74197651750E-02  0.21781813381E-01  0.12544283682E+00  0.12901887682E+00  0.19505510947E-01 0.  0.
         14    1    1    2    0    0 -0.43334815696E-02  0.16681826281E-01  0.15111520503E-01  0.22922051446E-01  0.00000000000E+00 0.  1.
     999901    1    3    3    0    0 -0.30862836054E-02 -0.38463639662E-01 -0.14055435733E+00  0.89198907173E+00  0.88000000000E+00 0. -1.
        -11    1    4    4    0    0 -0.14236294629E-02  0.24031195182E-02  0.62556203276E-01  0.62620614765E-01  0.51100000000E-03 0. -1.
         11    1    4    4    0    0  0.88433946379E-02  0.19378693863E-01  0.62886633546E-01  0.66398262058E-01  0.51100000000E-03 0.  1.
</event>
<event>
 8    1  0.1207611E+005  0.1043930E+01  0.7957747E-01            NaN
         13   -1    0    0    0    0  0.00000000000E+00  0.00000000000E+00  0.74505805969E-08  0.10566000000E+00  0.10566000000E+00 0.  1.
     999900   -1    0    0    0    0 -0.00000000000E+00 -0.00000000000E+00 -0.74505805969E-08  0.93827000000E+00  0.93827000000E+00 0.  1.
     999902    2    1    2    0    0 -0.92352972881E-02 -0.13311167171E-01 -0.16741899433E-01  0.10206325949E+01  0.10203666619E+01 0.  0.
     999903    2    3    3    0    0 -0.94943694360E-01 -0.75093255238E-01 -0.54253582134E-01  0.13351925261E+00  0.15186756183E-01 0.  0.
         14    1    1    2    0    0  0.92352972881E-02  0.13311167171E-01  0.16741899433E-01  0.23297405093E-01  0.00000000000E+00 0.  1.
     999901    1    3    3    0    0  0.85708397071E-01  0.61782088067E-01  0.37511682701E-01  0.88711334229E+00  0.88000000000E+00 0.  1.
        -11    1    4    4    0    0 -0.11430778798E-01 -0.35405547389E-02 -0.42359546728E-02  0.12704434846E-01  0.51100000000E-03 0.  1.
         11    1    4    4    0    0 -0.83512915562E-01 -0.71552700499E-01 -0.50017627461E-01  0.12081481777E+00  0.51100000000E-03 0. -1.
</event>
<event>
 8    1  0.1207611E+005  0.1043930E+01  0.7957747E-01            NaN
         13   -1    0    0    0    0  0.00000000000E+00  0.00000000000E+00  0.74505805969E-08  0.10566000000E+00  0.10566000000E+00 0.  1.
     999900   -1    0    0    0    0 -0.00000000000E+00 -0.00000000000E+00 -0.74505805969E-08  0.93827000000E+00  0.93827000000E+00 0. -1.
     999902    2    1    2    0    0  0.20133578359E-01  0.68364476882E-03  0.13796699649E-01  0.10195132584E+01  0.10192208332E+01 0.  0.
     999903    2    3    3    0    0 -0.99076373516E-01  0.74498221095E-01 -0.23096370107E-01  0.12764964616E+00  0.19871515194E-01 0.  0.
         14    1    1    2    0    0 -0.20133578359E-01 -0.68364476882E-03 -0.13796699649E-01  0.24416741570E-01  0.00000000000E+00 0. -1.
     999901    1    3    3    0    0  0.11920995187E+00 -0.73814576326E-01  0.36893069756E-01  0.89186361227E+00  0.88000000000E+00 0.  1.
        -11    1    4    4    0    0 -0.34043417257E-01  0.19079859336E-01 -0.15039168036E-01  0.41826223676E-01  0.51100000000E-03 0.  1.
         11    1    4    4    0    0 -0.65032956259E-01  0.55418361758E-01 -0.80572020710E-02  0.85823422479E-01  0.51100000000E-03 0. -1.
</event>
<event>
 8    1  0.1207611E+005  0.1043930E+01  0.7957747E-01            NaN
         13   -1    0    0    0    0  0.00000000000E+00  0.00000000000E+00  0.74505805969E-08  0.10566000000E+00  0.10566000000E+00 0.  1.
     999900   -1    0    0    0    0 -0.00000000000E+00 -0.00000000000E+00 -0.74505805969E-08  0.93827000000E+00  0.93827000000E+00 0. -1.
     999902    2    1    2    0    0 -0.20666618945E-01  0.11499717637E-01  0.75976912583E-02  0.10190889542E+01  0.10187861498E+01 0.  0.
     999903    2    3    3    0    0  0.67115499998E-01  0.56395144523E-01  0.93113758938E-01  0.12946302292E+00  0.20139501840E-01 0.  0.
         14    1    1    2    0    0  0.20666618945E-01 -0.11499717637E-01 -0.75976912583E-02  0.24841045807E-01  0.00000000000E+00 0. -1.
     999901    1    3    3    0    0 -0.87782118943E-01 -0.44895426886E-01 -0.85516067679E-01  0.88962593127E+00  0.88000000000E+00 0. -1.
        -11    1    4    4    0    0  0.48035959328E-01  0.29181261785E-01  0.51788260479E-01  0.76428296281E-01  0.51100000000E-03 0. -1.
         11    1    4    4    0    0  0.19079540670E-01  0.27213882738E-01  0.41325498458E-01  0.53034726639E-01  0.51100000000E-03 0.  1.
</event>
<event>
 8    1  0.1207611E+005  0.1043930E+01  0.7957747E-01            NaN
         13   -1    0    0    0    0  0.00000000000E+00  0.00000000000E+00  0.74505805969E-08  0.10566000000E+00  0.10566000000E+00 0. -1.
     999900   -1    0    0    0    0 -0.00000000000E+00 -0.00000000000E+00 -0.74505805969E-08  0.93827000000E+00  0.93827000000E+00 0. -1.
     999902    2    1    2    0    0 -0.78670812165E-02 -0.23061871269E-01 -0.29128306954E-03  0.10195614605E+01  0.10192702026E+01 0.  0.
     999903    2    3    3    0    0 -0.67441585008E-01 -0.10966614313E+00 -0.24407122999E-01  0.13297756982E+00  0.22633958684E-01 0.  0.
         14    1    1    2    0    0  0.78670812165E-02  0.23061871269E-01  0.29128306954E-03  0.24368539536E-01  0.00000000000E+00 0. -1.
     999901    1    3    3    0    0  0.59574503792E-01  0.86604271861E-01  0.24115839930E-01  0.88658389064E+00  0.88000000000E+00 0.  1.
        -11    1    4    4    0    0 -0.20232916460E-01 -0.30338554180E-01 -0.17372709927E-01  0.40396422483E-01  0.51100000000E-03 0. -1.
         11    1    4    4    0    0 -0.47208668548E-01 -0.79327588950E-01 -0.70344130725E-02  0.92581147341E-01  0.51100000000E-03 0.  1.
</event>
<event>
 8    1  0.1207611E+005  0.1043930E+01  0.7957747E-01            NaN
         13   -1    0    0    0    0  0.00000000000E+00  0.00000000000E+00  0.74505805969E-08  0.10566000000E+00  0.10566000000E+00 0.  1.
     999900   -1    0    0    0    0 -0.00000000000E+00 -0.00000000000E+00 -0.74505805969E-08  0.93827000000E+00  0.93827000000E+00 0.  1.
     999902    2    1    2    0    0 -0.16511251893E-02 -0.76657654292E-02 -0.23274809832E-01  0.10193697283E+01  0.10190738128E+01 0.  0.
     999903    2    3    3    0    0  0.44581406810E-01  0.97358732798E-01  0.66254336125E-01  0.12741509927E+00  0.19461392078E-01 0.  0.
         14    1    1    2    0    0  0.16511251893E-02  0.76657654292E-02  0.23274809832E-01  0.24560271716E-01  0.00000000000E+00 0.  1.
     999901    1    3    3    0    0 -0.46232531999E-01 -0.10502449823E+00 -0.89529145957E-01  0.89195462901E+00  0.88000000000E+00 0.  1.
        -11    1    4    4    0    0  0.10535102263E-01  0.87792004891E-02  0.11120118361E-01  0.17662980900E-01  0.51100000000E-03 0. -1.
         11    1    4    4    0    0  0.34046304547E-01  0.88579532309E-01  0.55134217764E-01  0.10975211837E+00  0.51100000000E-03 0.  1.
</event>
<event>
 8    1  0.1207611E+005  0.1043930E+01  0.7957747E-01            NaN
         13   -1    0    0    0    0  0.00000000000E+00  0.00000000000E+00  0.74505805969E-08  0.10566000000E+00  0.10566000000E+00 0. -1.
     999900   -1    0    0    0    0 -0.00000000000E+00 -0.00000000000E+00 -0.74505805969E-08  0.93827000000E+00  0.93827000000E+00 0.  1.
     999902    2    1    2    0    0 -0.15516732885E-01 -0.72169382567E-02 -0.86016290251E-02  0.10247769005E+01  0.10245978990E+01 0.  0.
     999903    2    3    3    0    0 -0.38612761805E-01  0.79054979607E-01 -0.10071640754E+00  0.13547301390E+00  0.21645035752E-01 0.  0.
         14    1    1    2    0    0  0.15516732885E-01  0.72169382567E-02  0.86016290251E-02  0.19153099465E-01  0.00000000000E+00 0.  1.
     999901    1    3    3    0    0  0.23096028921E-01 -0.86271917864E-01  0.92114778514E-01  0.88930388664E+00  0.88000000000E+00 0. -1.
        -11    1    4    4    0    0 -0.40576267055E-01  0.67502074526E-01 -0.89853294382E-01  0.11948572779E+00  0.51100000000E-03 0. -1.
         11    1    4    4    0    0  0.19635052498E-02  0.11552905081E-01 -0.10863113158E-01  0.15987286109E-01  0.51100000000E-03 0.  1.
</event>
<event>
 8    1  0.1207611E+005  0.1043930E+01  0.7957747E-01            NaN
         13   -1    0    0    0    0  0.00000000000E+00  0.00000000000E+00  0.74505805969E-08  0.10566000000E+00  0.10566000000E+00 0. -1.
     999900   -1    0    0    0    0 -0.00000000000E+00 -0.00000000000E+00 -0.74505805969E-08  0.93827000000E+00  0.93827000000E+00 0.  1.
     999902    2    1    2    0    0  0.36393248673E-02  0.48654449503E-02  0.22265272114E-01  0.10208505810E+01  0.10205896576E+01 0.  0.
     999903    2    3    3    0    0  0.69900832679E-01 -0.95780547719E-01 -0.48975781601E-01  0.12978633470E+00  0.19642447949E-01 0.  0.
         14    1    1    2    0    0 -0.36393248673E-02 -0.48654449503E-02 -0.22265272114E-01  0.23079419022E-01  0.00000000000E+00 0.  1.
     999901    1    3    3    0    0 -0.66261507812E-01  0.10064599267E+00  0.71241053715E-01  0.89106424628E+00  0.88000000000E+00 0.  1.
        -11    1    4    4    0    0  0.52487834208E-01 -0.63902521977E-01 -0.25521990040E-01  0.86545584240E-01  0.51100000000E-03 0. -1.
         11    1    4    4    0    0  0.17412998472E-01 -0.31878025741E-01 -0.23453791560E-01  0.43240750462E-01  0.51100000000E-03 0.  1.
</event>
<event>
 8    1  0.1207611E+005  0.1043930E+01  0.7957747E-01            NaN
         13   -1    0    0    0    0  0.00000000000E+00  0.00000000000E+00  0.74505805969E-08  0.10566000000E+00  0.10566000000E+00 0. -1.
     999900   -1    0    0    0    0 -0.00000000000E+00 -0.00000000000E+00 -0.74505805969E-08  0.93827000000E+00  0.93827000000E+00 0.  1.
     999902    2    1    2    0    0 -0.64615057912E-02  0.14085159758E-01 -0.17599288842E-01  0.10204805277E+01  0.10202110712E+01 0.  0.
     999903    2    3    3    0    0 -0.22441737868E-01 -0.10050164246E+00  0.73771898681E-01  0.12821700332E+00  0.19826627814E-01 0.  0.
         14    1    1    2    0    0  0.64615057912E-02 -0.14085159758E-01  0.17599288842E-01  0.23449472281E-01  0.00000000000E+00 0.  1.
     999901    1    3    3    0    0  0.15980232077E-01  0.11458680222E+00 -0.91371187523E-01  0.89226352440E+00  0.88000000000E+00 0.  1.
        -11    1    4    4    0    0 -0.21365468400E-02 -0.79228353164E-02  0.18548791568E-03  0.82238481636E-02  0.51100000000E-03 0.  1.
         11    1    4    4    0    0 -0.20305191028E-01 -0.92578807143E-01  0.73586410766E-01  0.11999315516E+00  0.51100000000E-03 0. -1.
</event>
<event>
 8    1  0.1207611E+005  0.1043930E+01  0.7957747E-01            NaN
         13   -1    0    0    0    0  0.00000000000E+00  0.00000000000E+00  0.74505805969E-08  0.10566000000E+00  0.10566000000E+00 0. -1.
     999900   -1    0    0    0    0 -0.00000000000E+00 -0.00000000000E+00 -0.74505805969E-08  0.93827000000E+00  0.93827000000E+00 0. -1.
     999902    2    1    2    0    0  0.11780586334E-01  0.19155516485E-01 -0.86480176409E-02  0.10198363445E+01  0.10195516982E+01 0.  0.
     999903    2    3    3    0    0 -0.16740214591E-01  0.11716237169E+00 -0.56303630463E-01  0.13265550770E+00  0.20497043577E-01 0.  0.
         14    1    1    2    0    0 -0.11780586334E-01 -0.19155516485E-01  0.86480176409E-02  0.24093655499E-01  0.00000000000E+00 0.  1.
     999901    1    3    3    0    0  0.28520800925E-01 -0.98006855205E-01  0.47655612822E-01  0.88718083680E+00  0.88000000000E+00 0.  1.
        -11    1    4    4    0    0 -0.13953620668E-01  0.96305855583E-01 -0.54488648933E-01  0.11152934741E+00  0.51100000000E-03 0.  1.
         11    1    4    4    0    0 -0.27865939230E-02  0.20856516107E-01 -0.18149815295E-02  0.21126160294E-01  0.51100000000E-03 0. -1.
</event>
<event>
 8    1  0.1207611E+005  0.1043930E+01  0.7957747E-01            NaN
         13   -1    0    0    0    0  0.00000000000E+00  0.00000000000E+00  0.74505805969E-08  0.10566000000E+00  0.10566000000E+00 0. -1.
     999900   -1    0    0    0    0 -0.00000000000E+00 -0.00000000000E+00 -0.74505805969E-08  0.93827000000E+00  0.93827000000E+00 0. -1.
     999902    2    1    2    0    0 -0.34859160964E-02 -0.21600865729E-01 -0.10817825990E-01  0.10195215103E+01  0.10192292851E+01 0.  0.
     999903    2    3    3    0    0 -0.53494958821E-01 -0.25788090104E-01 -0.11604400512E+00  0.13183294666E+00  0.19671768883E-01 0.  0.
         14    1    1    2    0    0  0.34859160964E-02  0.21600865729E-01  0.10817825990E-01  0.24408489720E-01  0.00000000000E+00 0. -1.
     999901    1    3    3    0    0  0.50009042724E-01  0.41872243753E-02  0.10522617913E+00  0.88768856362E+00  0.88000000000E+00 0.  1.
        -11    1    4    4    0    0 -0.97675211983E-02 -0.14226790256E-01 -0.34736508350E-01  0.38790361750E-01  0.51100000000E-03 0.  1.
         11    1    4    4    0    0 -0.43727437622E-01 -0.11561299848E-01 -0.81307496770E-01  0.93042584913E-01  0.51100000000E-03 0. -1.
</event>
<event>
 8    1  0.1207611E+005  0.1043930E+01  0.7957747E-01            NaN
         13   -1    0    0    0    0  0.00000000000E+00  0.00000000000E+00  0.74505805969E-08  0.10566000000E+00  0.10566000000E+00 0.  1.
     999900   -1    0    0    0    0 -0.00000000000E+00 -0.00000000000E+00 -0.74505805969E-08  0.93827000000E+00  0.93827000000E+00 0. -1.
     999902    2    1    2    0    0 -0.20532238255E-01  0.12470417836E-01  0.13253199804E-01  0.10164940485E+01  0.10161237224E+01 0.  0.
     999903    2    3    3    0    0  0.77954119393E-01 -0.80903301669E-01 -0.48585350948E-01  0.12394588707E+00  0.19489937002E-01 0.  0.
         14    1    1    2    0    0  0.20532238255E-01 -0.12470417836E-01 -0.13253199804E-01  0.27435951483E-01  0.00000000000E+00 0.  1.
     999901    1    3    3    0    0 -0.98486357647E-01  0.93373719505E-01  0.61838550752E-01  0.89254816144E+00  0.88000000000E+00 0. -1.
        -11    1    4    4    0    0  0.38891057733E-01 -0.51611320751E-01 -0.21499743080E-01  0.68108317222E-01  0.51100000000E-03 0. -1.
         11    1    4    4    0    0  0.39063061659E-01 -0.29291980918E-01 -0.27085607868E-01  0.55837569851E-01  0.51100000000E-03 0.  1.
</event>
<event>
 8    1  0.1207611E+005  0.1043930E+01  0.7957747E-01            NaN
         13   -1    0    0    0    0  0.00000000000E+00  0.00000000000E+00  0.74505805969E-08  0.10566000000E+00  0.10566000000E+00 0.  1.
     999900   -1    0    0    0    0 -0.00000000000E+00 -0.00000000000E+00 -0.74505805969E-08  0.93827000000E+00  0.93827000000E+00 0. -1.
     999902    2    1    2    0    0 -0.14428093690E-01  0.14122839857E-01 -0.13819126162E-02  0.10236930493E+01  0.10234930019E+01 0.  0.
     999903    2    3    3    0    0  0.29028287891E-01  0.12762461995E+00  0.25978893768E-01  0.13491876693E+00  0.19937041730E-01 0.  0.
         14    1    1    2    0    0  0.14428093690E-01 -0.14122839857E-01  0.13819126162E-02  0.20236950749E-01  0.00000000000E+00 0.  1.
     999901    1    3    3    0    0 -0.43456381581E-01 -0.11350178010E+00 -0.27360806384E-01  0.88877428232E+00  0.88000000000E+00 0. -1.
        -11    1    4    4    0    0  0.23296167176E-01  0.57672709672E-01  0.12699931292E-01  0.63485448899E-01  0.51100000000E-03 0. -1.
         11    1    4    4    0    0  0.57321207158E-02  0.69951910281E-01  0.13278962476E-01  0.71433318033E-01  0.51100000000E-03 0.  1.
</event>
<event>
 8    1  0.1207611E+005  0.1043930E+01  0.7957747E-01            NaN
         13   -1    0    0    0    0  0.00000000000E+00  0.00000000000E+00  0.74505805969E-08  0.10566000000E+00  0.10566000000E+00 0.  1.
     999900   -1    0    0    0    0 -0.00000000000E+00 -0.00000000000E+00 -0.74505805969E-08  0.93827000000E+00  0.93827000000E+00 0.  1.
     999902    2    1    2    0    0  0.97334074164E-02 -0.49451960659E-02 -0.20026702208E-01  0.10211207259E+01  0.10208659431E+01 0.  0.
     999903    2    3    3    0    0 -0.13492230192E-01 -0.10014948245E+00 -0.84808357206E-01  0.13331446932E+00  0.19191955774E-01 0.  0.
         14    1    1    2    0    0 -0.97334074164E-02  0.49451960659E-02  0.20026702208E-01  0.22809274110E-01  0.00000000000E+00 0.  1.
     999901    1    3    3    0    0  0.23225637608E-01  0.95204286385E-01  0.64781654997E-01  0.88780625657E+00  0.88000000000E+00 0.  1.
        -11    1    4    4    0    0  0.39364912976E-02 -0.28136400586E-01 -0.18703500233E-01  0.34018157558E-01  0.51100000000E-03 0. -1.
         11    1    4    4    0    0 -0.17428721489E-01 -0.72013081865E-01 -0.66104856973E-01  0.99296311759E-01  0.51100000000E-03 0.  1.
</event>
<event>
 8    1  0.1207611E+005  0.1043930E+01  0.7957747E-01            NaN
         13   -1    0    0    0    0  0.00000000000E+00  0.00000000000E+00  0.74505805969E-08  0.10566000000E+00  0.10566000000E+00 0.  1.
     999900   -1    0    0    0    0 -0.00000000000E+00 -0.00000000000E+00 -0.74505805969E-08  0.93827000000E+00  0.93827000000E+00 0.  1.
     999902    2    1    2    0    0 -0.22050014748E-01  0.98833546663E-02  0.48634496885E-03  0.10197614175E+01  0.10194749767E+01 0.  0.
     999903    2    3    3    0    0 -0.37355581258E-01 -0.11438678818E+00 -0.42439046099E-01  0.12986259291E+00  0.24154578074E-01 0.  0.
         14    1    1    2    0    0  0.22050014748E-01 -0.98833546663E-02 -0.48634496885E-03  0.24168582525E-01  0.00000000000E+00 0. -1.
     999901    1    3    3    0    0  0.15305566511E-01  0.12427014284E+00  0.42925391068E-01  0.88989882457E+00  0.88000000000E+00 0. -1.
        -11    1    4    4    0    0 -0.17462027776E-01 -0.86113714334E-01 -0.26391957896E-01  0.91745794307E-01  0.51100000000E-03 0.  1.
         11    1    4    4    0    0 -0.19893553482E-01 -0.28273073845E-01 -0.16047088203E-01  0.38116798601E-01  0.51100000000E-03 0. -1.
</event>
<event>
 8    1  0.1207611E+005  0.1043930E+01  0.7957747E-01            NaN
         13   -1    0    0    0    0  0.00000000000E+00  0.00000000000E+00  0.74505805969E-08  0.10566000000E+00  0.10566000000E+00 0.  1.
     999900   -1    0    0    0    0 -0.00000000000E+00 -0.00000000000E+00 -0.74505805969E-08  0.93827000000E+00  0.93827000000E+00 0.  1.
     999902    2    1    2    0    0  0.22708100360E-01 -0.71214380831E-02 -0.34660174256E-02  0.10198803435E+01  0.10195967482E+01 0.  0.
     999903    2    3    3    0    0 -0.11933056910E+00 -0.21137157209E-01  0.34318329152E-01  0.12758046067E+00  0.20309162734E-01 0.  0.
         14    1    1    2    0    0 -0.22708100360E-01  0.71214380831E-02  0.34660174256E-02  0.24049656529E-01  0.00000000000E+00 0.  1.
     999901    1    3    3    0    0  0.14203866946E+00  0.14015719126E-01 -0.37784346578E-01  0.89229988280E+00  0.88000000000E+00 0.  1.
        -11    1    4    4    0    0 -0.35139446530E-01 -0.59237948222E-02  0.66961063357E-03  0.35645217729E-01  0.51100000000E-03 0.  1.
         11    1    4    4    0    0 -0.84191122574E-01 -0.15213362387E-01  0.33648718519E-01  0.91935242939E-01  0.51100000000E-03 0. -1.
</event>
<event>
 8    1  0.1207611E+005  0.1043930E+01  0.7957747E-01            NaN
         13   -1    0    0    0    0  0.00000000000E+00  0.00000000000E+00  0.74505805969E-08  0.10566000000E+00  0.10566000000E+00 0.  1.
     999900   -1    0    0    0    0 -0.00000000000E+00 -0.00000000000E+00 -0.74505805969E-08  0.93827000000E+00  0.93827000000E+00 0.  1.
     999902    2    1    2    0    0 -0.41424264591E-02 -0.22940840954E-01 -0.20699052952E-02  0.10205264450E+01  0.10202580548E+01 0.  0.
     999903    2    3    3    0    0  0.10138367433E+00  0.74421343688E-01 -0.11121411310E-01  0.12884428034E+00  0.25690016907E-01 0.  0.
         14    1    1    2    0    0  0.41424264591E-02  0.22940840954E-01  0.20699052952E-02  0.23403555042E-01  0.00000000000E+00 0. -1.
     999901    1    3    3    0    0 -0.10552610079E+00 -0.97362184643E-01  0.90515060149E-02  0.89168216462E+00  0.88000000000E+00 0. -1.
        -11    1    4    4    0    0  0.57369042124E-01  0.57152416674E-01 -0.45799885970E-02  0.81110068071E-01  0.51100000000E-03 0. -1.
         11    1    4    4    0    0  0.44014632205E-01  0.17268927014E-01 -0.65414227131E-02  0.47734212264E-01  0.51100000000E-03 0.  1.
</event>
<event>
 8    1  0.1207611E+005  0.1043930E+01  0.7957747E-01            NaN
         13   -1    0    0    0    0  0.00000000000E+00  0.00000000000E+00  0.74505805969E-08  0.10566000000E+00  0.10566000000E+00 0. -1.
     999900   -1    0    0    0    0 -0.00000000000E+00 -0.00000000000E+00 -0.74505805969E-08  0.93827000000E+00  0.93827000000E+00 0.  1.
     999902    2    1    2    0    0  0.60210777286E-02 -0.59156618786E-02 -0.22022460592E-01  0.10203453185E+01  0.10200727090E+01 0.  0.
     999903    2    3    3    0    0  0.44640170289E-01  0.81435601380E-01 -0.91953349901E-01  0.13241964208E+00  0.21331691821E-01 0.  0.
         14    1    1    2    0    0 -0.60210777286E-02  0.59156618786E-02  0.22022460592E-01  0.23584681533E-01  0.00000000000E+00 0. -1.
     999901    1    3    3    0    0 -0.38619092560E-01 -0.87351263258E-01  0.69930889309E-01  0.88792567638E+00  0.88000000000E+00 0. -1.
        -11    1    4    4    0    0  0.13038217395E-01  0.25267973963E-01 -0.42706578680E-01  0.51308660133E-01  0.51100000000E-03 0. -1.
         11    1    4    4    0    0  0.31601952894E-01  0.56167627417E-01 -0.49246771221E-01  0.81110981951E-01  0.51100000000E-03 0.  1.
</event>
<event>
 8    1  0.1207611E+005  0.1043930E+01  0.7957747E-01            NaN
         13   -1    0    0    0    0  0.00000000000E+00  0.00000000000E+00  0.74505805969E-08  0.10566000000E+00  0.10566000000E+00 0. -1.
     999900   -1    0    0    0    0 -0.00000000000E+00 -0.00000000000E+00 -0.74505805969E-08  0.93827000000E+00  0.93827000000E+00 0. -1.
     999902    2    1    2    0    0  0.22845219713E-01 -0.68104870801E-02  0.19957897761E-02  0.10200078351E+01  0.10197272741E+01 0.  0.
     999903    2    3    3    0    0  0.68845912513E-01 -0.10585900422E+00  0.35339999927E-01  0.13263051463E+00  0.19900989240E-01 0.  0.
         14    1    1    2    0    0 -0.22845219713E-01  0.68104870801E-02 -0.19957897761E-02  0.23922164928E-01  0.00000000000E+00 0.  1.
     999901    1    3    3    0    0 -0.46000692799E-01  0.99048517136E-01 -0.33344210151E-01  0.88737732044E+00  0.88000000000E+00 0. -1.
        -11    1    4    4    0    0  0.61778948606E-01 -0.89064969124E-01  0.36475842595E-01  0.11436763279E+00  0.51100000000E-03 0.  1.
         11    1    4    4    0    0  0.70669639069E-02 -0.16794035092E-01 -0.11358426676E-02  0.18262881840E-01  0.51100000000E-03 0. -1.
</event>
<event>
 7    1  0.1207611E+005  0.1043930E+01  0.7957747E-01            NaN
         13   -1    0    0    0    0  0.00000000000E+00  0.00000000000E+00  0.74505805969E-08  0.10566000000E+00  0.10566000000E+00 0.  1.
     999900   -1    0    0    0    0 -0.00000000000E+00 -0.00000000000E+00 -0.74505805969E-08  0.93827000000E+00  0.93827000000E+00 0.  1.
     999903    2    1    2    0    0 -0.17819166685E-01 -0.98429990618E-01 -0.95386660208E-02  0.10243984566E+00  0.19923605966E-01 0.  0.
         14    1    1    2    0    0  0.48897544067E-01  0.31075253017E-01 -0.58843853270E-02  0.58234587288E-01  0.00000000000E+00 0. -1.
     999901    1    1    2    0    0 -0.31078377382E-01  0.67354737601E-01  0.15423051348E-01  0.88325556705E+00  0.88000000000E+00 0. -1.
        -11    1    3    3    0    0 -0.71794046713E-02 -0.82497654602E-01 -0.69817438470E-02  0.83104829790E-01  0.51100000000E-03 0. -1.
         11    1    3    3    0    0 -0.10639762014E-01 -0.15932336017E-01 -0.25569221738E-02  0.19335015869E-01  0.51100000000E-03 0.  1.
</event>
<event>
 7    1  0.1207611E+005  0.1043930E+01  0.7957747E-01            NaN
         13   -1    0    0    0    0  0.00000000000E+00  0.00000000000E+00  0.74505805969E-08  0.10566000000E+00  0.10566000000E+00 0.  1.
     999900   -1    0    0    0    0 -0.00000000000E+00 -0.00000000000E+00 -0.74505805969E-08  0.93827000000E+00  0.93827000000E+00 0. -1.
     999903    2    1    2    0    0 -0.24395148975E-01  0.97189882306E-01 -0.36575353180E-01  0.10860526169E+00  0.20404653664E-01 0.  0.
         14    1    1    2    0    0  0.15517556529E-02 -0.24413077220E-01  0.45859874962E-01  0.51976287059E-01  0.00000000000E+00 0.  1.
     999901    1    1    2    0    0  0.22843393322E-01 -0.72776805086E-01 -0.92845217817E-02  0.88334845125E+00  0.88000000000E+00 0. -1.
        -11    1    3    3    0    0  0.35818979731E-02  0.15263813234E-01 -0.53960393444E-02  0.16588922483E-01  0.51100000000E-03 0. -1.
         11    1    3    3    0    0 -0.27977046948E-01  0.81926069072E-01 -0.31179313836E-01  0.92016339211E-01  0.51100000000E-03 0.  1.
</event>
<event>
 8    1  0.1207611E+005  0.1043930E+01  0.7957747E-01            NaN
         13   -1    0    0    0    0  0.00000000000E+00  0.00000000000E+00  0.74505805969E-08  0.10566000000E+00  0.10566000000E+00 0.  1.
     999900   -1    0    0    0    0 -0.00000000000E+00 -0.00000000000E+00 -0.74505805969E-08  0.93827000000E+00  0.93827000000E+00 0. -1.
     999902    2    1    2    0    0 -0.42279590059E-02  0.22585924399E-01 -0.48440721778E-02  0.10204467154E+01  0.10201764722E+01 0.  0.
     999903    2    3    3    0    0  0.77171838717E-01 -0.67831763220E-01  0.74629226123E-01  0.12852895553E+00  0.19837596270E-01 0.  0.
         14    1    1    2    0    0  0.42279590059E-02 -0.22585924399E-01  0.48440721778E-02  0.23483284557E-01  0.00000000000E+00 0.  1.
     999901    1    3    3    0    0 -0.81399797723E-01  0.90417687619E-01 -0.79473298300E-01  0.89191775991E+00  0.88000000000E+00 0. -1.
        -11    1    4    4    0    0  0.31587263108E-01 -0.18386424123E-01  0.18699457735E-01  0.41057844845E-01  0.51100000000E-03 0. -1.
         11    1    4    4    0    0  0.45584575609E-01 -0.49445339097E-01  0.55929768387E-01  0.87471110686E-01  0.51100000000E-03 0.  1.
</event>
<event>
 8    1  0.1207611E+005  0.1043930E+01  0.7957747E-01            NaN
         13   -1    0    0    0    0  0.00000000000E+00  0.00000000000E+00  0.74505805969E-08  0.10566000000E+00  0.10566000000E+00 0. -1.
     999900   -1    0    0    0    0 -0.00000000000E+00 -0.00000000000E+00 -0.74505805969E-08  0.93827000000E+00  0.93827000000E+00 0. -1.
     999902    2    1    2    0    0  0.84051820803E-02  0.55009840349E-02  0.20656307416E-01  0.10209606520E+01  0.10207022396E+01 0.  0.
     999903    2    3    3    0    0 -0.86948028476E-01 -0.27248300528E-01  0.93430012420E-01  0.13221954092E+00  0.21222870728E-01 0.  0.
         14    1    1    2    0    0 -0.84051820803E-02 -0.55009840349E-02 -0.20656307416E-01  0.22969347993E-01  0.00000000000E+00 0.  1.
     999901    1    3    3    0    0  0.95353210556E-01  0.32749284562E-01 -0.72773705004E-01  0.88874111109E+00  0.88000000000E+00 0. -1.
        -11    1    4    4    0    0 -0.52379296512E-01 -0.10785518920E-01  0.41476432170E-01  0.67679196715E-01  0.51100000000E-03 0.  1.
         11    1    4    4    0    0 -0.34568731964E-01 -0.16462781608E-01  0.51953580250E-01  0.64540344201E-01  0.51100000000E-03 0. -1.
</event>
<event>
 8    1  0.1207611E+005  0.1043930E+01  0.7957747E-01            NaN
         13   -1    0    0    0    0  0.00000000000E+00  0.00000000000E+00  0.74505805969E-08  0.10566000000E+00  0.10566000000E+00 0. -1.
     999900   -1    0    0    0    0 -0.00000000000E+00 -0.00000000000E+00 -0.74505805969E-08  0.93827000000E+00  0.93827000000E+00 0.  1.
     999902    2    1    2    0    0  0.10832395503E-01 -0.24679614750E-01 -0.19094254676E-01  0.10108994878E+01  0.10103597179E+01 0.  0.
     999903    2    3    3    0    0  0.11775999084E+00 -0.10615843624E-01  0.27661245280E-01  0.12308341612E+00  0.20106497803E-01 0.  0.
         14    1    1    2    0    0 -0.10832395503E-01  0.24679614750E-01  0.19094254676E-01  0.33030512230E-01  0.00000000000E+00 0.  1.
     999901    1    3    3    0    0 -0.10692759534E+00 -0.14063771126E-01 -0.46755499955E-01  0.88781607165E+00  0.88000000000E+00 0.  1.
        -11    1    4    4    0    0  0.47605019520E-01 -0.92936368097E-02  0.20106910424E-01  0.52508652015E-01  0.51100000000E-03 0.  1.
         11    1    4    4    0    0  0.70154971324E-01 -0.13222068146E-02  0.75543348557E-02  0.70574764105E-01  0.51100000000E-03 0. -1.
</event>
<event>
 8    1  0.1207611E+005  0.1043930E+01  0.7957747E-01            NaN
         13   -1    0    0    0    0  0.00000000000E+00  0.00000000000E+00  0.74505805969E-08  0.10566000000E+00  0.10566000000E+00 0.  1.
     999900   -1    0    0    0    0 -0.00000000000E+00 -0.00000000000E+00 -0.74505805969E-08  0.93827000000E+00  0.93827000000E+00 0. -1.
     999902    2    1    2    0    0 -0.72442343716E-02 -0.15345719241E-01 -0.17893206298E-01  0.10192695689E+01  0.10189712053E+01 0.  0.
     999903    2    3    3    0    0  0.53219546543E-01 -0.17513176752E-01  0.11283853117E+00  0.12755697290E+00  0.19980383511E-01 0.  0.
         14    1    1    2    0    0  0.72442343716E-02  0.15345719241E-01  0.17893206298E-01  0.24660431105E-01  0.00000000000E+00 0.  1.
     999901    1    3    3    0    0 -0.60463780914E-01  0.21674575109E-02 -0.13073173747E+00  0.89171259599E+00  0.88000000000E+00 0. -1.
        -11    1    4    4    0    0  0.23668874104E-02 -0.71517769319E-02  0.15783479724E-01  0.17496554590E-01  0.51100000000E-03 0.  1.
         11    1    4    4    0    0  0.50852659132E-01 -0.10361399820E-01  0.97055051444E-01  0.11006041831E+00  0.51100000000E-03 0. -1.
</event>
<event>
 8    1  0.1207611E+005  0.1043930E+01  0.7957747E-01            NaN
         13   -1    0    0    0    0  0.00000000000E+00  0.00000000000E+00  0.74505805969E-08  0.10566000000E+00  0.10566000000E+00 0.  1.
     999900   -1    0    0    0    0 -0.00000000000E+00 -0.00000000000E+00 -0.74505805969E-08  0.93827000000E+00  0.93827000000E+00 0.  1.
     999902    2    1    2    0    0 -0.90248393450E-03 -0.17373883254E-01 -0.15975466638E-01  0.10203104778E+01  0.10200370529E+01 0.  0.
     999903    2    3    3    0    0 -0.84874853893E-02 -0.79679719976E-01  0.10097056559E+00  0.13035771273E+00  0.19421198955E-01 0.  0.
         14    1    1    2    0    0  0.90248393450E-03  0.17373883254E-01  0.15975466638E-01  0.23619522241E-01  0.00000000000E+00 0.  1.
     999901    1    3    3    0    0  0.75850014548E-02  0.62305836721E-01 -0.11694603222E+00  0.88995276503E+00  0.88000000000E+00 0.  1.
        -11    1    4    4    0    0 -0.42844152345E-02 -0.12140085736E-01  0.28089073030E-01  0.30902994034E-01  0.51100000000E-03 0.  1.
         11    1    4    4    0    0 -0.42030701548E-02 -0.67539634240E-01  0.72881492556E-01  0.99454718693E-01  0.51100000000E-03 0. -1.
</event>
<event>
 8    1  0.1207611E+005  0.1043930E+01  0.7957747E-01            NaN
         13   -1    0    0    0    0  0.00000000000E+00  0.00000000000E+00  0.74505805969E-08  0.10566000000E+00  0.10566000000E+00 0. -1.
     999900   -1    0    0    0    0 -0.00000000000E+00 -0.00000000000E+00 -0.74505805969E-08  0.93827000000E+00  0.93827000000E+00 0.  1.
     999902    2    1    2    0    0  0.11474684637E-01  0.18585078229E-01  0.97205161186E-02  0.10200226381E+01  0.10197424284E+01 0.  0.
     999903    2    3    3    0    0  0.39147483260E-01  0.11196907186E-01  0.12412510555E+00  0.13215509225E+00  0.20000760088E-01 0.  0.
         14    1    1    2    0    0 -0.11474684637E-01 -0.18585078229E-01 -0.97205161186E-02  0.23907361918E-01  0.00000000000E+00 0. -1.
     999901    1    3    3    0    0 -0.27672798624E-01  0.73881710429E-02 -0.11440458943E+00  0.88786754583E+00  0.88000000000E+00 0.  1.
        -11    1    4    4    0    0  0.19849183201E-01 -0.46189509463E-02  0.53767685125E-01  0.57502607474E-01  0.51100000000E-03 0.  1.
         11    1    4    4    0    0  0.19298300059E-01  0.15815858132E-01  0.70357420426E-01  0.74652484778E-01  0.51100000000E-03 0. -1.
</event>
<event>
 8    1  0.1207611E+005  0.1043930E+01  0.7957747E-01            NaN
         13   -1    0    0    0    0  0.00000000000E+00  0.00000000000E+00  0.74505805969E-08  0.10566000000E+00  0.10566000000E+00 0.  1.
     999900   -1    0    0    0    0 -0.00000000000E+00 -0.00000000000E+00 -0.74505805969E-08  0.93827000000E+00  0.93827000000E+00 0. -1.
     999902    2    1    2    0    0 -0.26371793315E-01 -0.21186854605E-01 -0.16330901357E-01  0.10063660195E+01  0.10056647118E+01 0.  0.
     999903    2    3    3    0    0  0.23777525403E-02  0.68898667211E-01 -0.93785406284E-01  0.11791729395E+00  0.18870763892E-01 0.  0.
         14    1    1    2    0    0  0.26371793315E-01  0.21186854605E-01  0.16330901357E-01  0.37563980484E-01  0.00000000000E+00 0.  1.
     999901    1    3    3    0    0 -0.28749545855E-01 -0.90085521815E-01  0.77454504927E-01  0.88844872557E+00  0.88000000000E+00 0.  1.
        -11    1    4    4    0    0 -0.52456089740E-02  0.29958729836E-01 -0.29522033774E-01  0.42389308865E-01  0.51100000000E-03 0.  1.
         11    1    4    4    0    0  0.76233615142E-02  0.38939937375E-01 -0.64263372510E-01  0.75527985084E-01  0.51100000000E-03 0. -1.
</event>
<event>
 8    1  0.1207611E+005  0.1043930E+01  0.7957747E-01            NaN
         13   -1    0    0    0    0  0.00000000000E+00  0.00000000000E+00  0.74505805969E-08  0.10566000000E+00  0.10566000000E+00 0. -1.
     999900   -1    0    0    0    0 -0.00000000000E+00 -0.00000000000E+00 -0.74505805969E-08  0.93827000000E+00  0.93827000000E+00 0.  1.
     999902    2    1    2    0    0  0.11082092928E-01  0.50071038889E-02 -0.19536595742E-01  0.10209177762E+01  0.10206583871E+01 0.  0.
     999903    2    3    3    0    0  0.56129162164E-01  0.47897904769E-01 -0.11008671817E+00  0.13408736175E+00  0.20387322968E-01 0.  0.
         14    1    1    2    0    0 -0.11082092928E-01 -0.50071038889E-02  0.19536595742E-01  0.23012223843E-01  0.00000000000E+00 0. -1.
     999901    1    3    3    0    0 -0.45047069237E-01 -0.42890800880E-01  0.90550122424E-01  0.88683041441E+00  0.88000000000E+00 0. -1.
        -11    1    4    4    0    0  0.67528856812E-02  0.93454526824E-02 -0.31744943513E-01  0.33777825722E-01  0.51100000000E-03 0. -1.
         11    1    4    4    0    0  0.49376276483E-01  0.38552452086E-01 -0.78341774653E-01  0.10030953603E+00  0.51100000000E-03 0.  1.
</event>
<event>
 8    1  0.1207611E+005  0.1043930E+01  0.7957747E-01            NaN
         13   -1    0    0    0    0  0.00000000000E+00  0.00000000000E+00  0.74505805969E-08  0.10566000000E+00  0.10566000000E+00 0. -1.
     999900   -1    0    0    0    0 -0.00000000000E+00 -0.00000000000E+00 -0.74505805969E-08  0.93827000000E+00  0.93827000000E+00 0. -1.
     999902    2    1    2    0    0 -0.57037870530E-02 -0.10730505631E-01 -0.19961061721E-01  0.10205607697E+01  0.10202931754E+01 0.  0.
     999903    2    3    3    0    0  0.12193250091E+00 -0.10737827247E-01  0.37171521002E-01  0.12951915788E+00  0.20264613793E-01 0.  0.
         14    1    1    2    0    0  0.57037870530E-02  0.10730505631E-01  0.19961061721E-01  0.23369230258E-01  0.00000000000E+00 0. -1.
     999901    1    3    3    0    0 -0.12763628796E+00  0.73216162040E-05 -0.57132582723E-01  0.89104161186E+00  0.88000000000E+00 0.  1.
        -11    1    4    4    0    0  0.27717220442E-01 -0.44531527426E-02  0.17442279066E-01  0.33054033012E-01  0.51100000000E-03 0. -1.
         11    1    4    4    0    0  0.94215280470E-01 -0.62846745043E-02  0.19729241936E-01  0.96465124869E-01  0.51100000000E-03 0.  1.
</event>
<event>
 8    1  0.1207611E+005  0.1043930E+01  0.7957747E-01            NaN
         13   -1    0    0    0    0  0.00000000000E+00  0.00000000000E+00  0.74505805969E-08  0.10566000000E+00  0.10566000000E+00 0. -1.
     999900   -1    0    0    0    0 -0.00000000000E+00 -0.00000000000E+00 -0.74505805969E-08  0.93827000000E+00  0.93827000000E+00 0.  1.
     999902    2    1    2    0    0 -0.22587948760E-01  0.47663334752E-03  0.59637522823E-02  0.10205631656E+01  0.10202956268E+01 0.  0.
     999903    2    3    3    0    0  0.35377413901E-01 -0.57628968213E-01 -0.10860937694E+00  0.12934868741E+00  0.19037509929E-01 0.  0.
         14    1    1    2    0    0  0.22587948760E-01 -0.47663334752E-03 -0.59637522823E-02  0.23366834398E-01  0.00000000000E+00 0.  1.
     999901    1    3    3    0    0 -0.57965362661E-01  0.58105601561E-01  0.11457312922E+00  0.89121447819E+00  0.88000000000E+00 0. -1.
        -11    1    4    4    0    0  0.64467442279E-02 -0.73917667957E-02 -0.60431927108E-02  0.11531696607E-01  0.51100000000E-03 0.  1.
         11    1    4    4    0    0  0.28930669673E-01 -0.50237201417E-01 -0.10256618423E+00  0.11781699080E+00  0.51100000000E-03 0. -1.
</event>
<event>
 8    1  0.1207611E+005  0.1043930E+01  0.7957747E-01            NaN
         13   -1    0    0    0    0  0.00000000000E+00  0.00000000000E+00  0.74505805969E-08  0.10566000000E+00  0.10566000000E+00 0.  1.
     999900   -1    0    0    0    0 -0.00000000000E+00 -0.00000000000E+00 -0.74505805969E-08  0.93827000000E+00  0.93827000000E+00 0.  1.
     999902    2    1    2    0    0  0.41248451346E-02  0.14015237478E-01  0.20029861555E-01  0.10191381347E+01  0.10188365429E+01 0.  0.
     999903    2    3    3    0    0 -0.11749679369E+00 -0.33052277043E-01 -0.32469557666E-01  0.12797969599E+00  0.20653834124E-01 0.  0.
         14    1    1    2    0    0 -0.41248451346E-02 -0.14015237478E-01 -0.20029861555E-01  0.24791865255E-01  0.00000000000E+00 0. -1.
     999901    1    3    3    0    0  0.12162163883E+00  0.47067514521E-01  0.52499419221E-01  0.89115843876E+00  0.88000000000E+00 0. -1.
        -11    1    4    4    0    0 -0.70561831236E-01 -0.14668331278E-01 -0.99021883787E-02  0.72749202233E-01  0.51100000000E-03 0.  1.
         11    1    4    4    0    0 -0.46934962455E-01 -0.18383945765E-01 -0.22567369287E-01  0.55230493752E-01  0.51100000000E-03 0. -1.
</event>
<event>
 8    1  0.1207611E+005  0.1043930E+01  0.7957747E-01            NaN
         13   -1    0    0    0    0  0.00000000000E+00  0.00000000000E+00  0.74505805969E-08  0.10566000000E+00  0.10566000000E+00 0. -1.
     999900   -1    0    0    0    0 -0.00000000000E+00 -0.00000000000E+00 -0.74505805969E-08  0.93827000000E+00  0.93827000000E+00 0. -1.
     999902    2    1    2    0    0 -0.74237499872E-02 -0.21687597802E-01  0.64403483663E-02  0.10201194551E+01  0.10198415370E+01 0.  0.
     999903    2    3    3    0    0  0.92970045622E-01 -0.70612446238E-01  0.57236464292E-01  0.13160789050E+00  0.20373439862E-01 0.  0.
         14    1    1    2    0    0  0.74237499872E-02  0.21687597802E-01 -0.64403483663E-02  0.23810544920E-01  0.00000000000E+00 0.  1.
     999901    1    3    3    0    0 -0.10039379561E+00  0.48924848436E-01 -0.50796115925E-01  0.88851156458E+00  0.88000000000E+00 0.  1.
        -11    1    4    4    0    0  0.26466153845E-01 -0.14481780246E-01  0.64810015901E-02  0.30861687592E-01  0.51100000000E-03 0. -1.
         11    1    4    4    0    0  0.66503891777E-01 -0.56130665992E-01  0.50755462702E-01  0.10074620291E+00  0.51100000000E-03 0.  1.
</event>
<event>
 8    1  0.1207611E+005  0.1043930E+01  0.7957747E-01            NaN
         13   -1    0    0    0    0  0.00000000000E+00  0.00000000000E+00  0.74505805969E-08  0.10566000000E+00  0.10566000000E+00 0.  1.
     999900   -1    0    0    0    0 -0.00000000000E+00 -0.00000000000E+00 -0.74505805969E-08  0.93827000000E+00  0.93827000000E+00 0.  1.
     999902    2    1    2    0    0 -0.51604660385E-02  0.87480627151E-02  0.20713867114E-01  0.10208600346E+01  0.10205993274E+01 0.  0.
     999903    2    3    3    0    0 -0.85485155785E-01 -0.42437910435E-01  0.90461646349E-01  0.13297670202E+00  0.19768806704E-01 0.  0.
         14    1    1    2    0    0  0.51604660385E-02 -0.87480627151E-02 -0.20713867114E-01  0.23069965363E-01  0.00000000000E+00 0. -1.
     999901    1    3    3    0    0  0.80324689746E-01  0.51185973150E-01 -0.69747779235E-01  0.88788333262E+00  0.88000000000E+00 0.  1.
        -11    1    4    4    0    0 -0.51163915386E-01 -0.14537732514E-01  0.51280187027E-01  0.73885117627E-01  0.51100000000E-03 0. -1.
         11    1    4    4    0    0 -0.34321240399E-01 -0.27900177921E-01  0.39181459322E-01  0.59091584394E-01  0.51100000000E-03 0.  1.
</event>
<event>
 8    1  0.1207611E+005  0.1043930E+01  0.7957747E-01            NaN
         13   -1    0    0    0    0  0.00000000000E+00  0.00000000000E+00  0.74505805969E-08  0.10566000000E+00  0.10566000000E+00 0.  1.
     999900   -1    0    0    0    0 -0.00000000000E+00 -0.00000000000E+00 -0.74505805969E-08  0.93827000000E+00  0.93827000000E+00 0.  1.
     999902    2    1    2    0    0 -0.14111898166E-01 -0.14016564041E-01  0.94682189353E-02  0.10219014525E+01  0.10216639964E+01 0.  0.
     999903    2    3    3    0    0  0.52904326104E-01  0.10782444345E+00  0.46171511387E-01  0.13022688340E+00  0.20056280051E-01 0.  0.
         14    1    1    2    0    0  0.14111898166E-01  0.14016564041E-01 -0.94682189353E-02  0.22028547550E-01  0.00000000000E+00 0. -1.
     999901    1    3    3    0    0 -0.67016224270E-01 -0.12184100749E+00 -0.36703292452E-01  0.89167456905E+00  0.88000000000E+00 0.  1.
        -11    1    4    4    0    0  0.32919327766E-01  0.45643647738E-01  0.17914841051E-01  0.59061217142E-01  0.51100000000E-03 0. -1.
         11    1    4    4    0    0  0.19984998338E-01  0.62180795711E-01  0.28256670337E-01  0.71165666254E-01  0.51100000000E-03 0.  1.
</event>
<event>
 8    1  0.1207611E+005  0.1043930E+01  0.7957747E-01            NaN
         13   -1    0    0    0    0  0.00000000000E+00  0.00000000000E+00  0.74505805969E-08  0.10566000000E+00  0.10566000000E+00 0. -1.
     999900   -1    0    0    0    0 -0.00000000000E+00 -0.00000000000E+00 -0.74505805969E-08  0.93827000000E+00  0.93827000000E+00 0.  1.
     999902    2    1    2    0    0  0.40500172607E-03  0.20522625256E-01 -0.10495951498E-01  0.10208755607E+01  0.10206152082E+01 0.  0.
     999903    2    3    3    0    0  0.90073979196E-01  0.12067547569E-01 -0.94327858854E-01  0.13231503797E+00  0.18723698458E-01 0.  0.
         14    1    1    2    0    0 -0.40500172607E-03 -0.20522625256E-01  0.10495951498E-01  0.23054439304E-01  0.00000000000E+00 0. -1.
     999901    1    3    3    0    0 -0.89668977470E-01  0.84550776867E-02  0.83831907356E-01  0.88856052273E+00  0.88000000000E+00 0. -1.
        -11    1    4    4    0    0  0.80609421250E-01  0.90636781237E-02 -0.90817246436E-01  0.12177053185E+00  0.51100000000E-03 0. -1.
         11    1    4    4    0    0  0.94645579463E-02  0.30038694455E-02 -0.35106124183E-02  0.10544506120E-01  0.51100000000E-03 0.  1.
</event>
<event>
 8    1  0.1207611E+005  0.1043930E+01  0.7957747E-01            NaN
         13   -1    0    0    0    0  0.00000000000E+00  0.00000000000E+00  0.74505805969E-08  0.10566000000E+00  0.10566000000E+00 0.  1.
     999900   -1    0    0    0    0 -0.00000000000E+00 -0.00000000000E+00 -0.74505805969E-08  0.93827000000E+00  0.93827000000E+00 0.  1.
     999902    2    1    2    0    0 -0.12799177843E-01 -0.13266163564E-01  0.13687837509E-01  0.10209698836E+01  0.10207116813E+01 0.  0.
     999903    2    3    3    0    0  0.12710245853E+00 -0.82820793105E-02  0.11273643832E-01  0.12990134680E+00  0.22883117208E-01 0.  0.
         14    1    1    2    0    0  0.12799177843E-01  0.13266163564E-01 -0.13687837509E-01  0.22960116394E-01  0.00000000000E+00 0.  1.
     999901    1    3    3    0    0 -0.13990163637E+00 -0.49840842533E-02  0.24141936765E-02  0.89106853681E+00  0.88000000000E+00 0. -1.
        -11    1    4    4    0    0  0.33746645877E-01 -0.99692651488E-02  0.97448594215E-02  0.36516376623E-01  0.51100000000E-03 0.  1.
         11    1    4    4    0    0  0.93355812652E-01  0.16871858383E-02  0.15287844109E-02  0.93384970176E-01  0.51100000000E-03 0. -1.
</event>
<event>
 8    1  0.1207611E+005  0.1043930E+01  0.7957747E-01            NaN
         13   -1    0    0    0    0  0.00000000000E+00  0.00000000000E+00  0.74505805969E-08  0.10566000000E+00  0.10566000000E+00 0. -1.
     999900   -1    0    0    0    0 -0.00000000000E+00 -0.00000000000E+00 -0.74505805969E-08  0.93827000000E+00  0.93827000000E+00 0.  1.
     999902    2    1    2    0    0 -0.22192768624E-01  0.52335882914E-02 -0.38910494974E-02  0.10207988588E+01  0.10205367512E+01 0.  0.
     999903    2    3    3    0    0 -0.52777586441E-01  0.11925624011E+00  0.15140398659E-01  0.13271170532E+00  0.19381450472E-01 0.  0.
         14    1    1    2    0    0  0.22192768624E-01 -0.52335882914E-02  0.38910494974E-02  0.23131141170E-01  0.00000000000E+00 0. -1.
     999901    1    3    3    0    0  0.30584817817E-01 -0.11402265182E+00 -0.19031448156E-01  0.88808715351E+00  0.88000000000E+00 0. -1.
        -11    1    4    4    0    0 -0.17821010593E-01  0.45621595054E-01 -0.34615797684E-02  0.49103584485E-01  0.51100000000E-03 0. -1.
         11    1    4    4    0    0 -0.34956575848E-01  0.73634645055E-01  0.18601978427E-01  0.83608120836E-01  0.51100000000E-03 0.  1.
</event>
<event>
 8    1  0.1207611E+005  0.1043930E+01  0.7957747E-01            NaN
         13   -1    0    0    0    0  0.00000000000E+00  0.00000000000E+00  0.74505805969E-08  0.10566000000E+00  0.10566000000E+00 0. -1.
     999900   -1    0    0    0    0 -0.00000000000E+00 -0.00000000000E+00 -0.74505805969E-08  0.93827000000E+00  0.93827000000E+00 0.  1.
     999902    2    1    2    0    0  0.22778882045E-01  0.75396256728E-03  0.11365489424E-01  0.10184619754E+01  0.10181434943E+01 0.  0.
     999903    2    3    3    0    0 -0.57277910851E-01 -0.66972892531E-01 -0.88740280465E-01  0.12660033695E+00  0.19664194190E-01 0.  0.
         14    1    1    2    0    0 -0.22778882045E-01 -0.75396256728E-03 -0.11365489424E-01  0.25468024592E-01  0.00000000000E+00 0.  1.
     999901    1    3    3    0    0  0.80056792896E-01  0.67726855098E-01  0.10010576989E+00  0.89186163846E+00  0.88000000000E+00 0.  1.
        -11    1    4    4    0    0 -0.21910056601E-01 -0.23559664681E-01 -0.19794537012E-01  0.37778210607E-01  0.51100000000E-03 0.  1.
         11    1    4    4    0    0 -0.35367854249E-01 -0.43413227850E-01 -0.68945743453E-01  0.88822126341E-01  0.51100000000E-03 0. -1.
</event>
<event>
 7    1  0.1207611E+005  0.1043930E+01  0.7957747E-01            NaN
         13   -1    0    0    0    0  0.00000000000E+00  0.00000000000E+00  0.74505805969E-08  0.10566000000E+00  0.10566000000E+00 0. -1.
     999900   -1    0    0    0    0 -0.00000000000E+00 -0.00000000000E+00 -0.74505805969E-08  0.93827000000E+00  0.93827000000E+00 0.  1.
     999902    2    1    2    0    0 -0.61109917607E-02  0.76612731480E-02 -0.18994856484E-01  0.10225560930E+01  0.10223326853E+01 0.  0.
         14    1    1    2    0    0  0.61109917607E-02 -0.76612731480E-02  0.18994856484E-01  0.21373906976E-01  0.00000000000E+00 0. -1.
     999901    1    3    3    0    0  0.78787305753E-01 -0.32350926676E-01 -0.96251859587E-01  0.88933595591E+00  0.88000000000E+00 0.  1.
        -11    1    3    3    0    0 -0.61937671473E-01  0.53521564229E-01  0.59524980460E-01  0.10121421543E+00  0.51100000000E-03 0. -1.
         11    1    3    3    0    0 -0.22960626042E-01 -0.13509364405E-01  0.17732022643E-01  0.32005921684E-01  0.51100000000E-03 0.  1.
</event>
<event>
 8    1  0.1207611E+005  0.1043930E+01  0.7957747E-01            NaN
         13   -1    0    0    0    0  0.00000000000E+00  0.00000000000E+00  0.74505805969E-08  0.10566000000E+00  0.10566000000E+00 0.  1.
     999900   -1    0    0    0    0 -0.00000000000E+00 -0.00000000000E+00 -0.74505805969E-08  0.93827000000E+00  0.93827000000E+00 0. -1.
     999902    2    1    2    0    0 -0.28605028859E-01  0.51902875786E-02 -0.63106185302E-02  0.10141808711E+01  0.10137444593E+01 0.  0.
     999903    2    3    3    0    0  0.12350885462E-01 -0.12107054947E+00 -0.13537819966E-01  0.12419692841E+00  0.20760109272E-01 0.  0.
         14    1    1    2    0    0  0.28605028859E-01 -0.51902875786E-02  0.63106185302E-02  0.29749128851E-01  0.00000000000E+00 0. -1.
     999901    1    3    3    0    0 -0.40955914321E-01  0.12626083705E+00  0.72272014358E-02  0.88998394274E+00  0.88000000000E+00 0. -1.
        -11    1    4    4    0    0  0.34048824931E-02 -0.20252129591E-01  0.53635503712E-02  0.21231362918E-01  0.51100000000E-03 0. -1.
         11    1    4    4    0    0  0.89460029693E-02 -0.10081841988E+00 -0.18901370337E-01  0.10296556549E+00  0.51100000000E-03 0.  1.
</event>
<event>
 8    1  0.1207611E+005  0.1043930E+01  0.7957747E-01            NaN
         13   -1    0    0    0    0  0.00000000000E+00  0.00000000000E+00  0.74505805969E-08  0.10566000000E+00  0.10566000000E+00 0.  1.
     999900   -1    0    0    0    0 -0.00000000000E+00 -0.00000000000E+00 -0.74505805969E-08  0.93827000000E+00  0.93827000000E+00 0. -1.
     999902    2    1    2    0    0  0.76458232389E-02  0.17839525417E-01  0.13036008239E-01  0.10205495639E+01  0.10202817099E+01 0.  0.
     999903    2    3    3    0    0 -0.14297899172E-01 -0.10545018518E+00  0.71456161854E-01  0.12976631642E+00  0.20227267149E-01 0.  0.
         14    1    1    2    0    0 -0.76458232389E-02 -0.17839525417E-01 -0.13036008239E-01  0.23380436071E-01  0.00000000000E+00 0. -1.
     999901    1    3    3    0    0  0.21943722410E-01  0.12328971059E+00 -0.58420153615E-01  0.89078324751E+00  0.88000000000E+00 0. -1.
        -11    1    4    4    0    0 -0.10440733661E-01 -0.18240031858E-01  0.14018580951E-01  0.25268348075E-01  0.51100000000E-03 0. -1.
         11    1    4    4    0    0 -0.38571655102E-02 -0.87210153318E-01  0.57437580902E-01  0.10449796835E+00  0.51100000000E-03 0.  1.
</event>
<event>
 8    1  0.1207611E+005  0.1043930E+01  0.7957747E-01            NaN
         13   -1    0    0    0    0  0.00000000000E+00  0.00000000000E+00  0.74505805969E-08  0.10566000000E+00  0.10566000000E+00 0.  1.
     999900   -1    0    0    0    0 -0.00000000000E+00 -0.00000000000E+00 -0.74505805969E-08  0.93827000000E+00  0.93827000000E+00 0.  1.
     999902    2    1    2    0    0  0.56837072369E-02 -0.22952659134E-02  0.22715412704E-01  0.10204020858E+01  0.10201308023E+01 0.  0.
     999903    2    3    3    0    0  0.66634503780E-01 -0.93225290937E-01 -0.57991273003E-01  0.12995453641E+00  0.19851494263E-01 0.  0.
         14    1    1    2    0    0 -0.56837072369E-02  0.22952659134E-02 -0.22715412704E-01  0.23527914228E-01  0.00000000000E+00 0. -1.
     999901    1    3    3    0    0 -0.60950796543E-01  0.90930025024E-01  0.80706685707E-01  0.89044754936E+00  0.88000000000E+00 0. -1.
        -11    1    4    4    0    0  0.40405500378E-01 -0.55612792029E-01 -0.23775250506E-01  0.72738646919E-01  0.51100000000E-03 0.  1.
         11    1    4    4    0    0  0.26229003401E-01 -0.37612498908E-01 -0.34216022497E-01  0.57215889490E-01  0.51100000000E-03 0. -1.
</event>
<event>
 8    1  0.1207611E+005  0.1043930E+01  0.7957747E-01            NaN
         13   -1    0    0    0    0  0.00000000000E+00  0.00000000000E+00  0.74505805969E-08  0.10566000000E+00  0.10566000000E+00 0.  1.
     999900   -1    0    0    0    0 -0.00000000000E+00 -0.00000000000E+00 -0.74505805969E-08  0.93827000000E+00  0.93827000000E+00 0. -1.
     999902    2    1    2    0    0 -0.15669119196E-02 -0.16808688274E-01  0.16767933651E-01  0.10201360761E+01  0.10198585505E+01 0.  0.
     999903    2    3    3    0    0  0.62760614413E-02  0.11762592134E+00 -0.45132676898E-01  0.12774274240E+00  0.20149525909E-01 0.  0.
         14    1    1    2    0    0  0.15669119196E-02  0.16808688274E-01 -0.16767933651E-01  0.23793923875E-01  0.00000000000E+00 0. -1.
     999901    1    3    3    0    0 -0.78429733609E-02 -0.13443460961E+00  0.61900610548E-01  0.89239333373E+00  0.88000000000E+00 0.  1.
        -11    1    4    4    0    0  0.68115704693E-03  0.71313318611E-01 -0.17184129164E-01  0.73359449305E-01  0.51100000000E-03 0. -1.
         11    1    4    4    0    0  0.55949043943E-02  0.46312602725E-01 -0.27948547733E-01  0.54383293094E-01  0.51100000000E-03 0.  1.
</event>
<event>
 8    1  0.1207611E+005  0.1043930E+01  0.7957747E-01            NaN
         13   -1    0    0    0    0  0.00000000000E+00  0.00000000000E+00  0.74505805969E-08  0.10566000000E+00  0.10566000000E+00 0. -1.
     999900   -1    0    0    0    0 -0.00000000000E+00 -0.00000000000E+00 -0.74505805969E-08  0.93827000000E+00  0.93827000000E+00 0. -1.
     999902    2    1    2    0    0  0.94379231780E-02 -0.14172489083E-01  0.16227505413E-01  0.10204083977E+01  0.10201372616E+01 0.  0.
     999903    2    3    3    0    0  0.80820316289E-01  0.97867915329E-01 -0.19843236984E-01  0.12970665377E+00  0.17888812195E-01 0.  0.
         14    1    1    2    0    0 -0.94379231780E-02  0.14172489083E-01 -0.16227505413E-01  0.23521602255E-01  0.00000000000E+00 0.  1.
     999901    1    3    3    0    0 -0.71382393111E-01 -0.11204040441E+00  0.36070742397E-01  0.89070174398E+00  0.88000000000E+00 0.  1.
        -11    1    4    4    0    0  0.69321326147E-01  0.92140992969E-01 -0.17223242255E-01  0.11658606280E+00  0.51100000000E-03 0. -1.
         11    1    4    4    0    0  0.11498990142E-01  0.57269223600E-02 -0.26199947286E-02  0.13120590969E-01  0.51100000000E-03 0.  1.
</event>
<event>
 8    1  0.1207611E+005  0.1043930E+01  0.7957747E-01            NaN
         13   -1    0    0    0    0  0.00000000000E+00  0.00000000000E+00  0.74505805969E-08  0.10566000000E+00  0.10566000000E+00 0. -1.
     999900   -1    0    0    0    0 -0.00000000000E+00 -0.00000000000E+00 -0.74505805969E-08  0.93827000000E+00  0.93827000000E+00 0. -1.
     999902    2    1    2    0    0 -0.12981880116E-01 -0.19950338712E-01 -0.26922876622E-02  0.10199760100E+01  0.10196946932E+01 0.  0.
     999903    2    3    3    0    0  0.27406055391E-01  0.86445149749E-01  0.88189244083E-01  0.12800592183E+00  0.19604016550E-01 0.  0.
         14    1    1    2    0    0  0.12981880116E-01  0.19950338712E-01  0.26922876622E-02  0.23953990042E-01  0.00000000000E+00 0. -1.
     999901    1    3    3    0    0 -0.40387935507E-01 -0.10639548846E+00 -0.90881531745E-01  0.89197008813E+00  0.88000000000E+00 0. -1.
        -11    1    4    4    0    0  0.18991717070E-01  0.71654686611E-01  0.61358300293E-01  0.96229837194E-01  0.51100000000E-03 0.  1.
         11    1    4    4    0    0  0.84143383213E-02  0.14790463137E-01  0.26830943791E-01  0.31776084637E-01  0.51100000000E-03 0. -1.
</event>
<event>
 8    1  0.1207611E+005  0.1043930E+01  0.7957747E-01            NaN
         13   -1    0    0    0    0  0.00000000000E+00  0.00000000000E+00  0.74505805969E-08  0.10566000000E+00  0.10566000000E+00 0.  1.
     999900   -1    0    0    0    0 -0.00000000000E+00 -0.00000000000E+00 -0.74505805969E-08  0.93827000000E+00  0.93827000000E+00 0. -1.
     999902    2    1    2    0    0  0.92481999664E-02 -0.49492646151E-02  0.34606020466E-02  0.10328846304E+01  0.10328255707E+01 0.  0.
     999903    2    3    3    0    0 -0.10259823450E+00  0.91752045206E-01  0.18590919310E-01  0.14042191706E+00  0.20684704202E-01 0.  0.
         14    1    1    2    0    0 -0.92481999664E-02  0.49492646151E-02 -0.34606020466E-02  0.11045369590E-01  0.00000000000E+00 0.  1.
     999901    1    3    3    0    0  0.11184643446E+00 -0.96701309821E-01 -0.15130317263E-01  0.89246271335E+00  0.88000000000E+00 0. -1.
        -11    1    4    4    0    0 -0.72201401633E-01  0.51688667978E-01  0.14370753479E-01  0.89952990344E-01  0.51100000000E-03 0. -1.
         11    1    4    4    0    0 -0.30396832865E-01  0.40063377227E-01  0.42201658312E-02  0.50468926714E-01  0.51100000000E-03 0.  1.
</event>
<event>
 8    1  0.1207611E+005  0.1043930E+01  0.7957747E-01            NaN
         13   -1    0    0    0    0  0.00000000000E+00  0.00000000000E+00  0.74505805969E-08  0.10566000000E+00  0.10566000000E+00 0. -1.
     999900   -1    0    0    0    0 -0.00000000000E+00 -0.00000000000E+00 -0.74505805969E-08  0.93827000000E+00  0.93827000000E+00 0.  1.
     999902    2    1    2    0    0 -0.54912521188E-02 -0.21943595546E-02 -0.22206749536E-01  0.10209493823E+01  0.10206907134E+01 0.  0.
     999903    2    3    3    0    0  0.12180676991E+00  0.32626483703E-01  0.24508392257E-01  0.12988284047E+00  0.19170663122E-01 0.  0.
         14    1    1    2    0    0  0.54912521188E-02  0.21943595546E-02  0.22206749536E-01  0.22980617673E-01  0.00000000000E+00 0. -1.
     999901    1    3    3    0    0 -0.12729802203E+00 -0.34820843258E-01 -0.46715141793E-01  0.89106654185E+00  0.88000000000E+00 0. -1.
        -11    1    4    4    0    0  0.37095492020E-01  0.31848593552E-02  0.13595722385E-02  0.37260279320E-01  0.51100000000E-03 0. -1.
         11    1    4    4    0    0  0.84711277887E-01  0.29441624348E-01  0.23148820019E-01  0.92622561154E-01  0.51100000000E-03 0.  1.
</event>
<event>
 8    1  0.1207611E+005  0.1043930E+01  0.7957747E-01            NaN
         13   -1    0    0    0    0  0.00000000000E+00  0.00000000000E+00  0.74505805969E-08  0.10566000000E+00  0.10566000000E+00 0. -1.
     999900   -1    0    0    0    0 -0.00000000000E+00 -0.00000000000E+00 -0.74505805969E-08  0.93827000000E+00  0.93827000000E+00 0. -1.
     999902    2    1    2    0    0 -0.19660607700E-01  0.12733336862E-01 -0.54652031838E-02  0.10198770208E+01  0.10195933463E+01 0.  0.
     999903    2    3    3    0    0 -0.28249278669E-01  0.11284636595E+00 -0.60103898314E-01  0.13247532434E+00  0.20122348607E-01 0.  0.
         14    1    1    2    0    0  0.19660607700E-01 -0.12733336862E-01  0.54652031838E-02  0.24052979204E-01  0.00000000000E+00 0. -1.
     999901    1    3    3    0    0  0.85886709688E-02 -0.10011302909E+00  0.54638695130E-01  0.88740169645E+00  0.88000000000E+00 0.  1.
        -11    1    4    4    0    0 -0.15673110043E-01  0.93905677292E-01 -0.50724365026E-01  0.10787559935E+00  0.51100000000E-03 0.  1.
         11    1    4    4    0    0 -0.12576168625E-01  0.18940688659E-01 -0.93795332877E-02  0.24599724996E-01  0.51100000000E-03 0. -1.
</event>
<event>
 8    1  0.1207611E+005  0.1043930E+01  0.7957747E-01            NaN
         13   -1    0    0    0    0  0.00000000000E+00  0.00000000000E+00  0.74505805969E-08  0.10566000000E+00  0.10566000000E+00 0.  1.
     999900   -1    0    0    0    0 -0.00000000000E+00 -0.00000000000E+00 -0.74505805969E-08  0.93827000000E+00  0.93827000000E+00 0.  1.
     999902    2    1    2    0    0  0.57249960493E-02 -0.48413780442E-02 -0.22219726690E-01  0.10204793971E+01  0.10202099143E+01 0.  0.
     999903    2    3    3    0    0  0.67668082254E-01 -0.95214720769E-01  0.54119419581E-01  0.13040526973E+00  0.20780047885E-01 0.  0.
         14    1    1    2    0    0 -0.57249960493E-02  0.48413780442E-02  0.22219726690E-01  0.23450602877E-01  0.00000000000E+00 0.  1.
     999901    1    3    3    0    0 -0.61943086204E-01  0.90373342725E-01 -0.76339146271E-01  0.89007412739E+00  0.88000000000E+00 0. -1.
        -11    1    4    4    0    0  0.38568806636E-01 -0.67133857732E-01  0.28360956180E-01  0.82456732022E-01  0.51100000000E-03 0. -1.
         11    1    4    4    0    0  0.29099275618E-01 -0.28080863037E-01  0.25758463401E-01  0.47948537706E-01  0.51100000000E-03 0.  1.
</event>
<event>
 8    1  0.1207611E+005  0.1043930E+01  0.7957747E-01            NaN
         13   -1    0    0    0    0  0.00000000000E+00  0.00000000000E+00  0.74505805969E-08  0.10566000000E+00  0.10566000000E+00 0. -1.
     999900   -1    0    0    0    0 -0.00000000000E+00 -0.00000000000E+00 -0.74505805969E-08  0.93827000000E+00  0.93827000000E+00 0.  1.
     999902    2    1    2    0    0 -0.60898211343E-02  0.13341313233E-01 -0.18576660067E-01  0.10202621133E+01  0.10199875544E+01 0.  0.
     999903    2    3    3    0    0  0.10258673947E+00  0.36863437724E-01 -0.73191449070E-01  0.13158519772E+00  0.86442979038E-02 0.  0.
         14    1    1    2    0    0  0.60898211343E-02 -0.13341313233E-01  0.18576660067E-01  0.23667886671E-01  0.00000000000E+00 0. -1.
     999901    1    3    3    0    0 -0.10867656060E+00 -0.23522124491E-01  0.54614789003E-01  0.88867691561E+00  0.88000000000E+00 0. -1.
        -11    1    4    4    0    0  0.64287728823E-01  0.21075335185E-01 -0.40896203105E-01  0.79055944620E-01  0.51100000000E-03 0.  1.
         11    1    4    4    0    0  0.38299010643E-01  0.15788102539E-01 -0.32295245964E-01  0.52529253097E-01  0.51100000000E-03 0. -1.
</event>
<event>
 8    1  0.1207611E+005  0.1043930E+01  0.7957747E-01            NaN
         13   -1    0    0    0    0  0.00000000000E+00  0.00000000000E+00  0.74505805969E-08  0.10566000000E+00  0.10566000000E+00 0.  1.
     999900   -1    0    0    0    0 -0.00000000000E+00 -0.00000000000E+00 -0.74505805969E-08  0.93827000000E+00  0.93827000000E+00 0.  1.
     999902    2    1    2    0    0 -0.75716309089E-02  0.16190995283E-01  0.16181365216E-01  0.10198195354E+01  0.10195344871E+01 0.  0.
     999903    2    3    3    0    0  0.37413299461E-01 -0.10833217219E+00 -0.52126096627E-01  0.12729750624E+00  0.18759281345E-01 0.  0.
         14    1    1    2    0    0  0.75716309089E-02 -0.16190995283E-01 -0.16181365216E-01  0.24110464598E-01  0.00000000000E+00 0.  1.
     999901    1    3    3    0    0 -0.44984930370E-01  0.12452316748E+00  0.68307461843E-01  0.89252202916E+00  0.88000000000E+00 0. -1.
        -11    1    4    4    0    0  0.18206094566E-01 -0.78494177000E-01 -0.34183010544E-01  0.87530206404E-01  0.51100000000E-03 0.  1.
         11    1    4    4    0    0  0.19207204895E-01 -0.29837995192E-01 -0.17943086083E-01  0.39767299835E-01  0.51100000000E-03 0. -1.
</event>
<event>
 8    1  0.1207611E+005  0.1043930E+01  0.7957747E-01            NaN
         13   -1    0    0    0    0  0.00000000000E+00  0.00000000000E+00  0.74505805969E-08  0.10566000000E+00  0.10566000000E+00 0. -1.
     999900   -1    0    0    0    0 -0.00000000000E+00 -0.00000000000E+00 -0.74505805969E-08  0.93827000000E+00  0.93827000000E+00 0. -1.
     999902    2    1    2    0    0  0.10933069912E-01  0.20379976079E-01 -0.27903753792E-02  0.10206349010E+01  0.10203690212E+01 0.  0.
     999903    2    3    3    0    0 -0.36021615536E-01  0.12149160153E+00 -0.35031140757E-01  0.13301574267E+00  0.20204973319E-01 0.  0.
         14    1    1    2    0    0 -0.10933069912E-01 -0.20379976079E-01  0.27903753792E-02  0.23295099000E-01  0.00000000000E+00 0. -1.
     999901    1    3    3    0    0  0.46954685448E-01 -0.10111162545E+00  0.32240765378E-01  0.88761915833E+00  0.88000000000E+00 0.  1.
        -11    1    4    4    0    0 -0.27474808916E-01  0.59874114254E-01 -0.14024180041E-01  0.67355129200E-01  0.51100000000E-03 0.  1.
         11    1    4    4    0    0 -0.85468066200E-02  0.61617487274E-01 -0.21006960717E-01  0.65660613468E-01  0.51100000000E-03 0. -1.
</event>
<event>
 8    1  0.1207611E+005  0.1043930E+01  0.7957747E-01            NaN
         13   -1    0    0    0    0  0.00000000000E+00  0.00000000000E+00  0.74505805969E-08  0.10566000000E+00  0.10566000000E+00 0. -1.
     999900   -1    0    0    0    0 -0.00000000000E+00 -0.00000000000E+00 -0.74505805969E-08  0.93827000000E+00  0.93827000000E+00 0.  1.
     999902    2    1    2    0    0  0.14901871547E-01  0.89434563257E-02  0.31779173832E-01  0.10077089139E+01  0.10070577382E+01 0.  0.
     999903    2    3    3    0    0 -0.11454654687E+00  0.14550395566E-01  0.11574830214E-01  0.11799179804E+00  0.21341562734E-01 0.  0.
         14    1    1    2    0    0 -0.14901871547E-01 -0.89434563257E-02 -0.31779173832E-01  0.36221086071E-01  0.00000000000E+00 0.  1.
     999901    1    3    3    0    0  0.12944841842E+00 -0.56069392402E-02  0.20204343619E-01  0.88971711589E+00  0.88000000000E+00 0.  1.
        -11    1    4    4    0    0 -0.10425646368E+00  0.76144783235E-02  0.13570552302E-01  0.10541257757E+00  0.51100000000E-03 0.  1.
         11    1    4    4    0    0 -0.10290083192E-01  0.69359172424E-02 -0.19957220885E-02  0.12579220474E-01  0.51100000000E-03 0. -1.
</event>
<event>
 8    1  0.1207611E+005  0.1043930E+01  0.7957747E-01            NaN
         13   -1    0    0    0    0  0.00000000000E+00  0.00000000000E+00  0.74505805969E-08  0.10566000000E+00  0.10566000000E+00 0. -1.
     999900   -1    0    0    0    0 -0.00000000000E+00 -0.00000000000E+00 -0.74505805969E-08  0.93827000000E+00  0.93827000000E+00 0.  1.
     999902    2    1    2    0    0 -0.16738831092E-01 -0.12437647381E-01  0.11896805087E-01  0.10199213035E+01  0.10196386849E+01 0.  0.
     999903    2    3    3    0    0  0.91983987675E-01  0.18588471850E-01 -0.82573844269E-01  0.12767247326E+00  0.25985291909E-01 0.  0.
         14    1    1    2    0    0  0.16738831092E-01  0.12437647381E-01 -0.11896805087E-01  0.24008696549E-01  0.00000000000E+00 0. -1.
     999901    1    3    3    0    0 -0.10872281877E+00 -0.31026119231E-01  0.94470649356E-01  0.89224883020E+00  0.88000000000E+00 0. -1.
        -11    1    4    4    0    0  0.48115252138E-01  0.13475871907E-01 -0.59957548975E-01  0.78050274900E-01  0.51100000000E-03 0. -1.
         11    1    4    4    0    0  0.43868735538E-01  0.51125999434E-02 -0.22616295294E-01  0.49622198356E-01  0.51100000000E-03 0.  1.
</event>
<event>
 8    1  0.1207611E+005  0.1043930E+01  0.7957747E-01            NaN
         13   -1    0    0    0    0  0.00000000000E+00  0.00000000000E+00  0.74505805969E-08  0.10566000000E+00  0.10566000000E+00 0.  1.
     999900   -1    0    0    0    0 -0.00000000000E+00 -0.00000000000E+00 -0.74505805969E-08  0.93827000000E+00  0.93827000000E+00 0. -1.
     999902    2    1    2    0    0  0.19615767113E-01 -0.10623539984E-01 -0.87230530702E-02  0.10199773472E+01  0.10196960622E+01 0.  0.
     999903    2    3    3    0    0 -0.68864098173E-01  0.93168390896E-01 -0.51638886473E-01  0.12843754426E+00  0.20174615222E-01 0.  0.
         14    1    1    2    0    0 -0.19615767113E-01  0.10623539984E-01  0.87230530702E-02  0.23952652799E-01  0.00000000000E+00 0.  1.
     999901    1    3    3    0    0  0.88479865286E-01 -0.10379193088E+00  0.42915833403E-01  0.89153980294E+00  0.88000000000E+00 0.  1.
        -11    1    4    4    0    0 -0.38404224823E-01  0.66991816546E-01 -0.37607113609E-01  0.85891466884E-01  0.51100000000E-03 0.  1.
         11    1    4    4    0    0 -0.30459873350E-01  0.26176574350E-01 -0.14031772864E-01  0.42546077374E-01  0.51100000000E-03 0. -1.
</event>
<event>
 8    1  0.1207611E+005  0.1043930E+01  0.7957747E-01            NaN
         13   -1    0    0    0    0  0.00000000000E+00  0.00000000000E+00  0.74505805969E-08  0.10566000000E+00  0.10566000000E+00 0. -1.
     999900   -1    0    0    0    0 -0.00000000000E+00 -0.00000000000E+00 -0.74505805969E-08  0.93827000000E+00  0.93827000000E+00 0. -1.
     999902    2    1    2    0    0  0.42960568817E-03 -0.55003512390E-02  0.23008924979E-01  0.10202688704E+01  0.10199944700E+01 0.  0.
     999903    2    3    3    0    0  0.10837848190E+00  0.46166514270E-01 -0.49166655186E-01  0.12924039767E+00  0.20210839375E-01 0.  0.
         14    1    1    2    0    0 -0.42960568817E-03  0.55003512390E-02 -0.23008924979E-01  0.23661129590E-01  0.00000000000E+00 0.  1.
     999901    1    3    3    0    0 -0.10794887621E+00 -0.51666865509E-01  0.72175580165E-01  0.89102847274E+00  0.88000000000E+00 0.  1.
        -11    1    4    4    0    0  0.67109069533E-01  0.27195611826E-01 -0.19516038774E-01  0.74995769258E-01  0.51100000000E-03 0. -1.
         11    1    4    4    0    0  0.41269412367E-01  0.18970902443E-01 -0.29650616412E-01  0.54244628409E-01  0.51100000000E-03 0.  1.
</event>
<event>
 8    1  0.1207611E+005  0.1043930E+01  0.7957747E-01            NaN
         13   -1    0    0    0    0  0.00000000000E+00  0.00000000000E+00  0.74505805969E-08  0.10566000000E+00  0.10566000000E+00 0. -1.
     999900   -1    0    0    0    0 -0.00000000000E+00 -0.00000000000E+00 -0.74505805969E-08  0.93827000000E+00  0.93827000000E+00 0. -1.
     999902    2    1    2    0    0 -0.18981025255E-01 -0.92691412232E-02 -0.69599106434E-02  0.10216895716E+01  0.10214474750E+01 0.  0.
     999903    2    3    3    0    0 -0.48029075768E-01  0.85599827252E-01  0.84964826225E-01  0.13135588828E+00  0.20030605256E-01 0.  0.
         14    1    1    2    0    0  0.18981025255E-01  0.92691412232E-02  0.69599106434E-02  0.22240428388E-01  0.00000000000E+00 0. -1.
     999901    1    3    3    0    0  0.29048050514E-01 -0.94868968475E-01 -0.91924736868E-01  0.89033368333E+00  0.88000000000E+00 0. -1.
        -11    1    4    4    0    0 -0.44701033658E-01  0.64503286604E-01  0.62227835603E-01  0.10015698197E+00  0.51100000000E-03 0. -1.
         11    1    4    4    0    0 -0.33280421101E-02  0.21096540648E-01  0.22736990622E-01  0.31198906313E-01  0.51100000000E-03 0.  1.
</event>
<event>
 8    1  0.1207611E+005  0.1043930E+01  0.7957747E-01            NaN
         13   -1    0    0    0    0  0.00000000000E+00  0.00000000000E+00  0.74505805969E-08  0.10566000000E+00  0.10566000000E+00 0. -1.
     999900   -1    0    0    0    0 -0.00000000000E+00 -0.00000000000E+00 -0.74505805969E-08  0.93827000000E+00  0.93827000000E+00 0. -1.
     999902    2    1    2    0    0 -0.93756835941E-02 -0.22727336736E-01  0.33890777568E-03  0.10193423987E+01  0.10190458163E+01 0.  0.
     999903    2    3    3    0    0  0.85899266302E-01 -0.45321904386E-01 -0.83877851917E-01  0.12991545222E+00  0.20242818818E-01 0.  0.
         14    1    1    2    0    0  0.93756835941E-02  0.22727336736E-01 -0.33890777568E-03  0.24587601275E-01  0.00000000000E+00 0. -1.
     999901    1    3    3    0    0 -0.95274949896E-01  0.22594567650E-01  0.84216759693E-01  0.88942694651E+00  0.88000000000E+00 0.  1.
        -11    1    4    4    0    0  0.74188581941E-01 -0.43077365826E-01 -0.65215928234E-01  0.10776355392E+00  0.51100000000E-03 0. -1.
         11    1    4    4    0    0  0.11710684360E-01 -0.22445385597E-02 -0.18661923683E-01  0.22151898295E-01  0.51100000000E-03 0.  1.
</event>
<event>
 8    1  0.1207611E+005  0.1043930E+01  0.7957747E-01            NaN
         13   -1    0    0    0    0  0.00000000000E+00  0.00000000000E+00  0.74505805969E-08  0.10566000000E+00  0.10566000000E+00 0.  1.
     999900   -1    0    0    0    0 -0.00000000000E+00 -0.00000000000E+00 -0.74505805969E-08  0.93827000000E+00  0.93827000000E+00 0.  1.
     999902    2    1    2    0    0 -0.15775816091E-01 -0.55519160192E-02  0.17164913775E-01  0.10199647249E+01  0.10196831398E+01 0.  0.
     999903    2    3    3    0    0  0.41248904307E-01  0.11716671370E+00 -0.26643422838E-01  0.12854403233E+00  0.19600646978E-01 0.  0.
         14    1    1    2    0    0  0.15775816091E-01  0.55519160192E-02 -0.17164913775E-01  0.23965275081E-01  0.00000000000E+00 0. -1.
     999901    1    3    3    0    0 -0.57024720398E-01 -0.12271862972E+00  0.43808336612E-01  0.89142069259E+00  0.88000000000E+00 0.  1.
        -11    1    4    4    0    0  0.22352903234E-01  0.89358984866E-01 -0.18652128902E-01  0.93983208569E-01  0.51100000000E-03 0.  1.
         11    1    4    4    0    0  0.18896001073E-01  0.27807728833E-01 -0.79912939355E-02  0.34560823763E-01  0.51100000000E-03 0. -1.
</event>
<event>
 8    1  0.1207611E+005  0.1043930E+01  0.7957747E-01            NaN
         13   -1    0    0    0    0  0.00000000000E+00  0.00000000000E+00  0.74505805969E-08  0.10566000000E+00  0.10566000000E+00 0. -1.
     999900   -1    0    0    0    0 -0.00000000000E+00 -0.00000000000E+00 -0.74505805969E-08  0.93827000000E+00  0.93827000000E+00 0.  1.
     999902    2    1    2    0    0  0.15208941987E-01  0.16394378626E-01 -0.90158990351E-02  0.10198183015E+01  0.10195332237E+01 0.  0.
     999903    2    3    3    0    0  0.73811938635E-01 -0.73395955429E-01 -0.76591983477E-01  0.13073835998E+00  0.19774182133E-01 0.  0.
         14    1    1    2    0    0 -0.15208941987E-01 -0.16394378626E-01  0.90158990351E-02  0.24111698453E-01  0.00000000000E+00 0. -1.
     999901    1    3    3    0    0 -0.58602996649E-01  0.89790334056E-01  0.67576084442E-01  0.88907994157E+00  0.88000000000E+00 0.  1.
        -11    1    4    4    0    0  0.24864585547E-01 -0.19080476011E-01 -0.13372507624E-01  0.34079279048E-01  0.51100000000E-03 0. -1.
         11    1    4    4    0    0  0.48947353088E-01 -0.54315479418E-01 -0.63219475853E-01  0.96659080933E-01  0.51100000000E-03 0.  1.
</event>
<event>
 7    1  0.1949471E+005  0.1043930E+01  0.7957747E-01            NaN
         13   -1    0    0    0    0  0.00000000000E+00  0.00000000000E+00  0.74505805969E-08  0.10566000000E+00  0.10566000000E+00 0. -1.
     999900   -1    0    0    0    0 -0.00000000000E+00 -0.00000000000E+00 -0.74505805969E-08  0.93827000000E+00  0.93827000000E+00 0. -1.
     999903    2    1    2    0    0 -0.10931734036E-01 -0.59161153851E-01 -0.10170592603E+00  0.11984888779E+00  0.20002889311E-01 0.  0.
         14    1    1    2    0    0  0.25606213100E-01  0.35251875015E-03  0.29471912739E-01  0.39043514945E-01  0.00000000000E+00 0. -1.
     999901    1    1    2    0    0 -0.14674479064E-01  0.58808635101E-01  0.72234013291E-01  0.88503759727E+00  0.88000000000E+00 0. -1.
        -11    1    3    3    0    0  0.35234912677E-02 -0.19762451466E-01 -0.45214911250E-01  0.49473415073E-01  0.51100000000E-03 0. -1.
         11    1    3    3    0    0 -0.14455225304E-01 -0.39398702385E-01 -0.56491014780E-01  0.70375472716E-01  0.51100000000E-03 0.  1.
</event>
<event>
 8    1  0.1207611E+005  0.1043930E+01  0.7957747E-01            NaN
         13   -1    0    0    0    0  0.00000000000E+00  0.00000000000E+00  0.74505805969E-08  0.10566000000E+00  0.10566000000E+00 0.  1.
     999900   -1    0    0    0    0 -0.00000000000E+00 -0.00000000000E+00 -0.74505805969E-08  0.93827000000E+00  0.93827000000E+00 0.  1.
     999902    2    1    2    0    0 -0.14695762856E-01  0.17722092177E-01 -0.48592380239E-02  0.10204002276E+01  0.10201289008E+01 0.  0.
     999903    2    3    3    0    0 -0.26452972202E-01 -0.87270989553E-01 -0.91421595532E-01  0.12986397287E+00  0.13811515596E-01 0.  0.
         14    1    1    2    0    0  0.14695762856E-01 -0.17722092177E-01  0.48592380239E-02  0.23529772443E-01  0.00000000000E+00 0.  1.
     999901    1    3    3    0    0  0.11757209346E-01  0.10499308173E+00  0.86562357508E-01  0.89053625469E+00  0.88000000000E+00 0. -1.
        -11    1    4    4    0    0 -0.17320498416E-01 -0.44238239227E-01 -0.55570892679E-01  0.73112288361E-01  0.51100000000E-03 0.  1.
         11    1    4    4    0    0 -0.91324737857E-02 -0.43032750326E-01 -0.35850702853E-01  0.56751684505E-01  0.51100000000E-03 0. -1.
</event>
<event>
 8    1  0.1207611E+005  0.1043930E+01  0.7957747E-01            NaN
         13   -1    0    0    0    0  0.00000000000E+00  0.00000000000E+00  0.74505805969E-08  0.10566000000E+00  0.10566000000E+00 0.  1.
     999900   -1    0    0    0    0 -0.00000000000E+00 -0.00000000000E+00 -0.74505805969E-08  0.93827000000E+00  0.93827000000E+00 0. -1.
     999902    2    1    2    0    0 -0.94889118555E-02  0.22783892935E-01 -0.41285308139E-02  0.10189062115E+01  0.10185988797E+01 0.  0.
     999903    2    3    3    0    0  0.58921053247E-01  0.54813359294E-01  0.99556251535E-01  0.12960516901E+00  0.20244943595E-01 0.  0.
         14    1    1    2    0    0  0.94889118555E-02 -0.22783892935E-01  0.41285308139E-02  0.25023788525E-01  0.00000000000E+00 0.  1.
     999901    1    3    3    0    0 -0.68409965102E-01 -0.32029466359E-01 -0.10368478235E+00  0.88930104247E+00  0.88000000000E+00 0. -1.
        -11    1    4    4    0    0  0.41532541227E-01  0.27946889848E-01  0.51132401164E-01  0.71559515110E-01  0.51100000000E-03 0.  1.
         11    1    4    4    0    0  0.17388512020E-01  0.26866469446E-01  0.48423850371E-01  0.58045653899E-01  0.51100000000E-03 0. -1.
</event>
<event>
 8    1  0.1207611E+005  0.1043930E+01  0.7957747E-01            NaN
         13   -1    0    0    0    0  0.00000000000E+00  0.00000000000E+00  0.74505805969E-08  0.10566000000E+00  0.10566000000E+00 0.  1.
     999900   -1    0    0    0    0 -0.00000000000E+00 -0.00000000000E+00 -0.74505805969E-08  0.93827000000E+00  0.93827000000E+00 0.  1.
     999902    2    1    2    0    0 -0.95793677998E-02  0.21309542918E-01 -0.26659222722E-02  0.10204147273E+01  0.10201437388E+01 0.  0.
     999903    2    3    3    0    0 -0.12100840428E+00  0.50140388786E-01 -0.75904130672E-02  0.13290591135E+00  0.21196094191E-01 0.  0.
         14    1    1    2    0    0  0.95793677998E-02 -0.21309542918E-01  0.26659222722E-02  0.23515272662E-01  0.00000000000E+00 0. -1.
     999901    1    3    3    0    0  0.11142903648E+00 -0.28830845868E-01  0.49244907950E-02  0.88750881599E+00  0.88000000000E+00 0.  1.
        -11    1    4    4    0    0 -0.23652956573E-01  0.45657326689E-02  0.52057747241E-02  0.24650952942E-01  0.51100000000E-03 0. -1.
         11    1    4    4    0    0 -0.97355447702E-01  0.45574656117E-01 -0.12796187791E-01  0.10825495841E+00  0.51100000000E-03 0.  1.
</event>
<event>
 8    1  0.1207611E+005  0.1043930E+01  0.7957747E-01            NaN
         13   -1    0    0    0    0  0.00000000000E+00  0.00000000000E+00  0.74505805969E-08  0.10566000000E+00  0.10566000000E+00 0.  1.
     999900   -1    0    0    0    0 -0.00000000000E+00 -0.00000000000E+00 -0.74505805969E-08  0.93827000000E+00  0.93827000000E+00 0. -1.
     999902    2    1    2    0    0 -0.20380250224E-01  0.12142269186E-01  0.55109775457E-02  0.10195751201E+01  0.10192841927E+01 0.  0.
     999903    2    3    3    0    0  0.20034273852E-02  0.94571411825E-01 -0.86687844533E-01  0.13064530548E+00  0.24609912585E-01 0.  0.
         14    1    1    2    0    0  0.20380250224E-01 -0.12142269186E-01 -0.55109775457E-02  0.24354879874E-01  0.00000000000E+00 0. -1.
     999901    1    3    3    0    0 -0.22383677610E-01 -0.82429142640E-01  0.92198822078E-01  0.88892981465E+00  0.88000000000E+00 0.  1.
        -11    1    4    4    0    0  0.10421427003E-01  0.26644906814E-01 -0.32819036345E-01  0.43542019562E-01  0.51100000000E-03 0. -1.
         11    1    4    4    0    0 -0.84179996173E-02  0.67926505011E-01 -0.53868808188E-01  0.87103285915E-01  0.51100000000E-03 0.  1.
</event>
<event>
 8    1  0.1207611E+005  0.1043930E+01  0.7957747E-01            NaN
         13   -1    0    0    0    0  0.00000000000E+00  0.00000000000E+00  0.74505805969E-08  0.10566000000E+00  0.10566000000E+00 0. -1.
     999900   -1    0    0    0    0 -0.00000000000E+00 -0.00000000000E+00 -0.74505805969E-08  0.93827000000E+00  0.93827000000E+00 0.  1.
     999902    2    1    2    0    0 -0.11362190342E-01 -0.39853076451E-02  0.22101668119E-01  0.10187612539E+01  0.10184503064E+01 0.  0.
     999903    2    3    3    0    0  0.10491327242E+00  0.12475594371E-01  0.72196020282E-01  0.12954790006E+00  0.20197967233E-01 0.  0.
         14    1    1    2    0    0  0.11362190342E-01  0.39853076451E-02 -0.22101668119E-01  0.25168746096E-01  0.00000000000E+00 0.  1.
     999901    1    3    3    0    0 -0.11627546276E+00 -0.16460902016E-01 -0.50094352163E-01  0.88921335384E+00  0.88000000000E+00 0. -1.
        -11    1    4    4    0    0  0.86518637198E-01  0.40477862961E-02  0.64076921518E-01  0.10774029956E+00  0.51100000000E-03 0. -1.
         11    1    4    4    0    0  0.18394635223E-01  0.84278080751E-02  0.81190987644E-02  0.21807600502E-01  0.51100000000E-03 0.  1.
</event>
<event>
 8    1  0.1207611E+005  0.1043930E+01  0.7957747E-01            NaN
         13   -1    0    0    0    0  0.00000000000E+00  0.00000000000E+00  0.74505805969E-08  0.10566000000E+00  0.10566000000E+00 0. -1.
     999900   -1    0    0    0    0 -0.00000000000E+00 -0.00000000000E+00 -0.74505805969E-08  0.93827000000E+00  0.93827000000E+00 0. -1.
     999902    2    1    2    0    0 -0.17986625443E-01  0.13908658458E-01  0.59725730384E-02  0.10204216801E+01  0.10201508536E+01 0.  0.
     999903    2    3    3    0    0 -0.13710943295E-01 -0.99072760783E-01 -0.79040234201E-01  0.12912472627E+00  0.20553209378E-01 0.  0.
         14    1    1    2    0    0  0.17986625443E-01 -0.13908658458E-01 -0.59725730384E-02  0.23508319881E-01  0.00000000000E+00 0.  1.
     999901    1    3    3    0    0 -0.42756821483E-02  0.11298141924E+00  0.85012807240E-01  0.89129695385E+00  0.88000000000E+00 0.  1.
        -11    1    4    4    0    0 -0.64552597762E-02 -0.58523891702E-01 -0.58844803919E-01  0.83244749672E-01  0.51100000000E-03 0. -1.
         11    1    4    4    0    0 -0.72556835187E-02 -0.40548869080E-01 -0.20195430283E-01  0.45879976595E-01  0.51100000000E-03 0.  1.
</event>
<event>
 8    1  0.1207611E+005  0.1043930E+01  0.7957747E-01            NaN
         13   -1    0    0    0    0  0.00000000000E+00  0.00000000000E+00  0.74505805969E-08  0.10566000000E+00  0.10566000000E+00 0.  1.
     999900   -1    0    0    0    0 -0.00000000000E+00 -0.00000000000E+00 -0.74505805969E-08  0.93827000000E+00  0.93827000000E+00 0. -1.
     999902    2    1    2    0    0 -0.10039047400E-01  0.16898976437E-01 -0.30444410012E-02  0.10240396381E+01  0.10238464503E+01 0.  0.
     999903    2    3    3    0    0  0.19389805334E-01  0.11544941925E+00  0.64768095951E-01  0.13545830395E+00  0.21201719261E-01 0.  0.
         14    1    1    2    0    0  0.10039047400E-01 -0.16898976437E-01  0.30444410012E-02  0.19890361946E-01  0.00000000000E+00 0. -1.
     999901    1    3    3    0    0 -0.29428852734E-01 -0.98550442813E-01 -0.67812536952E-01  0.88858133410E+00  0.88000000000E+00 0. -1.
        -11    1    4    4    0    0  0.18885637654E-01  0.60183435703E-01  0.27602096097E-01  0.68853831211E-01  0.51100000000E-03 0.  1.
         11    1    4    4    0    0  0.50416768018E-03  0.55265983547E-01  0.37165999854E-01  0.66604472738E-01  0.51100000000E-03 0. -1.
</event>
<event>
 8    1  0.1207611E+005  0.1043930E+01  0.7957747E-01            NaN
         13   -1    0    0    0    0  0.00000000000E+00  0.00000000000E+00  0.74505805969E-08  0.10566000000E+00  0.10566000000E+00 0. -1.
     999900   -1    0    0    0    0 -0.00000000000E+00 -0.00000000000E+00 -0.74505805969E-08  0.93827000000E+00  0.93827000000E+00 0.  1.
     999902    2    1    2    0    0  0.93658037558E-02 -0.95906165733E-02 -0.20147431434E-01  0.10197304711E+01  0.10194432875E+01 0.  0.
     999903    2    3    3    0    0  0.91174267268E-01 -0.48127231468E-01  0.76528127224E-01  0.12982943219E+00  0.19239277152E-01 0.  0.
         14    1    1    2    0    0 -0.93658037558E-02  0.95906165733E-02  0.20147431434E-01  0.24199528914E-01  0.00000000000E+00 0. -1.
     999901    1    3    3    0    0 -0.81808463512E-01  0.38536614895E-01 -0.96675558658E-01  0.88990103890E+00  0.88000000000E+00 0.  1.
        -11    1    4    4    0    0  0.39062684930E-01 -0.12235790507E-01  0.37277508826E-01  0.55366792471E-01  0.51100000000E-03 0.  1.
         11    1    4    4    0    0  0.52111582337E-01 -0.35891440961E-01  0.39250618398E-01  0.74462639717E-01  0.51100000000E-03 0. -1.
</event>
<event>
 8    1  0.1207611E+005  0.1043930E+01  0.7957747E-01            NaN
         13   -1    0    0    0    0  0.00000000000E+00  0.00000000000E+00  0.74505805969E-08  0.10566000000E+00  0.10566000000E+00 0.  1.
     999900   -1    0    0    0    0 -0.00000000000E+00 -0.00000000000E+00 -0.74505805969E-08  0.93827000000E+00  0.93827000000E+00 0.  1.
     999902    2    1    2    0    0  0.20709095706E-01 -0.77690700041E-02 -0.77122296512E-02  0.10205055773E+01  0.10202367028E+01 0.  0.
     999903    2    3    3    0    0  0.90175781660E-01 -0.82238143756E-01 -0.50395629268E-01  0.13360471697E+00  0.20389140789E-01 0.  0.
         14    1    1    2    0    0 -0.20709095706E-01  0.77690700041E-02  0.77122296512E-02  0.23424422723E-01  0.00000000000E+00 0. -1.
     999901    1    3    3    0    0 -0.69466685954E-01  0.74469073752E-01  0.42683399617E-01  0.88690086030E+00  0.88000000000E+00 0. -1.
        -11    1    4    4    0    0  0.55373190187E-01 -0.51517872219E-01 -0.41716865278E-01  0.86376150175E-01  0.51100000000E-03 0. -1.
         11    1    4    4    0    0  0.34802591473E-01 -0.30720271537E-01 -0.86787639900E-02  0.47228566799E-01  0.51100000000E-03 0.  1.
</event>
<event>
 8    1  0.1207611E+005  0.1043930E+01  0.7957747E-01            NaN
         13   -1    0    0    0    0  0.00000000000E+00  0.00000000000E+00  0.74505805969E-08  0.10566000000E+00  0.10566000000E+00 0.  1.
     999900   -1    0    0    0    0 -0.00000000000E+00 -0.00000000000E+00 -0.74505805969E-08  0.93827000000E+00  0.93827000000E+00 0. -1.
     999902    2    1    2    0    0  0.19765307376E-01 -0.32236592318E-02  0.13138881379E-01  0.10199781826E+01  0.10196969174E+01 0.  0.
     999903    2    3    3    0    0 -0.12443760411E+00  0.31966026961E-02 -0.18794650061E-01  0.12764671395E+00  0.21107087144E-01 0.  0.
         14    1    1    2    0    0 -0.19765307376E-01  0.32236592318E-02 -0.13138881379E-01  0.23951817434E-01  0.00000000000E+00 0. -1.
     999901    1    3    3    0    0  0.14420291148E+00 -0.64202619279E-02  0.31933531440E-01  0.89233146861E+00  0.88000000000E+00 0. -1.
        -11    1    4    4    0    0 -0.38286744034E-01  0.10565490895E-01 -0.39823674039E-02  0.39920229680E-01  0.51100000000E-03 0.  1.
         11    1    4    4    0    0 -0.86150860074E-01 -0.73688881985E-02 -0.14812282657E-01  0.87726484275E-01  0.51100000000E-03 0. -1.
</event>
<event>
 8    1  0.1207611E+005  0.1043930E+01  0.7957747E-01            NaN
         13   -1    0    0    0    0  0.00000000000E+00  0.00000000000E+00  0.74505805969E-08  0.10566000000E+00  0.10566000000E+00 0. -1.
     999900   -1    0    0    0    0 -0.00000000000E+00 -0.00000000000E+00 -0.74505805969E-08  0.93827000000E+00  0.93827000000E+00 0. -1.
     999902    2    1    2    0    0  0.12790504492E-01  0.92579583375E-02  0.17485073636E-01  0.10203708277E+01  0.10200988146E+01 0.  0.
     999903    2    3    3    0    0  0.26203731475E-01 -0.12528332260E+00 -0.76320252243E-02  0.12969011076E+00  0.19461000900E-01 0.  0.
         14    1    1    2    0    0 -0.12790504492E-01 -0.92579583375E-02 -0.17485073636E-01  0.23559172265E-01  0.00000000000E+00 0.  1.
     999901    1    3    3    0    0 -0.13413226982E-01  0.13454128093E+00  0.25117098860E-01  0.89068071697E+00  0.88000000000E+00 0. -1.
        -11    1    4    4    0    0  0.23003256899E-01 -0.76270668921E-01  0.17381155922E-02  0.79684671879E-01  0.51100000000E-03 0.  1.
         11    1    4    4    0    0  0.32004745758E-02 -0.49012653677E-01 -0.93701408165E-02  0.50005438883E-01  0.51100000000E-03 0. -1.
</event>
<event>
 8    1  0.1207611E+005  0.1043930E+01  0.7957747E-01            NaN
         13   -1    0    0    0    0  0.00000000000E+00  0.00000000000E+00  0.74505805969E-08  0.10566000000E+00  0.10566000000E+00 0. -1.
     999900   -1    0    0    0    0 -0.00000000000E+00 -0.00000000000E+00 -0.74505805969E-08  0.93827000000E+00  0.93827000000E+00 0. -1.
     999902    2    1    2    0    0 -0.94626291105E-03 -0.35395045077E-02  0.24678101912E-01  0.10189814085E+01  0.10186759438E+01 0.  0.
     999903    2    3    3    0    0 -0.11801641461E+00  0.40629915862E-01  0.31928611390E-01  0.13010069206E+00  0.18113245640E-01 0.  0.
         14    1    1    2    0    0  0.94626291105E-03  0.35395045077E-02 -0.24678101912E-01  0.24948591536E-01  0.00000000000E+00 0.  1.
     999901    1    3    3    0    0  0.11707015170E+00 -0.44169420370E-01 -0.72505094775E-02  0.88888071641E+00  0.88000000000E+00 0. -1.
        -11    1    4    4    0    0 -0.48417711981E-01  0.23210403618E-01  0.20361544155E-01  0.57426921134E-01  0.51100000000E-03 0. -1.
         11    1    4    4    0    0 -0.69598702630E-01  0.17419512244E-01  0.11567067235E-01  0.72673770922E-01  0.51100000000E-03 0.  1.
</event>
<event>
 8    1  0.1207611E+005  0.1043930E+01  0.7957747E-01            NaN
         13   -1    0    0    0    0  0.00000000000E+00  0.00000000000E+00  0.74505805969E-08  0.10566000000E+00  0.10566000000E+00 0.  1.
     999900   -1    0    0    0    0 -0.00000000000E+00 -0.00000000000E+00 -0.74505805969E-08  0.93827000000E+00  0.93827000000E+00 0. -1.
     999902    2    1    2    0    0  0.49632866497E-02  0.22327421335E-01 -0.39406730171E-02  0.10207205868E+01  0.10204566818E+01 0.  0.
     999903    2    3    3    0    0 -0.12259327559E+00 -0.26922557005E-02  0.38714459090E-01  0.13014991519E+00  0.20095562255E-01 0.  0.
         14    1    1    2    0    0 -0.49632866497E-02 -0.22327421335E-01  0.39406730171E-02  0.23209413212E-01  0.00000000000E+00 0. -1.
     999901    1    3    3    0    0  0.12755656224E+00  0.25019677035E-01 -0.42655132107E-01  0.89057067159E+00  0.88000000000E+00 0. -1.
        -11    1    4    4    0    0 -0.75311501774E-01 -0.96964732607E-02  0.29532155040E-01  0.81475476037E-01  0.51100000000E-03 0.  1.
         11    1    4    4    0    0 -0.47281773813E-01  0.70042175603E-02  0.91823040497E-02  0.48674439156E-01  0.51100000000E-03 0. -1.
</event>
<event>
 8    1  0.1207611E+005  0.1043930E+01  0.7957747E-01            NaN
         13   -1    0    0    0    0  0.00000000000E+00  0.00000000000E+00  0.74505805969E-08  0.10566000000E+00  0.10566000000E+00 0. -1.
     999900   -1    0    0    0    0 -0.00000000000E+00 -0.00000000000E+00 -0.74505805969E-08  0.93827000000E+00  0.93827000000E+00 0.  1.
     999902    2    1    2    0    0  0.13961141885E-02 -0.20846805699E-01 -0.86640519859E-02  0.10213113298E+01  0.10210608347E+01 0.  0.
     999903    2    3    3    0    0  0.83993881583E-01 -0.85654594729E-01 -0.55858532625E-01  0.13381498636E+00  0.19864369263E-01 0.  0.
         14    1    1    2    0    0 -0.13961141885E-02  0.20846805699E-01  0.86640519859E-02  0.22618670153E-01  0.00000000000E+00 0.  1.
     999901    1    3    3    0    0 -0.82597767394E-01  0.64807789030E-01  0.47194480639E-01  0.88749634349E+00  0.88000000000E+00 0. -1.
        -11    1    4    4    0    0  0.27071215040E-01 -0.24558841799E-01 -0.27069516231E-01  0.45486341073E-01  0.51100000000E-03 0. -1.
         11    1    4    4    0    0  0.56922666543E-01 -0.61095752930E-01 -0.28789016394E-01  0.88328645288E-01  0.51100000000E-03 0.  1.
</event>
<event>
 8    1  0.1207611E+005  0.1043930E+01  0.7957747E-01            NaN
         13   -1    0    0    0    0  0.00000000000E+00  0.00000000000E+00  0.74505805969E-08  0.10566000000E+00  0.10566000000E+00 0.  1.
     999900   -1    0    0    0    0 -0.00000000000E+00 -0.00000000000E+00 -0.74505805969E-08  0.93827000000E+00  0.93827000000E+00 0. -1.
     999902    2    1    2    0    0  0.14210800269E-01  0.16311399721E-01 -0.97110778820E-02  0.10202168467E+01  0.10199412241E+01 0.  0.
     999903    2    3    3    0    0 -0.15049482909E-01 -0.61404878905E-02 -0.12890461596E+00  0.13141577170E+00  0.19736071264E-01 0.  0.
         14    1    1    2    0    0 -0.14210800269E-01 -0.16311399721E-01  0.97110778820E-02  0.23713153286E-01  0.00000000000E+00 0.  1.
     999901    1    3    3    0    0  0.29260283178E-01  0.22451887611E-01  0.11919353807E+00  0.88880107501E+00  0.88000000000E+00 0.  1.
        -11    1    4    4    0    0  0.45423850203E-02  0.10341599271E-02 -0.22208034446E-01  0.22697150997E-01  0.51100000000E-03 0.  1.
         11    1    4    4    0    0 -0.19591867929E-01 -0.71746478176E-02 -0.10669658151E+00  0.10871862070E+00  0.51100000000E-03 0. -1.
</event>
<event>
 8    1  0.1207611E+005  0.1043930E+01  0.7957747E-01            NaN
         13   -1    0    0    0    0  0.00000000000E+00  0.00000000000E+00  0.74505805969E-08  0.10566000000E+00  0.10566000000E+00 0.  1.
     999900   -1    0    0    0    0 -0.00000000000E+00 -0.00000000000E+00 -0.74505805969E-08  0.93827000000E+00  0.93827000000E+00 0. -1.
     999902    2    1    2    0    0  0.13275479174E-01 -0.14056039706E-01 -0.13836095109E-01  0.10201550525E+01  0.10198779746E+01 0.  0.
     999903    2    3    3    0    0  0.29504498340E-01 -0.65514006520E-01 -0.11031634121E+00  0.13323919333E+00  0.20503341902E-01 0.  0.
         14    1    1    2    0    0 -0.13275479174E-01  0.14056039706E-01  0.13836095109E-01  0.23774947473E-01  0.00000000000E+00 0.  1.
     999901    1    3    3    0    0 -0.16229019166E-01  0.51457966814E-01  0.96480246096E-01  0.88691585920E+00  0.88000000000E+00 0. -1.
        -11    1    4    4    0    0  0.94223399434E-02 -0.30465625659E-01 -0.65821994831E-01  0.73141855058E-01  0.51100000000E-03 0.  1.
         11    1    4    4    0    0  0.20082158396E-01 -0.35048380861E-01 -0.44494346374E-01  0.60097338269E-01  0.51100000000E-03 0. -1.
</event>
<event>
 8    1  0.1207611E+005  0.1043930E+01  0.7957747E-01            NaN
         13   -1    0    0    0    0  0.00000000000E+00  0.00000000000E+00  0.74505805969E-08  0.10566000000E+00  0.10566000000E+00 0.  1.
     999900   -1    0    0    0    0 -0.00000000000E+00 -0.00000000000E+00 -0.74505805969E-08  0.93827000000E+00  0.93827000000E+00 0.  1.
     999902    2    1    2    0    0  0.75668435094E-03 -0.11582068857E-01 -0.20688285995E-01  0.10202082364E+01  0.10199324113E+01 0.  0.
     999903    2    3    3    0    0 -0.69739742200E-01 -0.38391147742E-01  0.99362186739E-01  0.12886061126E+00  0.19867086185E-01 0.  0.
         14    1    1    2    0    0 -0.75668435094E-03  0.11582068857E-01  0.20688285995E-01  0.23721763586E-01  0.00000000000E+00 0.  1.
     999901    1    3    3    0    0  0.70496426550E-01  0.26809078885E-01 -0.12005047273E+00  0.89134762516E+00  0.88000000000E+00 0.  1.
        -11    1    4    4    0    0 -0.62086132992E-01 -0.35493291869E-01  0.77227450576E-01  0.10525588782E+00  0.51100000000E-03 0. -1.
         11    1    4    4    0    0 -0.76536092080E-02 -0.28978558728E-02  0.22134736163E-01  0.23604723438E-01  0.51100000000E-03 0.  1.
</event>
<event>
 8    1  0.1207611E+005  0.1043930E+01  0.7957747E-01            NaN
         13   -1    0    0    0    0  0.00000000000E+00  0.00000000000E+00  0.74505805969E-08  0.10566000000E+00  0.10566000000E+00 0. -1.
     999900   -1    0    0    0    0 -0.00000000000E+00 -0.00000000000E+00 -0.74505805969E-08  0.93827000000E+00  0.93827000000E+00 0.  1.
     999902    2    1    2    0    0  0.23227413841E-01 -0.55214066668E-02 -0.13282180938E-02  0.10200184369E+01  0.10197381276E+01 0.  0.
     999903    2    3    3    0    0  0.40058266140E-01  0.42348049220E-01  0.11548002295E+00  0.13085088940E+00  0.19705268302E-01 0.  0.
         14    1    1    2    0    0 -0.23227413841E-01  0.55214066668E-02  0.13282180938E-02  0.23911563074E-01  0.00000000000E+00 0. -1.
     999901    1    3    3    0    0 -0.16830852299E-01 -0.47869455887E-01 -0.11680824104E+00  0.88916754752E+00  0.88000000000E+00 0. -1.
        -11    1    4    4    0    0  0.28615811470E-02  0.14713242655E-01  0.23954771567E-01  0.28262348768E-01  0.51100000000E-03 0. -1.
         11    1    4    4    0    0  0.37196684993E-01  0.27634806565E-01  0.91525251379E-01  0.10258854063E+00  0.51100000000E-03 0.  1.
</event>
<event>
 8    1  0.1207611E+005  0.1043930E+01  0.7957747E-01            NaN
         13   -1    0    0    0    0  0.00000000000E+00  0.00000000000E+00  0.74505805969E-08  0.10566000000E+00  0.10566000000E+00 0. -1.
     999900   -1    0    0    0    0 -0.00000000000E+00 -0.00000000000E+00 -0.74505805969E-08  0.93827000000E+00  0.93827000000E+00 0. -1.
     999902    2    1    2    0    0  0.17659474226E-01  0.22209454644E-02 -0.13755206891E-01  0.10214356597E+01  0.10211879414E+01 0.  0.
     999903    2    3    3    0    0  0.74472848680E-01 -0.69477893446E-01  0.80890912671E-01  0.13164558842E+00  0.20343016697E-01 0.  0.
         14    1    1    2    0    0 -0.17659474226E-01 -0.22209454644E-02  0.13755206891E-01  0.22494340295E-01  0.00000000000E+00 0. -1.
     999901    1    3    3    0    0 -0.56813374454E-01  0.71698838910E-01 -0.94646119562E-01  0.88979007129E+00  0.88000000000E+00 0. -1.
        -11    1    4    4    0    0  0.37259262077E-01 -0.24282449819E-01  0.43279242240E-01  0.62058391130E-01  0.51100000000E-03 0. -1.
         11    1    4    4    0    0  0.37213586603E-01 -0.45195443627E-01  0.37611670431E-01  0.69587197286E-01  0.51100000000E-03 0.  1.
</event>
<event>
 8    1  0.1207611E+005  0.1043930E+01  0.7957747E-01            NaN
         13   -1    0    0    0    0  0.00000000000E+00  0.00000000000E+00  0.74505805969E-08  0.10566000000E+00  0.10566000000E+00 0.  1.
     999900   -1    0    0    0    0 -0.00000000000E+00 -0.00000000000E+00 -0.74505805969E-08  0.93827000000E+00  0.93827000000E+00 0. -1.
     999902    2    1    2    0    0  0.23038125885E-01  0.34893856706E-02 -0.36849473896E-02  0.10203395381E+01  0.10200667934E+01 0.  0.
     999903    2    3    3    0    0 -0.46196898505E-01  0.85411430025E-02  0.11952892235E+00  0.12904796594E+00  0.12613868621E-01 0.  0.
         14    1    1    2    0    0 -0.23038125885E-01 -0.34893856706E-02  0.36849473896E-02  0.23590461927E-01  0.00000000000E+00 0. -1.
     999901    1    3    3    0    0  0.69235024390E-01 -0.50517573319E-02 -0.12321386974E+00  0.89129157213E+00  0.88000000000E+00 0. -1.
        -11    1    4    4    0    0 -0.25928721248E-01 -0.90133428126E-06  0.53582961890E-01  0.59528930044E-01  0.51100000000E-03 0.  1.
         11    1    4    4    0    0 -0.20268177257E-01  0.85420443368E-02  0.65945960457E-01  0.69519035899E-01  0.51100000000E-03 0. -1.
</event>
<event>
 8    1  0.1207611E+005  0.1043930E+01  0.7957747E-01            NaN
         13   -1    0    0    0    0  0.00000000000E+00  0.00000000000E+00  0.74505805969E-08  0.10566000000E+00  0.10566000000E+00 0. -1.
     999900   -1    0    0    0    0 -0.00000000000E+00 -0.00000000000E+00 -0.74505805969E-08  0.93827000000E+00  0.93827000000E+00 0.  1.
     999902    2    1    2    0    0 -0.20304669459E-01  0.85185119321E-02  0.80646007748E-02  0.10204804279E+01  0.10202109690E+01 0.  0.
     999903    2    3    3    0    0 -0.25388263516E-01 -0.12170109421E+00  0.33989175334E-01  0.13050566850E+00  0.20512074865E-01 0.  0.
         14    1    1    2    0    0  0.20304669459E-01 -0.85185119321E-02 -0.80646007748E-02  0.23449572129E-01  0.00000000000E+00 0.  1.
     999901    1    3    3    0    0  0.50835940564E-02  0.13021960614E+00 -0.25924574559E-01  0.88997475937E+00  0.88000000000E+00 0.  1.
        -11    1    4    4    0    0  0.31721938040E-03 -0.42597195522E-01  0.78567671399E-02  0.43319875408E-01  0.51100000000E-03 0.  1.
         11    1    4    4    0    0 -0.25705482896E-01 -0.79103898685E-01  0.26132408194E-01  0.87185793092E-01  0.51100000000E-03 0. -1.
</event>
<event>
 8    1  0.1207611E+005  0.1043930E+01  0.7957747E-01            NaN
         13   -1    0    0    0    0  0.00000000000E+00  0.00000000000E+00  0.74505805969E-08  0.10566000000E+00  0.10566000000E+00 0.  1.
     999900   -1    0    0    0    0 -0.00000000000E+00 -0.00000000000E+00 -0.74505805969E-08  0.93827000000E+00  0.93827000000E+00 0.  1.
     999902    2    1    2    0    0 -0.15048773145E-01 -0.17256419480E-01  0.60920070123E-02  0.10202369180E+01  0.10199617673E+01 0.  0.
     999903    2    3    3    0    0 -0.10084561278E+00  0.31536522409E-01 -0.74665465360E-01  0.13104424020E+00  0.20815170136E-01 0.  0.
         14    1    1    2    0    0  0.15048773145E-01  0.17256419480E-01 -0.60920070123E-02  0.23693082026E-01  0.00000000000E+00 0. -1.
     999901    1    3    3    0    0  0.85796839639E-01 -0.48792941889E-01  0.80757472372E-01  0.88919267778E+00  0.88000000000E+00 0. -1.
        -11    1    4    4    0    0 -0.56142025012E-01  0.17518063504E-01 -0.28830620176E-01  0.65500193145E-01  0.51100000000E-03 0. -1.
         11    1    4    4    0    0 -0.44703587772E-01  0.14018458905E-01 -0.45834845184E-01  0.65544047051E-01  0.51100000000E-03 0.  1.
</event>
<event>
 8    1  0.1207611E+005  0.1043930E+01  0.7957747E-01            NaN
         13   -1    0    0    0    0  0.00000000000E+00  0.00000000000E+00  0.74505805969E-08  0.10566000000E+00  0.10566000000E+00 0.  1.
     999900   -1    0    0    0    0 -0.00000000000E+00 -0.00000000000E+00 -0.74505805969E-08  0.93827000000E+00  0.93827000000E+00 0.  1.
     999902    2    1    2    0    0 -0.73804466018E-02 -0.85740476111E-02 -0.19174213079E-01  0.10216671221E+01  0.10214245311E+01 0.  0.
     999903    2    3    3    0    0  0.34401974049E-01  0.90996758111E-01 -0.88524446706E-01  0.13235864305E+00  0.14775889867E-01 0.  0.
         14    1    1    2    0    0  0.73804466018E-02  0.85740476111E-02  0.19174213079E-01  0.22262877884E-01  0.00000000000E+00 0.  1.
     999901    1    3    3    0    0 -0.41782420651E-01 -0.99570805722E-01  0.69350233627E-01  0.88930847906E+00  0.88000000000E+00 0.  1.
        -11    1    4    4    0    0  0.23504493224E-01  0.42853803197E-01 -0.47765387548E-01  0.68342541793E-01  0.51100000000E-03 0.  1.
         11    1    4    4    0    0  0.10897480825E-01  0.48142954915E-01 -0.40759059157E-01  0.64016101261E-01  0.51100000000E-03 0. -1.
</event>
<event>
 8    1  0.1207611E+005  0.1043930E+01  0.7957747E-01            NaN
         13   -1    0    0    0    0  0.00000000000E+00  0.00000000000E+00  0.74505805969E-08  0.10566000000E+00  0.10566000000E+00 0. -1.
     999900   -1    0    0    0    0 -0.00000000000E+00 -0.00000000000E+00 -0.74505805969E-08  0.93827000000E+00  0.93827000000E+00 0. -1.
     999902    2    1    2    0    0  0.19598673874E-01  0.77423244539E-02 -0.10348730085E-01  0.10204534624E+01  0.10201833762E+01 0.  0.
     999903    2    3    3    0    0  0.12722310907E+00  0.21043324172E-01 -0.29693580102E-01  0.13358585167E+00  0.18301095447E-01 0.  0.
         14    1    1    2    0    0 -0.19598673874E-01 -0.77423244539E-02  0.10348730085E-01  0.23476537649E-01  0.00000000000E+00 0.  1.
     999901    1    3    3    0    0 -0.10762443520E+00 -0.13300999718E-01  0.19344850016E-01  0.88686761068E+00  0.88000000000E+00 0. -1.
        -11    1    4    4    0    0  0.64761509882E-01  0.31438097208E-02 -0.20231291171E-01  0.67922772067E-01  0.51100000000E-03 0.  1.
         11    1    4    4    0    0  0.62461599189E-01  0.17899514451E-01 -0.94622889302E-02  0.65663079608E-01  0.51100000000E-03 0. -1.
</event>
<event>
 8    1  0.1207611E+005  0.1043930E+01  0.7957747E-01            NaN
         13   -1    0    0    0    0  0.00000000000E+00  0.00000000000E+00  0.74505805969E-08  0.10566000000E+00  0.10566000000E+00 0. -1.
     999900   -1    0    0    0    0 -0.00000000000E+00 -0.00000000000E+00 -0.74505805969E-08  0.93827000000E+00  0.93827000000E+00 0.  1.
     999902    2    1    2    0    0  0.11761654334E-01  0.17786738563E-01 -0.10945838185E-01  0.10199609375E+01  0.10196792624E+01 0.  0.
     999903    2    3    3    0    0  0.24986835485E-01  0.29578315101E-01 -0.12510692526E+00  0.13240998098E+00  0.19530531045E-01 0.  0.
         14    1    1    2    0    0 -0.11761654334E-01 -0.17786738563E-01  0.10945838185E-01  0.23969062454E-01  0.00000000000E+00 0. -1.
     999901    1    3    3    0    0 -0.13225181151E-01 -0.11791576538E-01  0.11416108708E+00  0.88755095656E+00  0.88000000000E+00 0. -1.
        -11    1    4    4    0    0  0.27066205882E-01  0.30589021283E-01 -0.12041161899E+00  0.12715143268E+00  0.51100000000E-03 0. -1.
         11    1    4    4    0    0 -0.20793703972E-02 -0.10107061820E-02 -0.46953062759E-02  0.52585483034E-02  0.51100000000E-03 0.  1.
</event>
<event>
 8    1  0.1207611E+005  0.1043930E+01  0.7957747E-01            NaN
         13   -1    0    0    0    0  0.00000000000E+00  0.00000000000E+00  0.74505805969E-08  0.10566000000E+00  0.10566000000E+00 0.  1.
     999900   -1    0    0    0    0 -0.00000000000E+00 -0.00000000000E+00 -0.74505805969E-08  0.93827000000E+00  0.93827000000E+00 0.  1.
     999902    2    1    2    0    0 -0.11318156087E-01  0.18778918074E-01  0.79056155497E-03  0.10219897765E+01  0.10217542414E+01 0.  0.
     999903    2    3    3    0    0  0.12234171777E+00 -0.13009571076E-01  0.38832016184E-01  0.13051761078E+00  0.19752883233E-01 0.  0.
         14    1    1    2    0    0  0.11318156087E-01 -0.18778918074E-01 -0.79056155497E-03  0.21940223536E-01  0.00000000000E+00 0. -1.
     999901    1    3    3    0    0 -0.13365987386E+00  0.31788489150E-01 -0.38041454629E-01  0.89147216569E+00  0.88000000000E+00 0.  1.
        -11    1    4    4    0    0  0.59010442733E-01 -0.50424423994E-02  0.28951249889E-01  0.65924916139E-01  0.51100000000E-03 0.  1.
         11    1    4    4    0    0  0.63331275037E-01 -0.79671286765E-02  0.98807662950E-02  0.64592694639E-01  0.51100000000E-03 0. -1.
</event>
<event>
 8    1  0.1207611E+005  0.1043930E+01  0.7957747E-01            NaN
         13   -1    0    0    0    0  0.00000000000E+00  0.00000000000E+00  0.74505805969E-08  0.10566000000E+00  0.10566000000E+00 0.  1.
     999900   -1    0    0    0    0 -0.00000000000E+00 -0.00000000000E+00 -0.74505805969E-08  0.93827000000E+00  0.93827000000E+00 0. -1.
     999902    2    1    2    0    0  0.26264689608E-01 -0.45202282352E-02 -0.36661511977E-02  0.10170281962E+01  0.10166723390E+01 0.  0.
     999903    2    3    3    0    0 -0.14111683473E-01  0.60678482926E-01  0.10854887173E+00  0.12659384442E+00  0.19029608265E-01 0.  0.
         14    1    1    2    0    0 -0.26264689608E-01  0.45202282352E-02  0.36661511977E-02  0.26901803808E-01  0.00000000000E+00 0.  1.
     999901    1    3    3    0    0  0.40376373081E-01 -0.65198711161E-01 -0.11221502293E+00  0.89043435177E+00  0.88000000000E+00 0. -1.
        -11    1    4    4    0    0 -0.49863537381E-02  0.85181357088E-02  0.32163829618E-01  0.33648111630E-01  0.51100000000E-03 0.  1.
         11    1    4    4    0    0 -0.91253297347E-02  0.52160347217E-01  0.76385042114E-01  0.92945732792E-01  0.51100000000E-03 0. -1.
</event>
<event>
 8    1  0.1207611E+005  0.1043930E+01  0.7957747E-01            NaN
         13   -1    0    0    0    0  0.00000000000E+00  0.00000000000E+00  0.74505805969E-08  0.10566000000E+00  0.10566000000E+00 0. -1.
     999900   -1    0    0    0    0 -0.00000000000E+00 -0.00000000000E+00 -0.74505805969E-08  0.93827000000E+00  0.93827000000E+00 0.  1.
     999902    2    1    2    0    0  0.13324179834E-02  0.91379691214E-02  0.22246611084E-01  0.10198428764E+01  0.10195583863E+01 0.  0.
     999903    2    3    3    0    0 -0.53024723542E-01 -0.88283248225E-01 -0.72984497254E-01  0.12770244106E+00  0.19381005883E-01 0.  0.
         14    1    1    2    0    0 -0.13324179834E-02 -0.91379691214E-02 -0.22246611084E-01  0.24087123574E-01  0.00000000000E+00 0.  1.
     999901    1    3    3    0    0  0.54357141525E-01  0.97421217346E-01  0.95231108337E-01  0.89214043537E+00  0.88000000000E+00 0.  1.
        -11    1    4    4    0    0 -0.11499780513E-01 -0.31433694456E-01 -0.31619703466E-01  0.46047680368E-01  0.51100000000E-03 0.  1.
         11    1    4    4    0    0 -0.41524943029E-01 -0.56849553769E-01 -0.41364793788E-01  0.81654760690E-01  0.51100000000E-03 0. -1.
</event>
<event>
 8    1  0.1207611E+005  0.1043930E+01  0.7957747E-01            NaN
         13   -1    0    0    0    0  0.00000000000E+00  0.00000000000E+00  0.74505805969E-08  0.10566000000E+00  0.10566000000E+00 0. -1.
     999900   -1    0    0    0    0 -0.00000000000E+00 -0.00000000000E+00 -0.74505805969E-08  0.93827000000E+00  0.93827000000E+00 0. -1.
     999902    2    1    2    0    0  0.17070484818E-02 -0.21231658569E-01 -0.10282108477E-01  0.10202779579E+01  0.10200037707E+01 0.  0.
     999903    2    3    3    0    0 -0.84881039240E-01  0.92597264045E-01  0.16828765686E-01  0.12831970774E+00  0.20092185255E-01 0.  0.
         14    1    1    2    0    0 -0.17070484818E-02  0.21231658569E-01  0.10282108477E-01  0.23652042086E-01  0.00000000000E+00 0.  1.
     999901    1    3    3    0    0  0.86588087721E-01 -0.11382892261E+00 -0.27110874163E-01  0.89195825018E+00  0.88000000000E+00 0. -1.
        -11    1    4    4    0    0 -0.57092174316E-01  0.59566017691E-01  0.20427993244E-01  0.85001122702E-01  0.51100000000E-03 0.  1.
         11    1    4    4    0    0 -0.27788864924E-01  0.33031246354E-01 -0.35992275575E-02  0.43318585036E-01  0.51100000000E-03 0. -1.
</event>
<event>
 8    1  0.1207611E+005  0.1043930E+01  0.7957747E-01            NaN
         13   -1    0    0    0    0  0.00000000000E+00  0.00000000000E+00  0.74505805969E-08  0.10566000000E+00  0.10566000000E+00 0.  1.
     999900   -1    0    0    0    0 -0.00000000000E+00 -0.00000000000E+00 -0.74505805969E-08  0.93827000000E+00  0.93827000000E+00 0. -1.
     999902    2    1    2    0    0  0.12733186544E-01 -0.13589633464E-01  0.93626271339E-02  0.10230860329E+01  0.10228736773E+01 0.  0.
     999903    2    3    3    0    0 -0.83102075221E-01 -0.40816806685E-01 -0.88799230175E-01  0.13204087884E+00  0.31265376875E-01 0.  0.
         14    1    1    2    0    0 -0.12733186544E-01  0.13589633464E-01 -0.93626271339E-02  0.20843967092E-01  0.00000000000E+00 0. -1.
     999901    1    3    3    0    0  0.95835261765E-01  0.27227173220E-01  0.98161857309E-01  0.89104515407E+00  0.88000000000E+00 0.  1.
        -11    1    4    4    0    0 -0.25731764523E-01 -0.19296205135E-01 -0.50196896551E-01  0.59619265195E-01  0.51100000000E-03 0.  1.
         11    1    4    4    0    0 -0.57370310698E-01 -0.21520601549E-01 -0.38602333624E-01  0.72421613644E-01  0.51100000000E-03 0. -1.
</event>
<event>
 8    1  0.1207611E+005  0.1043930E+01  0.7957747E-01            NaN
         13   -1    0    0    0    0  0.00000000000E+00  0.00000000000E+00  0.74505805969E-08  0.10566000000E+00  0.10566000000E+00 0.  1.
     999900   -1    0    0    0    0 -0.00000000000E+00 -0.00000000000E+00 -0.74505805969E-08  0.93827000000E+00  0.93827000000E+00 0.  1.
     999902    2    1    2    0    0 -0.12478258996E-01  0.78142353128E-02  0.17834711953E-01  0.10208032585E+01  0.10205412517E+01 0.  0.
     999903    2    3    3    0    0  0.37242646447E-01  0.64227257899E-01  0.10853896459E+00  0.13295087270E+00  0.19572234082E-01 0.  0.
         14    1    1    2    0    0  0.12478258996E-01 -0.78142353128E-02 -0.17834711953E-01  0.23126741481E-01  0.00000000000E+00 0. -1.
     999901    1    3    3    0    0 -0.49720905443E-01 -0.56413022586E-01 -0.90704252634E-01  0.88785238582E+00  0.88000000000E+00 0. -1.
        -11    1    4    4    0    0  0.29142887408E-01  0.47761633063E-01  0.65404028916E-01  0.86072234773E-01  0.51100000000E-03 0. -1.
         11    1    4    4    0    0  0.80997590387E-02  0.16465624835E-01  0.43134935671E-01  0.46878637929E-01  0.51100000000E-03 0.  1.
</event>
<event>
 8    1  0.1207611E+005  0.1043930E+01  0.7957747E-01            NaN
         13   -1    0    0    0    0  0.00000000000E+00  0.00000000000E+00  0.74505805969E-08  0.10566000000E+00  0.10566000000E+00 0. -1.
     999900   -1    0    0    0    0 -0.00000000000E+00 -0.00000000000E+00 -0.74505805969E-08  0.93827000000E+00  0.93827000000E+00 0.  1.
     999902    2    1    2    0    0 -0.16859872606E-02 -0.10707759848E-01 -0.19529769813E-01  0.10215936936E+01  0.10213494819E+01 0.  0.
     999903    2    3    3    0    0  0.40421810182E-01 -0.85457566517E-01  0.88294589230E-01  0.13087112592E+00  0.19859473763E-01 0.  0.
         14    1    1    2    0    0  0.16859872606E-02  0.10707759848E-01  0.19529769813E-01  0.22336306386E-01  0.00000000000E+00 0. -1.
     999901    1    3    3    0    0 -0.42107797443E-01  0.74749806668E-01 -0.10782435904E+00  0.89072256770E+00  0.88000000000E+00 0.  1.
        -11    1    4    4    0    0  0.12281783696E-01 -0.45557335842E-01  0.50587561046E-01  0.69178576982E-01  0.51100000000E-03 0. -1.
         11    1    4    4    0    0  0.28140026486E-01 -0.39900230675E-01  0.37707028184E-01  0.61692548935E-01  0.51100000000E-03 0.  1.
</event>
<event>
 8    1  0.1207611E+005  0.1043930E+01  0.7957747E-01            NaN
         13   -1    0    0    0    0  0.00000000000E+00  0.00000000000E+00  0.74505805969E-08  0.10566000000E+00  0.10566000000E+00 0.  1.
     999900   -1    0    0    0    0 -0.00000000000E+00 -0.00000000000E+00 -0.74505805969E-08  0.93827000000E+00  0.93827000000E+00 0. -1.
     999902    2    1    2    0    0  0.15897488224E-01  0.16459319336E-01  0.59046617919E-02  0.10202973032E+01  0.10200235697E+01 0.  0.
     999903    2    3    3    0    0 -0.29138422417E-01  0.12616155006E+00 -0.16428080643E-01  0.13206221947E+00  0.20118737639E-01 0.  0.
         14    1    1    2    0    0 -0.15897488224E-01 -0.16459319336E-01 -0.59046617919E-02  0.23632696751E-01  0.00000000000E+00 0. -1.
     999901    1    3    3    0    0  0.45035910641E-01 -0.10970223072E+00  0.22332742435E-01  0.88823508378E+00  0.88000000000E+00 0. -1.
        -11    1    4    4    0    0 -0.16318768923E-01  0.37989147882E-01 -0.11045482539E-01  0.42798847899E-01  0.51100000000E-03 0. -1.
         11    1    4    4    0    0 -0.12819653494E-01  0.88172402173E-01 -0.53825981048E-02  0.89263371570E-01  0.51100000000E-03 0.  1.
</event>
<event>
 8    1  0.1207611E+005  0.1043930E+01  0.7957747E-01            NaN
         13   -1    0    0    0    0  0.00000000000E+00  0.00000000000E+00  0.74505805969E-08  0.10566000000E+00  0.10566000000E+00 0. -1.
     999900   -1    0    0    0    0 -0.00000000000E+00 -0.00000000000E+00 -0.74505805969E-08  0.93827000000E+00  0.93827000000E+00 0. -1.
     999902    2    1    2    0    0  0.16778309927E-01  0.16081068000E-01  0.44640799800E-02  0.10202648264E+01  0.10199903311E+01 0.  0.
     999903    2    3    3    0    0  0.92669065390E-01  0.82774210029E-01  0.45267752568E-01  0.13354484711E+00  0.18599226871E-01 0.  0.
         14    1    1    2    0    0 -0.16778309927E-01 -0.16081068000E-01 -0.44640799800E-02  0.23665173612E-01  0.00000000000E+00 0.  1.
     999901    1    3    3    0    0 -0.75890755463E-01 -0.66693142029E-01 -0.40803672588E-01  0.88671997928E+00  0.88000000000E+00 0.  1.
        -11    1    4    4    0    0  0.67734662194E-01  0.49838505283E-01  0.26530905496E-01  0.88181693898E-01  0.51100000000E-03 0.  1.
         11    1    4    4    0    0  0.24934403196E-01  0.32935704746E-01  0.18736847072E-01  0.45363153210E-01  0.51100000000E-03 0. -1.
</event>
<event>
 8    1  0.1207611E+005  0.1043930E+01  0.7957747E-01            NaN
         13   -1    0    0    0    0  0.00000000000E+00  0.00000000000E+00  0.74505805969E-08  0.10566000000E+00  0.10566000000E+00 0.  1.
     999900   -1    0    0    0    0 -0.00000000000E+00 -0.00000000000E+00 -0.74505805969E-08  0.93827000000E+00  0.93827000000E+00 0. -1.
     999902    2    1    2    0    0 -0.19758000603E-02 -0.18473454006E-01  0.13721617470E-01  0.10208333536E+01  0.10205720360E+01 0.  0.
     999903    2    3    3    0    0  0.41946557573E-01  0.11186917300E+00  0.45920026170E-01  0.12956733751E+00  0.20120153740E-01 0.  0.
         14    1    1    2    0    0  0.19758000603E-02  0.18473454006E-01 -0.13721617470E-01  0.23096646397E-01  0.00000000000E+00 0. -1.
     999901    1    3    3    0    0 -0.43922357634E-01 -0.13034262701E+00 -0.32198408700E-01  0.89126601609E+00  0.88000000000E+00 0.  1.
        -11    1    4    4    0    0  0.13779547548E-01  0.59117936043E-01  0.16429199470E-01  0.62888679497E-01  0.51100000000E-03 0. -1.
         11    1    4    4    0    0  0.28167010025E-01  0.52751236958E-01  0.29490826700E-01  0.66678658016E-01  0.51100000000E-03 0.  1.
</event>
<event>
 8    1  0.1207611E+005  0.1043930E+01  0.7957747E-01            NaN
         13   -1    0    0    0    0  0.00000000000E+00  0.00000000000E+00  0.74505805969E-08  0.10566000000E+00  0.10566000000E+00 0.  1.
     999900   -1    0    0    0    0 -0.00000000000E+00 -0.00000000000E+00 -0.74505805969E-08  0.93827000000E+00  0.93827000000E+00 0.  1.
     999902    2    1    2    0    0  0.81080417318E-02  0.12238890511E-01 -0.18160550251E-01  0.10205775619E+01  0.10203103564E+01 0.  0.
     999903    2    3    3    0    0 -0.12468035207E+00 -0.21463818238E-01  0.17438774365E-01  0.12926620099E+00  0.19993853600E-01 0.  0.
         14    1    1    2    0    0 -0.81080417318E-02 -0.12238890511E-01  0.18160550251E-01  0.23352438140E-01  0.00000000000E+00 0.  1.
     999901    1    3    3    0    0  0.13278839380E+00  0.33702708749E-01 -0.35599324616E-01  0.89131136087E+00  0.88000000000E+00 0. -1.
        -11    1    4    4    0    0 -0.58928678471E-01 -0.20137388791E-01  0.68482565740E-02  0.62651921860E-01  0.51100000000E-03 0.  1.
         11    1    4    4    0    0 -0.65751673596E-01 -0.13264294476E-02  0.10590517791E-01  0.66614279128E-01  0.51100000000E-03 0. -1.
</event>
<event>
 8    1  0.1207611E+005  0.1043930E+01  0.7957747E-01            NaN
         13   -1    0    0    0    0  0.00000000000E+00  0.00000000000E+00  0.74505805969E-08  0.10566000000E+00  0.10566000000E+00 0.  1.
     999900   -1    0    0    0    0 -0.00000000000E+00 -0.00000000000E+00 -0.74505805969E-08  0.93827000000E+00  0.93827000000E+00 0. -1.
     999902    2    1    2    0    0 -0.11625631089E-01  0.15614800975E-01  0.13881279959E-01  0.10200204362E+01  0.10197401743E+01 0.  0.
     999903    2    3    3    0    0 -0.12141074524E+00 -0.42801139853E-01 -0.67842803586E-02  0.13103660124E+00  0.23495909703E-01 0.  0.
         14    1    1    2    0    0  0.11625631089E-01 -0.15614800975E-01 -0.13881279959E-01  0.23909563798E-01  0.00000000000E+00 0. -1.
     999901    1    3    3    0    0  0.10978511415E+00  0.58415940828E-01  0.20665560317E-01  0.88898383496E+00  0.88000000000E+00 0.  1.
        -11    1    4    4    0    0 -0.11353882020E+00 -0.43770393320E-01 -0.10741923417E-01  0.12215793492E+00  0.51100000000E-03 0.  1.
         11    1    4    4    0    0 -0.78719250398E-02  0.96925346728E-03  0.39576430585E-02  0.88786663241E-02  0.51100000000E-03 0. -1.
</event>
<event>
 8    1  0.1207611E+005  0.1043930E+01  0.7957747E-01            NaN
         13   -1    0    0    0    0  0.00000000000E+00  0.00000000000E+00  0.74505805969E-08  0.10566000000E+00  0.10566000000E+00 0. -1.
     999900   -1    0    0    0    0 -0.00000000000E+00 -0.00000000000E+00 -0.74505805969E-08  0.93827000000E+00  0.93827000000E+00 0. -1.
     999902    2    1    2    0    0 -0.20048211592E-01  0.77295097776E-02 -0.10509813135E-01  0.10200107132E+01  0.10197302206E+01 0.  0.
     999903    2    3    3    0    0 -0.68946887594E-01  0.10800174359E+00  0.26219136245E-01  0.13220745958E+00  0.19321473449E-01 0.  0.
         14    1    1    2    0    0  0.20048211592E-01 -0.77295097776E-02  0.10509813135E-01  0.23919286811E-01  0.00000000000E+00 0.  1.
     999901    1    3    3    0    0  0.48898676003E-01 -0.10027223382E+00 -0.36728949380E-01  0.88780325360E+00  0.88000000000E+00 0. -1.
        -11    1    4    4    0    0 -0.69387223078E-01  0.10739459738E+00  0.24391346430E-01  0.13016675910E+00  0.51100000000E-03 0. -1.
         11    1    4    4    0    0  0.44033548421E-03  0.60714621583E-03  0.18277898156E-02  0.20407004866E-02  0.51100000000E-03 0.  1.
</event>
<event>
 8    1  0.1207611E+005  0.1043930E+01  0.7957747E-01            NaN
         13   -1    0    0    0    0  0.00000000000E+00  0.00000000000E+00  0.74505805969E-08  0.10566000000E+00  0.10566000000E+00 0.  1.
     999900   -1    0    0    0    0 -0.00000000000E+00 -0.00000000000E+00 -0.74505805969E-08  0.93827000000E+00  0.93827000000E+00 0.  1.
     999902    2    1    2    0    0  0.15859750264E-01  0.50755863685E-02 -0.10248499280E-01  0.10243768674E+01  0.10241902370E+01 0.  0.
     999903    2    3    3    0    0 -0.78891188964E-01  0.47825867808E-01 -0.95293402212E-01  0.13418702108E+00  0.20351677901E-01 0.  0.
         14    1    1    2    0    0 -0.15859750264E-01 -0.50755863685E-02  0.10248499280E-01  0.19553132560E-01  0.00000000000E+00 0.  1.
     999901    1    3    3    0    0  0.94750939228E-01 -0.42750281440E-01  0.85044902932E-01  0.89018984636E+00  0.88000000000E+00 0. -1.
        -11    1    4    4    0    0 -0.26989129303E-01  0.93088528848E-02 -0.39890787752E-01  0.49057149438E-01  0.51100000000E-03 0. -1.
         11    1    4    4    0    0 -0.51902059661E-01  0.38517014923E-01 -0.55402614460E-01  0.85129871642E-01  0.51100000000E-03 0.  1.
</event>
<event>
 8    1  0.1207611E+005  0.1043930E+01  0.7957747E-01            NaN
         13   -1    0    0    0    0  0.00000000000E+00  0.00000000000E+00  0.74505805969E-08  0.10566000000E+00  0.10566000000E+00 0. -1.
     999900   -1    0    0    0    0 -0.00000000000E+00 -0.00000000000E+00 -0.74505805969E-08  0.93827000000E+00  0.93827000000E+00 0. -1.
     999902    2    1    2    0    0 -0.18508055656E-01 -0.62830453316E-03  0.15712632072E-01  0.10196435903E+01  0.10193543160E+01 0.  0.
     999903    2    3    3    0    0  0.10955933742E+00 -0.61548265118E-01  0.12167581876E-01  0.12828223474E+00  0.22734210914E-01 0.  0.
         14    1    1    2    0    0  0.18508055656E-01  0.62830453316E-03 -0.15712632072E-01  0.24286409726E-01  0.00000000000E+00 0.  1.
     999901    1    3    3    0    0 -0.12806739307E+00  0.60919960585E-01  0.35450501960E-02  0.89136135554E+00  0.88000000000E+00 0.  1.
        -11    1    4    4    0    0  0.70164956616E-01 -0.38197483736E-01 -0.32576861875E-02  0.79956504057E-01  0.51100000000E-03 0. -1.
         11    1    4    4    0    0  0.39394380800E-01 -0.23350781382E-01  0.15425268064E-01  0.48325730679E-01  0.51100000000E-03 0.  1.
</event>
<event>
 8    1  0.1207611E+005  0.1043930E+01  0.7957747E-01            NaN
         13   -1    0    0    0    0  0.00000000000E+00  0.00000000000E+00  0.74505805969E-08  0.10566000000E+00  0.10566000000E+00 0.  1.
     999900   -1    0    0    0    0 -0.00000000000E+00 -0.00000000000E+00 -0.74505805969E-08  0.93827000000E+00  0.93827000000E+00 0. -1.
     999902    2    1    2    0    0 -0.80739842677E-02  0.18026298848E-01 -0.10900941247E-01  0.10213696988E+01  0.10211205092E+01 0.  0.
     999903    2    3    3    0    0 -0.65982759138E-01 -0.51675109501E-01 -0.10063062334E+00  0.13217729642E+00  0.17896197621E-01 0.  0.
         14    1    1    2    0    0  0.80739842677E-02 -0.18026298848E-01  0.10900941247E-01  0.22560301243E-01  0.00000000000E+00 0.  1.
     999901    1    3    3    0    0  0.57908774871E-01  0.69701408350E-01  0.89729682089E-01  0.88919240234E+00  0.88000000000E+00 0.  1.
        -11    1    4    4    0    0 -0.17817746429E-01 -0.24764814743E-01 -0.36855798136E-01  0.47847456718E-01  0.51100000000E-03 0.  1.
         11    1    4    4    0    0 -0.48165012709E-01 -0.26910294758E-01 -0.63774825200E-01  0.84329839698E-01  0.51100000000E-03 0. -1.
</event>
<event>
 8    1  0.1207611E+005  0.1043930E+01  0.7957747E-01            NaN
         13   -1    0    0    0    0  0.00000000000E+00  0.00000000000E+00  0.74505805969E-08  0.10566000000E+00  0.10566000000E+00 0. -1.
     999900   -1    0    0    0    0 -0.00000000000E+00 -0.00000000000E+00 -0.74505805969E-08  0.93827000000E+00  0.93827000000E+00 0.  1.
     999902    2    1    2    0    0 -0.14922148801E-01  0.92288453559E-02  0.14234538695E-01  0.10213365451E+01  0.10210866144E+01 0.  0.
     999903    2    3    3    0    0  0.59959217623E-01 -0.42568503687E-01  0.10752661485E+00  0.13173348989E+00  0.19610052834E-01 0.  0.
         14    1    1    2    0    0  0.14922148801E-01 -0.92288453559E-02 -0.14234538695E-01  0.22593454878E-01  0.00000000000E+00 0.  1.
     999901    1    3    3    0    0 -0.74881366425E-01  0.51797349043E-01 -0.93292076159E-01  0.88960305523E+00  0.88000000000E+00 0.  1.
        -11    1    4    4    0    0  0.51412299705E-01 -0.36545924155E-01  0.10191196286E+00  0.11985465543E+00  0.51100000000E-03 0.  1.
         11    1    4    4    0    0  0.85469179185E-02 -0.60225795314E-02  0.56146519985E-02  0.11878834462E-01  0.51100000000E-03 0. -1.
</event>
<event>
 8    1  0.1207611E+005  0.1043930E+01  0.7957747E-01            NaN
         13   -1    0    0    0    0  0.00000000000E+00  0.00000000000E+00  0.74505805969E-08  0.10566000000E+00  0.10566000000E+00 0. -1.
     999900   -1    0    0    0    0 -0.00000000000E+00 -0.00000000000E+00 -0.74505805969E-08  0.93827000000E+00  0.93827000000E+00 0. -1.
     999902    2    1    2    0    0  0.18876354674E-01 -0.14270512039E-01 -0.36306340933E-02  0.10199895367E+01  0.10197085413E+01 0.  0.
     999903    2    3    3    0    0  0.89359663325E-01  0.91209669995E-01 -0.20712920786E-01  0.13072817459E+00  0.18880604183E-01 0.  0.
         14    1    1    2    0    0 -0.18876354674E-01  0.14270512039E-01  0.36306340933E-02  0.23940463311E-01  0.00000000000E+00 0. -1.
     999901    1    3    3    0    0 -0.70483308651E-01 -0.10548018203E+00  0.17082286693E-01  0.88926136210E+00  0.88000000000E+00 0. -1.
        -11    1    4    4    0    0  0.58437213605E-01  0.63537344382E-01 -0.22432593651E-01  0.89192961852E-01  0.51100000000E-03 0.  1.
         11    1    4    4    0    0  0.30922449720E-01  0.27672325613E-01  0.17196728650E-02  0.41535212739E-01  0.51100000000E-03 0. -1.
</event>
<event>
 8    1  0.1207611E+005  0.1043930E+01  0.7957747E-01            NaN
         13   -1    0    0    0    0  0.00000000000E+00  0.00000000000E+00  0.74505805969E-08  0.10566000000E+00  0.10566000000E+00 0. -1.
     999900   -1    0    0    0    0 -0.00000000000E+00 -0.00000000000E+00 -0.74505805969E-08  0.93827000000E+00  0.93827000000E+00 0. -1.
     999902    2    1    2    0    0  0.11880350533E-01  0.17219921867E-02  0.22810483107E-01  0.10181535354E+01  0.10178271934E+01 0.  0.
     999903    2    3    3    0    0  0.60639858617E-01  0.13532808126E-02  0.11561417264E+00  0.13193113086E+00  0.18977949119E-01 0.  0.
         14    1    1    2    0    0 -0.11880350533E-01 -0.17219921867E-02 -0.22810483107E-01  0.25776464564E-01  0.00000000000E+00 0.  1.
     999901    1    3    3    0    0 -0.48759508084E-01  0.36871137412E-03 -0.92803689536E-01  0.88622240457E+00  0.88000000000E+00 0. -1.
        -11    1    4    4    0    0  0.23141403881E-01 -0.67072376851E-03  0.26298939199E-01  0.35040972703E-01  0.51100000000E-03 0. -1.
         11    1    4    4    0    0  0.37498454736E-01  0.20240045811E-02  0.89315233443E-01  0.96890158159E-01  0.51100000000E-03 0.  1.
</event>
<event>
 8    1  0.1207611E+005  0.1043930E+01  0.7957747E-01            NaN
         13   -1    0    0    0    0  0.00000000000E+00  0.00000000000E+00  0.74505805969E-08  0.10566000000E+00  0.10566000000E+00 0.  1.
     999900   -1    0    0    0    0 -0.00000000000E+00 -0.00000000000E+00 -0.74505805969E-08  0.93827000000E+00  0.93827000000E+00 0. -1.
     999902    2    1    2    0    0 -0.19239353635E-01 -0.90441344001E-04 -0.11981978595E-01  0.10212644155E+01  0.10210128685E+01 0.  0.
     999903    2    3    3    0    0 -0.46962268254E-02 -0.12984450046E+00  0.40920607510E-02  0.13148579524E+00  0.19751469436E-01 0.  0.
         14    1    1    2    0    0  0.19239353635E-01  0.90441344001E-04  0.11981978595E-01  0.22665584461E-01  0.00000000000E+00 0.  1.
     999901    1    3    3    0    0 -0.14543126809E-01  0.12975405911E+00 -0.16074039346E-01  0.88977862030E+00  0.88000000000E+00 0. -1.
        -11    1    4    4    0    0  0.74475361216E-02 -0.41051314614E-01 -0.78572599134E-03  0.41731938754E-01  0.51100000000E-03 0.  1.
         11    1    4    4    0    0 -0.12143762947E-01 -0.88793185841E-01  0.48777867423E-02  0.89753856490E-01  0.51100000000E-03 0. -1.
</event>
<event>
 8    1  0.1207611E+005  0.1043930E+01  0.7957747E-01            NaN
         13   -1    0    0    0    0  0.00000000000E+00  0.00000000000E+00  0.74505805969E-08  0.10566000000E+00  0.10566000000E+00 0. -1.
     999900   -1    0    0    0    0 -0.00000000000E+00 -0.00000000000E+00 -0.74505805969E-08  0.93827000000E+00  0.93827000000E+00 0. -1.
     999902    2    1    2    0    0 -0.99649623264E-02  0.21956354893E-01 -0.10690640665E-01  0.10175544092E+01  0.10172125165E+01 0.  0.
     999903    2    3    3    0    0 -0.66881783737E-01 -0.10415724612E+00  0.14942126275E-01  0.12637473947E+00  0.20625293313E-01 0.  0.
         14    1    1    2    0    0  0.99649623264E-02 -0.21956354893E-01  0.10690640665E-01  0.26375590840E-01  0.00000000000E+00 0. -1.
     999901    1    3    3    0    0  0.56916821410E-01  0.12611360101E+00 -0.25632766940E-01  0.89117966969E+00  0.88000000000E+00 0.  1.
        -11    1    4    4    0    0 -0.96782766100E-02 -0.11466995152E-01  0.85214163800E-02  0.17263738705E-01  0.51100000000E-03 0. -1.
         11    1    4    4    0    0 -0.57203507127E-01 -0.92690250969E-01  0.64207098948E-02  0.10911100077E+00  0.51100000000E-03 0.  1.
</event>
<event>
 8    1  0.1207611E+005  0.1043930E+01  0.7957747E-01            NaN
         13   -1    0    0    0    0  0.00000000000E+00  0.00000000000E+00  0.74505805969E-08  0.10566000000E+00  0.10566000000E+00 0. -1.
     999900   -1    0    0    0    0 -0.00000000000E+00 -0.00000000000E+00 -0.74505805969E-08  0.93827000000E+00  0.93827000000E+00 0. -1.
     999902    2    1    2    0    0 -0.12077298083E-01  0.53342201121E-02  0.19300809722E-01  0.10205454690E+01  0.10202775201E+01 0.  0.
     999903    2    3    3    0    0 -0.63675109341E-01  0.10004898402E+00 -0.52220407976E-01  0.13108017728E+00  0.19766717336E-01 0.  0.
         14    1    1    2    0    0  0.12077298083E-01 -0.53342201121E-02 -0.19300809722E-01  0.23384530979E-01  0.00000000000E+00 0.  1.
     999901    1    3    3    0    0  0.51597811257E-01 -0.94714763907E-01  0.71521217698E-01  0.88946529174E+00  0.88000000000E+00 0. -1.
        -11    1    4    4    0    0 -0.23666450860E-01  0.28418960597E-01 -0.24967312063E-01  0.44624724205E-01  0.51100000000E-03 0. -1.
         11    1    4    4    0    0 -0.40008658481E-01  0.71630023422E-01 -0.27253095913E-01  0.86455453077E-01  0.51100000000E-03 0.  1.
</event>
<event>
 8    1  0.1207611E+005  0.1043930E+01  0.7957747E-01            NaN
         13   -1    0    0    0    0  0.00000000000E+00  0.00000000000E+00  0.74505805969E-08  0.10566000000E+00  0.10566000000E+00 0.  1.
     999900   -1    0    0    0    0 -0.00000000000E+00 -0.00000000000E+00 -0.74505805969E-08  0.93827000000E+00  0.93827000000E+00 0. -1.
     999902    2    1    2    0    0 -0.15445692702E-01 -0.16196042089E-01 -0.64934998117E-02  0.10206266367E+01  0.10203605661E+01 0.  0.
     999903    2    3    3    0    0  0.47462989654E-01 -0.96926593942E-02  0.11844598390E+00  0.12955443371E+00  0.20204384635E-01 0.  0.
         14    1    1    2    0    0  0.15445692702E-01  0.16196042089E-01  0.64934998117E-02  0.23303363324E-01  0.00000000000E+00 0. -1.
     999901    1    3    3    0    0 -0.62908682356E-01 -0.65033826950E-02 -0.12493948372E+00  0.89107220296E+00  0.88000000000E+00 0. -1.
        -11    1    4    4    0    0  0.85787198508E-02 -0.33736319289E-02  0.77419231531E-02  0.12048830722E-01  0.51100000000E-03 0.  1.
         11    1    4    4    0    0  0.38884269803E-01 -0.63190274653E-02  0.11070406075E+00  0.11750560299E+00  0.51100000000E-03 0. -1.
</event>
<event>
 8    1  0.1207611E+005  0.1043930E+01  0.7957747E-01            NaN
         13   -1    0    0    0    0  0.00000000000E+00  0.00000000000E+00  0.74505805969E-08  0.10566000000E+00  0.10566000000E+00 0. -1.
     999900   -1    0    0    0    0 -0.00000000000E+00 -0.00000000000E+00 -0.74505805969E-08  0.93827000000E+00  0.93827000000E+00 0. -1.
     999902    2    1    2    0    0 -0.54083222161E-02  0.12166906884E-01  0.18941835757E-01  0.10207766695E+01  0.10205140529E+01 0.  0.
     999903    2    3    3    0    0  0.11369313379E+00  0.38000823354E-01 -0.46167909205E-01  0.12999508741E+00  0.19926255629E-01 0.  0.
         14    1    1    2    0    0  0.54083222161E-02 -0.12166906884E-01 -0.18941835757E-01  0.23153330520E-01  0.00000000000E+00 0.  1.
     999901    1    3    3    0    0 -0.11910145601E+00 -0.25833916469E-01  0.65109744962E-01  0.89078158207E+00  0.88000000000E+00 0. -1.
        -11    1    4    4    0    0  0.50271049679E-01  0.92893795098E-02 -0.26839921302E-01  0.57741782999E-01  0.51100000000E-03 0.  1.
         11    1    4    4    0    0  0.63422084115E-01  0.28711443844E-01 -0.19327987903E-01  0.72253304412E-01  0.51100000000E-03 0. -1.
</event>
<event>
 8    1  0.1207611E+005  0.1043930E+01  0.7957747E-01            NaN
         13   -1    0    0    0    0  0.00000000000E+00  0.00000000000E+00  0.74505805969E-08  0.10566000000E+00  0.10566000000E+00 0. -1.
     999900   -1    0    0    0    0 -0.00000000000E+00 -0.00000000000E+00 -0.74505805969E-08  0.93827000000E+00  0.93827000000E+00 0. -1.
     999902    2    1    2    0    0  0.22291582540E-01  0.86674901031E-02  0.33459264510E-02  0.10197797358E+01  0.10194937343E+01 0.  0.
     999903    2    3    3    0    0  0.38925141681E-01 -0.31792260413E-01 -0.11872076790E+00  0.13027765904E+00  0.18754552403E-01 0.  0.
         14    1    1    2    0    0 -0.22291582540E-01 -0.86674901031E-02 -0.33459264510E-02  0.24150264194E-01  0.00000000000E+00 0.  1.
     999901    1    3    3    0    0 -0.16633559141E-01  0.40459750516E-01  0.12206669436E+00  0.88950207677E+00  0.88000000000E+00 0.  1.
        -11    1    4    4    0    0  0.15065559412E-01 -0.16759870294E-02 -0.31089948343E-01  0.34592282692E-01  0.51100000000E-03 0. -1.
         11    1    4    4    0    0  0.23859582269E-01 -0.30116273384E-01 -0.87630819561E-01  0.95685376346E-01  0.51100000000E-03 0.  1.
</event>
<event>
 8    1  0.1207611E+005  0.1043930E+01  0.7957747E-01            NaN
         13   -1    0    0    0    0  0.00000000000E+00  0.00000000000E+00  0.74505805969E-08  0.10566000000E+00  0.10566000000E+00 0.  1.
     999900   -1    0    0    0    0 -0.00000000000E+00 -0.00000000000E+00 -0.74505805969E-08  0.93827000000E+00  0.93827000000E+00 0. -1.
     999902    2    1    2    0    0 -0.16744427004E-01  0.75718364052E-02 -0.15977651156E-01  0.10195785344E+01  0.10192876894E+01 0.  0.
     999903    2    3    3    0    0  0.87622488896E-01 -0.84855993141E-01  0.30609639659E-01  0.12738700085E+00  0.20304132892E-01 0.  0.
         14    1    1    2    0    0  0.16744427004E-01 -0.75718364052E-02  0.15977651156E-01  0.24351465638E-01  0.00000000000E+00 0. -1.
     999901    1    3    3    0    0 -0.10436691590E+00  0.92427829546E-01 -0.46587290815E-01  0.89219153351E+00  0.88000000000E+00 0.  1.
        -11    1    4    4    0    0  0.62024922418E-01 -0.49807125980E-01  0.13275366996E-01  0.80649471723E-01  0.51100000000E-03 0.  1.
         11    1    4    4    0    0  0.25597566478E-01 -0.35048867162E-01  0.17334272663E-01  0.46737529125E-01  0.51100000000E-03 0. -1.
</event>
<event>
 8    1  0.1207611E+005  0.1043930E+01  0.7957747E-01            NaN
         13   -1    0    0    0    0  0.00000000000E+00  0.00000000000E+00  0.74505805969E-08  0.10566000000E+00  0.10566000000E+00 0. -1.
     999900   -1    0    0    0    0 -0.00000000000E+00 -0.00000000000E+00 -0.74505805969E-08  0.93827000000E+00  0.93827000000E+00 0. -1.
     999902    2    1    2    0    0 -0.11905847709E-01 -0.18531438882E-01 -0.76752035897E-02  0.10206046450E+01  0.10203380661E+01 0.  0.
     999903    2    3    3    0    0  0.12353871071E+00 -0.31231157254E-01 -0.17517635513E-01  0.13009727010E+00  0.19525212059E-01 0.  0.
         14    1    1    2    0    0  0.11905847709E-01  0.18531438882E-01  0.76752035897E-02  0.23325355021E-01  0.00000000000E+00 0. -1.
     999901    1    3    3    0    0 -0.13544455842E+00  0.12699718372E-01  0.98424319237E-02  0.89050737488E+00  0.88000000000E+00 0. -1.
        -11    1    4    4    0    0  0.67500487018E-01 -0.24726987132E-01 -0.35458601949E-02  0.71976203608E-01  0.51100000000E-03 0.  1.
         11    1    4    4    0    0  0.56038223690E-01 -0.65041701223E-02 -0.13971775319E-01  0.58121066490E-01  0.51100000000E-03 0. -1.
</event>
<event>
 8    1  0.1207611E+005  0.1043930E+01  0.7957747E-01            NaN
         13   -1    0    0    0    0  0.00000000000E+00  0.00000000000E+00  0.74505805969E-08  0.10566000000E+00  0.10566000000E+00 0. -1.
     999900   -1    0    0    0    0 -0.00000000000E+00 -0.00000000000E+00 -0.74505805969E-08  0.93827000000E+00  0.93827000000E+00 0. -1.
     999902    2    1    2    0    0  0.16957855711E-01  0.92262753687E-02  0.13298313189E-01  0.10204877697E+01  0.10202184815E+01 0.  0.
     999903    2    3    3    0    0  0.63792509003E-01  0.11481258959E+00  0.15477987299E-02  0.13286170593E+00  0.19960518226E-01 0.  0.
         14    1    1    2    0    0 -0.16957855711E-01 -0.92262753687E-02 -0.13298313189E-01  0.23442230294E-01  0.00000000000E+00 0.  1.
     999901    1    3    3    0    0 -0.46834653293E-01 -0.10558631423E+00  0.11750514459E-01  0.88762606377E+00  0.88000000000E+00 0.  1.
        -11    1    4    4    0    0  0.35490597131E-01  0.44064931742E-01  0.27924608193E-02  0.56651210513E-01  0.51100000000E-03 0. -1.
         11    1    4    4    0    0  0.28301911872E-01  0.70747657853E-01 -0.12446620894E-02  0.76210495419E-01  0.51100000000E-03 0.  1.
</event>
<event>
 8    1  0.1207611E+005  0.1043930E+01  0.7957747E-01            NaN
         13   -1    0    0    0    0  0.00000000000E+00  0.00000000000E+00  0.74505805969E-08  0.10566000000E+00  0.10566000000E+00 0. -1.
     999900   -1    0    0    0    0 -0.00000000000E+00 -0.00000000000E+00 -0.74505805969E-08  0.93827000000E+00  0.93827000000E+00 0. -1.
     999902    2    1    2    0    0 -0.17163169851E-01  0.18665317972E-01 -0.15421194977E-02  0.10185263265E+01  0.10182094731E+01 0.  0.
     999903    2    3    3    0    0  0.43385479692E-01  0.52919234808E-01  0.10752086238E+00  0.12906907414E+00  0.20380009582E-01 0.  0.
         14    1    1    2    0    0  0.17163169851E-01 -0.18665317972E-01  0.15421194977E-02  0.25403673492E-01  0.00000000000E+00 0.  1.
     999901    1    3    3    0    0 -0.60548649544E-01 -0.34253916836E-01 -0.10906298188E+00  0.88945725237E+00  0.88000000000E+00 0. -1.
        -11    1    4    4    0    0  0.26492604644E-01  0.20446144303E-01  0.39081447669E-01  0.51454092068E-01  0.51100000000E-03 0.  1.
         11    1    4    4    0    0  0.16892875048E-01  0.32473090505E-01  0.68439414712E-01  0.77614982068E-01  0.51100000000E-03 0. -1.
</event>
<event>
 8    1  0.1207611E+005  0.1043930E+01  0.7957747E-01            NaN
         13   -1    0    0    0    0  0.00000000000E+00  0.00000000000E+00  0.74505805969E-08  0.10566000000E+00  0.10566000000E+00 0. -1.
     999900   -1    0    0    0    0 -0.00000000000E+00 -0.00000000000E+00 -0.74505805969E-08  0.93827000000E+00  0.93827000000E+00 0. -1.
     999902    2    1    2    0    0 -0.61137931481E-02 -0.21469983802E-01 -0.76209893958E-02  0.10203414827E+01  0.10200687835E+01 0.  0.
     999903    2    3    3    0    0 -0.11006322533E+00  0.40098992048E-01 -0.56114759611E-01  0.13076412852E+00  0.15117814952E-01 0.  0.
         14    1    1    2    0    0  0.61137931481E-02  0.21469983802E-01  0.76209893958E-02  0.23588517344E-01  0.00000000000E+00 0. -1.
     999901    1    3    3    0    0  0.10394943218E+00 -0.61568975850E-01  0.48493770215E-01  0.88957735413E+00  0.88000000000E+00 0.  1.
        -11    1    4    4    0    0 -0.10543194444E+00  0.41349396406E-01 -0.53167117493E-01  0.12511063502E+00  0.51100000000E-03 0.  1.
         11    1    4    4    0    0 -0.46312808927E-02 -0.12504043577E-02 -0.29476421181E-02  0.56534935058E-02  0.51100000000E-03 0. -1.
</event>
<event>
 8    1  0.1207611E+005  0.1043930E+01  0.7957747E-01            NaN
         13   -1    0    0    0    0  0.00000000000E+00  0.00000000000E+00  0.74505805969E-08  0.10566000000E+00  0.10566000000E+00 0. -1.
     999900   -1    0    0    0    0 -0.00000000000E+00 -0.00000000000E+00 -0.74505805969E-08  0.93827000000E+00  0.93827000000E+00 0. -1.
     999902    2    1    2    0    0 -0.18169080098E-01 -0.12641316423E-01  0.90995765156E-02  0.10199984174E+01  0.10197176329E+01 0.  0.
     999903    2    3    3    0    0  0.12573090529E+00  0.56841746846E-02  0.13258557832E-01  0.12811259145E+00  0.19911713774E-01 0.  0.
         14    1    1    2    0    0  0.18169080098E-01  0.12641316423E-01 -0.90995765156E-02  0.23931582590E-01  0.00000000000E+00 0.  1.
     999901    1    3    3    0    0 -0.14389998539E+00 -0.18325491107E-01 -0.41589813169E-02  0.89188582596E+00  0.88000000000E+00 0.  1.
        -11    1    4    4    0    0  0.81627245460E-01  0.12276913883E-01  0.45394122972E-02  0.82671622706E-01  0.51100000000E-03 0.  1.
         11    1    4    4    0    0  0.44103659831E-01 -0.65927391980E-02  0.87191455353E-02  0.45440968746E-01  0.51100000000E-03 0. -1.
</event>
<event>
 8    1  0.1207611E+005  0.1043930E+01  0.7957747E-01            NaN
         13   -1    0    0    0    0  0.00000000000E+00  0.00000000000E+00  0.74505805969E-08  0.10566000000E+00  0.10566000000E+00 0. -1.
     999900   -1    0    0    0    0 -0.00000000000E+00 -0.00000000000E+00 -0.74505805969E-08  0.93827000000E+00  0.93827000000E+00 0. -1.
     999902    2    1    2    0    0 -0.23502821471E-01  0.29310016151E-02  0.79116202057E-03  0.10202319131E+01  0.10199566447E+01 0.  0.
     999903    2    3    3    0    0  0.41564686219E-01 -0.11692283047E+00  0.29921721143E-01  0.12925081836E+00  0.20295152735E-01 0.  0.
         14    1    1    2    0    0  0.23502821471E-01 -0.29310016151E-02 -0.79116202057E-03  0.23698086947E-01  0.00000000000E+00 0.  1.
     999901    1    3    3    0    0 -0.65067507691E-01  0.11985383209E+00 -0.29130559122E-01  0.89098109469E+00  0.88000000000E+00 0. -1.
        -11    1    4    4    0    0  0.17571387062E-01 -0.44213375473E-01  0.15797161753E-02  0.47606016828E-01  0.51100000000E-03 0. -1.
         11    1    4    4    0    0  0.23993299157E-01 -0.72709455001E-01  0.28342004967E-01  0.81644801534E-01  0.51100000000E-03 0.  1.
</event>
<event>
 8    1  0.1207611E+005  0.1043930E+01  0.7957747E-01            NaN
         13   -1    0    0    0    0  0.00000000000E+00  0.00000000000E+00  0.74505805969E-08  0.10566000000E+00  0.10566000000E+00 0.  1.
     999900   -1    0    0    0    0 -0.00000000000E+00 -0.00000000000E+00 -0.74505805969E-08  0.93827000000E+00  0.93827000000E+00 0. -1.
     999902    2    1    2    0    0 -0.19672499316E-01 -0.84449200822E-03 -0.11261539083E-01  0.10212464672E+01  0.10209945172E+01 0.  0.
     999903    2    3    3    0    0 -0.63769202602E-01  0.52747243661E-01 -0.10327227545E+00  0.13373163977E+00  0.19240729803E-01 0.  0.
         14    1    1    2    0    0  0.19672499316E-01  0.84449200822E-03  0.11261539083E-01  0.22683532763E-01  0.00000000000E+00 0. -1.
     999901    1    3    3    0    0  0.44096703286E-01 -0.53591735669E-01  0.92010736368E-01  0.88751482747E+00  0.88000000000E+00 0.  1.
        -11    1    4    4    0    0 -0.41150037958E-01  0.35578427465E-01 -0.52763684407E-01  0.75785339203E-01  0.51100000000E-03 0.  1.
         11    1    4    4    0    0 -0.22619164644E-01  0.17168816196E-01 -0.50508591044E-01  0.57946300564E-01  0.51100000000E-03 0. -1.
</event>
<event>
 8    1  0.1207611E+005  0.1043930E+01  0.7957747E-01            NaN
         13   -1    0    0    0    0  0.00000000000E+00  0.00000000000E+00  0.74505805969E-08  0.10566000000E+00  0.10566000000E+00 0. -1.
     999900   -1    0    0    0    0 -0.00000000000E+00 -0.00000000000E+00 -0.74505805969E-08  0.93827000000E+00  0.93827000000E+00 0. -1.
     999902    2    1    2    0    0 -0.17621731690E-01 -0.16796443094E-02 -0.14467868591E-01  0.10210681135E+01  0.10208121407E+01 0.  0.
     999903    2    3    3    0    0 -0.41539715271E-02 -0.60218160494E-01 -0.11698460438E+00  0.13308285486E+00  0.19549073191E-01 0.  0.
         14    1    1    2    0    0  0.17621731690E-01  0.16796443094E-02  0.14467868591E-01  0.22861886499E-01  0.00000000000E+00 0. -1.
     999901    1    3    3    0    0 -0.13467760163E-01  0.58538516184E-01  0.10251673579E+00  0.88798525864E+00  0.88000000000E+00 0.  1.
        -11    1    4    4    0    0 -0.68436149711E-02 -0.54811553312E-01 -0.91447783099E-01  0.10683678953E+00  0.51100000000E-03 0.  1.
         11    1    4    4    0    0  0.26896434440E-02 -0.54066071819E-02 -0.25536821285E-01  0.26246065332E-01  0.51100000000E-03 0. -1.
</event>
<event>
 8    1  0.1207611E+005  0.1043930E+01  0.7957747E-01            NaN
         13   -1    0    0    0    0  0.00000000000E+00  0.00000000000E+00  0.74505805969E-08  0.10566000000E+00  0.10566000000E+00 0.  1.
     999900   -1    0    0    0    0 -0.00000000000E+00 -0.00000000000E+00 -0.74505805969E-08  0.93827000000E+00  0.93827000000E+00 0.  1.
     999902    2    1    2    0    0 -0.97979114049E-02 -0.90392821150E-02 -0.16140824947E-01  0.10229959627E+01  0.10227817488E+01 0.  0.
     999903    2    3    3    0    0  0.10610674267E+00  0.74464955074E-01 -0.32695861250E-02  0.13138365048E+00  0.21149540070E-01 0.  0.
         14    1    1    2    0    0  0.97979114049E-02  0.90392821150E-02  0.16140824947E-01  0.20934037332E-01  0.00000000000E+00 0.  1.
     999901    1    3    3    0    0 -0.11590465407E+00 -0.83504237190E-01 -0.12871238822E-01  0.89161231219E+00  0.88000000000E+00 0.  1.
        -11    1    4    4    0    0  0.75926958792E-02  0.12153084850E-01 -0.37250479101E-02  0.14814979076E-01  0.51100000000E-03 0. -1.
         11    1    4    4    0    0  0.98514046788E-01  0.62311870224E-01  0.45546178508E-03  0.11656867140E+00  0.51100000000E-03 0.  1.
</event>
<event>
 8    1  0.1207611E+005  0.1043930E+01  0.7957747E-01            NaN
         13   -1    0    0    0    0  0.00000000000E+00  0.00000000000E+00  0.74505805969E-08  0.10566000000E+00  0.10566000000E+00 0. -1.
     999900   -1    0    0    0    0 -0.00000000000E+00 -0.00000000000E+00 -0.74505805969E-08  0.93827000000E+00  0.93827000000E+00 0. -1.
     999902    2    1    2    0    0 -0.14344904950E-01  0.65583361150E-02  0.19513005390E-01  0.10188392557E+01  0.10185302565E+01 0.  0.
     999903    2    3    3    0    0 -0.60217800981E-01 -0.81591712174E-01  0.80609719852E-01  0.13114135543E+00  0.20414140197E-01 0.  0.
         14    1    1    2    0    0  0.14344904950E-01 -0.65583361150E-02 -0.19513005390E-01  0.25090744309E-01  0.00000000000E+00 0.  1.
     999901    1    3    3    0    0  0.45872896031E-01  0.88150048289E-01 -0.61096714462E-01  0.88769790026E+00  0.88000000000E+00 0. -1.
        -11    1    4    4    0    0 -0.18098828768E-02 -0.48310173209E-02  0.11091878872E-01  0.12243582086E-01  0.51100000000E-03 0.  1.
         11    1    4    4    0    0 -0.58407918104E-01 -0.76760694853E-01  0.69517840979E-01  0.11889777335E+00  0.51100000000E-03 0. -1.
</event>
<event>
 8    1  0.1207611E+005  0.1043930E+01  0.7957747E-01            NaN
         13   -1    0    0    0    0  0.00000000000E+00  0.00000000000E+00  0.74505805969E-08  0.10566000000E+00  0.10566000000E+00 0.  1.
     999900   -1    0    0    0    0 -0.00000000000E+00 -0.00000000000E+00 -0.74505805969E-08  0.93827000000E+00  0.93827000000E+00 0.  1.
     999902    2    1    2    0    0 -0.67113198047E-02 -0.17223217562E-01 -0.14613359576E-01  0.10203666531E+01  0.10200945425E+01 0.  0.
     999903    2    3    3    0    0  0.57735278395E-01 -0.74809023499E-01  0.87108692834E-01  0.13030100107E+00  0.21463320907E-01 0.  0.
         14    1    1    2    0    0  0.67113198047E-02  0.17223217562E-01  0.14613359576E-01  0.23563346851E-01  0.00000000000E+00 0.  1.
     999901    1    3    3    0    0 -0.64446598199E-01  0.57585805937E-01 -0.10172205241E+00  0.89006565208E+00  0.88000000000E+00 0.  1.
        -11    1    4    4    0    0  0.45548072124E-01 -0.65721184355E-01  0.81255189549E-01  0.11400249075E+00  0.51100000000E-03 0.  1.
         11    1    4    4    0    0  0.12187206270E-01 -0.90878391437E-02  0.58535032854E-02  0.16298510321E-01  0.51100000000E-03 0. -1.
</event>
<event>
 8    1  0.1207611E+005  0.1043930E+01  0.7957747E-01            NaN
         13   -1    0    0    0    0  0.00000000000E+00  0.00000000000E+00  0.74505805969E-08  0.10566000000E+00  0.10566000000E+00 0. -1.
     999900   -1    0    0    0    0 -0.00000000000E+00 -0.00000000000E+00 -0.74505805969E-08  0.93827000000E+00  0.93827000000E+00 0. -1.
     999902    2    1    2    0    0  0.69548153316E-02 -0.20973142459E-01  0.62538904536E-02  0.10209658256E+01  0.10207075309E+01 0.  0.
     999903    2    3    3    0    0 -0.11551012235E+00  0.47306342546E-01  0.28356183927E-01  0.12959145955E+00  0.20233507158E-01 0.  0.
         14    1    1    2    0    0 -0.69548153316E-02  0.20973142459E-01 -0.62538904536E-02  0.22964174418E-01  0.00000000000E+00 0.  1.
     999901    1    3    3    0    0  0.12246493768E+00 -0.68279485005E-01 -0.22102293473E-01  0.89137436603E+00  0.88000000000E+00 0.  1.
        -11    1    4    4    0    0 -0.19848228193E-01  0.99014702652E-02  0.13053123858E-01  0.25741725646E-01  0.51100000000E-03 0.  1.
         11    1    4    4    0    0 -0.95661894158E-01  0.37404872281E-01  0.15303060069E-01  0.10384973391E+00  0.51100000000E-03 0. -1.
</event>
<event>
 8    1  0.1207611E+005  0.1043930E+01  0.7957747E-01            NaN
         13   -1    0    0    0    0  0.00000000000E+00  0.00000000000E+00  0.74505805969E-08  0.10566000000E+00  0.10566000000E+00 0.  1.
     999900   -1    0    0    0    0 -0.00000000000E+00 -0.00000000000E+00 -0.74505805969E-08  0.93827000000E+00  0.93827000000E+00 0.  1.
     999902    2    1    2    0    0  0.15632300145E-01 -0.89945131796E-02 -0.17423202896E-01  0.10188533560E+01  0.10185447084E+01 0.  0.
     999903    2    3    3    0    0  0.29420777089E-01 -0.12340319894E+00 -0.26212609667E-01  0.13129675322E+00  0.21396375104E-01 0.  0.
         14    1    1    2    0    0 -0.15632300145E-01  0.89945131796E-02  0.17423202896E-01  0.25076644001E-01  0.00000000000E+00 0.  1.
     999901    1    3    3    0    0 -0.13788476944E-01  0.11440868576E+00  0.87894067704E-02  0.88755660278E+00  0.88000000000E+00 0. -1.
        -11    1    4    4    0    0  0.10398958925E-01 -0.15559844755E-01 -0.12167910447E-03  0.18722260610E-01  0.51100000000E-03 0. -1.
         11    1    4    4    0    0  0.19021818164E-01 -0.10784335418E+00 -0.26090930562E-01  0.11257449261E+00  0.51100000000E-03 0.  1.
</event>
<event>
 8    1  0.1207611E+005  0.1043930E+01  0.7957747E-01            NaN
         13   -1    0    0    0    0  0.00000000000E+00  0.00000000000E+00  0.74505805969E-08  0.10566000000E+00  0.10566000000E+00 0.  1.
     999900   -1    0    0    0    0 -0.00000000000E+00 -0.00000000000E+00 -0.74505805969E-08  0.93827000000E+00  0.93827000000E+00 0.  1.
     999902    2    1    2    0    0  0.82317294780E-02 -0.21895558116E-01  0.41598243674E-02  0.10201711917E+01  0.10198944942E+01 0.  0.
     999903    2    3    3    0    0  0.20460478375E-02  0.88768209184E-01 -0.90246743810E-01  0.12820856230E+00  0.20223239211E-01 0.  0.
         14    1    1    2    0    0 -0.82317294780E-02  0.21895558116E-01 -0.41598243674E-02  0.23758808349E-01  0.00000000000E+00 0.  1.
     999901    1    3    3    0    0  0.61856816404E-02 -0.11066376730E+00  0.94406568178E-01  0.89196262935E+00  0.88000000000E+00 0. -1.
        -11    1    4    4    0    0 -0.45462430967E-02  0.14071523072E-01 -0.76789756271E-02  0.16670449171E-01  0.51100000000E-03 0. -1.
         11    1    4    4    0    0  0.65922909342E-02  0.74696686112E-01 -0.82567768183E-01  0.11153811313E+00  0.51100000000E-03 0.  1.
</event>
<event>
 8    1  0.1207611E+005  0.1043930E+01  0.7957747E-01            NaN
         13   -1    0    0    0    0  0.00000000000E+00  0.00000000000E+00  0.74505805969E-08  0.10566000000E+00  0.10566000000E+00 0.  1.
     999900   -1    0    0    0    0 -0.00000000000E+00 -0.00000000000E+00 -0.74505805969E-08  0.93827000000E+00  0.93827000000E+00 0. -1.
     999902    2    1    2    0    0  0.20224773240E-01 -0.88412661432E-02 -0.94821369116E-02  0.10199066705E+01  0.10196237032E+01 0.  0.
     999903    2    3    3    0    0  0.12657621947E+00  0.18701219442E-02 -0.35599273441E-01  0.13305410735E+00  0.20274380904E-01 0.  0.
         14    1    1    2    0    0 -0.20224773240E-01  0.88412661432E-02  0.94821369116E-02  0.24023329495E-01  0.00000000000E+00 0.  1.
     999901    1    3    3    0    0 -0.10635144624E+00 -0.10711388087E-01  0.26117136530E-01  0.88685256315E+00  0.88000000000E+00 0.  1.
        -11    1    4    4    0    0  0.91311388765E-01 -0.72031086657E-02 -0.22182244221E-01  0.94244191186E-01  0.51100000000E-03 0.  1.
         11    1    4    4    0    0  0.35264830710E-01  0.90732306099E-02 -0.13417029221E-01  0.38809916166E-01  0.51100000000E-03 0. -1.
</event>
<event>
 8    1  0.1207611E+005  0.1043930E+01  0.7957747E-01            NaN
         13   -1    0    0    0    0  0.00000000000E+00  0.00000000000E+00  0.74505805969E-08  0.10566000000E+00  0.10566000000E+00 0. -1.
     999900   -1    0    0    0    0 -0.00000000000E+00 -0.00000000000E+00 -0.74505805969E-08  0.93827000000E+00  0.93827000000E+00 0.  1.
     999902    2    1    2    0    0 -0.68889808139E-02  0.19941965298E-01 -0.15589295113E-01  0.10176970787E+01  0.10173589228E+01 0.  0.
     999903    2    3    3    0    0  0.90953299922E-02  0.44957035441E-01  0.11687097129E+00  0.12728875997E+00  0.20970083962E-01 0.  0.
         14    1    1    2    0    0  0.68889808139E-02 -0.19941965298E-01  0.15589295113E-01  0.26232921277E-01  0.00000000000E+00 0. -1.
     999901    1    3    3    0    0 -0.15984310806E-01 -0.25015070143E-01 -0.13246026640E+00  0.89040831875E+00  0.88000000000E+00 0.  1.
        -11    1    4    4    0    0  0.55526540600E-02  0.16370525862E-02  0.24813823932E-01  0.25485268046E-01  0.51100000000E-03 0.  1.
         11    1    4    4    0    0  0.35426759322E-02  0.43319982855E-01  0.92057147359E-01  0.10180349193E+00  0.51100000000E-03 0. -1.
</event>
<event>
 8    1  0.1207611E+005  0.1043930E+01  0.7957747E-01            NaN
         13   -1    0    0    0    0  0.00000000000E+00  0.00000000000E+00  0.74505805969E-08  0.10566000000E+00  0.10566000000E+00 0.  1.
     999900   -1    0    0    0    0 -0.00000000000E+00 -0.00000000000E+00 -0.74505805969E-08  0.93827000000E+00  0.93827000000E+00 0.  1.
     999902    2    1    2    0    0 -0.22158381514E-01 -0.37975021664E-02  0.71256768663E-02  0.10203463157E+01  0.10200737296E+01 0.  0.
     999903    2    3    3    0    0 -0.82468917312E-01 -0.78689178147E-01 -0.63716235931E-01  0.13227835633E+00  0.21087810523E-01 0.  0.
         14    1    1    2    0    0  0.22158381514E-01  0.37975021664E-02 -0.71256768663E-02  0.23583684293E-01  0.00000000000E+00 0. -1.
     999901    1    3    3    0    0  0.60310535799E-01  0.74891675981E-01  0.70841912797E-01  0.88806795937E+00  0.88000000000E+00 0.  1.
        -11    1    4    4    0    0 -0.34560530631E-01 -0.38988456859E-01 -0.40009431535E-01  0.65692813751E-01  0.51100000000E-03 0. -1.
         11    1    4    4    0    0 -0.47908386681E-01 -0.39700721288E-01 -0.23706804396E-01  0.66585542581E-01  0.51100000000E-03 0.  1.
</event>
<event>
 8    1  0.1207611E+005  0.1043930E+01  0.7957747E-01            NaN
         13   -1    0    0    0    0  0.00000000000E+00  0.00000000000E+00  0.74505805969E-08  0.10566000000E+00  0.10566000000E+00 0.  1.
     999900   -1    0    0    0    0 -0.00000000000E+00 -0.00000000000E+00 -0.74505805969E-08  0.93827000000E+00  0.93827000000E+00 0. -1.
     999902    2    1    2    0    0  0.53187801146E-02  0.17821710511E-02 -0.18144328562E-01  0.10249383646E+01  0.10247623964E+01 0.  0.
     999903    2    3    3    0    0  0.78944203834E-01 -0.42740810077E-01  0.95962831936E-01  0.13340965339E+00  0.23028381167E-01 0.  0.
         14    1    1    2    0    0 -0.53187801146E-02 -0.17821710511E-02  0.18144328562E-01  0.18991635384E-01  0.00000000000E+00 0.  1.
     999901    1    3    3    0    0 -0.73625423719E-01  0.44522981128E-01 -0.11410716050E+00  0.89152871123E+00  0.88000000000E+00 0. -1.
        -11    1    4    4    0    0  0.35864219902E-01 -0.13479070030E-01  0.26486944999E-01  0.46580542873E-01  0.51100000000E-03 0. -1.
         11    1    4    4    0    0  0.43079983932E-01 -0.29261740047E-01  0.69475886937E-01  0.86829110515E-01  0.51100000000E-03 0.  1.
</event>
<event>
 8    1  0.1207611E+005  0.1043930E+01  0.7957747E-01            NaN
         13   -1    0    0    0    0  0.00000000000E+00  0.00000000000E+00  0.74505805969E-08  0.10566000000E+00  0.10566000000E+00 0.  1.
     999900   -1    0    0    0    0 -0.00000000000E+00 -0.00000000000E+00 -0.74505805969E-08  0.93827000000E+00  0.93827000000E+00 0. -1.
     999902    2    1    2    0    0 -0.16530981255E-01  0.16682846863E-01 -0.42451273397E-02  0.10200634580E+01  0.10197842157E+01 0.  0.
     999903    2    3    3    0    0 -0.12473456457E+00 -0.37401662445E-01  0.42007302945E-03  0.13177582796E+00  0.20176630569E-01 0.  0.
         14    1    1    2    0    0  0.16530981255E-01 -0.16682846863E-01  0.42451273397E-02  0.23866541995E-01  0.00000000000E+00 0. -1.
     999901    1    3    3    0    0  0.10820358332E+00  0.54084509308E-01 -0.46652003692E-02  0.88828763004E+00  0.88000000000E+00 0. -1.
        -11    1    4    4    0    0 -0.82845759421E-01 -0.26444551206E-01 -0.91005748477E-02  0.87440355249E-01  0.51100000000E-03 0.  1.
         11    1    4    4    0    0 -0.41888805152E-01 -0.10957111239E-01  0.95206478771E-02  0.44335472714E-01  0.51100000000E-03 0. -1.
</event>
<event>
 8    1  0.1207611E+005  0.1043930E+01  0.7957747E-01            NaN
         13   -1    0    0    0    0  0.00000000000E+00  0.00000000000E+00  0.74505805969E-08  0.10566000000E+00  0.10566000000E+00 0.  1.
     999900   -1    0    0    0    0 -0.00000000000E+00 -0.00000000000E+00 -0.74505805969E-08  0.93827000000E+00  0.93827000000E+00 0. -1.
     999902    2    1    2    0    0 -0.12703304845E-01 -0.77982806099E-02  0.17263036082E-01  0.10211221165E+01  0.10208673652E+01 0.  0.
     999903    2    3    3    0    0  0.49004197718E-01 -0.80958566283E-01 -0.86585965310E-01  0.12986185241E+00  0.20279804603E-01 0.  0.
         14    1    1    2    0    0  0.12703304845E-01  0.77982806099E-02 -0.17263036082E-01  0.22807883489E-01  0.00000000000E+00 0. -1.
     999901    1    3    3    0    0 -0.61707502563E-01  0.73160285673E-01  0.10384900139E+00  0.89126026410E+00  0.88000000000E+00 0.  1.
        -11    1    4    4    0    0  0.32474212898E-01 -0.62769094020E-01 -0.53487588794E-01  0.88632482439E-01  0.51100000000E-03 0.  1.
         11    1    4    4    0    0  0.16529984820E-01 -0.18189472263E-01 -0.33098376516E-01  0.41229369973E-01  0.51100000000E-03 0. -1.
</event>
<event>
 8    1  0.1207611E+005  0.1043930E+01  0.7957747E-01            NaN
         13   -1    0    0    0    0  0.00000000000E+00  0.00000000000E+00  0.74505805969E-08  0.10566000000E+00  0.10566000000E+00 0. -1.
     999900   -1    0    0    0    0 -0.00000000000E+00 -0.00000000000E+00 -0.74505805969E-08  0.93827000000E+00  0.93827000000E+00 0. -1.
     999902    2    1    2    0    0 -0.59367466293E-03 -0.91372523988E-02  0.25743512534E-01  0.10166065619E+01  0.10162393082E+01 0.  0.
     999903    2    3    3    0    0 -0.53900750388E-01 -0.72474216333E-01 -0.85515758075E-01  0.12574639297E+00  0.18477216795E-01 0.  0.
         14    1    1    2    0    0  0.59367466293E-03  0.91372523988E-02 -0.25743512534E-01  0.27323438081E-01  0.00000000000E+00 0. -1.
     999901    1    3    3    0    0  0.53307075725E-01  0.63336963934E-01  0.11125927061E+00  0.89086016895E+00  0.88000000000E+00 0. -1.
        -11    1    4    4    0    0 -0.32639013905E-01 -0.45261737825E-01 -0.40233797337E-01  0.68796436745E-01  0.51100000000E-03 0. -1.
         11    1    4    4    0    0 -0.21261736483E-01 -0.27212478507E-01 -0.45281960738E-01  0.56949956225E-01  0.51100000000E-03 0.  1.
</event>
<event>
 8    1  0.1207611E+005  0.1043930E+01  0.7957747E-01            NaN
         13   -1    0    0    0    0  0.00000000000E+00  0.00000000000E+00  0.74505805969E-08  0.10566000000E+00  0.10566000000E+00 0.  1.
     999900   -1    0    0    0    0 -0.00000000000E+00 -0.00000000000E+00 -0.74505805969E-08  0.93827000000E+00  0.93827000000E+00 0.  1.
     999902    2    1    2    0    0  0.15185539396E-01 -0.18851963067E-01 -0.28471561249E-02  0.10195557633E+01  0.10192643676E+01 0.  0.
     999903    2    3    3    0    0  0.12492733595E+00 -0.39324474134E-01  0.54454168341E-03  0.13249663940E+00  0.20045183841E-01 0.  0.
         14    1    1    2    0    0 -0.15185539396E-01  0.18851963067E-01  0.28471561249E-02  0.24374236731E-01  0.00000000000E+00 0.  1.
     999901    1    3    3    0    0 -0.10974179655E+00  0.20472511068E-01 -0.33916978083E-02  0.88705912387E+00  0.88000000000E+00 0. -1.
        -11    1    4    4    0    0  0.11588509186E+00 -0.41329398609E-01  0.22953792406E-02  0.12305691200E+00  0.51100000000E-03 0.  1.
         11    1    4    4    0    0  0.90422440902E-02  0.20049244745E-02 -0.17508375572E-02  0.94397274053E-02  0.51100000000E-03 0. -1.
</event>
<event>
 8    1  0.1207611E+005  0.1043930E+01  0.7957747E-01            NaN
         13   -1    0    0    0    0  0.00000000000E+00  0.00000000000E+00  0.74505805969E-08  0.10566000000E+00  0.10566000000E+00 0. -1.
     999900   -1    0    0    0    0 -0.00000000000E+00 -0.00000000000E+00 -0.74505805969E-08  0.93827000000E+00  0.93827000000E+00 0.  1.
     999902    2    1    2    0    0  0.27494461266E-02 -0.13571104499E-01  0.20087689829E-01  0.10195322621E+01  0.10192402974E+01 0.  0.
     999903    2    3    3    0    0  0.93717588377E-01  0.81583884109E-01 -0.24659020788E-01  0.12861591201E+00  0.22250146060E-01 0.  0.
         14    1    1    2    0    0 -0.27494461266E-02  0.13571104499E-01 -0.20087689829E-01  0.24397737887E-01  0.00000000000E+00 0.  1.
     999901    1    3    3    0    0 -0.90968142250E-01 -0.95154988608E-01  0.44746710618E-01  0.89091635010E+00  0.88000000000E+00 0.  1.
        -11    1    4    4    0    0  0.52477746474E-01  0.49632424694E-01 -0.35016333321E-02  0.72317453031E-01  0.51100000000E-03 0. -1.
         11    1    4    4    0    0  0.41239841903E-01  0.31951459415E-01 -0.21157387456E-01  0.56298458983E-01  0.51100000000E-03 0.  1.
</event>
<event>
 8    1  0.1207611E+005  0.1043930E+01  0.7957747E-01            NaN
         13   -1    0    0    0    0  0.00000000000E+00  0.00000000000E+00  0.74505805969E-08  0.10566000000E+00  0.10566000000E+00 0.  1.
     999900   -1    0    0    0    0 -0.00000000000E+00 -0.00000000000E+00 -0.74505805969E-08  0.93827000000E+00  0.93827000000E+00 0. -1.
     999902    2    1    2    0    0  0.76995891049E-02  0.20165294688E-01  0.83140749843E-02  0.10207989251E+01  0.10205368190E+01 0.  0.
     999903    2    3    3    0    0 -0.56114475056E-01 -0.10132046804E+00 -0.51069717538E-01  0.12818620947E+00  0.20221688688E-01 0.  0.
         14    1    1    2    0    0 -0.76995891049E-02 -0.20165294688E-01 -0.83140749843E-02  0.23131074879E-01  0.00000000000E+00 0.  1.
     999901    1    3    3    0    0  0.63814064161E-01  0.12148576273E+00  0.59383792522E-01  0.89261271565E+00  0.88000000000E+00 0. -1.
        -11    1    4    4    0    0 -0.10997717450E-01 -0.35537515224E-01 -0.22367600334E-01  0.43410084579E-01  0.51100000000E-03 0. -1.
         11    1    4    4    0    0 -0.45116757606E-01 -0.65782952817E-01 -0.28702117204E-01  0.84776124889E-01  0.51100000000E-03 0.  1.
</event>
<event>
 8    1  0.1207611E+005  0.1043930E+01  0.7957747E-01            NaN
         13   -1    0    0    0    0  0.00000000000E+00  0.00000000000E+00  0.74505805969E-08  0.10566000000E+00  0.10566000000E+00 0.  1.
     999900   -1    0    0    0    0 -0.00000000000E+00 -0.00000000000E+00 -0.74505805969E-08  0.93827000000E+00  0.93827000000E+00 0.  1.
     999902    2    1    2    0    0  0.92262510196E-02  0.14730405409E-01  0.16213420209E-01  0.10201606175E+01  0.10198836708E+01 0.  0.
     999903    2    3    3    0    0  0.11332929222E+00  0.59701972497E-01 -0.24563004322E-01  0.13194746634E+00  0.19973449769E-01 0.  0.
         14    1    1    2    0    0 -0.92262510196E-02 -0.14730405409E-01 -0.16213420209E-01  0.23769382538E-01  0.00000000000E+00 0. -1.
     999901    1    3    3    0    0 -0.10410304120E+00 -0.44971567088E-01  0.40776424531E-01  0.88821315113E+00  0.88000000000E+00 0. -1.
        -11    1    4    4    0    0  0.86703441320E-01  0.41099739759E-01 -0.10417092193E-01  0.96516590676E-01  0.51100000000E-03 0. -1.
         11    1    4    4    0    0  0.26625850902E-01  0.18602232739E-01 -0.14145912129E-01  0.35430875660E-01  0.51100000000E-03 0.  1.
</event>
<event>
 8    1  0.1207611E+005  0.1043930E+01  0.7957747E-01            NaN
         13   -1    0    0    0    0  0.00000000000E+00  0.00000000000E+00  0.74505805969E-08  0.10566000000E+00  0.10566000000E+00 0. -1.
     999900   -1    0    0    0    0 -0.00000000000E+00 -0.00000000000E+00 -0.74505805969E-08  0.93827000000E+00  0.93827000000E+00 0. -1.
     999902    2    1    2    0    0 -0.12636623764E-01 -0.80903683903E-02  0.18672101812E-01  0.10199761755E+01  0.10196948627E+01 0.  0.
     999903    2    3    3    0    0 -0.20614547766E-01 -0.12789853095E+00 -0.98640334605E-02  0.13136379991E+00  0.19394715001E-01 0.  0.
         14    1    1    2    0    0  0.12636623764E-01  0.80903683903E-02 -0.18672101812E-01  0.23953824474E-01  0.00000000000E+00 0.  1.
     999901    1    3    3    0    0  0.79779240022E-02  0.11980816256E+00  0.28536135272E-01  0.88861237562E+00  0.88000000000E+00 0.  1.
        -11    1    4    4    0    0 -0.18900515651E-02 -0.71072891778E-01 -0.33789147294E-02  0.71180098527E-01  0.51100000000E-03 0.  1.
         11    1    4    4    0    0 -0.18724496201E-01 -0.56825639176E-01 -0.64851187311E-02  0.60183701379E-01  0.51100000000E-03 0. -1.
</event>
<event>
 8    1  0.1207611E+005  0.1043930E+01  0.7957747E-01            NaN
         13   -1    0    0    0    0  0.00000000000E+00  0.00000000000E+00  0.74505805969E-08  0.10566000000E+00  0.10566000000E+00 0.  1.
     999900   -1    0    0    0    0 -0.00000000000E+00 -0.00000000000E+00 -0.74505805969E-08  0.93827000000E+00  0.93827000000E+00 0. -1.
     999902    2    1    2    0    0  0.23882147227E-01  0.48953414386E-02  0.55550315963E-02  0.10189264063E+01  0.10186195765E+01 0.  0.
     999903    2    3    3    0    0 -0.49531665920E-01  0.86207766938E-01 -0.78363850240E-01  0.12817185127E+00  0.20049075402E-01 0.  0.
         14    1    1    2    0    0 -0.23882147227E-01 -0.48953414386E-02 -0.55550315963E-02  0.25003593742E-01  0.00000000000E+00 0. -1.
     999901    1    3    3    0    0  0.73413813147E-01 -0.81312425500E-01  0.83918881837E-01  0.89075455499E+00  0.88000000000E+00 0.  1.
        -11    1    4    4    0    0 -0.44027922071E-01  0.61598791799E-01 -0.53161262558E-01  0.92516214961E-01  0.51100000000E-03 0. -1.
         11    1    4    4    0    0 -0.55037438483E-02  0.24608975139E-01 -0.25202587683E-01  0.35655636310E-01  0.51100000000E-03 0.  1.
</event>
<event>
 8    1  0.1207611E+005  0.1043930E+01  0.7957747E-01            NaN
         13   -1    0    0    0    0  0.00000000000E+00  0.00000000000E+00  0.74505805969E-08  0.10566000000E+00  0.10566000000E+00 0. -1.
     999900   -1    0    0    0    0 -0.00000000000E+00 -0.00000000000E+00 -0.74505805969E-08  0.93827000000E+00  0.93827000000E+00 0.  1.
     999902    2    1    2    0    0  0.14246733852E-01  0.51442031929E-02  0.18037764529E-01  0.10203759515E+01  0.10201040580E+01 0.  0.
     999903    2    3    3    0    0  0.10036379131E+00  0.46748081082E-01  0.72144701807E-01  0.13354192480E+00  0.19243544098E-01 0.  0.
         14    1    1    2    0    0 -0.14246733852E-01 -0.51442031929E-02 -0.18037764529E-01  0.23554048509E-01  0.00000000000E+00 0.  1.
     999901    1    3    3    0    0 -0.86117057455E-01 -0.41603877889E-01 -0.54106937278E-01  0.88683402669E+00  0.88000000000E+00 0.  1.
        -11    1    4    4    0    0  0.93216991336E-01  0.48373734566E-01  0.67805456183E-01  0.12500906639E+00  0.51100000000E-03 0. -1.
         11    1    4    4    0    0  0.71467999711E-02 -0.16256534846E-02  0.43392456243E-02  0.85328584113E-02  0.51100000000E-03 0.  1.
</event>
<event>
 8    1  0.1207611E+005  0.1043930E+01  0.7957747E-01            NaN
         13   -1    0    0    0    0  0.00000000000E+00  0.00000000000E+00  0.74505805969E-08  0.10566000000E+00  0.10566000000E+00 0. -1.
     999900   -1    0    0    0    0 -0.00000000000E+00 -0.00000000000E+00 -0.74505805969E-08  0.93827000000E+00  0.93827000000E+00 0. -1.
     999902    2    1    2    0    0  0.20768795437E-01 -0.11145156778E-01 -0.54076044231E-02  0.10197473705E+01  0.10194605927E+01 0.  0.
     999903    2    3    3    0    0 -0.29295084336E-01  0.12147197642E+00  0.18935025143E-01  0.12807127478E+00  0.20738206912E-01 0.  0.
         14    1    1    2    0    0 -0.20768795437E-01  0.11145156778E-01  0.54076044231E-02  0.24182629491E-01  0.00000000000E+00 0. -1.
     999901    1    3    3    0    0  0.50063879773E-01 -0.13261713320E+00 -0.24342629566E-01  0.89167609573E+00  0.88000000000E+00 0. -1.
        -11    1    4    4    0    0 -0.17726060655E-02  0.32315427905E-01 -0.20442718308E-02  0.32432532761E-01  0.51100000000E-03 0.  1.
         11    1    4    4    0    0 -0.27522478270E-01  0.89156548514E-01  0.20979296974E-01  0.95638742022E-01  0.51100000000E-03 0. -1.
</event>
<event>
 8    1  0.1207611E+005  0.1043930E+01  0.7957747E-01            NaN
         13   -1    0    0    0    0  0.00000000000E+00  0.00000000000E+00  0.74505805969E-08  0.10566000000E+00  0.10566000000E+00 0. -1.
     999900   -1    0    0    0    0 -0.00000000000E+00 -0.00000000000E+00 -0.74505805969E-08  0.93827000000E+00  0.93827000000E+00 0.  1.
     999902    2    1    2    0    0 -0.12008888762E-01 -0.48246128368E-03 -0.20466490711E-01  0.10201955647E+01  0.10199194413E+01 0.  0.
     999903    2    3    3    0    0 -0.74342278558E-01 -0.27423536509E-01 -0.10558811430E+00  0.13348424535E+00  0.19757761504E-01 0.  0.
         14    1    1    2    0    0  0.12008888762E-01  0.48246128368E-03  0.20466490711E-01  0.23734435325E-01  0.00000000000E+00 0.  1.
     999901    1    3    3    0    0  0.62333389796E-01  0.26941075226E-01  0.85121623587E-01  0.88671131933E+00  0.88000000000E+00 0. -1.
        -11    1    4    4    0    0 -0.71827393260E-01 -0.29948157629E-01 -0.10277899968E+00  0.12891799899E+00  0.51100000000E-03 0. -1.
         11    1    4    4    0    0 -0.25148852979E-02  0.25246211193E-02 -0.28091146169E-02  0.45662463565E-02  0.51100000000E-03 0.  1.
</event>
<event>
 8    1  0.1207611E+005  0.1043930E+01  0.7957747E-01            NaN
         13   -1    0    0    0    0  0.00000000000E+00  0.00000000000E+00  0.74505805969E-08  0.10566000000E+00  0.10566000000E+00 0.  1.
     999900   -1    0    0    0    0 -0.00000000000E+00 -0.00000000000E+00 -0.74505805969E-08  0.93827000000E+00  0.93827000000E+00 0.  1.
     999902    2    1    2    0    0  0.15812924147E-01  0.12448198188E-01 -0.13654851469E-01  0.10196100251E+01  0.10193199410E+01 0.  0.
     999903    2    3    3    0    0  0.36033433909E-01 -0.77477949749E-01 -0.97090707255E-01  0.13087096157E+00  0.19984045893E-01 0.  0.
         14    1    1    2    0    0 -0.15812924147E-01 -0.12448198188E-01  0.13654851469E-01  0.24319974853E-01  0.00000000000E+00 0. -1.
     999901    1    3    3    0    0 -0.20220509762E-01  0.89926147936E-01  0.83435855786E-01  0.88873906358E+00  0.88000000000E+00 0. -1.
        -11    1    4    4    0    0  0.18396700506E-01 -0.20094768621E-01 -0.36776912830E-01  0.45771615154E-01  0.51100000000E-03 0. -1.
         11    1    4    4    0    0  0.17636733403E-01 -0.57383181128E-01 -0.60313794425E-01  0.85099346416E-01  0.51100000000E-03 0.  1.
</event>
<event>
 8    1  0.1207611E+005  0.1043930E+01  0.7957747E-01            NaN
         13   -1    0    0    0    0  0.00000000000E+00  0.00000000000E+00  0.74505805969E-08  0.10566000000E+00  0.10566000000E+00 0.  1.
     999900   -1    0    0    0    0 -0.00000000000E+00 -0.00000000000E+00 -0.74505805969E-08  0.93827000000E+00  0.93827000000E+00 0. -1.
     999902    2    1    2    0    0 -0.15911842631E-01  0.16893075690E-01 -0.53201435378E-04  0.10207229844E+01  0.10204591346E+01 0.  0.
     999903    2    3    3    0    0 -0.12309235555E+00 -0.41869556019E-01 -0.13361216446E-01  0.13217483574E+00  0.19669198837E-01 0.  0.
         14    1    1    2    0    0  0.15911842631E-01 -0.16893075690E-01  0.53201435378E-04  0.23207015589E-01  0.00000000000E+00 0.  1.
     999901    1    3    3    0    0  0.10718051292E+00  0.58762631709E-01  0.13308015011E-01  0.88854814867E+00  0.88000000000E+00 0. -1.
        -11    1    4    4    0    0 -0.56174062342E-01 -0.99926311665E-02 -0.10348311240E-01  0.57989021583E-01  0.51100000000E-03 0.  1.
         11    1    4    4    0    0 -0.66918293209E-01 -0.31876924852E-01 -0.30129052064E-02  0.74185814161E-01  0.51100000000E-03 0. -1.
</event>
<event>
 8    1  0.1207611E+005  0.1043930E+01  0.7957747E-01            NaN
         13   -1    0    0    0    0  0.00000000000E+00  0.00000000000E+00  0.74505805969E-08  0.10566000000E+00  0.10566000000E+00 0.  1.
     999900   -1    0    0    0    0 -0.00000000000E+00 -0.00000000000E+00 -0.74505805969E-08  0.93827000000E+00  0.93827000000E+00 0.  1.
     999902    2    1    2    0    0  0.31820404971E-02  0.25057143994E-01 -0.26623592702E-02  0.10185316929E+01  0.10182149751E+01 0.  0.
     999903    2    3    3    0    0  0.97877488639E-01 -0.36386370631E-02  0.81358882652E-01  0.12900921154E+00  0.20757321911E-01 0.  0.
         14    1    1    2    0    0 -0.31820404971E-02 -0.25057143994E-01  0.26623592702E-02  0.25398307104E-01  0.00000000000E+00 0. -1.
     999901    1    3    3    0    0 -0.94695448142E-01  0.28695781057E-01 -0.84021241922E-01  0.88952248136E+00  0.88000000000E+00 0.  1.
        -11    1    4    4    0    0  0.15430773667E-01 -0.59916513704E-02  0.21287377724E-01  0.26970766275E-01  0.51100000000E-03 0. -1.
         11    1    4    4    0    0  0.82446714972E-01  0.23530143073E-02  0.60071504928E-01  0.10203844526E+00  0.51100000000E-03 0.  1.
</event>
<event>
 8    1  0.1207611E+005  0.1043930E+01  0.7957747E-01            NaN
         13   -1    0    0    0    0  0.00000000000E+00  0.00000000000E+00  0.74505805969E-08  0.10566000000E+00  0.10566000000E+00 0.  1.
     999900   -1    0    0    0    0 -0.00000000000E+00 -0.00000000000E+00 -0.74505805969E-08  0.93827000000E+00  0.93827000000E+00 0. -1.
     999902    2    1    2    0    0  0.96428801536E-02  0.17638099830E-01 -0.11634014907E-01  0.10207041953E+01  0.10204399131E+01 0.  0.
     999903    2    3    3    0    0  0.12350434997E+00  0.29049916687E-01  0.28199476626E-01  0.13240167307E+00  0.25254117039E-01 0.  0.
         14    1    1    2    0    0 -0.96428801536E-02 -0.17638099830E-01  0.11634014907E-01  0.23225804746E-01  0.00000000000E+00 0.  1.
     999901    1    3    3    0    0 -0.11386146982E+00 -0.11411816857E-01 -0.39833491532E-01  0.88830252219E+00  0.88000000000E+00 0.  1.
        -11    1    4    4    0    0  0.13737937382E-01  0.42014815874E-02  0.11942305042E-01  0.18688583193E-01  0.51100000000E-03 0.  1.
         11    1    4    4    0    0  0.10976641259E+00  0.24848435099E-01  0.16257171584E-01  0.11371308988E+00  0.51100000000E-03 0. -1.
</event>
<event>
 8    1  0.1207611E+005  0.1043930E+01  0.7957747E-01            NaN
         13   -1    0    0    0    0  0.00000000000E+00  0.00000000000E+00  0.74505805969E-08  0.10566000000E+00  0.10566000000E+00 0. -1.
     999900   -1    0    0    0    0 -0.00000000000E+00 -0.00000000000E+00 -0.74505805969E-08  0.93827000000E+00  0.93827000000E+00 0.  1.
     999902    2    1    2    0    0  0.43684055131E-02 -0.19132004837E-01 -0.14549231762E-01  0.10195005767E+01  0.10192078440E+01 0.  0.
     999903    2    3    3    0    0  0.53604073333E-01  0.11465603631E+00 -0.13700015946E-02  0.12793056657E+00  0.18572819319E-01 0.  0.
         14    1    1    2    0    0 -0.43684055131E-02  0.19132004837E-01  0.14549231762E-01  0.24429423257E-01  0.00000000000E+00 0. -1.
     999901    1    3    3    0    0 -0.49235667819E-01 -0.13378804115E+00 -0.13179230168E-01  0.89157001018E+00  0.88000000000E+00 0.  1.
        -11    1    4    4    0    0  0.16706011624E-01  0.51908385837E-01 -0.66927787622E-02  0.54942021743E-01  0.51100000000E-03 0.  1.
         11    1    4    4    0    0  0.36898061709E-01  0.62747650472E-01  0.53227771677E-02  0.72988544823E-01  0.51100000000E-03 0. -1.
</event>
<event>
 8    1  0.1207611E+005  0.1043930E+01  0.7957747E-01            NaN
         13   -1    0    0    0    0  0.00000000000E+00  0.00000000000E+00  0.74505805969E-08  0.10566000000E+00  0.10566000000E+00 0. -1.
     999900   -1    0    0    0    0 -0.00000000000E+00 -0.00000000000E+00 -0.74505805969E-08  0.93827000000E+00  0.93827000000E+00 0. -1.
     999902    2    1    2    0    0 -0.20821879042E-01 -0.51988885996E-02  0.76687195336E-02  0.10211399068E+01  0.10208855572E+01 0.  0.
     999903    2    3    3    0    0  0.13778283551E-01  0.89012076403E-02 -0.12735004722E+00  0.13005851244E+00  0.20690808003E-01 0.  0.
         14    1    1    2    0    0  0.20821879042E-01  0.51988885996E-02 -0.76687195336E-02  0.22790093216E-01  0.00000000000E+00 0.  1.
     999901    1    3    3    0    0 -0.34600162594E-01 -0.14100096240E-01  0.13501876676E+00  0.89108139434E+00  0.88000000000E+00 0.  1.
        -11    1    4    4    0    0 -0.50017596937E-02  0.44813795505E-03 -0.14760644610E-01  0.15599877498E-01  0.51100000000E-03 0. -1.
         11    1    4    4    0    0  0.18780043245E-01  0.84530696852E-02 -0.11258940261E+00  0.11445863494E+00  0.51100000000E-03 0.  1.
</event>
<event>
 8    1  0.1207611E+005  0.1043930E+01  0.7957747E-01            NaN
         13   -1    0    0    0    0  0.00000000000E+00  0.00000000000E+00  0.74505805969E-08  0.10566000000E+00  0.10566000000E+00 0. -1.
     999900   -1    0    0    0    0 -0.00000000000E+00 -0.00000000000E+00 -0.74505805969E-08  0.93827000000E+00  0.93827000000E+00 0. -1.
     999902    2    1    2    0    0 -0.17925340027E-01 -0.13381346804E-02 -0.15507173136E-01  0.10201901424E+01  0.10199138914E+01 0.  0.
     999903    2    3    3    0    0 -0.96211858431E-01  0.72641444035E-01  0.48554093957E-01  0.13131129636E+00  0.18752477608E-01 0.  0.
         14    1    1    2    0    0  0.17925340027E-01  0.13381346804E-02  0.15507173136E-01  0.23739857585E-01  0.00000000000E+00 0. -1.
     999901    1    3    3    0    0  0.78286518404E-01 -0.73979578715E-01 -0.64061267093E-01  0.88887884606E+00  0.88000000000E+00 0. -1.
        -11    1    4    4    0    0 -0.16674487683E-01  0.52905410892E-02  0.39342306901E-02  0.17937883282E-01  0.51100000000E-03 0.  1.
         11    1    4    4    0    0 -0.79537370748E-01  0.67350902945E-01  0.44619863267E-01  0.11337341307E+00  0.51100000000E-03 0. -1.
</event>
<event>
 8    1  0.1207611E+005  0.1043930E+01  0.7957747E-01            NaN
         13   -1    0    0    0    0  0.00000000000E+00  0.00000000000E+00  0.74505805969E-08  0.10566000000E+00  0.10566000000E+00 0. -1.
     999900   -1    0    0    0    0 -0.00000000000E+00 -0.00000000000E+00 -0.74505805969E-08  0.93827000000E+00  0.93827000000E+00 0. -1.
     999902    2    1    2    0    0  0.70090652977E-02  0.22533406162E-01  0.58746450117E-02  0.10196114301E+01  0.10193213799E+01 0.  0.
     999903    2    3    3    0    0 -0.18570293435E-01  0.51719290335E-01  0.11803063206E+00  0.13164460363E+00  0.19476415714E-01 0.  0.
         14    1    1    2    0    0 -0.70090652977E-02 -0.22533406162E-01 -0.58746450117E-02  0.24318569934E-01  0.00000000000E+00 0. -1.
     999901    1    3    3    0    0  0.25579358733E-01 -0.29185884173E-01 -0.11215598704E+00  0.88796682644E+00  0.88000000000E+00 0. -1.
        -11    1    4    4    0    0 -0.18999601020E-01  0.43327151201E-01  0.82251100330E-01  0.94887994481E-01  0.51100000000E-03 0.  1.
         11    1    4    4    0    0  0.42930758505E-03  0.83921391343E-02  0.35779531726E-01  0.36756609144E-01  0.51100000000E-03 0. -1.
</event>
<event>
 8    1  0.1207611E+005  0.1043930E+01  0.7957747E-01            NaN
         13   -1    0    0    0    0  0.00000000000E+00  0.00000000000E+00  0.74505805969E-08  0.10566000000E+00  0.10566000000E+00 0. -1.
     999900   -1    0    0    0    0 -0.00000000000E+00 -0.00000000000E+00 -0.74505805969E-08  0.93827000000E+00  0.93827000000E+00 0. -1.
     999902    2    1    2    0    0  0.16978955222E-01 -0.13221302008E-01  0.78509124048E-02  0.10210231326E+01  0.10207661401E+01 0.  0.
     999903    2    3    3    0    0 -0.16441749008E-01 -0.13972915006E-01  0.12876426857E+00  0.13212631742E+00  0.20286779672E-01 0.  0.
         14    1    1    2    0    0 -0.16978955222E-01  0.13221302008E-01 -0.78509124048E-02  0.22906867372E-01  0.00000000000E+00 0.  1.
     999901    1    3    3    0    0  0.33420704230E-01  0.75161299845E-03 -0.12091335617E+00  0.88889681521E+00  0.88000000000E+00 0. -1.
        -11    1    4    4    0    0 -0.15025513865E-01 -0.14780387706E-02  0.92847361747E-01  0.94068296306E-01  0.51100000000E-03 0.  1.
         11    1    4    4    0    0 -0.14162351426E-02 -0.12494876236E-01  0.35916906823E-01  0.38058021111E-01  0.51100000000E-03 0. -1.
</event>
<event>
 8    1  0.1207611E+005  0.1043930E+01  0.7957747E-01            NaN
         13   -1    0    0    0    0  0.00000000000E+00  0.00000000000E+00  0.74505805969E-08  0.10566000000E+00  0.10566000000E+00 0.  1.
     999900   -1    0    0    0    0 -0.00000000000E+00 -0.00000000000E+00 -0.74505805969E-08  0.93827000000E+00  0.93827000000E+00 0. -1.
     999902    2    1    2    0    0 -0.19059055315E-01 -0.67887193243E-02 -0.11679234428E-01  0.10205689466E+01  0.10203015417E+01 0.  0.
     999903    2    3    3    0    0 -0.39117659350E-02 -0.12183577430E+00 -0.48305614513E-01  0.13219585101E+00  0.16824173672E-01 0.  0.
         14    1    1    2    0    0  0.19059055315E-01  0.67887193243E-02  0.11679234428E-01  0.23361053410E-01  0.00000000000E+00 0. -1.
     999901    1    3    3    0    0 -0.15147289380E-01  0.11504705497E+00  0.36626380084E-01  0.88837309558E+00  0.88000000000E+00 0.  1.
        -11    1    4    4    0    0 -0.89859027550E-02 -0.37530771286E-01 -0.15078966064E-01  0.41435993776E-01  0.51100000000E-03 0. -1.
         11    1    4    4    0    0  0.50741368200E-02 -0.84305003010E-01 -0.33226648449E-01  0.90759857234E-01  0.51100000000E-03 0.  1.
</event>
<event>
 8    1  0.1207611E+005  0.1043930E+01  0.7957747E-01            NaN
         13   -1    0    0    0    0  0.00000000000E+00  0.00000000000E+00  0.74505805969E-08  0.10566000000E+00  0.10566000000E+00 0.  1.
     999900   -1    0    0    0    0 -0.00000000000E+00 -0.00000000000E+00 -0.74505805969E-08  0.93827000000E+00  0.93827000000E+00 0.  1.
     999902    2    1    2    0    0  0.17369874795E-01 -0.17004910452E-01  0.40114214832E-02  0.10192932179E+01  0.10189954333E+01 0.  0.
     999903    2    3    3    0    0 -0.11540543954E+00  0.27363254414E-01  0.41869388800E-01  0.12742380827E+00  0.20411223073E-01 0.  0.
         14    1    1    2    0    0 -0.17369874795E-01  0.17004910452E-01 -0.40114214832E-02  0.24636782099E-01  0.00000000000E+00 0.  1.
     999901    1    3    3    0    0  0.13277531434E+00 -0.44368164867E-01 -0.37857967317E-01  0.89186940963E+00  0.88000000000E+00 0.  1.
        -11    1    4    4    0    0 -0.79899715456E-01  0.24107806874E-01  0.37506940949E-01  0.91499631816E-01  0.51100000000E-03 0. -1.
         11    1    4    4    0    0 -0.35505724084E-01  0.32554475408E-02  0.43624478507E-02  0.35924176451E-01  0.51100000000E-03 0.  1.
</event>
<event>
 8    1  0.1207611E+005  0.1043930E+01  0.7957747E-01            NaN
         13   -1    0    0    0    0  0.00000000000E+00  0.00000000000E+00  0.74505805969E-08  0.10566000000E+00  0.10566000000E+00 0. -1.
     999900   -1    0    0    0    0 -0.00000000000E+00 -0.00000000000E+00 -0.74505805969E-08  0.93827000000E+00  0.93827000000E+00 0.  1.
     999902    2    1    2    0    0 -0.14260993162E-01  0.19130610041E-01 -0.44507002703E-02  0.10196572808E+01  0.10193683364E+01 0.  0.
     999903    2    3    3    0    0  0.72527156645E-02 -0.12406229423E+00 -0.21423717198E-01  0.12766225229E+00  0.19865051425E-01 0.  0.
         14    1    1    2    0    0  0.14260993162E-01 -0.19130610041E-01  0.44507002703E-02  0.24272719242E-01  0.00000000000E+00 0. -1.
     999901    1    3    3    0    0 -0.21513708827E-01  0.14319290427E+00  0.16973016928E-01  0.89199502846E+00  0.88000000000E+00 0.  1.
        -11    1    4    4    0    0  0.40439572418E-03 -0.34659133178E-01  0.28091581044E-02  0.34778895020E-01  0.51100000000E-03 0. -1.
         11    1    4    4    0    0  0.68483199403E-02 -0.89403161052E-01 -0.24232875303E-01  0.92883357274E-01  0.51100000000E-03 0.  1.
</event>
<event>
 8    1  0.1207611E+005  0.1043930E+01  0.7957747E-01            NaN
         13   -1    0    0    0    0  0.00000000000E+00  0.00000000000E+00  0.74505805969E-08  0.10566000000E+00  0.10566000000E+00 0. -1.
     999900   -1    0    0    0    0 -0.00000000000E+00 -0.00000000000E+00 -0.74505805969E-08  0.93827000000E+00  0.93827000000E+00 0. -1.
     999902    2    1    2    0    0  0.19185041040E-01 -0.74191046291E-02 -0.99181326493E-02  0.10210941013E+01  0.10208387167E+01 0.  0.
     999903    2    3    3    0    0 -0.70971751737E-01 -0.79200654447E-01 -0.74533253363E-01  0.13123121750E+00  0.18886327866E-01 0.  0.
         14    1    1    2    0    0 -0.19185041040E-01  0.74191046291E-02  0.99181326493E-02  0.22835898679E-01  0.00000000000E+00 0. -1.
     999901    1    3    3    0    0  0.90156792777E-01  0.71781549818E-01  0.64615120714E-01  0.88986288382E+00  0.88000000000E+00 0. -1.
        -11    1    4    4    0    0 -0.49472483551E-01 -0.66159215058E-01 -0.53284151303E-01  0.98305799762E-01  0.51100000000E-03 0. -1.
         11    1    4    4    0    0 -0.21499268186E-01 -0.13041439389E-01 -0.21249102060E-01  0.32925417738E-01  0.51100000000E-03 0.  1.
</event>
<event>
 8    1  0.1207611E+005  0.1043930E+01  0.7957747E-01            NaN
         13   -1    0    0    0    0  0.00000000000E+00  0.00000000000E+00  0.74505805969E-08  0.10566000000E+00  0.10566000000E+00 0.  1.
     999900   -1    0    0    0    0 -0.00000000000E+00 -0.00000000000E+00 -0.74505805969E-08  0.93827000000E+00  0.93827000000E+00 0.  1.
     999902    2    1    2    0    0  0.10439718118E-01 -0.15996471848E-01  0.12645245801E-01  0.10210219868E+01  0.10207649683E+01 0.  0.
     999903    2    3    3    0    0  0.74405259007E-01  0.26253537900E-01 -0.10171358206E+00  0.13031743691E+00  0.20287699884E-01 0.  0.
         14    1    1    2    0    0 -0.10439718118E-01  0.15996471848E-01 -0.12645245801E-01  0.22908013169E-01  0.00000000000E+00 0.  1.
     999901    1    3    3    0    0 -0.63965540888E-01 -0.42250009748E-01  0.11435882786E+00  0.89070454992E+00  0.88000000000E+00 0. -1.
        -11    1    4    4    0    0  0.49716198895E-01  0.27331989630E-01 -0.71934342741E-01  0.91616313374E-01  0.51100000000E-03 0. -1.
         11    1    4    4    0    0  0.24689060112E-01 -0.10784517301E-02 -0.29779239318E-01  0.38701123533E-01  0.51100000000E-03 0.  1.
</event>
<event>
 8    1  0.1207611E+005  0.1043930E+01  0.7957747E-01            NaN
         13   -1    0    0    0    0  0.00000000000E+00  0.00000000000E+00  0.74505805969E-08  0.10566000000E+00  0.10566000000E+00 0. -1.
     999900   -1    0    0    0    0 -0.00000000000E+00 -0.00000000000E+00 -0.74505805969E-08  0.93827000000E+00  0.93827000000E+00 0.  1.
     999902    2    1    2    0    0 -0.17855361215E-01 -0.87250064023E-02 -0.13112489221E-01  0.10201208204E+01  0.10198429345E+01 0.  0.
     999903    2    3    3    0    0  0.21784041295E-01  0.69346578319E-01  0.10292893901E+00  0.12819477656E+00  0.23580540099E-01 0.  0.
         14    1    1    2    0    0  0.17855361215E-01  0.87250064023E-02  0.13112489221E-01  0.23809179625E-01  0.00000000000E+00 0. -1.
     999901    1    3    3    0    0 -0.39639402510E-01 -0.78071584721E-01 -0.11604142823E+00  0.89192604382E+00  0.88000000000E+00 0.  1.
        -11    1    4    4    0    0  0.17125515450E-01  0.24916490084E-01  0.54348691369E-01  0.62194502427E-01  0.51100000000E-03 0.  1.
         11    1    4    4    0    0  0.46585258447E-02  0.44430088235E-01  0.48580247641E-01  0.66000274132E-01  0.51100000000E-03 0. -1.
</event>
<event>
 8    1  0.1207611E+005  0.1043930E+01  0.7957747E-01            NaN
         13   -1    0    0    0    0  0.00000000000E+00  0.00000000000E+00  0.74505805969E-08  0.10566000000E+00  0.10566000000E+00 0.  1.
     999900   -1    0    0    0    0 -0.00000000000E+00 -0.00000000000E+00 -0.74505805969E-08  0.93827000000E+00  0.93827000000E+00 0. -1.
     999902    2    1    2    0    0  0.20506357320E-01 -0.11178126072E-01  0.19668908320E-02  0.10204922131E+01  0.10202230282E+01 0.  0.
     999903    2    3    3    0    0  0.38531809781E-01 -0.79623380321E-01 -0.96252150878E-01  0.13220360581E+00  0.19716332889E-01 0.  0.
         14    1    1    2    0    0 -0.20506357320E-01  0.11178126072E-01 -0.19668908320E-02  0.23437786853E-01  0.00000000000E+00 0. -1.
     999901    1    3    3    0    0 -0.18025452461E-01  0.68445254249E-01  0.98219041710E-01  0.88828860733E+00  0.88000000000E+00 0.  1.
        -11    1    4    4    0    0  0.20492693216E-01 -0.21505832324E-01 -0.29303567645E-01  0.41730222824E-01  0.51100000000E-03 0.  1.
         11    1    4    4    0    0  0.18039116565E-01 -0.58117547996E-01 -0.66948583233E-01  0.90473382989E-01  0.51100000000E-03 0. -1.
</event>
<event>
 8    1  0.1207611E+005  0.1043930E+01  0.7957747E-01            NaN
         13   -1    0    0    0    0  0.00000000000E+00  0.00000000000E+00  0.74505805969E-08  0.10566000000E+00  0.10566000000E+00 0. -1.
     999900   -1    0    0    0    0 -0.00000000000E+00 -0.00000000000E+00 -0.74505805969E-08  0.93827000000E+00  0.93827000000E+00 0.  1.
     999902    2    1    2    0    0  0.11871795438E-01  0.41851048414E-02 -0.20395306665E-01  0.10199628733E+01  0.10196812442E+01 0.  0.
     999903    2    3    3    0    0 -0.73383061393E-01  0.37980907804E-01 -0.10041950662E+00  0.13158546503E+00  0.20075712687E-01 0.  0.
         14    1    1    2    0    0 -0.11871795438E-01 -0.41851048414E-02  0.20395306665E-01  0.23967126724E-01  0.00000000000E+00 0. -1.
     999901    1    3    3    0    0  0.85254856831E-01 -0.33795802962E-01  0.80024199953E-01  0.88837740825E+00  0.88000000000E+00 0.  1.
        -11    1    4    4    0    0 -0.42126745372E-01  0.20084179347E-01 -0.71533804124E-01  0.85413015338E-01  0.51100000000E-03 0. -1.
         11    1    4    4    0    0 -0.31256316021E-01  0.17896728457E-01 -0.28885702493E-01  0.46172449688E-01  0.51100000000E-03 0.  1.
</event>
<event>
 8    1  0.1207611E+005  0.1043930E+01  0.7957747E-01            NaN
         13   -1    0    0    0    0  0.00000000000E+00  0.00000000000E+00  0.74505805969E-08  0.10566000000E+00  0.10566000000E+00 0. -1.
     999900   -1    0    0    0    0 -0.00000000000E+00 -0.00000000000E+00 -0.74505805969E-08  0.93827000000E+00  0.93827000000E+00 0. -1.
     999902    2    1    2    0    0  0.14038479492E-01  0.26300119758E-02  0.19022927291E-01  0.10201420276E+01  0.10198646424E+01 0.  0.
     999903    2    3    3    0    0 -0.55924292504E-01 -0.29165730621E-01 -0.10893309540E+00  0.12757354143E+00  0.20746635012E-01 0.  0.
         14    1    1    2    0    0 -0.14038479492E-01 -0.26300119758E-02 -0.19022927291E-01  0.23787972427E-01  0.00000000000E+00 0.  1.
     999901    1    3    3    0    0  0.69962771996E-01  0.31795742597E-01  0.12795602269E+00  0.89256848614E+00  0.88000000000E+00 0.  1.
        -11    1    4    4    0    0 -0.24704742715E-01 -0.12431251740E-01 -0.68169454811E-01  0.73567628905E-01  0.51100000000E-03 0.  1.
         11    1    4    4    0    0 -0.31219549788E-01 -0.16734478881E-01 -0.40763640591E-01  0.54005912525E-01  0.51100000000E-03 0. -1.
</event>
<event>
 8    1  0.1207611E+005  0.1043930E+01  0.7957747E-01            NaN
         13   -1    0    0    0    0  0.00000000000E+00  0.00000000000E+00  0.74505805969E-08  0.10566000000E+00  0.10566000000E+00 0. -1.
     999900   -1    0    0    0    0 -0.00000000000E+00 -0.00000000000E+00 -0.74505805969E-08  0.93827000000E+00  0.93827000000E+00 0.  1.
     999902    2    1    2    0    0 -0.10340488813E-01  0.18597249295E-01 -0.68590816937E-02  0.10215731131E+01  0.10213284462E+01 0.  0.
     999903    2    3    3    0    0  0.76984865676E-01 -0.88319419875E-01 -0.51955277578E-01  0.12967033893E+00  0.19699148717E-01 0.  0.
         14    1    1    2    0    0  0.10340488813E-01 -0.18597249295E-01  0.68590816937E-02  0.22356886902E-01  0.00000000000E+00 0.  1.
     999901    1    3    3    0    0 -0.87325354489E-01  0.10691666917E+00  0.45096195885E-01  0.89190277417E+00  0.88000000000E+00 0. -1.
        -11    1    4    4    0    0  0.49492559523E-01 -0.54005686403E-01 -0.42506837996E-01  0.84694864127E-01  0.51100000000E-03 0.  1.
         11    1    4    4    0    0  0.27492306153E-01 -0.34313733472E-01 -0.94484395823E-02  0.44975474805E-01  0.51100000000E-03 0. -1.
</event>
<event>
 8    1  0.1207611E+005  0.1043930E+01  0.7957747E-01            NaN
         13   -1    0    0    0    0  0.00000000000E+00  0.00000000000E+00  0.74505805969E-08  0.10566000000E+00  0.10566000000E+00 0. -1.
     999900   -1    0    0    0    0 -0.00000000000E+00 -0.00000000000E+00 -0.74505805969E-08  0.93827000000E+00  0.93827000000E+00 0. -1.
     999902    2    1    2    0    0  0.32400186103E-02  0.17849553806E-01  0.92210853466E-03  0.10257653482E+01  0.10256045022E+01 0.  0.
     999903    2    3    3    0    0  0.28190214506E-01 -0.12724295683E+00  0.19898426848E-01  0.13333358632E+00  0.19910790850E-01 0.  0.
         14    1    1    2    0    0 -0.32400186103E-02 -0.17849553806E-01 -0.92210853466E-03  0.18164651822E-01  0.00000000000E+00 0. -1.
     999901    1    3    3    0    0 -0.24950195896E-01  0.14509251064E+00 -0.18976318314E-01  0.89243176186E+00  0.88000000000E+00 0.  1.
        -11    1    4    4    0    0  0.27074166948E-01 -0.11075924402E+00  0.23496365474E-01  0.11641718500E+00  0.51100000000E-03 0.  1.
         11    1    4    4    0    0  0.11160475580E-02 -0.16483712812E-01 -0.35979386257E-02  0.16916401318E-01  0.51100000000E-03 0. -1.
</event>
<event>
 8    1  0.1207611E+005  0.1043930E+01  0.7957747E-01            NaN
         13   -1    0    0    0    0  0.00000000000E+00  0.00000000000E+00  0.74505805969E-08  0.10566000000E+00  0.10566000000E+00 0.  1.
     999900   -1    0    0    0    0 -0.00000000000E+00 -0.00000000000E+00 -0.74505805969E-08  0.93827000000E+00  0.93827000000E+00 0.  1.
     999902    2    1    2    0    0  0.13310786978E-01  0.19538339649E-01  0.66505241722E-03  0.10202790791E+01  0.10200049182E+01 0.  0.
     999903    2    3    3    0    0 -0.74132173563E-01  0.10688620644E+00  0.11943955531E-02  0.13164180696E+00  0.20196496600E-01 0.  0.
         14    1    1    2    0    0 -0.13310786978E-01 -0.19538339649E-01 -0.66505241722E-03  0.23650920932E-01  0.00000000000E+00 0.  1.
     999901    1    3    3    0    0  0.87442960541E-01 -0.87347866787E-01 -0.52934313588E-03  0.88863727211E+00  0.88000000000E+00 0. -1.
        -11    1    4    4    0    0 -0.25108228799E-01  0.34147375964E-01  0.97881753074E-02  0.43503286491E-01  0.51100000000E-03 0. -1.
         11    1    4    4    0    0 -0.49023944765E-01  0.72738830471E-01 -0.85937797543E-02  0.88138520467E-01  0.51100000000E-03 0.  1.
</event>
<event>
 8    1  0.1207611E+005  0.1043930E+01  0.7957747E-01            NaN
         13   -1    0    0    0    0  0.00000000000E+00  0.00000000000E+00  0.74505805969E-08  0.10566000000E+00  0.10566000000E+00 0.  1.
     999900   -1    0    0    0    0 -0.00000000000E+00 -0.00000000000E+00 -0.74505805969E-08  0.93827000000E+00  0.93827000000E+00 0. -1.
     999902    2    1    2    0    0 -0.20495581990E-01  0.72353107277E-02 -0.18681782656E-01  0.10152694416E+01  0.10148648243E+01 0.  0.
     999903    2    3    3    0    0 -0.10076383754E+00  0.20372241864E-01  0.71793877206E-01  0.12689935162E+00  0.19511674519E-01 0.  0.
         14    1    1    2    0    0  0.20495581990E-01 -0.72353107277E-02  0.18681782656E-01  0.28660558363E-01  0.00000000000E+00 0.  1.
     999901    1    3    3    0    0  0.80268255552E-01 -0.13136931136E-01 -0.90475659863E-01  0.88837009002E+00  0.88000000000E+00 0. -1.
        -11    1    4    4    0    0 -0.46528002763E-01  0.19177783348E-01  0.32431457749E-01  0.59872389195E-01  0.51100000000E-03 0.  1.
         11    1    4    4    0    0 -0.54235834780E-01  0.11944585157E-02  0.39362419457E-01  0.67026962425E-01  0.51100000000E-03 0. -1.
</event>
<event>
 8    1  0.1207611E+005  0.1043930E+01  0.7957747E-01            NaN
         13   -1    0    0    0    0  0.00000000000E+00  0.00000000000E+00  0.74505805969E-08  0.10566000000E+00  0.10566000000E+00 0.  1.
     999900   -1    0    0    0    0 -0.00000000000E+00 -0.00000000000E+00 -0.74505805969E-08  0.93827000000E+00  0.93827000000E+00 0. -1.
     999902    2    1    2    0    0  0.12115684949E-01 -0.39067817645E-02 -0.70684457998E-02  0.10293692414E+01  0.10292662529E+01 0.  0.
     999903    2    3    3    0    0 -0.89865484584E-01 -0.10261528790E+00  0.74639008825E-02  0.13787907474E+00  0.18687610995E-01 0.  0.
         14    1    1    2    0    0 -0.12115684949E-01  0.39067817645E-02  0.70684457998E-02  0.14560758619E-01  0.00000000000E+00 0.  1.
     999901    1    3    3    0    0  0.10198116953E+00  0.98708506131E-01 -0.14532346682E-01  0.89149016664E+00  0.88000000000E+00 0. -1.
        -11    1    4    4    0    0 -0.54080965495E-01 -0.47675937414E-01  0.30003978817E-02  0.72159610210E-01  0.51100000000E-03 0.  1.
         11    1    4    4    0    0 -0.35784519088E-01 -0.54939350482E-01  0.44635030008E-02  0.65719464527E-01  0.51100000000E-03 0. -1.
</event>
<event>
 8    1  0.1207611E+005  0.1043930E+01  0.7957747E-01            NaN
         13   -1    0    0    0    0  0.00000000000E+00  0.00000000000E+00  0.74505805969E-08  0.10566000000E+00  0.10566000000E+00 0. -1.
     999900   -1    0    0    0    0 -0.00000000000E+00 -0.00000000000E+00 -0.74505805969E-08  0.93827000000E+00  0.93827000000E+00 0.  1.
     999902    2    1    2    0    0 -0.16995334457E-01  0.13056469213E-01 -0.10616330390E-01  0.10200130760E+01  0.10197326395E+01 0.  0.
     999903    2    3    3    0    0  0.11606713348E+00 -0.11135180871E-01 -0.50904006506E-01  0.12877015002E+00  0.19873649102E-01 0.  0.
         14    1    1    2    0    0  0.16995334457E-01 -0.13056469213E-01  0.10616330390E-01  0.23916923978E-01  0.00000000000E+00 0. -1.
     999901    1    3    3    0    0 -0.13306246794E+00  0.24191650084E-01  0.40287676116E-01  0.89124292601E+00  0.88000000000E+00 0. -1.
        -11    1    4    4    0    0  0.50825253050E-01 -0.62653312387E-02 -0.33055075706E-01  0.60953751928E-01  0.51100000000E-03 0. -1.
         11    1    4    4    0    0  0.65241880434E-01 -0.48698496324E-02 -0.17848930800E-01  0.67816398089E-01  0.51100000000E-03 0.  1.
</event>
<event>
 8    1  0.1207611E+005  0.1043930E+01  0.7957747E-01            NaN
         13   -1    0    0    0    0  0.00000000000E+00  0.00000000000E+00  0.74505805969E-08  0.10566000000E+00  0.10566000000E+00 0.  1.
     999900   -1    0    0    0    0 -0.00000000000E+00 -0.00000000000E+00 -0.74505805969E-08  0.93827000000E+00  0.93827000000E+00 0.  1.
     999902    2    1    2    0    0  0.13542246171E-02  0.10427748134E-01 -0.18841739226E-01  0.10223526278E+01  0.10221249006E+01 0.  0.
     999903    2    3    3    0    0  0.11928547322E+00  0.35911768194E-01 -0.44315988531E-01  0.13375477044E+00  0.20192883850E-01 0.  0.
         14    1    1    2    0    0 -0.13542246171E-02 -0.10427748134E-01  0.18841739226E-01  0.21577372234E-01  0.00000000000E+00 0.  1.
     999901    1    3    3    0    0 -0.11793124860E+00 -0.25484020060E-01  0.25474249305E-01  0.88859785733E+00  0.88000000000E+00 0.  1.
        -11    1    4    4    0    0  0.74564738484E-01  0.32482265178E-01 -0.27725885396E-01  0.85930108915E-01  0.51100000000E-03 0.  1.
         11    1    4    4    0    0  0.44720734738E-01  0.34295030155E-02 -0.16590103135E-01  0.47824661520E-01  0.51100000000E-03 0. -1.
</event>
<event>
 8    1  0.1207611E+005  0.1043930E+01  0.7957747E-01            NaN
         13   -1    0    0    0    0  0.00000000000E+00  0.00000000000E+00  0.74505805969E-08  0.10566000000E+00  0.10566000000E+00 0.  1.
     999900   -1    0    0    0    0 -0.00000000000E+00 -0.00000000000E+00 -0.74505805969E-08  0.93827000000E+00  0.93827000000E+00 0. -1.
     999902    2    1    2    0    0  0.15008795860E-01  0.13601131694E-01 -0.13099005466E-01  0.10198086675E+01  0.10195233591E+01 0.  0.
     999903    2    3    3    0    0 -0.43135523067E-01  0.89576113471E-01 -0.84218185296E-01  0.13177100085E+00  0.19655545675E-01 0.  0.
         14    1    1    2    0    0 -0.15008795860E-01 -0.13601131694E-01  0.13099005466E-01  0.24121332482E-01  0.00000000000E+00 0.  1.
     999901    1    3    3    0    0  0.58144318927E-01 -0.75974981777E-01  0.71119179831E-01  0.88803766667E+00  0.88000000000E+00 0.  1.
        -11    1    4    4    0    0 -0.37690991075E-01  0.63071481854E-01 -0.68610468493E-01  0.10052999622E+00  0.51100000000E-03 0. -1.
         11    1    4    4    0    0 -0.54445319922E-02  0.26504631616E-01 -0.15607716804E-01  0.31241004634E-01  0.51100000000E-03 0.  1.
</event>
<event>
 8    1  0.1207611E+005  0.1043930E+01  0.7957747E-01            NaN
         13   -1    0    0    0    0  0.00000000000E+00  0.00000000000E+00  0.74505805969E-08  0.10566000000E+00  0.10566000000E+00 0.  1.
     999900   -1    0    0    0    0 -0.00000000000E+00 -0.00000000000E+00 -0.74505805969E-08  0.93827000000E+00  0.93827000000E+00 0.  1.
     999902    2    1    2    0    0 -0.28344032404E-02  0.15690602062E-01  0.16157988884E-01  0.10212295718E+01  0.10209772421E+01 0.  0.
     999903    2    3    3    0    0 -0.24509589832E-01  0.75205413571E-01  0.10669202967E+00  0.13432019706E+00  0.20053725762E-01 0.  0.
         14    1    1    2    0    0  0.28344032404E-02 -0.15690602062E-01 -0.16157988884E-01  0.22700428180E-01  0.00000000000E+00 0. -1.
     999901    1    3    3    0    0  0.21675186591E-01 -0.59514811509E-01 -0.90534040791E-01  0.88690937476E+00  0.88000000000E+00 0. -1.
        -11    1    4    4    0    0 -0.24591063362E-01  0.68168670436E-01  0.86026560825E-01  0.11248341351E+00  0.51100000000E-03 0.  1.
         11    1    4    4    0    0  0.81473530726E-04  0.70367431341E-02  0.20665468849E-01  0.21836783546E-01  0.51100000000E-03 0. -1.
</event>
<event>
 8    1  0.1207611E+005  0.1043930E+01  0.7957747E-01            NaN
         13   -1    0    0    0    0  0.00000000000E+00  0.00000000000E+00  0.74505805969E-08  0.10566000000E+00  0.10566000000E+00 0.  1.
     999900   -1    0    0    0    0 -0.00000000000E+00 -0.00000000000E+00 -0.74505805969E-08  0.93827000000E+00  0.93827000000E+00 0. -1.
     999902    2    1    2    0    0  0.94897012730E-02 -0.21137869940E-01 -0.82405180109E-02  0.10193379258E+01  0.10190412341E+01 0.  0.
     999903    2    3    3    0    0 -0.18838356072E-01 -0.24928655454E-01 -0.12565187783E+00  0.13107992483E+00  0.20426227473E-01 0.  0.
         14    1    1    2    0    0 -0.94897012730E-02  0.21137869940E-01  0.82405180109E-02  0.24592074190E-01  0.00000000000E+00 0.  1.
     999901    1    3    3    0    0  0.28328057345E-01  0.37907855137E-02  0.11741135982E+00  0.88825800098E+00  0.88000000000E+00 0.  1.
        -11    1    4    4    0    0  0.16094935974E-02 -0.27232082411E-02 -0.42436303654E-01  0.42557106593E-01  0.51100000000E-03 0. -1.
         11    1    4    4    0    0 -0.20447849669E-01 -0.22205447213E-01 -0.83215574179E-01  0.88522818239E-01  0.51100000000E-03 0.  1.
</event>
<event>
 8    1  0.1207611E+005  0.1043930E+01  0.7957747E-01            NaN
         13   -1    0    0    0    0  0.00000000000E+00  0.00000000000E+00  0.74505805969E-08  0.10566000000E+00  0.10566000000E+00 0. -1.
     999900   -1    0    0    0    0 -0.00000000000E+00 -0.00000000000E+00 -0.74505805969E-08  0.93827000000E+00  0.93827000000E+00 0.  1.
     999902    2    1    2    0    0 -0.17006840715E-02 -0.49441376430E-02  0.22970594240E-01  0.10203718799E+01  0.10200998913E+01 0.  0.
     999903    2    3    3    0    0  0.98828511702E-01  0.80884634764E-01  0.16693724338E-01  0.13047744993E+00  0.20887451787E-01 0.  0.
         14    1    1    2    0    0  0.17006840715E-02  0.49441376430E-02 -0.22970594240E-01  0.23558120110E-01  0.00000000000E+00 0.  1.
     999901    1    3    3    0    0 -0.10052919577E+00 -0.85828772407E-01  0.62768699027E-02  0.88989442996E+00  0.88000000000E+00 0. -1.
        -11    1    4    4    0    0  0.43561263681E-01  0.40081868652E-01 -0.21620927149E-02  0.59237451448E-01  0.51100000000E-03 0.  1.
         11    1    4    4    0    0  0.55267248021E-01  0.40802766112E-01  0.18855817053E-01  0.71239998484E-01  0.51100000000E-03 0. -1.
</event>
<event>
 8    1  0.1207611E+005  0.1043930E+01  0.7957747E-01            NaN
         13   -1    0    0    0    0  0.00000000000E+00  0.00000000000E+00  0.74505805969E-08  0.10566000000E+00  0.10566000000E+00 0. -1.
     999900   -1    0    0    0    0 -0.00000000000E+00 -0.00000000000E+00 -0.74505805969E-08  0.93827000000E+00  0.93827000000E+00 0. -1.
     999902    2    1    2    0    0  0.45718624419E-02 -0.16266848094E-01 -0.16379969662E-01  0.10203967113E+01  0.10201253024E+01 0.  0.
     999903    2    3    3    0    0  0.62537542770E-01  0.85007839902E-01 -0.75230407377E-01  0.13074511847E+00  0.17245135808E-01 0.  0.
         14    1    1    2    0    0 -0.45718624419E-02  0.16266848094E-01  0.16379969662E-01  0.23533288746E-01  0.00000000000E+00 0. -1.
     999901    1    3    3    0    0 -0.57965680328E-01 -0.10127468800E+00  0.58850437715E-01  0.88965159278E+00  0.88000000000E+00 0.  1.
        -11    1    4    4    0    0  0.32197840086E-01  0.43199481120E-01 -0.48900295622E-01  0.72762601027E-01  0.51100000000E-03 0.  1.
         11    1    4    4    0    0  0.30339702684E-01  0.41808358782E-01 -0.26330111755E-01  0.57982517443E-01  0.51100000000E-03 0. -1.
</event>
<event>
 8    1  0.1207611E+005  0.1043930E+01  0.7957747E-01            NaN
         13   -1    0    0    0    0  0.00000000000E+00  0.00000000000E+00  0.74505805969E-08  0.10566000000E+00  0.10566000000E+00 0.  1.
     999900   -1    0    0    0    0 -0.00000000000E+00 -0.00000000000E+00 -0.74505805969E-08  0.93827000000E+00  0.93827000000E+00 0.  1.
     999902    2    1    2    0    0 -0.17065506299E-02  0.23623560515E-01  0.50610311807E-02  0.10197101948E+01  0.10194225240E+01 0.  0.
     999903    2    3    3    0    0 -0.22490071936E-01 -0.84893349466E-01  0.91741538436E-01  0.12857530893E+00  0.20060310873E-01 0.  0.
         14    1    1    2    0    0  0.17065506299E-02 -0.23623560515E-01 -0.50610311807E-02  0.24219805182E-01  0.00000000000E+00 0.  1.
     999901    1    3    3    0    0  0.20783521306E-01  0.10851690998E+00 -0.86680507256E-01  0.89113488589E+00  0.88000000000E+00 0.  1.
        -11    1    4    4    0    0 -0.57965944576E-02 -0.50961719139E-02  0.36677544597E-02  0.85606669868E-02  0.51100000000E-03 0. -1.
         11    1    4    4    0    0 -0.16693477479E-01 -0.79797177552E-01  0.88073783977E-01  0.12001464194E+00  0.51100000000E-03 0.  1.
</event>
<event>
 8    1  0.1207611E+005  0.1043930E+01  0.7957747E-01            NaN
         13   -1    0    0    0    0  0.00000000000E+00  0.00000000000E+00  0.74505805969E-08  0.10566000000E+00  0.10566000000E+00 0. -1.
     999900   -1    0    0    0    0 -0.00000000000E+00 -0.00000000000E+00 -0.74505805969E-08  0.93827000000E+00  0.93827000000E+00 0.  1.
     999902    2    1    2    0    0 -0.96105190766E-02  0.41935293195E-02 -0.33589937734E-01  0.10087414837E+01  0.10081275461E+01 0.  0.
     999903    2    3    3    0    0 -0.80716977729E-01 -0.19581648146E-01  0.81447911083E-01  0.11809279075E+00  0.20334049515E-01 0.  0.
         14    1    1    2    0    0  0.96105190766E-02 -0.41935293195E-02  0.33589937734E-01  0.35188516338E-01  0.00000000000E+00 0. -1.
     999901    1    3    3    0    0  0.71106458652E-01  0.23775177466E-01 -0.11503784882E+00  0.89064869291E+00  0.88000000000E+00 0.  1.
        -11    1    4    4    0    0 -0.40388772467E-01  0.54390529240E-03  0.40332316118E-01  0.57083321721E-01  0.51100000000E-03 0. -1.
         11    1    4    4    0    0 -0.40328205262E-01 -0.20125553439E-01  0.41115594965E-01  0.61009469029E-01  0.51100000000E-03 0.  1.
</event>
<event>
 8    1  0.1207611E+005  0.1043930E+01  0.7957747E-01            NaN
         13   -1    0    0    0    0  0.00000000000E+00  0.00000000000E+00  0.74505805969E-08  0.10566000000E+00  0.10566000000E+00 0.  1.
     999900   -1    0    0    0    0 -0.00000000000E+00 -0.00000000000E+00 -0.74505805969E-08  0.93827000000E+00  0.93827000000E+00 0. -1.
     999902    2    1    2    0    0 -0.19072759586E-01 -0.91560462202E-02 -0.10239086539E-01  0.10204259103E+01  0.10201551824E+01 0.  0.
     999903    2    3    3    0    0  0.24061918507E-01 -0.66453861351E-01  0.10699794505E+00  0.12975865386E+00  0.19840776126E-01 0.  0.
         14    1    1    2    0    0  0.19072759586E-01  0.91560462202E-02  0.10239086539E-01  0.23504089724E-01  0.00000000000E+00 0.  1.
     999901    1    3    3    0    0 -0.43134678094E-01  0.57297815131E-01 -0.11723703158E+00  0.89066725641E+00  0.88000000000E+00 0. -1.
        -11    1    4    4    0    0  0.17949942346E-01 -0.41253890708E-01  0.50770957931E-01  0.67838302006E-01  0.51100000000E-03 0. -1.
         11    1    4    4    0    0  0.61119761618E-02 -0.25199970644E-01  0.56226987114E-01  0.61920351856E-01  0.51100000000E-03 0.  1.
</event>
<event>
 8    1  0.1207611E+005  0.1043930E+01  0.7957747E-01            NaN
         13   -1    0    0    0    0  0.00000000000E+00  0.00000000000E+00  0.74505805969E-08  0.10566000000E+00  0.10566000000E+00 0. -1.
     999900   -1    0    0    0    0 -0.00000000000E+00 -0.00000000000E+00 -0.74505805969E-08  0.93827000000E+00  0.93827000000E+00 0.  1.
     999902    2    1    2    0    0 -0.25039019929E-02  0.20410094600E-01  0.11849396538E-01  0.10201971181E+01  0.10199210313E+01 0.  0.
     999903    2    3    3    0    0 -0.35036579800E-01 -0.77438415725E-01 -0.93545630270E-01  0.12792988356E+00  0.19773720181E-01 0.  0.
         14    1    1    2    0    0  0.25039019929E-02 -0.20410094600E-01 -0.11849396538E-01  0.23732881938E-01  0.00000000000E+00 0.  1.
     999901    1    3    3    0    0  0.32532677807E-01  0.97848510325E-01  0.10539502681E+00  0.89226723451E+00  0.88000000000E+00 0. -1.
        -11    1    4    4    0    0 -0.20268827954E-01 -0.22126766189E-01 -0.31690645983E-01  0.43646046011E-01  0.51100000000E-03 0.  1.
         11    1    4    4    0    0 -0.14767751846E-01 -0.55311649537E-01 -0.61854984287E-01  0.84283837544E-01  0.51100000000E-03 0. -1.
</event>
<event>
 8    1  0.1207611E+005  0.1043930E+01  0.7957747E-01            NaN
         13   -1    0    0    0    0  0.00000000000E+00  0.00000000000E+00  0.74505805969E-08  0.10566000000E+00  0.10566000000E+00 0.  1.
     999900   -1    0    0    0    0 -0.00000000000E+00 -0.00000000000E+00 -0.74505805969E-08  0.93827000000E+00  0.93827000000E+00 0. -1.
     999902    2    1    2    0    0 -0.21238921444E-01 -0.26835877998E-02  0.90596151903E-02  0.10206841390E+01  0.10204193949E+01 0.  0.
     999903    2    3    3    0    0 -0.49546786365E-01  0.96580935613E-01  0.73327047734E-01  0.13232324175E+00  0.18703561557E-01 0.  0.
         14    1    1    2    0    0  0.21238921444E-01  0.26835877998E-02 -0.90596151903E-02  0.23245861029E-01  0.00000000000E+00 0.  1.
     999901    1    3    3    0    0  0.28307864921E-01 -0.99264523413E-01 -0.64267432544E-01  0.88836089722E+00  0.88000000000E+00 0.  1.
        -11    1    4    4    0    0 -0.49911687605E-01  0.87629091476E-01  0.64346780703E-01  0.11962777077E+00  0.51100000000E-03 0. -1.
         11    1    4    4    0    0  0.36490123971E-03  0.89518441367E-02  0.89802670306E-02  0.12695470976E-01  0.51100000000E-03 0.  1.
</event>
<event>
 8    1  0.1207611E+005  0.1043930E+01  0.7957747E-01            NaN
         13   -1    0    0    0    0  0.00000000000E+00  0.00000000000E+00  0.74505805969E-08  0.10566000000E+00  0.10566000000E+00 0.  1.
     999900   -1    0    0    0    0 -0.00000000000E+00 -0.00000000000E+00 -0.74505805969E-08  0.93827000000E+00  0.93827000000E+00 0.  1.
     999902    2    1    2    0    0  0.16985140174E-02  0.23707007779E-01 -0.86105080417E-03  0.10201466324E+01  0.10198693558E+01 0.  0.
     999903    2    3    3    0    0  0.44217206021E-01  0.10971471390E+00 -0.57833239658E-01  0.13310041317E+00  0.19456531610E-01 0.  0.
         14    1    1    2    0    0 -0.16985140174E-02 -0.23707007779E-01  0.86105080417E-03  0.23783367638E-01  0.00000000000E+00 0.  1.
     999901    1    3    3    0    0 -0.42518692003E-01 -0.86007706120E-01  0.56972188853E-01  0.88704621919E+00  0.88000000000E+00 0.  1.
        -11    1    4    4    0    0  0.51159135078E-02  0.15439574051E-01 -0.15921919669E-01  0.22766678827E-01  0.51100000000E-03 0.  1.
         11    1    4    4    0    0  0.39101292513E-01  0.94275139848E-01 -0.41911319989E-01  0.11033373434E+00  0.51100000000E-03 0. -1.
</event>
<event>
 8    1  0.1207611E+005  0.1043930E+01  0.7957747E-01            NaN
         13   -1    0    0    0    0  0.00000000000E+00  0.00000000000E+00  0.74505805969E-08  0.10566000000E+00  0.10566000000E+00 0. -1.
     999900   -1    0    0    0    0 -0.00000000000E+00 -0.00000000000E+00 -0.74505805969E-08  0.93827000000E+00  0.93827000000E+00 0.  1.
     999902    2    1    2    0    0  0.92665980547E-02 -0.69594087908E-02  0.20793166525E-01  0.10201253999E+01  0.10198476222E+01 0.  0.
     999903    2    3    3    0    0 -0.63299424115E-01  0.46150573987E-01  0.10391958705E+00  0.13164551854E+00  0.19863771249E-01 0.  0.
         14    1    1    2    0    0 -0.92665980547E-02  0.69594087908E-02 -0.20793166525E-01  0.23804600067E-01  0.00000000000E+00 0.  1.
     999901    1    3    3    0    0  0.72566022170E-01 -0.53109982778E-01 -0.83126420521E-01  0.88847988139E+00  0.88000000000E+00 0.  1.
        -11    1    4    4    0    0 -0.20629082572E-01  0.23590551614E-01  0.52308045619E-01  0.60979225402E-01  0.51100000000E-03 0. -1.
         11    1    4    4    0    0 -0.42670341543E-01  0.22560022373E-01  0.51611541427E-01  0.70666293142E-01  0.51100000000E-03 0.  1.
</event>
<event>
 8    1  0.1207611E+005  0.1043930E+01  0.7957747E-01            NaN
         13   -1    0    0    0    0  0.00000000000E+00  0.00000000000E+00  0.74505805969E-08  0.10566000000E+00  0.10566000000E+00 0. -1.
     999900   -1    0    0    0    0 -0.00000000000E+00 -0.00000000000E+00 -0.74505805969E-08  0.93827000000E+00  0.93827000000E+00 0.  1.
     999902    2    1    2    0    0  0.14966781016E-01 -0.77642602365E-02  0.16263935710E-01  0.10205034365E+01  0.10202345123E+01 0.  0.
     999903    2    3    3    0    0 -0.58618644780E-01 -0.32485681362E-01  0.11271528397E+00  0.13183655511E+00  0.13589592114E-01 0.  0.
         14    1    1    2    0    0 -0.14966781016E-01  0.77642602365E-02 -0.16263935710E-01  0.23426563465E-01  0.00000000000E+00 0.  1.
     999901    1    3    3    0    0  0.73585425796E-01  0.24721421125E-01 -0.96451348263E-01  0.88866688142E+00  0.88000000000E+00 0.  1.
        -11    1    4    4    0    0 -0.36719922098E-01 -0.24231247990E-01  0.83669544345E-01  0.94532321615E-01  0.51100000000E-03 0.  1.
         11    1    4    4    0    0 -0.21898722683E-01 -0.82544333713E-02  0.29045739628E-01  0.37304233499E-01  0.51100000000E-03 0. -1.
</event>
<event>
 8    1  0.1207611E+005  0.1043930E+01  0.7957747E-01            NaN
         13   -1    0    0    0    0  0.00000000000E+00  0.00000000000E+00  0.74505805969E-08  0.10566000000E+00  0.10566000000E+00 0.  1.
     999900   -1    0    0    0    0 -0.00000000000E+00 -0.00000000000E+00 -0.74505805969E-08  0.93827000000E+00  0.93827000000E+00 0. -1.
     999902    2    1    2    0    0 -0.56791621501E-02 -0.65071050903E-02 -0.20149887234E-01  0.10220071066E+01  0.10217719475E+01 0.  0.
     999903    2    3    3    0    0 -0.70634629145E-01  0.75680838930E-01  0.76861254863E-01  0.13049982535E+00  0.20142286410E-01 0.  0.
         14    1    1    2    0    0  0.56791621501E-02  0.65071050903E-02  0.20149887234E-01  0.21922893397E-01  0.00000000000E+00 0.  1.
     999901    1    3    3    0    0  0.64955466995E-01 -0.82187944020E-01 -0.97011142096E-01  0.89150728125E+00  0.88000000000E+00 0.  1.
        -11    1    4    4    0    0 -0.36521304426E-01  0.25432221644E-01  0.36693673292E-01  0.57682669455E-01  0.51100000000E-03 0.  1.
         11    1    4    4    0    0 -0.34113324719E-01  0.50248617286E-01  0.40167581570E-01  0.72817155896E-01  0.51100000000E-03 0. -1.
</event>
<event>
 8    1  0.1207611E+005  0.1043930E+01  0.7957747E-01            NaN
         13   -1    0    0    0    0  0.00000000000E+00  0.00000000000E+00  0.74505805969E-08  0.10566000000E+00  0.10566000000E+00 0. -1.
     999900   -1    0    0    0    0 -0.00000000000E+00 -0.00000000000E+00 -0.74505805969E-08  0.93827000000E+00  0.93827000000E+00 0. -1.
     999902    2    1    2    0    0  0.12649181220E-01  0.46275387995E-02 -0.11127089556E-01  0.10264592237E+01  0.10263105329E+01 0.  0.
     999903    2    3    3    0    0 -0.52565855528E-02  0.11521819219E+00 -0.71872077875E-01  0.13727934166E+00  0.19420570703E-01 0.  0.
         14    1    1    2    0    0 -0.12649181220E-01 -0.46275387995E-02  0.11127089556E-01  0.17470776252E-01  0.00000000000E+00 0.  1.
     999901    1    3    3    0    0  0.17905766773E-01 -0.11059065339E+00  0.60744988319E-01  0.88917988209E+00  0.88000000000E+00 0.  1.
        -11    1    4    4    0    0 -0.86898486232E-02  0.33212600422E-01 -0.15275791946E-01  0.37579266045E-01  0.51100000000E-03 0.  1.
         11    1    4    4    0    0  0.34332630704E-02  0.82005591765E-01 -0.56596285929E-01  0.99700075617E-01  0.51100000000E-03 0. -1.
</event>
<event>
 8    1  0.1207611E+005  0.1043930E+01  0.7957747E-01            NaN
         13   -1    0    0    0    0  0.00000000000E+00  0.00000000000E+00  0.74505805969E-08  0.10566000000E+00  0.10566000000E+00 0. -1.
     999900   -1    0    0    0    0 -0.00000000000E+00 -0.00000000000E+00 -0.74505805969E-08  0.93827000000E+00  0.93827000000E+00 0.  1.
     999902    2    1    2    0    0  0.16831196628E-01 -0.11694442864E-01  0.11586363639E-01  0.10203865721E+01  0.10201149266E+01 0.  0.
     999903    2    3    3    0    0 -0.28025406271E-01  0.12353760313E+00 -0.92428615800E-02  0.12868388753E+00  0.20667598690E-01 0.  0.
         14    1    1    2    0    0 -0.16831196628E-01  0.11694442864E-01 -0.11586363639E-01  0.23543427877E-01  0.00000000000E+00 0.  1.
     999901    1    3    3    0    0  0.44856602899E-01 -0.13523204599E+00  0.20829225219E-01  0.89170268459E+00  0.88000000000E+00 0. -1.
        -11    1    4    4    0    0 -0.14462877854E-01  0.98143475015E-01 -0.11138465031E-01  0.99828067436E-01  0.51100000000E-03 0.  1.
         11    1    4    4    0    0 -0.13562528417E-01  0.25394128116E-01  0.18956034510E-02  0.28855820093E-01  0.51100000000E-03 0. -1.
</event>
<event>
 8    1  0.1207611E+005  0.1043930E+01  0.7957747E-01            NaN
         13   -1    0    0    0    0  0.00000000000E+00  0.00000000000E+00  0.74505805969E-08  0.10566000000E+00  0.10566000000E+00 0. -1.
     999900   -1    0    0    0    0 -0.00000000000E+00 -0.00000000000E+00 -0.74505805969E-08  0.93827000000E+00  0.93827000000E+00 0.  1.
     999902    2    1    2    0    0  0.29251513367E-02 -0.10849368451E-01  0.20012966099E-01  0.10209782219E+01  0.10207202092E+01 0.  0.
     999903    2    3    3    0    0 -0.33759336491E-01 -0.46731635047E-01  0.11914730209E+00  0.13392641660E+00  0.20412421524E-01 0.  0.
         14    1    1    2    0    0 -0.29251513367E-02  0.10849368451E-01 -0.20012966099E-01  0.22951778106E-01  0.00000000000E+00 0.  1.
     999901    1    3    3    0    0  0.36684487827E-01  0.35882266596E-01 -0.99134335995E-01  0.88705180529E+00  0.88000000000E+00 0.  1.
        -11    1    4    4    0    0 -0.18865961282E-01 -0.10822196243E-01  0.51424224768E-01  0.55836873485E-01  0.51100000000E-03 0. -1.
         11    1    4    4    0    0 -0.14893375208E-01 -0.35909438803E-01  0.67723077326E-01  0.78089543114E-01  0.51100000000E-03 0.  1.
</event>
<event>
 8    1  0.1207611E+005  0.1043930E+01  0.7957747E-01            NaN
         13   -1    0    0    0    0  0.00000000000E+00  0.00000000000E+00  0.74505805969E-08  0.10566000000E+00  0.10566000000E+00 0. -1.
     999900   -1    0    0    0    0 -0.00000000000E+00 -0.00000000000E+00 -0.74505805969E-08  0.93827000000E+00  0.93827000000E+00 0.  1.
     999902    2    1    2    0    0 -0.16782954205E-01  0.69877439486E-02 -0.15102953394E-01  0.10202953788E+01  0.10200216001E+01 0.  0.
     999903    2    3    3    0    0 -0.86772573325E-01 -0.73314144965E-02  0.95106618712E-01  0.13054837271E+00  0.20356315367E-01 0.  0.
         14    1    1    2    0    0  0.16782954205E-01 -0.69877439486E-02  0.15102953394E-01  0.23634621185E-01  0.00000000000E+00 0. -1.
     999901    1    3    3    0    0  0.69989619120E-01  0.14319158445E-01 -0.11020957211E+00  0.88974700610E+00  0.88000000000E+00 0.  1.
        -11    1    4    4    0    0 -0.73486439178E-01 -0.11453418977E-01  0.71657625022E-01  0.10327881629E+00  0.51100000000E-03 0.  1.
         11    1    4    4    0    0 -0.13286134148E-01  0.41220044802E-02  0.23448993689E-01  0.27269556424E-01  0.51100000000E-03 0. -1.
</event>
<event>
 8    1  0.1207611E+005  0.1043930E+01  0.7957747E-01            NaN
         13   -1    0    0    0    0  0.00000000000E+00  0.00000000000E+00  0.74505805969E-08  0.10566000000E+00  0.10566000000E+00 0. -1.
     999900   -1    0    0    0    0 -0.00000000000E+00 -0.00000000000E+00 -0.74505805969E-08  0.93827000000E+00  0.93827000000E+00 0. -1.
     999902    2    1    2    0    0 -0.17549956233E-01 -0.12920146777E-01  0.76788364223E-02  0.10208238172E+01  0.10205622813E+01 0.  0.
     999903    2    3    3    0    0  0.10008509554E+00  0.26613653701E-01  0.75371515727E-01  0.12954202916E+00  0.19363858728E-01 0.  0.
         14    1    1    2    0    0  0.17549956233E-01  0.12920146777E-01 -0.76788364223E-02  0.23106182837E-01  0.00000000000E+00 0.  1.
     999901    1    3    3    0    0 -0.11763505177E+00 -0.39533800478E-01 -0.67692679304E-01  0.89128178800E+00  0.88000000000E+00 0. -1.
        -11    1    4    4    0    0  0.50114557351E-01  0.52841143516E-02  0.43342105908E-01  0.66469466588E-01  0.51100000000E-03 0. -1.
         11    1    4    4    0    0  0.49970538188E-01  0.21329539349E-01  0.32029409819E-01  0.63072562577E-01  0.51100000000E-03 0.  1.
</event>
<event>
 8    1  0.1207611E+005  0.1043930E+01  0.7957747E-01            NaN
         13   -1    0    0    0    0  0.00000000000E+00  0.00000000000E+00  0.74505805969E-08  0.10566000000E+00  0.10566000000E+00 0.  1.
     999900   -1    0    0    0    0 -0.00000000000E+00 -0.00000000000E+00 -0.74505805969E-08  0.93827000000E+00  0.93827000000E+00 0.  1.
     999902    2    1    2    0    0  0.32006329920E-02  0.22264757157E-01 -0.82755523385E-02  0.10199623504E+01  0.10196807088E+01 0.  0.
     999903    2    3    3    0    0  0.51311936999E-01  0.41378495738E-01  0.11078578280E+00  0.13043683971E+00  0.19879252859E-01 0.  0.
         14    1    1    2    0    0 -0.32006329920E-02 -0.22264757157E-01  0.82755523385E-02  0.23967649641E-01  0.00000000000E+00 0. -1.
     999901    1    3    3    0    0 -0.48111304007E-01 -0.19113738581E-01 -0.11906133514E+00  0.88952551065E+00  0.88000000000E+00 0.  1.
        -11    1    4    4    0    0  0.21121464642E-01  0.67889390762E-02  0.45485011525E-01  0.50609814827E-01  0.51100000000E-03 0. -1.
         11    1    4    4    0    0  0.30190472357E-01  0.34589556662E-01  0.65300771274E-01  0.79827024880E-01  0.51100000000E-03 0.  1.
</event>
<event>
 8    1  0.1207611E+005  0.1043930E+01  0.7957747E-01            NaN
         13   -1    0    0    0    0  0.00000000000E+00  0.00000000000E+00  0.74505805969E-08  0.10566000000E+00  0.10566000000E+00 0.  1.
     999900   -1    0    0    0    0 -0.00000000000E+00 -0.00000000000E+00 -0.74505805969E-08  0.93827000000E+00  0.93827000000E+00 0.  1.
     999902    2    1    2    0    0 -0.20060046746E-02 -0.21772952606E-01  0.23225757826E-01  0.10120313896E+01  0.10115285523E+01 0.  0.
     999903    2    3    3    0    0 -0.61722650455E-01  0.70643812092E-01 -0.70799943111E-01  0.12020866694E+00  0.25243967550E-01 0.  0.
         14    1    1    2    0    0  0.20060046746E-02  0.21772952606E-01 -0.23225757826E-01  0.31898610417E-01  0.00000000000E+00 0. -1.
     999901    1    3    3    0    0  0.59716645780E-01 -0.92416764698E-01  0.94025700937E-01  0.89182272264E+00  0.88000000000E+00 0. -1.
        -11    1    4    4    0    0 -0.19914612314E-01  0.24938864423E-01 -0.39564553629E-01  0.50834572559E-01  0.51100000000E-03 0.  1.
         11    1    4    4    0    0 -0.41808038141E-01  0.45704947669E-01 -0.31235389481E-01  0.69374094384E-01  0.51100000000E-03 0. -1.
</event>
<event>
 8    1  0.1207611E+005  0.1043930E+01  0.7957747E-01            NaN
         13   -1    0    0    0    0  0.00000000000E+00  0.00000000000E+00  0.74505805969E-08  0.10566000000E+00  0.10566000000E+00 0.  1.
     999900   -1    0    0    0    0 -0.00000000000E+00 -0.00000000000E+00 -0.74505805969E-08  0.93827000000E+00  0.93827000000E+00 0. -1.
     999902    2    1    2    0    0  0.12369837916E-01  0.10677918649E-01 -0.16508738608E-01  0.10207013692E+01  0.10204370220E+01 0.  0.
     999903    2    3    3    0    0 -0.32636524710E-01 -0.48259909182E-01  0.11212555000E+00  0.12826312463E+00  0.22025635048E-01 0.  0.
         14    1    1    2    0    0 -0.12369837916E-01 -0.10677918649E-01  0.16508738608E-01  0.23228630764E-01  0.00000000000E+00 0.  1.
     999901    1    3    3    0    0  0.45006362626E-01  0.58937827830E-01 -0.12863428860E+00  0.89243824460E+00  0.88000000000E+00 0. -1.
        -11    1    4    4    0    0 -0.18006087383E-01 -0.11530239625E-01  0.52814981500E-01  0.56981128459E-01  0.51100000000E-03 0. -1.
         11    1    4    4    0    0 -0.14630437327E-01 -0.36729669557E-01  0.59310568496E-01  0.71281996174E-01  0.51100000000E-03 0.  1.
</event>
<event>
 8    1  0.1207611E+005  0.1043930E+01  0.7957747E-01            NaN
         13   -1    0    0    0    0  0.00000000000E+00  0.00000000000E+00  0.74505805969E-08  0.10566000000E+00  0.10566000000E+00 0.  1.
     999900   -1    0    0    0    0 -0.00000000000E+00 -0.00000000000E+00 -0.74505805969E-08  0.93827000000E+00  0.93827000000E+00 0. -1.
     999902    2    1    2    0    0  0.15872279468E-01 -0.30479458441E-02  0.30462381861E-01  0.10094455696E+01  0.10088563734E+01 0.  0.
     999903    2    3    3    0    0 -0.84521844974E-01  0.48728209436E-01 -0.62154745281E-01  0.11740426861E+00  0.20054158041E-01 0.  0.
         14    1    1    2    0    0 -0.15872279468E-01  0.30479458441E-02 -0.30462381861E-01  0.34484430372E-01  0.00000000000E+00 0. -1.
     999901    1    3    3    0    0  0.10039412444E+00 -0.51776155280E-01  0.92617127143E-01  0.89204130102E+00  0.88000000000E+00 0. -1.
        -11    1    4    4    0    0 -0.33806780695E-01  0.30986767738E-01 -0.29392187723E-01  0.54472378468E-01  0.51100000000E-03 0. -1.
         11    1    4    4    0    0 -0.50715064280E-01  0.17741441697E-01 -0.32762557559E-01  0.62931890145E-01  0.51100000000E-03 0.  1.
</event>
<event>
 8    1  0.1207611E+005  0.1043930E+01  0.7957747E-01            NaN
         13   -1    0    0    0    0  0.00000000000E+00  0.00000000000E+00  0.74505805969E-08  0.10566000000E+00  0.10566000000E+00 0. -1.
     999900   -1    0    0    0    0 -0.00000000000E+00 -0.00000000000E+00 -0.74505805969E-08  0.93827000000E+00  0.93827000000E+00 0. -1.
     999902    2    1    2    0    0  0.52113831290E-02 -0.17183432191E-01  0.19445670535E-01  0.10174618501E+01  0.10171175220E+01 0.  0.
     999903    2    3    3    0    0 -0.91020662171E-01  0.13796822905E-01  0.88095328744E-01  0.12901761533E+00  0.20239685122E-01 0.  0.
         14    1    1    2    0    0 -0.52113831290E-02  0.17183432191E-01 -0.19445670535E-01  0.26468149889E-01  0.00000000000E+00 0.  1.
     999901    1    3    3    0    0  0.96232045300E-01 -0.30980255096E-01 -0.68649658209E-01  0.88844423478E+00  0.88000000000E+00 0. -1.
        -11    1    4    4    0    0 -0.33099896249E-01  0.32220643162E-02  0.45431567062E-01  0.56305179485E-01  0.51100000000E-03 0.  1.
         11    1    4    4    0    0 -0.57920765922E-01  0.10574758589E-01  0.42663761682E-01  0.72712435842E-01  0.51100000000E-03 0. -1.
</event>
<event>
 8    1  0.1207611E+005  0.1043930E+01  0.7957747E-01            NaN
         13   -1    0    0    0    0  0.00000000000E+00  0.00000000000E+00  0.74505805969E-08  0.10566000000E+00  0.10566000000E+00 0. -1.
     999900   -1    0    0    0    0 -0.00000000000E+00 -0.00000000000E+00 -0.74505805969E-08  0.93827000000E+00  0.93827000000E+00 0.  1.
     999902    2    1    2    0    0 -0.60559907756E-04  0.35396505850E-02  0.23175584647E-01  0.10204855866E+01  0.10202162477E+01 0.  0.
     999903    2    3    3    0    0 -0.10998777729E+00  0.59841756202E-01 -0.29590899164E-01  0.13029559455E+00  0.20566324585E-01 0.  0.
         14    1    1    2    0    0  0.60559907756E-04 -0.35396505850E-02 -0.23175584647E-01  0.23444413354E-01  0.00000000000E+00 0.  1.
     999901    1    3    3    0    0  0.10992721738E+00 -0.56302105618E-01  0.52766483811E-01  0.89018999210E+00  0.88000000000E+00 0. -1.
        -11    1    4    4    0    0 -0.78145711095E-01  0.50944354264E-01 -0.16507917179E-01  0.94735694670E-01  0.51100000000E-03 0.  1.
         11    1    4    4    0    0 -0.31842066193E-01  0.88974019383E-02 -0.13082981985E-01  0.35559899878E-01  0.51100000000E-03 0. -1.
</event>
<event>
 8    1  0.1207611E+005  0.1043930E+01  0.7957747E-01            NaN
         13   -1    0    0    0    0  0.00000000000E+00  0.00000000000E+00  0.74505805969E-08  0.10566000000E+00  0.10566000000E+00 0.  1.
     999900   -1    0    0    0    0 -0.00000000000E+00 -0.00000000000E+00 -0.74505805969E-08  0.93827000000E+00  0.93827000000E+00 0.  1.
     999902    2    1    2    0    0  0.40330833954E-02  0.92372978610E-02 -0.21211763051E-01  0.10204452746E+01  0.10201749978E+01 0.  0.
     999903    2    3    3    0    0 -0.48524043903E-01  0.48702954476E-01 -0.11230207122E+00  0.13330535675E+00  0.20784665657E-01 0.  0.
         14    1    1    2    0    0 -0.40330833954E-02 -0.92372978610E-02  0.21211763051E-01  0.23484725359E-01  0.00000000000E+00 0.  1.
     999901    1    3    3    0    0  0.52557127298E-01 -0.39465656615E-01  0.91090308164E-01  0.88713991790E+00  0.88000000000E+00 0. -1.
        -11    1    4    4    0    0 -0.91351818345E-02  0.22930191041E-01 -0.36059845917E-01  0.43701473853E-01  0.51100000000E-03 0.  1.
         11    1    4    4    0    0 -0.39388862068E-01  0.25772763435E-01 -0.76242225298E-01  0.89603882893E-01  0.51100000000E-03 0. -1.
</event>
<event>
 8    1  0.1207611E+005  0.1043930E+01  0.7957747E-01            NaN
         13   -1    0    0    0    0  0.00000000000E+00  0.00000000000E+00  0.74505805969E-08  0.10566000000E+00  0.10566000000E+00 0. -1.
     999900   -1    0    0    0    0 -0.00000000000E+00 -0.00000000000E+00 -0.74505805969E-08  0.93827000000E+00  0.93827000000E+00 0. -1.
     999902    2    1    2    0    0  0.53473376802E-02  0.14034901103E-01 -0.15762523876E-01  0.10221577785E+01  0.10219258753E+01 0.  0.
     999903    2    3    3    0    0  0.45156281672E-01 -0.43305163736E-01  0.11229851960E+00  0.13015314517E+00  0.20358209969E-01 0.  0.
         14    1    1    2    0    0 -0.53473376802E-02 -0.14034901103E-01  0.15762523876E-01  0.21772221480E-01  0.00000000000E+00 0. -1.
     999901    1    3    3    0    0 -0.39808943992E-01  0.57340064838E-01 -0.12806104348E+00  0.89200463335E+00  0.88000000000E+00 0. -1.
        -11    1    4    4    0    0  0.33206565908E-01 -0.41864472335E-01  0.86404155146E-01  0.10159354906E+00  0.51100000000E-03 0. -1.
         11    1    4    4    0    0  0.11949715763E-01 -0.14406914012E-02  0.25894364455E-01  0.28559596112E-01  0.51100000000E-03 0.  1.
</event>
<event>
 8    1  0.1207611E+005  0.1043930E+01  0.7957747E-01            NaN
         13   -1    0    0    0    0  0.00000000000E+00  0.00000000000E+00  0.74505805969E-08  0.10566000000E+00  0.10566000000E+00 0.  1.
     999900   -1    0    0    0    0 -0.00000000000E+00 -0.00000000000E+00 -0.74505805969E-08  0.93827000000E+00  0.93827000000E+00 0.  1.
     999902    2    1    2    0    0  0.16696956791E-01  0.63970240984E-02  0.13643578797E-01  0.10214387233E+01  0.10211910732E+01 0.  0.
     999903    2    3    3    0    0 -0.45650976935E-01  0.12287707378E-01 -0.11874424237E+00  0.12933530995E+00  0.19809791959E-01 0.  0.
         14    1    1    2    0    0 -0.16696956791E-01 -0.63970240984E-02 -0.13643578797E-01  0.22491276660E-01  0.00000000000E+00 0. -1.
     999901    1    3    3    0    0  0.62347933726E-01 -0.58906832792E-02  0.13238782116E+00  0.89210341339E+00  0.88000000000E+00 0. -1.
        -11    1    4    4    0    0 -0.19653666767E-01 -0.21210498462E-02 -0.64702236967E-01  0.67656530058E-01  0.51100000000E-03 0. -1.
         11    1    4    4    0    0 -0.25997310168E-01  0.14408757224E-01 -0.54042005398E-01  0.61678779893E-01  0.51100000000E-03 0.  1.
</event>
<event>
 8    1  0.1207611E+005  0.1043930E+01  0.7957747E-01            NaN
         13   -1    0    0    0    0  0.00000000000E+00  0.00000000000E+00  0.74505805969E-08  0.10566000000E+00  0.10566000000E+00 0.  1.
     999900   -1    0    0    0    0 -0.00000000000E+00 -0.00000000000E+00 -0.74505805969E-08  0.93827000000E+00  0.93827000000E+00 0.  1.
     999902    2    1    2    0    0 -0.18101531060E-01  0.90119206278E-02 -0.12759382517E-01  0.10200201279E+01  0.10197398587E+01 0.  0.
     999903    2    3    3    0    0 -0.27840868523E-01 -0.66934354479E-01  0.10465247880E+00  0.12892628519E+00  0.20359860584E-01 0.  0.
         14    1    1    2    0    0  0.18101531060E-01 -0.90119206278E-02  0.12759382517E-01  0.23909872069E-01  0.00000000000E+00 0.  1.
     999901    1    3    3    0    0  0.97393374629E-02  0.75946275107E-01 -0.11741186132E+00  0.89109384274E+00  0.88000000000E+00 0.  1.
        -11    1    4    4    0    0 -0.15469331555E-01 -0.14647220071E-01  0.25082465777E-01  0.32912497399E-01  0.51100000000E-03 0. -1.
         11    1    4    4    0    0 -0.12371536968E-01 -0.52287134408E-01  0.79570013026E-01  0.96013787789E-01  0.51100000000E-03 0.  1.
</event>
<event>
 8    1  0.1207611E+005  0.1043930E+01  0.7957747E-01            NaN
         13   -1    0    0    0    0  0.00000000000E+00  0.00000000000E+00  0.74505805969E-08  0.10566000000E+00  0.10566000000E+00 0. -1.
     999900   -1    0    0    0    0 -0.00000000000E+00 -0.00000000000E+00 -0.74505805969E-08  0.93827000000E+00  0.93827000000E+00 0.  1.
     999902    2    1    2    0    0  0.22381353165E-01 -0.16743955629E-02 -0.81683841069E-02  0.10200458825E+01  0.10197662239E+01 0.  0.
     999903    2    3    3    0    0 -0.87889936913E-01 -0.42339339764E-01 -0.81469210854E-01  0.12921121416E+00  0.23260370726E-01 0.  0.
         14    1    1    2    0    0 -0.22381353165E-01  0.16743955629E-02  0.81683841069E-02  0.23884117503E-01  0.00000000000E+00 0. -1.
     999901    1    3    3    0    0  0.11027129008E+00  0.40664944201E-01  0.73300826747E-01  0.89083466833E+00  0.88000000000E+00 0.  1.
        -11    1    4    4    0    0 -0.62182674743E-01 -0.40026755336E-01 -0.54410987336E-01  0.91813086458E-01  0.51100000000E-03 0.  1.
         11    1    4    4    0    0 -0.25707262169E-01 -0.23125844278E-02 -0.27058223517E-01  0.37398127706E-01  0.51100000000E-03 0. -1.
</event>
<event>
 8    1  0.1207611E+005  0.1043930E+01  0.7957747E-01            NaN
         13   -1    0    0    0    0  0.00000000000E+00  0.00000000000E+00  0.74505805969E-08  0.10566000000E+00  0.10566000000E+00 0. -1.
     999900   -1    0    0    0    0 -0.00000000000E+00 -0.00000000000E+00 -0.74505805969E-08  0.93827000000E+00  0.93827000000E+00 0. -1.
     999902    2    1    2    0    0 -0.93608898417E-02  0.36401997758E-02 -0.23472374889E-01  0.10183990444E+01  0.10180789674E+01 0.  0.
     999903    2    3    3    0    0 -0.82390834995E-01  0.72549514553E-01  0.63520812590E-01  0.12842731379E+00  0.20174229626E-01 0.  0.
         14    1    1    2    0    0  0.93608898417E-02 -0.36401997758E-02  0.23472374889E-01  0.25530955641E-01  0.00000000000E+00 0. -1.
     999901    1    3    3    0    0  0.73029945153E-01 -0.68909314777E-01 -0.86993187479E-01  0.88997173057E+00  0.88000000000E+00 0. -1.
        -11    1    4    4    0    0 -0.39743167415E-01  0.27628526591E-01  0.18366752423E-01  0.51773096810E-01  0.51100000000E-03 0. -1.
         11    1    4    4    0    0 -0.42647667580E-01  0.44920987962E-01  0.45154060167E-01  0.76654216975E-01  0.51100000000E-03 0.  1.
</event>
<event>
 8    1  0.1207611E+005  0.1043930E+01  0.7957747E-01            NaN
         13   -1    0    0    0    0  0.00000000000E+00  0.00000000000E+00  0.74505805969E-08  0.10566000000E+00  0.10566000000E+00 0. -1.
     999900   -1    0    0    0    0 -0.00000000000E+00 -0.00000000000E+00 -0.74505805969E-08  0.93827000000E+00  0.93827000000E+00 0.  1.
     999902    2    1    2    0    0  0.14452062010E-01  0.12745801826E-01  0.13765617726E-01  0.10202485771E+01  0.10199737003E+01 0.  0.
     999903    2    3    3    0    0 -0.10256967820E+00  0.45024087422E-01  0.63872696819E-01  0.13050327937E+00  0.20091719518E-01 0.  0.
         14    1    1    2    0    0 -0.14452062010E-01 -0.12745801826E-01 -0.13765617726E-01  0.23681422928E-01  0.00000000000E+00 0.  1.
     999901    1    3    3    0    0  0.11702174021E+00 -0.32278285596E-01 -0.50107079093E-01  0.88974529770E+00  0.88000000000E+00 0.  1.
        -11    1    4    4    0    0 -0.76192527370E-01  0.26381933763E-01  0.52677058424E-01  0.96314283787E-01  0.51100000000E-03 0.  1.
         11    1    4    4    0    0 -0.26377150833E-01  0.18642153658E-01  0.11195638395E-01  0.34188995586E-01  0.51100000000E-03 0. -1.
</event>
<event>
 8    1  0.1207611E+005  0.1043930E+01  0.7957747E-01            NaN
         13   -1    0    0    0    0  0.00000000000E+00  0.00000000000E+00  0.74505805969E-08  0.10566000000E+00  0.10566000000E+00 0. -1.
     999900   -1    0    0    0    0 -0.00000000000E+00 -0.00000000000E+00 -0.74505805969E-08  0.93827000000E+00  0.93827000000E+00 0. -1.
     999902    2    1    2    0    0  0.13314799317E-01  0.61467047770E-02  0.18636247259E-01  0.10202155409E+01  0.10199398876E+01 0.  0.
     999903    2    3    3    0    0 -0.65644894704E-01 -0.98820266985E-01  0.49394716214E-01  0.12993537043E+00  0.19200654466E-01 0.  0.
         14    1    1    2    0    0 -0.13314799317E-01 -0.61467047770E-02 -0.18636247259E-01  0.23714459141E-01  0.00000000000E+00 0. -1.
     999901    1    3    3    0    0  0.78959694022E-01  0.10496697176E+00 -0.30758468956E-01  0.89028017043E+00  0.88000000000E+00 0.  1.
        -11    1    4    4    0    0 -0.25340668444E-01 -0.26243575422E-01  0.88379237531E-02  0.37539908702E-01  0.51100000000E-03 0.  1.
         11    1    4    4    0    0 -0.40304226261E-01 -0.72576691563E-01  0.40556792461E-01  0.92395461731E-01  0.51100000000E-03 0. -1.
</event>
<event>
 8    1  0.1207611E+005  0.1043930E+01  0.7957747E-01            NaN
         13   -1    0    0    0    0  0.00000000000E+00  0.00000000000E+00  0.74505805969E-08  0.10566000000E+00  0.10566000000E+00 0.  1.
     999900   -1    0    0    0    0 -0.00000000000E+00 -0.00000000000E+00 -0.74505805969E-08  0.93827000000E+00  0.93827000000E+00 0. -1.
     999902    2    1    2    0    0  0.15242145279E-01  0.17867624072E-01 -0.34978182311E-02  0.10201853224E+01  0.10199089578E+01 0.  0.
     999903    2    3    3    0    0  0.13051124090E+00 -0.82223846626E-02  0.56035116990E-02  0.13223797757E+00  0.18833261976E-01 0.  0.
         14    1    1    2    0    0 -0.15242145279E-01 -0.17867624072E-01  0.34978182311E-02  0.23744677616E-01  0.00000000000E+00 0. -1.
     999901    1    3    3    0    0 -0.11526909562E+00  0.26090008735E-01 -0.91013299301E-02  0.88794734482E+00  0.88000000000E+00 0.  1.
        -11    1    4    4    0    0  0.48039898532E-01  0.23999829551E-02 -0.52091044735E-02  0.48383754087E-01  0.51100000000E-03 0.  1.
         11    1    4    4    0    0  0.82471342369E-01 -0.10622367618E-01  0.10812616172E-01  0.83854223480E-01  0.51100000000E-03 0. -1.
</event>
<event>
 8    1  0.1207611E+005  0.1043930E+01  0.7957747E-01            NaN
         13   -1    0    0    0    0  0.00000000000E+00  0.00000000000E+00  0.74505805969E-08  0.10566000000E+00  0.10566000000E+00 0. -1.
     999900   -1    0    0    0    0 -0.00000000000E+00 -0.00000000000E+00 -0.74505805969E-08  0.93827000000E+00  0.93827000000E+00 0. -1.
     999902    2    1    2    0    0  0.19214813692E-01 -0.19568470774E-02  0.13932969889E-01  0.10201147535E+01  0.10198367244E+01 0.  0.
     999903    2    3    3    0    0  0.74043105148E-01  0.31000929536E-01  0.10435869301E+00  0.13317103038E+00  0.20008684968E-01 0.  0.
         14    1    1    2    0    0 -0.19214813692E-01  0.19568470774E-02 -0.13932969889E-01  0.23815246495E-01  0.00000000000E+00 0.  1.
     999901    1    3    3    0    0 -0.54828291455E-01 -0.32957776614E-01 -0.90425723122E-01  0.88694372312E+00  0.88000000000E+00 0. -1.
        -11    1    4    4    0    0  0.63305169540E-01  0.26338387254E-01  0.75312371693E-01  0.10185023115E+00  0.51100000000E-03 0.  1.
         11    1    4    4    0    0  0.10737935608E-01  0.46625422823E-02  0.29046321319E-01  0.31320799236E-01  0.51100000000E-03 0. -1.
</event>
<event>
 8    1  0.1207611E+005  0.1043930E+01  0.7957747E-01            NaN
         13   -1    0    0    0    0  0.00000000000E+00  0.00000000000E+00  0.74505805969E-08  0.10566000000E+00  0.10566000000E+00 0. -1.
     999900   -1    0    0    0    0 -0.00000000000E+00 -0.00000000000E+00 -0.74505805969E-08  0.93827000000E+00  0.93827000000E+00 0. -1.
     999902    2    1    2    0    0 -0.33324479602E-02 -0.14209113920E-01  0.19023672257E-01  0.10199528393E+01  0.10196709715E+01 0.  0.
     999903    2    3    3    0    0  0.61709896030E-01  0.10941778881E+00  0.21124583563E-01  0.12893177817E+00  0.19919628941E-01 0.  0.
         14    1    1    2    0    0  0.33324479602E-02  0.14209113920E-01 -0.19023672257E-01  0.23977160674E-01  0.00000000000E+00 0. -1.
     999901    1    3    3    0    0 -0.65042343990E-01 -0.12362690273E+00 -0.21009113053E-02  0.89102106115E+00  0.88000000000E+00 0. -1.
        -11    1    4    4    0    0  0.47363317157E-01  0.72689252278E-01  0.69908557988E-02  0.87041050054E-01  0.51100000000E-03 0.  1.
         11    1    4    4    0    0  0.14346578874E-01  0.36728536528E-01  0.14133727764E-01  0.41890728119E-01  0.51100000000E-03 0. -1.
</event>
<event>
 8    1  0.1207611E+005  0.1043930E+01  0.7957747E-01            NaN
         13   -1    0    0    0    0  0.00000000000E+00  0.00000000000E+00  0.74505805969E-08  0.10566000000E+00  0.10566000000E+00 0.  1.
     999900   -1    0    0    0    0 -0.00000000000E+00 -0.00000000000E+00 -0.74505805969E-08  0.93827000000E+00  0.93827000000E+00 0.  1.
     999902    2    1    2    0    0  0.61214344176E-02 -0.19963832476E-01 -0.97151337895E-02  0.10208993597E+01  0.10206395506E+01 0.  0.
     999903    2    3    3    0    0  0.10625864273E+00 -0.24592693578E-01 -0.73254418356E-01  0.13293194619E+00  0.20223569789E-01 0.  0.
         14    1    1    2    0    0 -0.61214344176E-02  0.19963832476E-01  0.97151337895E-02  0.23030640264E-01  0.00000000000E+00 0. -1.
     999901    1    3    3    0    0 -0.10013720832E+00  0.46288611024E-02  0.63539284567E-01  0.88796741355E+00  0.88000000000E+00 0. -1.
        -11    1    4    4    0    0  0.19454876360E-01 -0.12552179133E-01 -0.17997946636E-01  0.29329790645E-01  0.51100000000E-03 0.  1.
         11    1    4    4    0    0  0.86803766373E-01 -0.12040514445E-01 -0.55256471720E-01  0.10360215554E+00  0.51100000000E-03 0. -1.
</event>
<event>
 8    1  0.1207611E+005  0.1043930E+01  0.7957747E-01            NaN
         13   -1    0    0    0    0  0.00000000000E+00  0.00000000000E+00  0.74505805969E-08  0.10566000000E+00  0.10566000000E+00 0. -1.
     999900   -1    0    0    0    0 -0.00000000000E+00 -0.00000000000E+00 -0.74505805969E-08  0.93827000000E+00  0.93827000000E+00 0.  1.
     999902    2    1    2    0    0 -0.13256193245E-01 -0.74130739143E-02 -0.18539538940E-01  0.10199634644E+01  0.10196818494E+01 0.  0.
     999903    2    3    3    0    0  0.81487217452E-01  0.79351092629E-01  0.53973062592E-01  0.12768412931E+00  0.21292789432E-01 0.  0.
         14    1    1    2    0    0  0.13256193245E-01  0.74130739143E-02  0.18539538940E-01  0.23966535593E-01  0.00000000000E+00 0. -1.
     999901    1    3    3    0    0 -0.94743410697E-01 -0.86764166543E-01 -0.72512601532E-01  0.89227933510E+00  0.88000000000E+00 0.  1.
        -11    1    4    4    0    0  0.24785388517E-01  0.38645805173E-01  0.21559606200E-01  0.50723677724E-01  0.51100000000E-03 0.  1.
         11    1    4    4    0    0  0.56701828935E-01  0.40705287456E-01  0.32413456392E-01  0.76960451582E-01  0.51100000000E-03 0. -1.
</event>
<event>
 8    1  0.1207611E+005  0.1043930E+01  0.7957747E-01            NaN
         13   -1    0    0    0    0  0.00000000000E+00  0.00000000000E+00  0.74505805969E-08  0.10566000000E+00  0.10566000000E+00 0.  1.
     999900   -1    0    0    0    0 -0.00000000000E+00 -0.00000000000E+00 -0.74505805969E-08  0.93827000000E+00  0.93827000000E+00 0.  1.
     999902    2    1    2    0    0 -0.82146913908E-02  0.10088847524E-01 -0.19753543271E-01  0.10202769141E+01  0.10200027025E+01 0.  0.
     999903    2    3    3    0    0 -0.11164502602E+00  0.43970450570E-01  0.48581984064E-01  0.13094258924E+00  0.19691118354E-01 0.  0.
         14    1    1    2    0    0  0.82146913908E-02 -0.10088847524E-01  0.19753543271E-01  0.23653085861E-01  0.00000000000E+00 0.  1.
     999901    1    3    3    0    0  0.10343033463E+00 -0.33881603046E-01 -0.68335527335E-01  0.88933432490E+00  0.88000000000E+00 0.  1.
        -11    1    4    4    0    0 -0.16475881390E-01  0.26961827853E-02  0.13367266038E-01  0.21393199656E-01  0.51100000000E-03 0. -1.
         11    1    4    4    0    0 -0.95169144634E-01  0.41274267785E-01  0.35214718026E-01  0.10954938958E+00  0.51100000000E-03 0.  1.
</event>
<event>
 8    1  0.1207611E+005  0.1043930E+01  0.7957747E-01            NaN
         13   -1    0    0    0    0  0.00000000000E+00  0.00000000000E+00  0.74505805969E-08  0.10566000000E+00  0.10566000000E+00 0. -1.
     999900   -1    0    0    0    0 -0.00000000000E+00 -0.00000000000E+00 -0.74505805969E-08  0.93827000000E+00  0.93827000000E+00 0.  1.
     999902    2    1    2    0    0  0.74962502543E-02 -0.18219107635E-01 -0.14293283818E-01  0.10195901641E+01  0.10192996002E+01 0.  0.
     999903    2    3    3    0    0 -0.26195803432E-01 -0.47794847446E-01  0.11510053362E+00  0.12899899026E+00  0.20543589988E-01 0.  0.
         14    1    1    2    0    0 -0.74962502543E-02  0.18219107635E-01  0.14293283818E-01  0.24339835932E-01  0.00000000000E+00 0. -1.
     999901    1    3    3    0    0  0.33692053686E-01  0.29575739810E-01 -0.12939381744E+00  0.89059117380E+00  0.88000000000E+00 0.  1.
        -11    1    4    4    0    0 -0.12390045932E-01 -0.31647957554E-01  0.49534689211E-01  0.60075394395E-01  0.51100000000E-03 0.  1.
         11    1    4    4    0    0 -0.13805757500E-01 -0.16146889892E-01  0.65565844409E-01  0.68923595868E-01  0.51100000000E-03 0. -1.
</event>
<event>
 8    1  0.1207611E+005  0.1043930E+01  0.7957747E-01            NaN
         13   -1    0    0    0    0  0.00000000000E+00  0.00000000000E+00  0.74505805969E-08  0.10566000000E+00  0.10566000000E+00 0.  1.
     999900   -1    0    0    0    0 -0.00000000000E+00 -0.00000000000E+00 -0.74505805969E-08  0.93827000000E+00  0.93827000000E+00 0. -1.
     999902    2    1    2    0    0 -0.24402876757E-01  0.56122599874E-02  0.16236898761E-02  0.10188374867E+01  0.10185284434E+01 0.  0.
     999903    2    3    3    0    0 -0.11899856178E+00 -0.31124512610E-01  0.43725239940E-01  0.13200578077E+00  0.19601952881E-01 0.  0.
         14    1    1    2    0    0  0.24402876757E-01 -0.56122599874E-02 -0.16236898761E-02  0.25092513325E-01  0.00000000000E+00 0. -1.
     999901    1    3    3    0    0  0.94595685025E-01  0.36736772597E-01 -0.42101550063E-01  0.88683170591E+00  0.88000000000E+00 0. -1.
        -11    1    4    4    0    0 -0.44375331865E-01 -0.17421752255E-01  0.25106291660E-01  0.53882042757E-01  0.51100000000E-03 0.  1.
         11    1    4    4    0    0 -0.74623229917E-01 -0.13702760355E-01  0.18618948279E-01  0.78123738010E-01  0.51100000000E-03 0. -1.
</event>
<event>
 8    1  0.1207611E+005  0.1043930E+01  0.7957747E-01            NaN
         13   -1    0    0    0    0  0.00000000000E+00  0.00000000000E+00  0.74505805969E-08  0.10566000000E+00  0.10566000000E+00 0. -1.
     999900   -1    0    0    0    0 -0.00000000000E+00 -0.00000000000E+00 -0.74505805969E-08  0.93827000000E+00  0.93827000000E+00 0.  1.
     999902    2    1    2    0    0 -0.12641030359E-01 -0.42082742323E-02  0.18571101556E-01  0.10210741247E+01  0.10208182880E+01 0.  0.
     999903    2    3    3    0    0 -0.12585238521E+00  0.36761954474E-01  0.69727532789E-02  0.13280057894E+00  0.19927627004E-01 0.  0.
         14    1    1    2    0    0  0.12641030359E-01  0.42082742323E-02 -0.18571101556E-01  0.22855875253E-01  0.00000000000E+00 0.  1.
     999901    1    3    3    0    0  0.11321135485E+00 -0.40970228707E-01  0.11598348277E-01  0.88827354581E+00  0.88000000000E+00 0.  1.
        -11    1    4    4    0    0 -0.86162139335E-01  0.17143633435E-01  0.10001538704E-01  0.88420078712E-01  0.51100000000E-03 0. -1.
         11    1    4    4    0    0 -0.39690245873E-01  0.19618321039E-01 -0.30287854249E-02  0.44380500223E-01  0.51100000000E-03 0.  1.
</event>
<event>
 8    1  0.1207611E+005  0.1043930E+01  0.7957747E-01            NaN
         13   -1    0    0    0    0  0.00000000000E+00  0.00000000000E+00  0.74505805969E-08  0.10566000000E+00  0.10566000000E+00 0. -1.
     999900   -1    0    0    0    0 -0.00000000000E+00 -0.00000000000E+00 -0.74505805969E-08  0.93827000000E+00  0.93827000000E+00 0.  1.
     999902    2    1    2    0    0  0.71377564727E-02  0.58916674716E-02  0.21760029791E-01  0.10202834736E+01  0.10200094158E+01 0.  0.
     999903    2    3    3    0    0  0.76648258531E-01  0.27610275973E-01  0.10290212985E+00  0.13355496486E+00  0.24714316444E-01 0.  0.
         14    1    1    2    0    0 -0.71377564727E-02 -0.58916674716E-02 -0.21760029791E-01  0.23646526374E-01  0.00000000000E+00 0.  1.
     999901    1    3    3    0    0 -0.69510502059E-01 -0.21718608502E-01 -0.81142100056E-01  0.88672850876E+00  0.88000000000E+00 0.  1.
        -11    1    4    4    0    0  0.13717352121E-01  0.33459615316E-02  0.56812490353E-02  0.15228227716E-01  0.51100000000E-03 0.  1.
         11    1    4    4    0    0  0.62930906410E-01  0.24264314442E-01  0.97220880811E-01  0.11832673715E+00  0.51100000000E-03 0. -1.
</event>
<event>
 8    1  0.1207611E+005  0.1043930E+01  0.7957747E-01            NaN
         13   -1    0    0    0    0  0.00000000000E+00  0.00000000000E+00  0.74505805969E-08  0.10566000000E+00  0.10566000000E+00 0. -1.
     999900   -1    0    0    0    0 -0.00000000000E+00 -0.00000000000E+00 -0.74505805969E-08  0.93827000000E+00  0.93827000000E+00 0.  1.
     999902    2    1    2    0    0  0.14078586771E-01  0.83997154728E-02  0.18501826022E-01  0.10192099799E+01  0.10189101549E+01 0.  0.
     999903    2    3    3    0    0 -0.75706909305E-01 -0.48684266326E-01 -0.86557610671E-01  0.12659724111E+00  0.20807392626E-01 0.  0.
         14    1    1    2    0    0 -0.14078586771E-01 -0.83997154728E-02 -0.18501826022E-01  0.24720020058E-01  0.00000000000E+00 0. -1.
     999901    1    3    3    0    0  0.89785496076E-01  0.57083981798E-01  0.10505943669E+00  0.89261273883E+00  0.88000000000E+00 0. -1.
        -11    1    4    4    0    0 -0.12786621902E-01 -0.58684894029E-02 -0.47418038582E-02  0.14855392703E-01  0.51100000000E-03 0. -1.
         11    1    4    4    0    0 -0.62920287403E-01 -0.42815776923E-01 -0.81815806813E-01  0.11174184841E+00  0.51100000000E-03 0.  1.
</event>
<event>
 8    1  0.1207611E+005  0.1043930E+01  0.7957747E-01            NaN
         13   -1    0    0    0    0  0.00000000000E+00  0.00000000000E+00  0.74505805969E-08  0.10566000000E+00  0.10566000000E+00 0.  1.
     999900   -1    0    0    0    0 -0.00000000000E+00 -0.00000000000E+00 -0.74505805969E-08  0.93827000000E+00  0.93827000000E+00 0.  1.
     999902    2    1    2    0    0 -0.19586140685E-01  0.47501728701E-02 -0.29529349629E-02  0.10235608843E+01  0.10233581890E+01 0.  0.
     999903    2    3    3    0    0  0.91175488338E-01 -0.36124551041E-01 -0.85840621757E-01  0.13181582537E+00  0.19719194010E-01 0.  0.
         14    1    1    2    0    0  0.19586140685E-01 -0.47501728701E-02  0.29529349629E-02  0.20369115693E-01  0.00000000000E+00 0. -1.
     999901    1    3    3    0    0 -0.11076162902E+00  0.40874723912E-01  0.82887686794E-01  0.89174505894E+00  0.88000000000E+00 0. -1.
        -11    1    4    4    0    0  0.26874779545E-01 -0.87603421838E-02 -0.36966350886E-01  0.46537829661E-01  0.51100000000E-03 0. -1.
         11    1    4    4    0    0  0.64300708794E-01 -0.27364208858E-01 -0.48874270871E-01  0.85277995708E-01  0.51100000000E-03 0.  1.
</event>
<event>
 8    1  0.1207611E+005  0.1043930E+01  0.7957747E-01            NaN
         13   -1    0    0    0    0  0.00000000000E+00  0.00000000000E+00  0.74505805969E-08  0.10566000000E+00  0.10566000000E+00 0.  1.
     999900   -1    0    0    0    0 -0.00000000000E+00 -0.00000000000E+00 -0.74505805969E-08  0.93827000000E+00  0.93827000000E+00 0. -1.
     999902    2    1    2    0    0  0.19888560295E-01 -0.16731086457E-02  0.12536808210E-01  0.10203604077E+01  0.10200881510E+01 0.  0.
     999903    2    3    3    0    0 -0.77016528357E-01 -0.57078348279E-01  0.85900606926E-01  0.13028030803E+00  0.20113699517E-01 0.  0.
         14    1    1    2    0    0 -0.19888560295E-01  0.16731086457E-02 -0.12536808210E-01  0.23569592343E-01  0.00000000000E+00 0.  1.
     999901    1    3    3    0    0  0.96905088652E-01  0.55405239634E-01 -0.73363798716E-01  0.89008009962E+00  0.88000000000E+00 0. -1.
        -11    1    4    4    0    0 -0.14359446534E-01 -0.17092762885E-01  0.29374376200E-01  0.36898121171E-01  0.51100000000E-03 0.  1.
         11    1    4    4    0    0 -0.62657081823E-01 -0.39985585394E-01  0.56526230726E-01  0.93382186861E-01  0.51100000000E-03 0. -1.
</event>
<event>
 8    1  0.1207611E+005  0.1043930E+01  0.7957747E-01            NaN
         13   -1    0    0    0    0  0.00000000000E+00  0.00000000000E+00  0.74505805969E-08  0.10566000000E+00  0.10566000000E+00 0. -1.
     999900   -1    0    0    0    0 -0.00000000000E+00 -0.00000000000E+00 -0.74505805969E-08  0.93827000000E+00  0.93827000000E+00 0. -1.
     999902    2    1    2    0    0 -0.20382189812E-02  0.74292399771E-02  0.22788262984E-01  0.10198747953E+01  0.10195910676E+01 0.  0.
     999903    2    3    3    0    0 -0.42248757160E-01 -0.22985368384E-01  0.12223191105E+00  0.13283986086E+00  0.19811711528E-01 0.  0.
         14    1    1    2    0    0  0.20382189812E-02 -0.74292399771E-02 -0.22788262984E-01  0.24055204699E-01  0.00000000000E+00 0.  1.
     999901    1    3    3    0    0  0.40210538179E-01  0.30414608361E-01 -0.99443648061E-01  0.88703493444E+00  0.88000000000E+00 0. -1.
        -11    1    4    4    0    0 -0.29028799838E-01 -0.17275880819E-01  0.10540260799E+00  0.11068467902E+00  0.51100000000E-03 0.  1.
         11    1    4    4    0    0 -0.13219957322E-01 -0.57094875650E-02  0.16829303055E-01  0.22155181836E-01  0.51100000000E-03 0. -1.
</event>
<event>
 8    1  0.1207611E+005  0.1043930E+01  0.7957747E-01            NaN
         13   -1    0    0    0    0  0.00000000000E+00  0.00000000000E+00  0.74505805969E-08  0.10566000000E+00  0.10566000000E+00 0.  1.
     999900   -1    0    0    0    0 -0.00000000000E+00 -0.00000000000E+00 -0.74505805969E-08  0.93827000000E+00  0.93827000000E+00 0. -1.
     999902    2    1    2    0    0 -0.72098624864E-02 -0.20638847034E-01 -0.69724877296E-02  0.10209831111E+01  0.10207252096E+01 0.  0.
     999903    2    3    3    0    0  0.39560130778E-01  0.10245653393E+00  0.63545136408E-01  0.12839550175E+00  0.19623333482E-01 0.  0.
         14    1    1    2    0    0  0.72098624864E-02  0.20638847034E-01  0.69724877296E-02  0.22946888876E-01  0.00000000000E+00 0. -1.
     999901    1    3    3    0    0 -0.46769993264E-01 -0.12309538097E+00 -0.70517624138E-01  0.89258760937E+00  0.88000000000E+00 0.  1.
        -11    1    4    4    0    0  0.54602106017E-02  0.12415217474E-01  0.16098255127E-01  0.21056268992E-01  0.51100000000E-03 0.  1.
         11    1    4    4    0    0  0.34099920176E-01  0.90041316460E-01  0.47446881282E-01  0.10733923276E+00  0.51100000000E-03 0. -1.
</event>
<event>
 8    1  0.1207611E+005  0.1043930E+01  0.7957747E-01            NaN
         13   -1    0    0    0    0  0.00000000000E+00  0.00000000000E+00  0.74505805969E-08  0.10566000000E+00  0.10566000000E+00 0. -1.
     999900   -1    0    0    0    0 -0.00000000000E+00 -0.00000000000E+00 -0.74505805969E-08  0.93827000000E+00  0.93827000000E+00 0.  1.
     999902    2    1    2    0    0  0.10974734719E-01 -0.34286633097E-02  0.22900937486E-01  0.10183047493E+01  0.10179822734E+01 0.  0.
     999903    2    3    3    0    0 -0.44955789090E-01  0.67638870014E-01  0.99816064805E-01  0.13033247803E+00  0.20670469916E-01 0.  0.
         14    1    1    2    0    0 -0.10974734719E-01  0.34286633097E-02 -0.22900937486E-01  0.25625250671E-01  0.00000000000E+00 0.  1.
     999901    1    3    3    0    0  0.55930523809E-01 -0.71067533324E-01 -0.76915127319E-01  0.88797227130E+00  0.88000000000E+00 0. -1.
        -11    1    4    4    0    0 -0.31672616165E-01  0.59575779310E-01  0.87523505831E-01  0.11051268384E+00  0.51100000000E-03 0.  1.
         11    1    4    4    0    0 -0.13283172924E-01  0.80630907044E-02  0.12292558974E-01  0.19819794191E-01  0.51100000000E-03 0. -1.
</event>
<event>
 8    1  0.1207611E+005  0.1043930E+01  0.7957747E-01            NaN
         13   -1    0    0    0    0  0.00000000000E+00  0.00000000000E+00  0.74505805969E-08  0.10566000000E+00  0.10566000000E+00 0. -1.
     999900   -1    0    0    0    0 -0.00000000000E+00 -0.00000000000E+00 -0.74505805969E-08  0.93827000000E+00  0.93827000000E+00 0.  1.
     999902    2    1    2    0    0  0.19987079910E-03 -0.30225264266E-01 -0.85286641226E-02  0.10125238754E+01  0.10120366859E+01 0.  0.
     999903    2    3    3    0    0  0.38972448156E-01 -0.12422704599E-01 -0.11642966211E+00  0.12490747786E+00  0.19308974628E-01 0.  0.
         14    1    1    2    0    0 -0.19987079910E-03  0.30225264266E-01  0.85286641226E-02  0.31406124562E-01  0.00000000000E+00 0. -1.
     999901    1    3    3    0    0 -0.38772577357E-01 -0.17802559667E-01  0.10790099799E+00  0.88761639758E+00  0.88000000000E+00 0. -1.
        -11    1    4    4    0    0  0.25339599496E-01 -0.11449752371E-01 -0.51263591023E-01  0.58321599922E-01  0.51100000000E-03 0.  1.
         11    1    4    4    0    0  0.13632848660E-01 -0.97295222777E-03 -0.65166071087E-01  0.66585877936E-01  0.51100000000E-03 0. -1.
</event>
<event>
 8    1  0.1207611E+005  0.1043930E+01  0.7957747E-01            NaN
         13   -1    0    0    0    0  0.00000000000E+00  0.00000000000E+00  0.74505805969E-08  0.10566000000E+00  0.10566000000E+00 0. -1.
     999900   -1    0    0    0    0 -0.00000000000E+00 -0.00000000000E+00 -0.74505805969E-08  0.93827000000E+00  0.93827000000E+00 0.  1.
     999902    2    1    2    0    0 -0.12752338529E-01 -0.96261705666E-02 -0.16955209250E-01  0.10206326950E+01  0.10203667643E+01 0.  0.
     999903    2    3    3    0    0  0.91093779469E-01  0.37835427646E-01  0.79303337218E-01  0.12805086277E+00  0.19452709813E-01 0.  0.
         14    1    1    2    0    0  0.12752338529E-01  0.96261705666E-02  0.16955209250E-01  0.23297304961E-01  0.00000000000E+00 0. -1.
     999901    1    3    3    0    0 -0.10384611800E+00 -0.47461598213E-01 -0.96258546468E-01  0.89258183227E+00  0.88000000000E+00 0.  1.
        -11    1    4    4    0    0  0.67936208238E-01  0.19276737505E-01  0.59777716883E-01  0.92523281153E-01  0.51100000000E-03 0. -1.
         11    1    4    4    0    0  0.23157571232E-01  0.18558690141E-01  0.19525620335E-01  0.35527581617E-01  0.51100000000E-03 0.  1.
</event>
<event>
 8    1  0.1207611E+005  0.1043930E+01  0.7957747E-01            NaN
         13   -1    0    0    0    0  0.00000000000E+00  0.00000000000E+00  0.74505805969E-08  0.10566000000E+00  0.10566000000E+00 0. -1.
     999900   -1    0    0    0    0 -0.00000000000E+00 -0.00000000000E+00 -0.74505805969E-08  0.93827000000E+00  0.93827000000E+00 0. -1.
     999902    2    1    2    0    0 -0.22277565010E-02 -0.23278381928E-01  0.40091962594E-02  0.10202040729E+01  0.10199281497E+01 0.  0.
     999903    2    3    3    0    0 -0.50849093105E-01  0.80018483968E-01 -0.84456292133E-01  0.12843032379E+00  0.19310482721E-01 0.  0.
         14    1    1    2    0    0  0.22277565010E-02  0.23278381928E-01 -0.40091962594E-02  0.23725927145E-01  0.00000000000E+00 0. -1.
     999901    1    3    3    0    0  0.48621336604E-01 -0.10329686590E+00  0.88465488393E-01  0.89177374906E+00  0.88000000000E+00 0.  1.
        -11    1    4    4    0    0 -0.23757760504E-01  0.20882407270E-01 -0.29973590252E-01  0.43579620824E-01  0.51100000000E-03 0. -1.
         11    1    4    4    0    0 -0.27091332601E-01  0.59136076698E-01 -0.54482701881E-01  0.84850702971E-01  0.51100000000E-03 0.  1.
</event>
<event>
 8    1  0.1207611E+005  0.1043930E+01  0.7957747E-01            NaN
         13   -1    0    0    0    0  0.00000000000E+00  0.00000000000E+00  0.74505805969E-08  0.10566000000E+00  0.10566000000E+00 0.  1.
     999900   -1    0    0    0    0 -0.00000000000E+00 -0.00000000000E+00 -0.74505805969E-08  0.93827000000E+00  0.93827000000E+00 0. -1.
     999902    2    1    2    0    0  0.23500614299E-01 -0.37151391725E-02  0.22934664603E-02  0.10200272571E+01  0.10197471569E+01 0.  0.
     999903    2    3    3    0    0 -0.11417950246E+00  0.19140058105E-01 -0.49486417662E-01  0.12752553102E+00  0.20262154914E-01 0.  0.
         14    1    1    2    0    0 -0.23500614299E-01  0.37151391725E-02 -0.22934664603E-02  0.23902742937E-01  0.00000000000E+00 0.  1.
     999901    1    3    3    0    0  0.13768011676E+00 -0.22855197277E-01  0.51779884123E-01  0.89250172605E+00  0.88000000000E+00 0.  1.
        -11    1    4    4    0    0 -0.99704866052E-01  0.21330468290E-01 -0.37645536351E-01  0.10868991085E+00  0.51100000000E-03 0.  1.
         11    1    4    4    0    0 -0.14474636410E-01 -0.21904101854E-02 -0.11840881312E-01  0.18835620171E-01  0.51100000000E-03 0. -1.
</event>
<event>
 8    1  0.1207611E+005  0.1043930E+01  0.7957747E-01            NaN
         13   -1    0    0    0    0  0.00000000000E+00  0.00000000000E+00  0.74505805969E-08  0.10566000000E+00  0.10566000000E+00 0.  1.
     999900   -1    0    0    0    0 -0.00000000000E+00 -0.00000000000E+00 -0.74505805969E-08  0.93827000000E+00  0.93827000000E+00 0. -1.
     999902    2    1    2    0    0 -0.16195100130E-01  0.17117412409E-01  0.55163713789E-02  0.10197284003E+01  0.10194411670E+01 0.  0.
     999903    2    3    3    0    0  0.11079302162E-01  0.12868290781E+00  0.17521054733E-01  0.13218411113E+00  0.21991138618E-01 0.  0.
         14    1    1    2    0    0  0.16195100130E-01 -0.17117412409E-01 -0.55163713789E-02  0.24201599720E-01  0.00000000000E+00 0. -1.
     999901    1    3    3    0    0 -0.27274402292E-01 -0.11156549540E+00 -0.12004683355E-01  0.88754428915E+00  0.88000000000E+00 0.  1.
        -11    1    4    4    0    0 -0.16197469037E-02  0.44129754515E-01  0.15012414680E-01  0.46644319366E-01  0.51100000000E-03 0.  1.
         11    1    4    4    0    0  0.12699049065E-01  0.84553153292E-01  0.25086400532E-02  0.85539791762E-01  0.51100000000E-03 0. -1.
</event>
<event>
 8    1  0.1207611E+005  0.1043930E+01  0.7957747E-01            NaN
         13   -1    0    0    0    0  0.00000000000E+00  0.00000000000E+00  0.74505805969E-08  0.10566000000E+00  0.10566000000E+00 0. -1.
     999900   -1    0    0    0    0 -0.00000000000E+00 -0.00000000000E+00 -0.74505805969E-08  0.93827000000E+00  0.93827000000E+00 0.  1.
     999902    2    1    2    0    0  0.20815086988E-02  0.12486153162E-01 -0.20214910016E-01  0.10200788095E+01  0.10197999306E+01 0.  0.
     999903    2    3    3    0    0  0.65720895258E-01 -0.87877058662E-01  0.65220694522E-01  0.12799025546E+00  0.92818632471E-02 0.  0.
         14    1    1    2    0    0 -0.20815086988E-02 -0.12486153162E-01  0.20214910016E-01  0.23851190457E-01  0.00000000000E+00 0. -1.
     999901    1    3    3    0    0 -0.63639386559E-01  0.10036321182E+00 -0.85435604538E-01  0.89208855409E+00  0.88000000000E+00 0.  1.
        -11    1    4    4    0    0  0.38432487390E-01 -0.43700480239E-01  0.34531332437E-01  0.67671723053E-01  0.51100000000E-03 0.  1.
         11    1    4    4    0    0  0.27288407868E-01 -0.44176578423E-01  0.30689362085E-01  0.60318532404E-01  0.51100000000E-03 0. -1.
</event>
<event>
 8    1  0.1207611E+005  0.1043930E+01  0.7957747E-01            NaN
         13   -1    0    0    0    0  0.00000000000E+00  0.00000000000E+00  0.74505805969E-08  0.10566000000E+00  0.10566000000E+00 0. -1.
     999900   -1    0    0    0    0 -0.00000000000E+00 -0.00000000000E+00 -0.74505805969E-08  0.93827000000E+00  0.93827000000E+00 0. -1.
     999902    2    1    2    0    0  0.16214493767E-01  0.20921014223E-01  0.48942522142E-02  0.10170124899E+01  0.10166562115E+01 0.  0.
     999903    2    3    3    0    0  0.58704543387E-01 -0.97534322183E-01 -0.52022561418E-01  0.12623945782E+00  0.16458626803E-01 0.  0.
         14    1    1    2    0    0 -0.16214493767E-01 -0.20921014223E-01 -0.48942522142E-02  0.26917510081E-01  0.00000000000E+00 0. -1.
     999901    1    3    3    0    0 -0.42490049620E-01  0.11845533641E+00  0.56916813632E-01  0.89077303210E+00  0.88000000000E+00 0.  1.
        -11    1    4    4    0    0  0.31749244720E-01 -0.37147028741E-01 -0.20923035735E-01  0.53159672966E-01  0.51100000000E-03 0. -1.
         11    1    4    4    0    0  0.26955298667E-01 -0.60387293443E-01 -0.31099525683E-01  0.73079784854E-01  0.51100000000E-03 0.  1.
</event>
<event>
 8    1  0.1207611E+005  0.1043930E+01  0.7957747E-01            NaN
         13   -1    0    0    0    0  0.00000000000E+00  0.00000000000E+00  0.74505805969E-08  0.10566000000E+00  0.10566000000E+00 0.  1.
     999900   -1    0    0    0    0 -0.00000000000E+00 -0.00000000000E+00 -0.74505805969E-08  0.93827000000E+00  0.93827000000E+00 0. -1.
     999902    2    1    2    0    0 -0.18358788510E-02  0.48562982838E-02 -0.24108402289E-01  0.10192689144E+01  0.10189705347E+01 0.  0.
     999903    2    3    3    0    0  0.67369665519E-01 -0.35670973709E-01  0.99510873450E-01  0.12701693622E+00  0.20488971562E-01 0.  0.
         14    1    1    2    0    0  0.18358788510E-02 -0.48562982838E-02  0.24108402289E-01  0.24661085643E-01  0.00000000000E+00 0.  1.
     999901    1    3    3    0    0 -0.69205544370E-01  0.40527271993E-01 -0.12361927574E+00  0.89225197813E+00  0.88000000000E+00 0. -1.
        -11    1    4    4    0    0  0.55947213376E-01 -0.22902444504E-01  0.66851010517E-01  0.90132854037E-01  0.51100000000E-03 0. -1.
         11    1    4    4    0    0  0.11422452144E-01 -0.12768529205E-01  0.32659862933E-01  0.36884082188E-01  0.51100000000E-03 0.  1.
</event>
<event>
 8    1  0.1207611E+005  0.1043930E+01  0.7957747E-01            NaN
         13   -1    0    0    0    0  0.00000000000E+00  0.00000000000E+00  0.74505805969E-08  0.10566000000E+00  0.10566000000E+00 0.  1.
     999900   -1    0    0    0    0 -0.00000000000E+00 -0.00000000000E+00 -0.74505805969E-08  0.93827000000E+00  0.93827000000E+00 0. -1.
     999902    2    1    2    0    0  0.14401348998E-01  0.11841641684E-01  0.14164301787E-01  0.10205152445E+01  0.10202465944E+01 0.  0.
     999903    2    3    3    0    0  0.91433118160E-01  0.92743779855E-01 -0.17714916408E-01  0.13288055951E+00  0.19544846723E-01 0.  0.
         14    1    1    2    0    0 -0.14401348998E-01 -0.11841641684E-01 -0.14164301787E-01  0.23414755515E-01  0.00000000000E+00 0. -1.
     999901    1    3    3    0    0 -0.77031769163E-01 -0.80902138171E-01  0.31879218196E-01  0.88763468498E+00  0.88000000000E+00 0.  1.
        -11    1    4    4    0    0  0.51076708164E-01  0.62192332080E-01 -0.47089719156E-02  0.80617317147E-01  0.51100000000E-03 0. -1.
         11    1    4    4    0    0  0.40356409997E-01  0.30551447775E-01 -0.13005944493E-01  0.52263242361E-01  0.51100000000E-03 0.  1.
</event>
<event>
 8    1  0.1207611E+005  0.1043930E+01  0.7957747E-01            NaN
         13   -1    0    0    0    0  0.00000000000E+00  0.00000000000E+00  0.74505805969E-08  0.10566000000E+00  0.10566000000E+00 0. -1.
     999900   -1    0    0    0    0 -0.00000000000E+00 -0.00000000000E+00 -0.74505805969E-08  0.93827000000E+00  0.93827000000E+00 0.  1.
     999902    2    1    2    0    0 -0.12858757342E-01  0.44309058635E-02 -0.19625218558E-01  0.10200526096E+01  0.10197731104E+01 0.  0.
     999903    2    3    3    0    0  0.90197398640E-01  0.31766724680E-01 -0.87381008075E-01  0.13103142581E+00  0.19725578818E-01 0.  0.
         14    1    1    2    0    0  0.12858757342E-01 -0.44309058635E-02  0.19625218558E-01  0.23877390364E-01  0.00000000000E+00 0. -1.
     999901    1    3    3    0    0 -0.10305615598E+00 -0.27335818816E-01  0.67755789517E-01  0.88902118382E+00  0.88000000000E+00 0. -1.
        -11    1    4    4    0    0  0.31465129320E-01  0.72399759953E-02 -0.18375950800E-01  0.37153846427E-01  0.51100000000E-03 0. -1.
         11    1    4    4    0    0  0.58732269320E-01  0.24526748685E-01 -0.69005057275E-01  0.93877579384E-01  0.51100000000E-03 0.  1.
</event>
<event>
 8    1  0.1207611E+005  0.1043930E+01  0.7957747E-01            NaN
         13   -1    0    0    0    0  0.00000000000E+00  0.00000000000E+00  0.74505805969E-08  0.10566000000E+00  0.10566000000E+00 0.  1.
     999900   -1    0    0    0    0 -0.00000000000E+00 -0.00000000000E+00 -0.74505805969E-08  0.93827000000E+00  0.93827000000E+00 0.  1.
     999902    2    1    2    0    0  0.51255457338E-02  0.21524839694E-01 -0.56858299852E-02  0.10210844620E+01  0.10208288593E+01 0.  0.
     999903    2    3    3    0    0  0.93424633600E-01 -0.77519734767E-01  0.41708231449E-01  0.12987587044E+00  0.19765973546E-01 0.  0.
         14    1    1    2    0    0 -0.51255457338E-02 -0.21524839694E-01  0.56858299852E-02  0.22845537979E-01  0.00000000000E+00 0. -1.
     999901    1    3    3    0    0 -0.88299087866E-01  0.99044574462E-01 -0.47394061435E-01  0.89120859158E+00  0.88000000000E+00 0. -1.
        -11    1    4    4    0    0  0.47532816418E-01 -0.50363468136E-01  0.18256914724E-01  0.71619994524E-01  0.51100000000E-03 0.  1.
         11    1    4    4    0    0  0.45891817182E-01 -0.27156266631E-01  0.23451316726E-01  0.58255875916E-01  0.51100000000E-03 0. -1.
</event>
<event>
 8    1  0.1207611E+005  0.1043930E+01  0.7957747E-01            NaN
         13   -1    0    0    0    0  0.00000000000E+00  0.00000000000E+00  0.74505805969E-08  0.10566000000E+00  0.10566000000E+00 0. -1.
     999900   -1    0    0    0    0 -0.00000000000E+00 -0.00000000000E+00 -0.74505805969E-08  0.93827000000E+00  0.93827000000E+00 0. -1.
     999902    2    1    2    0    0 -0.21889327431E-01 -0.52755551391E-02 -0.49566489212E-02  0.10208747944E+01  0.10206144244E+01 0.  0.
     999903    2    3    3    0    0  0.20436729279E-01 -0.58793648969E-01  0.11288170213E+00  0.13040213426E+00  0.19699870126E-01 0.  0.
         14    1    1    2    0    0  0.21889327431E-01  0.52755551391E-02  0.49566489212E-02  0.23055205615E-01  0.00000000000E+00 0. -1.
     999901    1    3    3    0    0 -0.42326056711E-01  0.53518093830E-01 -0.11783835105E+00  0.89047266012E+00  0.88000000000E+00 0. -1.
        -11    1    4    4    0    0  0.24358812174E-01 -0.50283556764E-01  0.95281195450E-01  0.11045612314E+00  0.51100000000E-03 0.  1.
         11    1    4    4    0    0 -0.39220828944E-02 -0.85100922051E-02  0.17600506677E-01  0.19946011127E-01  0.51100000000E-03 0. -1.
</event>
<event>
 7    1  0.1207611E+005  0.1043930E+01  0.7957747E-01            NaN
         13   -1    0    0    0    0  0.00000000000E+00  0.00000000000E+00  0.74505805969E-08  0.10566000000E+00  0.10566000000E+00 0. -1.
     999900   -1    0    0    0    0 -0.00000000000E+00 -0.00000000000E+00 -0.74505805969E-08  0.93827000000E+00  0.93827000000E+00 0.  1.
     999902    2    1    2    0    0  0.22124879569E-01 -0.78378735247E-02  0.88899500325E-02  0.10188307217E+01  0.10185215097E+01 0.  0.
         14    1    1    2    0    0 -0.22124879569E-01  0.78378735247E-02 -0.88899500325E-02  0.25099278255E-01  0.00000000000E+00 0.  1.
     999901    1    3    3    0    0 -0.92996070186E-01  0.28410346164E-01  0.60763524293E-01  0.88743879942E+00  0.88000000000E+00 0. -1.
        -11    1    3    3    0    0  0.90685243927E-01 -0.28956488702E-01 -0.41769146893E-01  0.10395775323E+00  0.51100000000E-03 0.  1.
         11    1    3    3    0    0  0.24435705828E-01 -0.72917309863E-02 -0.10104427367E-01  0.27434169087E-01  0.51100000000E-03 0. -1.
</event>
<event>
 8    1  0.1207611E+005  0.1043930E+01  0.7957747E-01            NaN
         13   -1    0    0    0    0  0.00000000000E+00  0.00000000000E+00  0.74505805969E-08  0.10566000000E+00  0.10566000000E+00 0. -1.
     999900   -1    0    0    0    0 -0.00000000000E+00 -0.00000000000E+00 -0.74505805969E-08  0.93827000000E+00  0.93827000000E+00 0.  1.
     999902    2    1    2    0    0 -0.38101989121E-02 -0.21424800208E-01 -0.95905067815E-02  0.10201493881E+01  0.10198721766E+01 0.  0.
     999903    2    3    3    0    0 -0.27873531443E-01  0.77578930445E-01 -0.98317754517E-01  0.12983859570E+00  0.19906176845E-01 0.  0.
         14    1    1    2    0    0  0.38101989121E-02  0.21424800208E-01  0.95905067815E-02  0.23780611852E-01  0.00000000000E+00 0. -1.
     999901    1    3    3    0    0  0.24063332530E-01 -0.99003730653E-01  0.88727247736E-01  0.89031079245E+00  0.88000000000E+00 0. -1.
        -11    1    4    4    0    0 -0.33184618448E-02  0.14778423590E-01 -0.80366044249E-02  0.17154070202E-01  0.51100000000E-03 0.  1.
         11    1    4    4    0    0 -0.24555069598E-01  0.62800506855E-01 -0.90281150092E-01  0.11268452550E+00  0.51100000000E-03 0. -1.
</event>
<event>
 8    1  0.1207611E+005  0.1043930E+01  0.7957747E-01            NaN
         13   -1    0    0    0    0  0.00000000000E+00  0.00000000000E+00  0.74505805969E-08  0.10566000000E+00  0.10566000000E+00 0. -1.
     999900   -1    0    0    0    0 -0.00000000000E+00 -0.00000000000E+00 -0.74505805969E-08  0.93827000000E+00  0.93827000000E+00 0.  1.
     999902    2    1    2    0    0  0.15266113589E-01 -0.15714496671E-02  0.18298345328E-01  0.10200479331E+01  0.10197683230E+01 0.  0.
     999903    2    3    3    0    0 -0.12332986809E+00 -0.26710585165E-01 -0.12216378790E-01  0.12832377694E+00  0.19850443185E-01 0.  0.
         14    1    1    2    0    0 -0.15266113589E-01  0.15714496671E-02 -0.18298345328E-01  0.23882066910E-01  0.00000000000E+00 0.  1.
     999901    1    3    3    0    0  0.13859598168E+00  0.25139135498E-01  0.30514724118E-01  0.89172415615E+00  0.88000000000E+00 0. -1.
        -11    1    4    4    0    0 -0.75077632108E-01 -0.10597400740E-01  0.73437703711E-03  0.75827146696E-01  0.51100000000E-03 0.  1.
         11    1    4    4    0    0 -0.48252235982E-01 -0.16113184425E-01 -0.12950755827E-01  0.52496630245E-01  0.51100000000E-03 0. -1.
</event>
<event>
 8    1  0.1207611E+005  0.1043930E+01  0.7957747E-01            NaN
         13   -1    0    0    0    0  0.00000000000E+00  0.00000000000E+00  0.74505805969E-08  0.10566000000E+00  0.10566000000E+00 0. -1.
     999900   -1    0    0    0    0 -0.00000000000E+00 -0.00000000000E+00 -0.74505805969E-08  0.93827000000E+00  0.93827000000E+00 0. -1.
     999902    2    1    2    0    0  0.21258078780E-01 -0.11618144777E-01  0.81986308320E-02  0.10183545284E+01  0.10180333200E+01 0.  0.
     999903    2    3    3    0    0  0.77867880417E-01  0.40438792410E-01  0.96531937042E-01  0.13059478197E+00  0.61546304292E-02 0.  0.
         14    1    1    2    0    0 -0.21258078780E-01  0.11618144777E-01 -0.81986308320E-02  0.25575471628E-01  0.00000000000E+00 0.  1.
     999901    1    3    3    0    0 -0.56609801637E-01 -0.52056937188E-01 -0.88333306210E-01  0.88775974640E+00  0.88000000000E+00 0. -1.
        -11    1    4    4    0    0  0.40040516646E-01  0.24194547709E-01  0.50974477115E-01  0.69190155009E-01  0.51100000000E-03 0. -1.
         11    1    4    4    0    0  0.37827363771E-01  0.16244244702E-01  0.45557459927E-01  0.61404626958E-01  0.51100000000E-03 0.  1.
</event>
<event>
 8    1  0.1207611E+005  0.1043930E+01  0.7957747E-01            NaN
         13   -1    0    0    0    0  0.00000000000E+00  0.00000000000E+00  0.74505805969E-08  0.10566000000E+00  0.10566000000E+00 0. -1.
     999900   -1    0    0    0    0 -0.00000000000E+00 -0.00000000000E+00 -0.74505805969E-08  0.93827000000E+00  0.93827000000E+00 0. -1.
     999902    2    1    2    0    0  0.21648810422E-01 -0.15030536250E-02  0.86909433989E-02  0.10205534592E+01  0.10202856955E+01 0.  0.
     999903    2    3    3    0    0  0.24306022555E-01  0.82578391233E-01 -0.96078006683E-01  0.13035500770E+00  0.18747566044E-01 0.  0.
         14    1    1    2    0    0 -0.21648810422E-01  0.15030536250E-02 -0.86909433989E-02  0.23376540806E-01  0.00000000000E+00 0.  1.
     999901    1    3    3    0    0 -0.26572121337E-02 -0.84081444858E-01  0.10476895008E+00  0.89019845150E+00  0.88000000000E+00 0.  1.
        -11    1    4    4    0    0  0.27777133577E-02  0.36813227071E-01 -0.33145604313E-01  0.49616747024E-01  0.51100000000E-03 0. -1.
         11    1    4    4    0    0  0.21528309198E-01  0.45765164162E-01 -0.62932402370E-01  0.80738260674E-01  0.51100000000E-03 0.  1.
</event>
<event>
 8    1  0.1207611E+005  0.1043930E+01  0.7957747E-01            NaN
         13   -1    0    0    0    0  0.00000000000E+00  0.00000000000E+00  0.74505805969E-08  0.10566000000E+00  0.10566000000E+00 0.  1.
     999900   -1    0    0    0    0 -0.00000000000E+00 -0.00000000000E+00 -0.74505805969E-08  0.93827000000E+00  0.93827000000E+00 0. -1.
     999902    2    1    2    0    0  0.31928796716E-02  0.21262406583E-01 -0.96851100408E-02  0.10203485291E+01  0.10200759947E+01 0.  0.
     999903    2    3    3    0    0 -0.90287827766E-01 -0.54736536546E-01  0.70471919813E-01  0.12853036855E+00  0.20144078065E-01 0.  0.
         14    1    1    2    0    0 -0.31928796716E-02 -0.21262406583E-01  0.96851100408E-02  0.23581470921E-01  0.00000000000E+00 0.  1.
     999901    1    3    3    0    0  0.93480707437E-01  0.75998943129E-01 -0.80157029854E-01  0.89181816053E+00  0.88000000000E+00 0. -1.
        -11    1    4    4    0    0 -0.58374021438E-01 -0.42651937290E-01  0.39201938402E-01  0.82242125635E-01  0.51100000000E-03 0. -1.
         11    1    4    4    0    0 -0.31913806327E-01 -0.12084599256E-01  0.31269981410E-01  0.46288242912E-01  0.51100000000E-03 0.  1.
</event>
<event>
 8    1  0.1207611E+005  0.1043930E+01  0.7957747E-01            NaN
         13   -1    0    0    0    0  0.00000000000E+00  0.00000000000E+00  0.74505805969E-08  0.10566000000E+00  0.10566000000E+00 0. -1.
     999900   -1    0    0    0    0 -0.00000000000E+00 -0.00000000000E+00 -0.74505805969E-08  0.93827000000E+00  0.93827000000E+00 0. -1.
     999902    2    1    2    0    0 -0.19624055024E-01 -0.43889772914E-02  0.10935422167E-01  0.10210400434E+01  0.10207834344E+01 0.  0.
     999903    2    3    3    0    0 -0.12208964923E+00  0.47854947616E-01  0.15021727403E-01  0.13354619911E+00  0.20321332213E-01 0.  0.
         14    1    1    2    0    0  0.19624055024E-01  0.43889772914E-02 -0.10935422167E-01  0.22889956645E-01  0.00000000000E+00 0.  1.
     999901    1    3    3    0    0  0.10246559420E+00 -0.52243924908E-01 -0.40863052367E-02  0.88749384425E+00  0.88000000000E+00 0.  1.
        -11    1    4    4    0    0 -0.38774450599E-01  0.22380585824E-01  0.12073268295E-01  0.46372120605E-01  0.51100000000E-03 0.  1.
         11    1    4    4    0    0 -0.83315198627E-01  0.25474361792E-01  0.29484591084E-02  0.87174078504E-01  0.51100000000E-03 0. -1.
</event>
<event>
 8    1  0.1207611E+005  0.1043930E+01  0.7957747E-01            NaN
         13   -1    0    0    0    0  0.00000000000E+00  0.00000000000E+00  0.74505805969E-08  0.10566000000E+00  0.10566000000E+00 0. -1.
     999900   -1    0    0    0    0 -0.00000000000E+00 -0.00000000000E+00 -0.74505805969E-08  0.93827000000E+00  0.93827000000E+00 0. -1.
     999902    2    1    2    0    0 -0.22638827196E-01 -0.56991295077E-02 -0.10526180882E-02  0.10205611194E+01  0.10202935332E+01 0.  0.
     999903    2    3    3    0    0  0.55368220836E-01 -0.89637315305E-01 -0.73745441717E-01  0.13015954420E+00  0.20065607355E-01 0.  0.
         14    1    1    2    0    0  0.22638827196E-01  0.56991295077E-02  0.10526180882E-02  0.23368880564E-01  0.00000000000E+00 0.  1.
     999901    1    3    3    0    0 -0.78007048032E-01  0.83938185797E-01  0.72692823628E-01  0.89040157524E+00  0.88000000000E+00 0.  1.
        -11    1    4    4    0    0  0.34380085561E-01 -0.66847896468E-01 -0.60358336624E-01  0.96405505374E-01  0.51100000000E-03 0.  1.
         11    1    4    4    0    0  0.20988135275E-01 -0.22789418837E-01 -0.13387105092E-01  0.33754038825E-01  0.51100000000E-03 0. -1.
</event>
<event>
 8    1  0.1207611E+005  0.1043930E+01  0.7957747E-01            NaN
         13   -1    0    0    0    0  0.00000000000E+00  0.00000000000E+00  0.74505805969E-08  0.10566000000E+00  0.10566000000E+00 0. -1.
     999900   -1    0    0    0    0 -0.00000000000E+00 -0.00000000000E+00 -0.74505805969E-08  0.93827000000E+00  0.93827000000E+00 0.  1.
     999902    2    1    2    0    0  0.67802816513E-02 -0.98107340497E-02  0.20773199830E-01  0.10199769511E+01  0.10196956566E+01 0.  0.
     999903    2    3    3    0    0  0.26095202285E-01  0.89673724775E-01  0.90280317183E-01  0.13143800253E+00  0.20076761233E-01 0.  0.
         14    1    1    2    0    0 -0.67802816513E-02  0.98107340497E-02 -0.20773199830E-01  0.23953048930E-01  0.00000000000E+00 0.  1.
     999901    1    3    3    0    0 -0.19314920633E-01 -0.99484458824E-01 -0.69507117353E-01  0.88853894854E+00  0.88000000000E+00 0.  1.
        -11    1    4    4    0    0  0.14439392813E-01  0.18864468410E-01  0.22741607637E-01  0.32890820484E-01  0.51100000000E-03 0.  1.
         11    1    4    4    0    0  0.11655809471E-01  0.70809256365E-01  0.67538709546E-01  0.98547182048E-01  0.51100000000E-03 0. -1.
</event>
<event>
 8    1  0.1207611E+005  0.1043930E+01  0.7957747E-01            NaN
         13   -1    0    0    0    0  0.00000000000E+00  0.00000000000E+00  0.74505805969E-08  0.10566000000E+00  0.10566000000E+00 0.  1.
     999900   -1    0    0    0    0 -0.00000000000E+00 -0.00000000000E+00 -0.74505805969E-08  0.93827000000E+00  0.93827000000E+00 0. -1.
     999902    2    1    2    0    0  0.21766080230E-01 -0.13446954583E-02  0.95756976301E-02  0.10201126861E+01  0.10198346082E+01 0.  0.
     999903    2    3    3    0    0  0.33870730377E-01 -0.14395349440E-01 -0.12308058462E+00  0.12999217107E+00  0.19866599264E-01 0.  0.
         14    1    1    2    0    0 -0.21766080230E-01  0.13446954583E-02 -0.95756976301E-02  0.23817313861E-01  0.00000000000E+00 0. -1.
     999901    1    3    3    0    0 -0.12104650147E-01  0.13050653982E-01  0.13265628225E+00  0.89012051507E+00  0.88000000000E+00 0.  1.
        -11    1    4    4    0    0  0.19923697297E-01 -0.18541093068E-01 -0.82943337688E-01  0.87295957719E-01  0.51100000000E-03 0.  1.
         11    1    4    4    0    0  0.13947033081E-01  0.41457436278E-02 -0.40137246936E-01  0.42696213351E-01  0.51100000000E-03 0. -1.
</event>
<event>
 8    1  0.1207611E+005  0.1043930E+01  0.7957747E-01            NaN
         13   -1    0    0    0    0  0.00000000000E+00  0.00000000000E+00  0.74505805969E-08  0.10566000000E+00  0.10566000000E+00 0. -1.
     999900   -1    0    0    0    0 -0.00000000000E+00 -0.00000000000E+00 -0.74505805969E-08  0.93827000000E+00  0.93827000000E+00 0.  1.
     999902    2    1    2    0    0 -0.17667631474E-01  0.73019073458E-02 -0.12887513650E-01  0.10208746089E+01  0.10206142346E+01 0.  0.
     999903    2    3    3    0    0 -0.77846576764E-01 -0.10155037472E+00  0.22839234029E-01  0.13141031768E+00  0.19351301328E-01 0.  0.
         14    1    1    2    0    0  0.17667631474E-01 -0.73019073458E-02  0.12887513650E-01  0.23055391145E-01  0.00000000000E+00 0. -1.
     999901    1    3    3    0    0  0.60178945291E-01  0.10885228207E+00 -0.35726747679E-01  0.88946429117E+00  0.88000000000E+00 0.  1.
        -11    1    4    4    0    0 -0.69301858677E-01 -0.78008191138E-01  0.17671864123E-01  0.10583279928E+00  0.51100000000E-03 0.  1.
         11    1    4    4    0    0 -0.85447180877E-02 -0.23542183582E-01  0.51673699062E-02  0.25577518405E-01  0.51100000000E-03 0. -1.
</event>
<event>
 8    1  0.1207611E+005  0.1043930E+01  0.7957747E-01            NaN
         13   -1    0    0    0    0  0.00000000000E+00  0.00000000000E+00  0.74505805969E-08  0.10566000000E+00  0.10566000000E+00 0.  1.
     999900   -1    0    0    0    0 -0.00000000000E+00 -0.00000000000E+00 -0.74505805969E-08  0.93827000000E+00  0.93827000000E+00 0.  1.
     999902    2    1    2    0    0  0.23797519461E-01  0.18961808651E-02  0.17169043474E-03  0.10200564391E+01  0.10197770305E+01 0.  0.
     999903    2    3    3    0    0 -0.78611604503E-01 -0.77422724267E-01 -0.62595924347E-01  0.12836204587E+00  0.19608734770E-01 0.  0.
         14    1    1    2    0    0 -0.23797519461E-01 -0.18961808651E-02 -0.17169043474E-03  0.23873560941E-01  0.00000000000E+00 0. -1.
     999901    1    3    3    0    0  0.10240912396E+00  0.79318905132E-01  0.62767614782E-01  0.89169439319E+00  0.88000000000E+00 0. -1.
        -11    1    4    4    0    0 -0.30100338039E-01 -0.27755839079E-01 -0.12728095961E-01  0.42879861250E-01  0.51100000000E-03 0. -1.
         11    1    4    4    0    0 -0.48511266464E-01 -0.49666885188E-01 -0.49867828387E-01  0.85482184619E-01  0.51100000000E-03 0.  1.
</event>
<event>
 7    1  0.1218766E+005  0.1043930E+01  0.7957747E-01            NaN
         13   -1    0    0    0    0  0.00000000000E+00  0.00000000000E+00  0.74505805969E-08  0.10566000000E+00  0.10566000000E+00 0. -1.
     999900   -1    0    0    0    0 -0.00000000000E+00 -0.00000000000E+00 -0.74505805969E-08  0.93827000000E+00  0.93827000000E+00 0.  1.
     999902    2    1    2    0    0  0.24591546031E-01  0.26881277338E-02 -0.10212190974E-01  0.10171669843E+01  0.10168148380E+01 0.  0.
         14    1    1    2    0    0 -0.24591546031E-01 -0.26881277338E-02  0.10212190974E-01  0.26763015738E-01  0.00000000000E+00 0. -1.
     999901    1    3    3    0    0  0.13193062217E+00 -0.21502733874E-01  0.39445216545E-01  0.89096800265E+00  0.88000000000E+00 0. -1.
        -11    1    3    3    0    0 -0.56788850337E-01  0.13302621899E-01 -0.62104186390E-02  0.58658023259E-01  0.51100000000E-03 0.  1.
         11    1    3    3    0    0 -0.50550225798E-01  0.10888239709E-01 -0.43446988880E-01  0.67540958358E-01  0.51100000000E-03 0. -1.
</event>
<event>
 8    1  0.1207611E+005  0.1043930E+01  0.7957747E-01            NaN
         13   -1    0    0    0    0  0.00000000000E+00  0.00000000000E+00  0.74505805969E-08  0.10566000000E+00  0.10566000000E+00 0.  1.
     999900   -1    0    0    0    0 -0.00000000000E+00 -0.00000000000E+00 -0.74505805969E-08  0.93827000000E+00  0.93827000000E+00 0.  1.
     999902    2    1    2    0    0 -0.21518066755E-01  0.10934060328E-01  0.31727298220E-02  0.10195856560E+01  0.10192949832E+01 0.  0.
     999903    2    3    3    0    0  0.51475602795E-01 -0.16544178797E-01  0.11515179059E+00  0.12906758233E+00  0.21795834376E-01 0.  0.
         14    1    1    2    0    0  0.21518066755E-01 -0.10934060328E-01 -0.31727298220E-02  0.24344344038E-01  0.00000000000E+00 0. -1.
     999901    1    3    3    0    0 -0.72993669550E-01  0.27478239124E-01 -0.11197906077E+00  0.89051807363E+00  0.88000000000E+00 0. -1.
        -11    1    4    4    0    0  0.23207098992E-01 -0.18819289342E-01  0.56425827332E-01  0.63850373578E-01  0.51100000000E-03 0. -1.
         11    1    4    4    0    0  0.28268503803E-01  0.22751105452E-02  0.58725963259E-01  0.65217208749E-01  0.51100000000E-03 0.  1.
</event>
<event>
 8    1  0.1207611E+005  0.1043930E+01  0.7957747E-01            NaN
         13   -1    0    0    0    0  0.00000000000E+00  0.00000000000E+00  0.74505805969E-08  0.10566000000E+00  0.10566000000E+00 0. -1.
     999900   -1    0    0    0    0 -0.00000000000E+00 -0.00000000000E+00 -0.74505805969E-08  0.93827000000E+00  0.93827000000E+00 0. -1.
     999902    2    1    2    0    0  0.21304411847E-01 -0.89920709664E-02 -0.11334057479E-02  0.10207778961E+01  0.10205153077E+01 0.  0.
     999903    2    3    3    0    0  0.12219260739E+00 -0.18675714942E-01  0.46148370956E-01  0.13369967672E+00  0.21589714762E-01 0.  0.
         14    1    1    2    0    0 -0.21304411847E-01  0.89920709664E-02  0.11334057479E-02  0.23152103857E-01  0.00000000000E+00 0. -1.
     999901    1    3    3    0    0 -0.10088819555E+00  0.96836439753E-02 -0.47281776704E-01  0.88707821942E+00  0.88000000000E+00 0. -1.
        -11    1    4    4    0    0  0.19092820340E-01 -0.94291620576E-02  0.13239169896E-01  0.25079506099E-01  0.51100000000E-03 0.  1.
         11    1    4    4    0    0  0.10309978705E+00 -0.92465528840E-02  0.32909201060E-01  0.10862017062E+00  0.51100000000E-03 0. -1.
</event>
<event>
 8    1  0.1207611E+005  0.1043930E+01  0.7957747E-01            NaN
         13   -1    0    0    0    0  0.00000000000E+00  0.00000000000E+00  0.74505805969E-08  0.10566000000E+00  0.10566000000E+00 0. -1.
     999900   -1    0    0    0    0 -0.00000000000E+00 -0.00000000000E+00 -0.74505805969E-08  0.93827000000E+00  0.93827000000E+00 0. -1.
     999902    2    1    2    0    0 -0.11913061140E-01 -0.21849891902E-01  0.91281175471E-03  0.10190267467E+01  0.10187224050E+01 0.  0.
     999903    2    3    3    0    0 -0.84971485293E-01 -0.50435829347E-01  0.84534278142E-01  0.13158816354E+00  0.20136395118E-01 0.  0.
         14    1    1    2    0    0  0.11913061140E-01  0.21849891902E-01 -0.91281175471E-03  0.24903253344E-01  0.00000000000E+00 0.  1.
     999901    1    3    3    0    0  0.73058424154E-01  0.28585937445E-01 -0.83621466388E-01  0.88743858311E+00  0.88000000000E+00 0.  1.
        -11    1    4    4    0    0 -0.13265891002E-01 -0.10437191089E-01  0.58700070335E-02  0.17878392698E-01  0.51100000000E-03 0. -1.
         11    1    4    4    0    0 -0.71705594291E-01 -0.39998638258E-01  0.78664271109E-01  0.11370977084E+00  0.51100000000E-03 0.  1.
</event>
<event>
 8    1  0.1207611E+005  0.1043930E+01  0.7957747E-01            NaN
         13   -1    0    0    0    0  0.00000000000E+00  0.00000000000E+00  0.74505805969E-08  0.10566000000E+00  0.10566000000E+00 0.  1.
     999900   -1    0    0    0    0 -0.00000000000E+00 -0.00000000000E+00 -0.74505805969E-08  0.93827000000E+00  0.93827000000E+00 0. -1.
     999902    2    1    2    0    0 -0.45179275111E-02 -0.54953721048E-02  0.25372340678E-01  0.10175791660E+01  0.10172379233E+01 0.  0.
     999903    2    3    3    0    0  0.63342407581E-02 -0.10605198074E+00 -0.66942819487E-01  0.12698863721E+00  0.18911046333E-01 0.  0.
         14    1    1    2    0    0  0.45179275111E-02  0.54953721048E-02 -0.25372340678E-01  0.26350834048E-01  0.00000000000E+00 0. -1.
     999901    1    3    3    0    0 -0.10852168269E-01  0.10055660864E+00  0.92315160165E-01  0.89059052875E+00  0.88000000000E+00 0.  1.
        -11    1    4    4    0    0  0.69392262541E-02 -0.72743457877E-01 -0.55494381070E-01  0.91758656138E-01  0.51100000000E-03 0. -1.
         11    1    4    4    0    0 -0.60498549597E-03 -0.33308522864E-01 -0.11448438417E-01  0.35229981067E-01  0.51100000000E-03 0.  1.
</event>
<event>
 8    1  0.1207611E+005  0.1043930E+01  0.7957747E-01            NaN
         13   -1    0    0    0    0  0.00000000000E+00  0.00000000000E+00  0.74505805969E-08  0.10566000000E+00  0.10566000000E+00 0. -1.
     999900   -1    0    0    0    0 -0.00000000000E+00 -0.00000000000E+00 -0.74505805969E-08  0.93827000000E+00  0.93827000000E+00 0. -1.
     999902    2    1    2    0    0  0.33928489022E-02 -0.17661222764E-01  0.11289354383E-01  0.10226960711E+01  0.10224756105E+01 0.  0.
     999903    2    3    3    0    0  0.15451969121E-01  0.50513896164E-01  0.12071328822E+00  0.13322045790E+00  0.19636073817E-01 0.  0.
         14    1    1    2    0    0 -0.33928489022E-02  0.17661222764E-01 -0.11289354383E-01  0.21233928877E-01  0.00000000000E+00 0. -1.
     999901    1    3    3    0    0 -0.12059120219E-01 -0.68175118928E-01 -0.10942393384E+00  0.88947561322E+00  0.88000000000E+00 0. -1.
        -11    1    4    4    0    0  0.20183202881E-02  0.33458814319E-01  0.59853572920E-01  0.68602311803E-01  0.51100000000E-03 0. -1.
         11    1    4    4    0    0  0.13433648833E-01  0.17055081846E-01  0.60859715299E-01  0.64618146097E-01  0.51100000000E-03 0.  1.
</event>
<event>
 8    1  0.1321873E+005  0.1043930E+01  0.7957747E-01            NaN
         13   -1    0    0    0    0  0.00000000000E+00  0.00000000000E+00  0.74505805969E-08  0.10566000000E+00  0.10566000000E+00 0.  1.
     999900   -1    0    0    0    0 -0.00000000000E+00 -0.00000000000E+00 -0.74505805969E-08  0.93827000000E+00  0.93827000000E+00 0. -1.
     999902    2    1    2    0    0 -0.18951360502E-03 -0.18657119653E-01 -0.13063275325E-01  0.10211534069E+01  0.10208993620E+01 0.  0.
     999903    2    3    3    0    0 -0.48065081053E-01  0.44883154961E-01 -0.11258405022E+00  0.13197748448E+00  0.20448433397E-01 0.  0.
         14    1    1    2    0    0  0.18951360502E-03  0.18657119653E-01  0.13063275325E-01  0.22776593059E-01  0.00000000000E+00 0. -1.
     999901    1    3    3    0    0  0.47875567448E-01 -0.63540274614E-01  0.99520774896E-01  0.88917592247E+00  0.88000000000E+00 0.  1.
        -11    1    4    4    0    0 -0.31984502141E-01  0.24423915895E-01 -0.49921308631E-01  0.64124365270E-01  0.51100000000E-03 0. -1.
         11    1    4    4    0    0 -0.16080578911E-01  0.20459239066E-01 -0.62662741590E-01  0.67853119205E-01  0.51100000000E-03 0.  1.
</event>
<event>
 8    1  0.1207611E+005  0.1043930E+01  0.7957747E-01            NaN
         13   -1    0    0    0    0  0.00000000000E+00  0.00000000000E+00  0.74505805969E-08  0.10566000000E+00  0.10566000000E+00 0.  1.
     999900   -1    0    0    0    0 -0.00000000000E+00 -0.00000000000E+00 -0.74505805969E-08  0.93827000000E+00  0.93827000000E+00 0.  1.
     999902    2    1    2    0    0 -0.10534205078E-01  0.69556207062E-02 -0.20683990111E-01  0.10196982526E+01  0.10194102946E+01 0.  0.
     999903    2    3    3    0    0  0.96038601048E-03  0.10691985695E+00 -0.75161618665E-01  0.13229034966E+00  0.20461904623E-01 0.  0.
         14    1    1    2    0    0  0.10534205078E-01 -0.69556207062E-02  0.20683990111E-01  0.24231747419E-01  0.00000000000E+00 0.  1.
     999901    1    3    3    0    0 -0.11494591088E-01 -0.99964236248E-01  0.54477628554E-01  0.88740790292E+00  0.88000000000E+00 0. -1.
        -11    1    4    4    0    0  0.54169327016E-02  0.45807354745E-01 -0.43106698422E-01  0.63135611808E-01  0.51100000000E-03 0. -1.
         11    1    4    4    0    0 -0.44565466912E-02  0.61112502209E-01 -0.32054920243E-01  0.69154737853E-01  0.51100000000E-03 0.  1.
</event>
<event>
 8    1  0.1207611E+005  0.1043930E+01  0.7957747E-01            NaN
         13   -1    0    0    0    0  0.00000000000E+00  0.00000000000E+00  0.74505805969E-08  0.10566000000E+00  0.10566000000E+00 0.  1.
     999900   -1    0    0    0    0 -0.00000000000E+00 -0.00000000000E+00 -0.74505805969E-08  0.93827000000E+00  0.93827000000E+00 0. -1.
     999902    2    1    2    0    0  0.19764741368E-01  0.52942741206E-02 -0.93082057157E-02  0.10214507422E+01  0.10212033596E+01 0.  0.
     999903    2    3    3    0    0  0.44832672207E-01  0.60358370957E-01 -0.10875968349E+00  0.13378467186E+00  0.20410003196E-01 0.  0.
         14    1    1    2    0    0 -0.19764741368E-01 -0.52942741206E-02  0.93082057157E-02  0.22479257850E-01  0.00000000000E+00 0. -1.
     999901    1    3    3    0    0 -0.25067930839E-01 -0.55064096836E-01  0.99451477770E-01  0.88766607029E+00  0.88000000000E+00 0. -1.
        -11    1    4    4    0    0  0.35080611126E-01  0.57017755838E-01 -0.87704519023E-01  0.11033593039E+00  0.51100000000E-03 0.  1.
         11    1    4    4    0    0  0.97520610811E-02  0.33406151183E-02 -0.21055164463E-01  0.23448741465E-01  0.51100000000E-03 0. -1.
</event>
<event>
 8    1  0.1207611E+005  0.1043930E+01  0.7957747E-01            NaN
         13   -1    0    0    0    0  0.00000000000E+00  0.00000000000E+00  0.74505805969E-08  0.10566000000E+00  0.10566000000E+00 0. -1.
     999900   -1    0    0    0    0 -0.00000000000E+00 -0.00000000000E+00 -0.74505805969E-08  0.93827000000E+00  0.93827000000E+00 0.  1.
     999902    2    1    2    0    0  0.13481425430E-01  0.14460259863E-01 -0.11973087566E-01  0.10208171730E+01  0.10205554850E+01 0.  0.
     999903    2    3    3    0    0  0.15584203749E-01  0.67403865898E-01 -0.11259129392E+00  0.13350016619E+00  0.18956433208E-01 0.  0.
         14    1    1    2    0    0 -0.13481425430E-01 -0.14460259863E-01  0.11973087566E-01  0.23112827019E-01  0.00000000000E+00 0. -1.
     999901    1    3    3    0    0 -0.21027783192E-02 -0.52943606035E-01  0.10061820636E+00  0.88731700679E+00  0.88000000000E+00 0. -1.
        -11    1    4    4    0    0  0.19060248194E-01  0.43086775113E-01 -0.76233422374E-01  0.89618965954E-01  0.51100000000E-03 0. -1.
         11    1    4    4    0    0 -0.34760444447E-02  0.24317090784E-01 -0.36357871550E-01  0.43881200232E-01  0.51100000000E-03 0.  1.
</event>
<event>
 8    1  0.1207611E+005  0.1043930E+01  0.7957747E-01            NaN
         13   -1    0    0    0    0  0.00000000000E+00  0.00000000000E+00  0.74505805969E-08  0.10566000000E+00  0.10566000000E+00 0. -1.
     999900   -1    0    0    0    0 -0.00000000000E+00 -0.00000000000E+00 -0.74505805969E-08  0.93827000000E+00  0.93827000000E+00 0. -1.
     999902    2    1    2    0    0 -0.52395972699E-02 -0.23093493919E-01 -0.42406814024E-03  0.10202457716E+01  0.10199708289E+01 0.  0.
     999903    2    3    3    0    0  0.79615370769E-01 -0.10008682626E+00 -0.27791831694E-01  0.13239593446E+00  0.20007935945E-01 0.  0.
         14    1    1    2    0    0  0.52395972699E-02  0.23093493919E-01  0.42406814024E-03  0.23684228396E-01  0.00000000000E+00 0. -1.
     999901    1    3    3    0    0 -0.84854968039E-01  0.76993332339E-01  0.27367763554E-01  0.88784983714E+00  0.88000000000E+00 0.  1.
        -11    1    4    4    0    0  0.51538983969E-01 -0.61325489110E-01 -0.76718546514E-02  0.80474846741E-01  0.51100000000E-03 0. -1.
         11    1    4    4    0    0  0.28076386800E-01 -0.38761337148E-01 -0.20119977043E-01  0.51921087724E-01  0.51100000000E-03 0.  1.
</event>
<event>
 8    1  0.1207611E+005  0.1043930E+01  0.7957747E-01            NaN
         13   -1    0    0    0    0  0.00000000000E+00  0.00000000000E+00  0.74505805969E-08  0.10566000000E+00  0.10566000000E+00 0. -1.
     999900   -1    0    0    0    0 -0.00000000000E+00 -0.00000000000E+00 -0.74505805969E-08  0.93827000000E+00  0.93827000000E+00 0.  1.
     999902    2    1    2    0    0  0.12842280170E-01  0.75677630361E-02 -0.17477348220E-01  0.10209593035E+01  0.10207008604E+01 0.  0.
     999903    2    3    3    0    0 -0.92168721169E-01  0.18995226841E-01 -0.89795094316E-01  0.13169682608E+00  0.20615606497E-01 0.  0.
         14    1    1    2    0    0 -0.12842280170E-01 -0.75677630361E-02  0.17477348220E-01  0.22970696510E-01  0.00000000000E+00 0. -1.
     999901    1    3    3    0    0  0.10501100134E+00 -0.11427463805E-01  0.72317746096E-01  0.88926247741E+00  0.88000000000E+00 0. -1.
        -11    1    4    4    0    0 -0.55030635515E-01  0.12325915515E-01 -0.67138626243E-01  0.87682126418E-01  0.51100000000E-03 0. -1.
         11    1    4    4    0    0 -0.37138085654E-01  0.66693113263E-02 -0.22656468073E-01  0.44014699660E-01  0.51100000000E-03 0.  1.
</event>
<event>
 8    1  0.1207611E+005  0.1043930E+01  0.7957747E-01            NaN
         13   -1    0    0    0    0  0.00000000000E+00  0.00000000000E+00  0.74505805969E-08  0.10566000000E+00  0.10566000000E+00 0. -1.
     999900   -1    0    0    0    0 -0.00000000000E+00 -0.00000000000E+00 -0.74505805969E-08  0.93827000000E+00  0.93827000000E+00 0. -1.
     999902    2    1    2    0    0  0.18154243929E-01  0.12434607941E-01  0.64634642705E-02  0.10209959114E+01  0.10207383008E+01 0.  0.
     999903    2    3    3    0    0  0.10824573017E+00 -0.62877275655E-01 -0.37275249566E-01  0.13211941227E+00  0.19884792530E-01 0.  0.
         14    1    1    2    0    0 -0.18154243929E-01 -0.12434607941E-01 -0.64634642705E-02  0.22934088551E-01  0.00000000000E+00 0.  1.
     999901    1    3    3    0    0 -0.90091486243E-01  0.75311883597E-01  0.43738713836E-01  0.88887649918E+00  0.88000000000E+00 0.  1.
        -11    1    4    4    0    0  0.10491738458E+00 -0.57727805167E-01 -0.31845671973E-01  0.12391353849E+00  0.51100000000E-03 0.  1.
         11    1    4    4    0    0  0.33283455957E-02 -0.51494704885E-02 -0.54295775925E-02  0.82058737834E-02  0.51100000000E-03 0. -1.
</event>
<event>
 8    1  0.1207611E+005  0.1043930E+01  0.7957747E-01            NaN
         13   -1    0    0    0    0  0.00000000000E+00  0.00000000000E+00  0.74505805969E-08  0.10566000000E+00  0.10566000000E+00 0.  1.
     999900   -1    0    0    0    0 -0.00000000000E+00 -0.00000000000E+00 -0.74505805969E-08  0.93827000000E+00  0.93827000000E+00 0.  1.
     999902    2    1    2    0    0  0.23245197436E-01 -0.13620282531E-01  0.30901005757E-02  0.10168117401E+01  0.10164500552E+01 0.  0.
     999903    2    3    3    0    0  0.42590249122E-01  0.46091251781E-02 -0.11893954857E+00  0.12799354854E+00  0.20013967572E-01 0.  0.
         14    1    1    2    0    0 -0.23245197436E-01  0.13620282531E-01 -0.30901005757E-02  0.27118259930E-01  0.00000000000E+00 0. -1.
     999901    1    3    3    0    0 -0.19345051686E-01 -0.18229407709E-01  0.12202964914E+00  0.88881819153E+00  0.88000000000E+00 0. -1.
        -11    1    4    4    0    0  0.16643279917E-01  0.11390076097E-01 -0.44197018695E-01  0.48583641099E-01  0.51100000000E-03 0. -1.
         11    1    4    4    0    0  0.25946969206E-01 -0.67809509190E-02 -0.74742529874E-01  0.79409907438E-01  0.51100000000E-03 0.  1.
</event>
<event>
 8    1  0.1207611E+005  0.1043930E+01  0.7957747E-01            NaN
         13   -1    0    0    0    0  0.00000000000E+00  0.00000000000E+00  0.74505805969E-08  0.10566000000E+00  0.10566000000E+00 0. -1.
     999900   -1    0    0    0    0 -0.00000000000E+00 -0.00000000000E+00 -0.74505805969E-08  0.93827000000E+00  0.93827000000E+00 0. -1.
     999902    2    1    2    0    0 -0.20269189538E-01 -0.16842433548E-02 -0.10165728256E-01  0.10211919537E+01  0.10209387775E+01 0.  0.
     999903    2    3    3    0    0 -0.87573062124E-02  0.10157089635E+00 -0.81782493125E-01  0.13219076787E+00  0.19816294573E-01 0.  0.
         14    1    1    2    0    0  0.20269189538E-01  0.16842433548E-02  0.10165728256E-01  0.22738046336E-01  0.00000000000E+00 0. -1.
     999901    1    3    3    0    0 -0.11511883326E-01 -0.10325513971E+00  0.71616764869E-01  0.88900118579E+00  0.88000000000E+00 0. -1.
        -11    1    4    4    0    0 -0.64258872192E-03  0.87198112080E-01 -0.71204495780E-01  0.11258003824E+00  0.51100000000E-03 0.  1.
         11    1    4    4    0    0 -0.81147174905E-02  0.14372784271E-01 -0.10577997345E-01  0.19610729626E-01  0.51100000000E-03 0. -1.
</event>
<event>
 8    1  0.1207611E+005  0.1043930E+01  0.7957747E-01            NaN
         13   -1    0    0    0    0  0.00000000000E+00  0.00000000000E+00  0.74505805969E-08  0.10566000000E+00  0.10566000000E+00 0.  1.
     999900   -1    0    0    0    0 -0.00000000000E+00 -0.00000000000E+00 -0.74505805969E-08  0.93827000000E+00  0.93827000000E+00 0.  1.
     999902    2    1    2    0    0 -0.90453390360E-02 -0.14747889690E-01 -0.15084988874E-01  0.10209762356E+01  0.10207181778E+01 0.  0.
     999903    2    3    3    0    0 -0.43126395422E-02  0.37773762182E-01  0.12147143507E+00  0.12888398746E+00  0.20256275938E-01 0.  0.
         14    1    1    2    0    0  0.90453390360E-02  0.14747889690E-01  0.15084988874E-01  0.22953764352E-01  0.00000000000E+00 0.  1.
     999901    1    3    3    0    0 -0.47326994938E-02 -0.52521651872E-01 -0.13655642395E+00  0.89209224819E+00  0.88000000000E+00 0.  1.
        -11    1    4    4    0    0  0.44876519333E-02  0.27725505867E-01  0.64258140616E-01  0.70129968287E-01  0.51100000000E-03 0. -1.
         11    1    4    4    0    0 -0.88002914755E-02  0.10048256315E-01  0.57213294458E-01  0.58754019171E-01  0.51100000000E-03 0.  1.
</event>
<event>
 8    1  0.1207611E+005  0.1043930E+01  0.7957747E-01            NaN
         13   -1    0    0    0    0  0.00000000000E+00  0.00000000000E+00  0.74505805969E-08  0.10566000000E+00  0.10566000000E+00 0. -1.
     999900   -1    0    0    0    0 -0.00000000000E+00 -0.00000000000E+00 -0.74505805969E-08  0.93827000000E+00  0.93827000000E+00 0.  1.
     999902    2    1    2    0    0 -0.93462141854E-02  0.22104051640E-01 -0.61176566129E-02  0.10191637621E+01  0.10188628011E+01 0.  0.
     999903    2    3    3    0    0 -0.21147090507E-01  0.43402970299E-01 -0.12068796222E+00  0.13140294995E+00  0.19238860759E-01 0.  0.
         14    1    1    2    0    0  0.93462141854E-02 -0.22104051640E-01  0.61176566129E-02  0.24766237925E-01  0.00000000000E+00 0. -1.
     999901    1    3    3    0    0  0.11800876321E-01 -0.21298918658E-01  0.11457030561E+00  0.88776081212E+00  0.88000000000E+00 0. -1.
        -11    1    4    4    0    0 -0.17911560592E-01  0.14988592508E-01 -0.55468439537E-01  0.60187131630E-01  0.51100000000E-03 0. -1.
         11    1    4    4    0    0 -0.32355299153E-02  0.28414377791E-01 -0.65219522682E-01  0.71215818320E-01  0.51100000000E-03 0.  1.
</event>
<event>
 8    1  0.1207611E+005  0.1043930E+01  0.7957747E-01            NaN
         13   -1    0    0    0    0  0.00000000000E+00  0.00000000000E+00  0.74505805969E-08  0.10566000000E+00  0.10566000000E+00 0.  1.
     999900   -1    0    0    0    0 -0.00000000000E+00 -0.00000000000E+00 -0.74505805969E-08  0.93827000000E+00  0.93827000000E+00 0.  1.
     999902    2    1    2    0    0  0.15017358194E-01 -0.18325268282E-01 -0.38763868892E-02  0.10199224412E+01  0.10196398497E+01 0.  0.
     999903    2    3    3    0    0  0.83396674330E-01  0.46110346551E-02 -0.10005123768E+00  0.13174936865E+00  0.19271197348E-01 0.  0.
         14    1    1    2    0    0 -0.15017358194E-01  0.18325268282E-01  0.38763868892E-02  0.24007558811E-01  0.00000000000E+00 0. -1.
     999901    1    3    3    0    0 -0.68379316136E-01 -0.22936302937E-01  0.96174850791E-01  0.88817307254E+00  0.88000000000E+00 0. -1.
        -11    1    4    4    0    0  0.41849688605E-01  0.13118636291E-02 -0.35426212610E-01  0.54848838487E-01  0.51100000000E-03 0.  1.
         11    1    4    4    0    0  0.41546985725E-01  0.32991710260E-02 -0.64625025070E-01  0.76900530158E-01  0.51100000000E-03 0. -1.
</event>
<event>
 7    1  0.1207611E+005  0.1043930E+01  0.7957747E-01            NaN
         13   -1    0    0    0    0  0.00000000000E+00  0.00000000000E+00  0.74505805969E-08  0.10566000000E+00  0.10566000000E+00 0.  1.
     999900   -1    0    0    0    0 -0.00000000000E+00 -0.00000000000E+00 -0.74505805969E-08  0.93827000000E+00  0.93827000000E+00 0.  1.
     999903    2    1    2    0    0  0.38157361544E-01 -0.86432224882E-01  0.61937846541E-01  0.11479546874E+00  0.20376188846E-01 0.  0.
         14    1    1    2    0    0 -0.31097783288E-01  0.95675358754E-02 -0.31416940396E-01  0.45228685720E-01  0.00000000000E+00 0. -1.
     999901    1    1    2    0    0 -0.70595782557E-02  0.76864689007E-01 -0.30520906145E-01  0.88390584554E+00  0.88000000000E+00 0. -1.
        -11    1    3    3    0    0  0.28791347410E-01 -0.44064151718E-01  0.40371284660E-01  0.66337718520E-01  0.51100000000E-03 0. -1.
         11    1    3    3    0    0  0.93660141339E-02 -0.42368073164E-01  0.21566561880E-01  0.48457750224E-01  0.51100000000E-03 0.  1.
</event>
<event>
 8    1  0.1207611E+005  0.1043930E+01  0.7957747E-01            NaN
         13   -1    0    0    0    0  0.00000000000E+00  0.00000000000E+00  0.74505805969E-08  0.10566000000E+00  0.10566000000E+00 0. -1.
     999900   -1    0    0    0    0 -0.00000000000E+00 -0.00000000000E+00 -0.74505805969E-08  0.93827000000E+00  0.93827000000E+00 0.  1.
     999902    2    1    2    0    0  0.17027890748E-01 -0.16896965923E-03  0.17709803634E-01  0.10193614274E+01  0.10190653095E+01 0.  0.
     999903    2    3    3    0    0 -0.77763022218E-01  0.10024221831E+00 -0.65125535266E-02  0.12826410028E+00  0.17710903673E-01 0.  0.
         14    1    1    2    0    0 -0.17027890748E-01  0.16896965923E-03 -0.17709803634E-01  0.24568572584E-01  0.00000000000E+00 0.  1.
     999901    1    3    3    0    0  0.94790912966E-01 -0.10041118797E+00  0.24222357161E-01  0.89109732714E+00  0.88000000000E+00 0. -1.
        -11    1    4    4    0    0 -0.22818682767E-01  0.27053639144E-01 -0.96631004924E-02  0.36690983992E-01  0.51100000000E-03 0. -1.
         11    1    4    4    0    0 -0.54944339451E-01  0.73188579170E-01  0.31505469657E-02  0.91573116283E-01  0.51100000000E-03 0.  1.
</event>
<event>
 8    1  0.1207611E+005  0.1043930E+01  0.7957747E-01            NaN
         13   -1    0    0    0    0  0.00000000000E+00  0.00000000000E+00  0.74505805969E-08  0.10566000000E+00  0.10566000000E+00 0.  1.
     999900   -1    0    0    0    0 -0.00000000000E+00 -0.00000000000E+00 -0.74505805969E-08  0.93827000000E+00  0.93827000000E+00 0. -1.
     999902    2    1    2    0    0 -0.18123210189E-01 -0.95846664723E-02 -0.11284772544E-01  0.10205278063E+01  0.10202594478E+01 0.  0.
     999903    2    3    3    0    0 -0.45424976201E-01 -0.10578566437E+00 -0.63876742759E-01  0.13330408380E+00  0.20873553692E-01 0.  0.
         14    1    1    2    0    0  0.18123210189E-01  0.95846664723E-02  0.11284772544E-01  0.23402193707E-01  0.00000000000E+00 0. -1.
     999901    1    3    3    0    0  0.27301766012E-01  0.96200997895E-01  0.52591970215E-01  0.88722372249E+00  0.88000000000E+00 0. -1.
        -11    1    4    4    0    0 -0.16816658870E-01 -0.43990452920E-01 -0.14814865572E-01  0.49373083016E-01  0.51100000000E-03 0.  1.
         11    1    4    4    0    0 -0.28608317331E-01 -0.61795211448E-01 -0.49061877187E-01  0.83931000783E-01  0.51100000000E-03 0. -1.
</event>
<event>
 8    1  0.1207611E+005  0.1043930E+01  0.7957747E-01            NaN
         13   -1    0    0    0    0  0.00000000000E+00  0.00000000000E+00  0.74505805969E-08  0.10566000000E+00  0.10566000000E+00 0.  1.
     999900   -1    0    0    0    0 -0.00000000000E+00 -0.00000000000E+00 -0.74505805969E-08  0.93827000000E+00  0.93827000000E+00 0.  1.
     999902    2    1    2    0    0 -0.16529295839E-01  0.23124414045E-03 -0.19193304229E-01  0.10185991093E+01  0.10182840918E+01 0.  0.
     999903    2    3    3    0    0  0.68739937298E-01 -0.10151996400E+00 -0.33179454857E-01  0.12853182936E+00  0.19699565045E-01 0.  0.
         14    1    1    2    0    0  0.16529295839E-01 -0.23124414045E-03  0.19193304229E-01  0.25330890667E-01  0.00000000000E+00 0.  1.
     999901    1    3    3    0    0 -0.85269233137E-01  0.10175120814E+00  0.13986150629E-01  0.89006727998E+00  0.88000000000E+00 0.  1.
        -11    1    4    4    0    0  0.10613376346E-01 -0.18477896910E-01  0.15765711725E-02  0.21373421096E-01  0.51100000000E-03 0.  1.
         11    1    4    4    0    0  0.58126560953E-01 -0.83042067087E-01 -0.34756026030E-01  0.10715840826E+00  0.51100000000E-03 0. -1.
</event>
<event>
 8    1  0.1584439E+005  0.1043930E+01  0.7957747E-01            NaN
         13   -1    0    0    0    0  0.00000000000E+00  0.00000000000E+00  0.74505805969E-08  0.10566000000E+00  0.10566000000E+00 0. -1.
     999900   -1    0    0    0    0 -0.00000000000E+00 -0.00000000000E+00 -0.74505805969E-08  0.93827000000E+00  0.93827000000E+00 0.  1.
     999902    2    1    2    0    0  0.13249554870E-01 -0.15278795192E-01  0.18855157058E-01  0.10162802399E+01  0.10159040391E+01 0.  0.
     999903    2    3    3    0    0  0.97870846185E-01  0.28590091700E-01  0.76841745208E-01  0.12923588553E+00  0.20029089509E-01 0.  0.
         14    1    1    2    0    0 -0.13249554870E-01  0.15278795192E-01 -0.18855157058E-01  0.27649760116E-01  0.00000000000E+00 0.  1.
     999901    1    3    3    0    0 -0.84621291315E-01 -0.43868886892E-01 -0.57986588150E-01  0.88704435435E+00  0.88000000000E+00 0. -1.
        -11    1    4    4    0    0  0.51430681559E-01  0.15285839592E-01  0.52779199759E-01  0.75264048163E-01  0.51100000000E-03 0.  1.
         11    1    4    4    0    0  0.46440164626E-01  0.13304252107E-01  0.24062545449E-01  0.53971837370E-01  0.51100000000E-03 0. -1.
</event>
<event>
 8    1  0.1207611E+005  0.1043930E+01  0.7957747E-01            NaN
         13   -1    0    0    0    0  0.00000000000E+00  0.00000000000E+00  0.74505805969E-08  0.10566000000E+00  0.10566000000E+00 0. -1.
     999900   -1    0    0    0    0 -0.00000000000E+00 -0.00000000000E+00 -0.74505805969E-08  0.93827000000E+00  0.93827000000E+00 0. -1.
     999902    2    1    2    0    0  0.10348831865E-01 -0.17828030295E-01 -0.10910607226E-01  0.10206066569E+01  0.10203401245E+01 0.  0.
     999903    2    3    3    0    0 -0.84212703710E-01  0.92434678331E-01 -0.22771604118E-01  0.12861986763E+00  0.19712310101E-01 0.  0.
         14    1    1    2    0    0 -0.10348831865E-01  0.17828030295E-01  0.10910607226E-01  0.23323343139E-01  0.00000000000E+00 0. -1.
     999901    1    3    3    0    0  0.94561535574E-01 -0.11026270863E+00  0.11860996892E-01  0.89198678924E+00  0.88000000000E+00 0. -1.
        -11    1    4    4    0    0 -0.45382164825E-01  0.61955189287E-01 -0.18962637787E-01  0.79106441688E-01  0.51100000000E-03 0. -1.
         11    1    4    4    0    0 -0.38830538885E-01  0.30479489045E-01 -0.38089663313E-02  0.49513425937E-01  0.51100000000E-03 0.  1.
</event>
<event>
 8    1  0.1207611E+005  0.1043930E+01  0.7957747E-01            NaN
         13   -1    0    0    0    0  0.00000000000E+00  0.00000000000E+00  0.74505805969E-08  0.10566000000E+00  0.10566000000E+00 0. -1.
     999900   -1    0    0    0    0 -0.00000000000E+00 -0.00000000000E+00 -0.74505805969E-08  0.93827000000E+00  0.93827000000E+00 0.  1.
     999902    2    1    2    0    0 -0.35510607524E-02 -0.37097801910E-02  0.23188159012E-01  0.10201799848E+01  0.10199034946E+01 0.  0.
     999903    2    3    3    0    0 -0.10845563036E+00 -0.25145860362E-01  0.69531652356E-01  0.13247947587E+00  0.17922689445E-01 0.  0.
         14    1    1    2    0    0  0.35510607524E-02  0.37097801910E-02 -0.23188159012E-01  0.23750015155E-01  0.00000000000E+00 0.  1.
     999901    1    3    3    0    0  0.10490456961E+00  0.21436080171E-01 -0.46343493345E-01  0.88770050897E+00  0.88000000000E+00 0.  1.
        -11    1    4    4    0    0 -0.92349726754E-01 -0.15087904675E-01  0.54798024545E-01  0.10843985206E+00  0.51100000000E-03 0. -1.
         11    1    4    4    0    0 -0.16105903608E-01 -0.10057955687E-01  0.14733627811E-01  0.24039623814E-01  0.51100000000E-03 0.  1.
</event>
<event>
 8    1  0.1207611E+005  0.1043930E+01  0.7957747E-01            NaN
         13   -1    0    0    0    0  0.00000000000E+00  0.00000000000E+00  0.74505805969E-08  0.10566000000E+00  0.10566000000E+00 0. -1.
     999900   -1    0    0    0    0 -0.00000000000E+00 -0.00000000000E+00 -0.74505805969E-08  0.93827000000E+00  0.93827000000E+00 0. -1.
     999902    2    1    2    0    0  0.17720553874E-01 -0.13705728543E-01 -0.83404590127E-02  0.10200254339E+01  0.10197452905E+01 0.  0.
     999903    2    3    3    0    0  0.27538528891E-02  0.69716645205E-01 -0.10850329685E+00  0.13029744812E+00  0.18342988664E-01 0.  0.
         14    1    1    2    0    0 -0.17720553874E-01  0.13705728543E-01  0.83404590127E-02  0.23904566113E-01  0.00000000000E+00 0. -1.
     999901    1    3    3    0    0  0.14966700985E-01 -0.83422373747E-01  0.10016283784E+00  0.88972798577E+00  0.88000000000E+00 0. -1.
        -11    1    4    4    0    0  0.17445796637E-02  0.55162274453E-01 -0.97421951570E-01  0.11196971845E+00  0.51100000000E-03 0.  1.
         11    1    4    4    0    0  0.10092732254E-02  0.14554370752E-01 -0.11081345283E-01  0.18327729666E-01  0.51100000000E-03 0. -1.
</event>
<event>
 8    1  0.1207611E+005  0.1043930E+01  0.7957747E-01            NaN
         13   -1    0    0    0    0  0.00000000000E+00  0.00000000000E+00  0.74505805969E-08  0.10566000000E+00  0.10566000000E+00 0.  1.
     999900   -1    0    0    0    0 -0.00000000000E+00 -0.00000000000E+00 -0.74505805969E-08  0.93827000000E+00  0.93827000000E+00 0. -1.
     999902    2    1    2    0    0 -0.28445638858E-02 -0.94848672108E-02 -0.21098458473E-01  0.10206233658E+01  0.10203572196E+01 0.  0.
     999903    2    3    3    0    0 -0.69412095605E-01 -0.80001021910E-01 -0.78765982704E-01  0.13342028433E+00  0.19459951580E-01 0.  0.
         14    1    1    2    0    0  0.28445638858E-02  0.94848672108E-02  0.21098458473E-01  0.23306634241E-01  0.00000000000E+00 0.  1.
     999901    1    3    3    0    0  0.66567531719E-01  0.70516154699E-01  0.57667524231E-01  0.88720308143E+00  0.88000000000E+00 0.  1.
        -11    1    4    4    0    0 -0.39752768172E-01 -0.31813442631E-01 -0.41215465912E-01  0.65508422822E-01  0.51100000000E-03 0.  1.
         11    1    4    4    0    0 -0.29659327433E-01 -0.48187579279E-01 -0.37550516792E-01  0.67911861504E-01  0.51100000000E-03 0. -1.
</event>
<event>
 8    1  0.1207611E+005  0.1043930E+01  0.7957747E-01            NaN
         13   -1    0    0    0    0  0.00000000000E+00  0.00000000000E+00  0.74505805969E-08  0.10566000000E+00  0.10566000000E+00 0.  1.
     999900   -1    0    0    0    0 -0.00000000000E+00 -0.00000000000E+00 -0.74505805969E-08  0.93827000000E+00  0.93827000000E+00 0.  1.
     999902    2    1    2    0    0  0.27428245041E-02 -0.66272430851E-02  0.22021480960E-01  0.10207699253E+01  0.10205071540E+01 0.  0.
     999903    2    3    3    0    0  0.95706558470E-01  0.37565925889E-01  0.81564403532E-01  0.13277181062E+00  0.20116104249E-01 0.  0.
         14    1    1    2    0    0 -0.27428245041E-02  0.66272430851E-02 -0.22021480960E-01  0.23160074716E-01  0.00000000000E+00 0. -1.
     999901    1    3    3    0    0 -0.92963733965E-01 -0.44193168974E-01 -0.59542922571E-01  0.88799811466E+00  0.88000000000E+00 0.  1.
        -11    1    4    4    0    0  0.76478183365E-01  0.26481459588E-01  0.53633124920E-01  0.97092499414E-01  0.51100000000E-03 0. -1.
         11    1    4    4    0    0  0.19228375104E-01  0.11084466301E-01  0.27931278612E-01  0.35679311207E-01  0.51100000000E-03 0.  1.
</event>
<event>
 8    1  0.1207611E+005  0.1043930E+01  0.7957747E-01            NaN
         13   -1    0    0    0    0  0.00000000000E+00  0.00000000000E+00  0.74505805969E-08  0.10566000000E+00  0.10566000000E+00 0.  1.
     999900   -1    0    0    0    0 -0.00000000000E+00 -0.00000000000E+00 -0.74505805969E-08  0.93827000000E+00  0.93827000000E+00 0. -1.
     999902    2    1    2    0    0  0.17350644113E-01 -0.13473785428E-01 -0.10691121225E-01  0.10194987123E+01  0.10192059343E+01 0.  0.
     999903    2    3    3    0    0  0.51975749253E-02  0.12591711008E+00 -0.14808429050E-01  0.12843503835E+00  0.19852861498E-01 0.  0.
         14    1    1    2    0    0 -0.17350644113E-01  0.13473785428E-01  0.10691121225E-01  0.24431287685E-01  0.00000000000E+00 0. -1.
     999901    1    3    3    0    0  0.12153069187E-01 -0.13939089550E+00  0.41173078255E-02  0.89106367397E+00  0.88000000000E+00 0.  1.
        -11    1    4    4    0    0  0.10655033242E-01  0.56039754494E-01 -0.11953484854E-01  0.58284910039E-01  0.51100000000E-03 0.  1.
         11    1    4    4    0    0 -0.54574583170E-02  0.69877355582E-01 -0.28549441959E-02  0.70150128309E-01  0.51100000000E-03 0. -1.
</event>
<event>
 8    1  0.1207611E+005  0.1043930E+01  0.7957747E-01            NaN
         13   -1    0    0    0    0  0.00000000000E+00  0.00000000000E+00  0.74505805969E-08  0.10566000000E+00  0.10566000000E+00 0.  1.
     999900   -1    0    0    0    0 -0.00000000000E+00 -0.00000000000E+00 -0.74505805969E-08  0.93827000000E+00  0.93827000000E+00 0. -1.
     999902    2    1    2    0    0  0.63902915961E-03  0.20451901208E-01 -0.11248135175E-01  0.10205802855E+01  0.10203131431E+01 0.  0.
     999903    2    3    3    0    0  0.47278899099E-01  0.11745470668E+00 -0.37782975059E-01  0.13362542790E+00  0.19932369503E-01 0.  0.
         14    1    1    2    0    0 -0.63902915961E-03 -0.20451901208E-01  0.11248135175E-01  0.23349714478E-01  0.00000000000E+00 0. -1.
     999901    1    3    3    0    0 -0.46639869939E-01 -0.97002805476E-01  0.26534839884E-01  0.88695485763E+00  0.88000000000E+00 0.  1.
        -11    1    4    4    0    0  0.10431765931E-01  0.52078581102E-01 -0.14825629433E-01  0.55145813613E-01  0.51100000000E-03 0.  1.
         11    1    4    4    0    0  0.36847133168E-01  0.65376125582E-01 -0.22957345626E-01  0.78479614283E-01  0.51100000000E-03 0. -1.
</event>
<event>
 8    1  0.1207611E+005  0.1043930E+01  0.7957747E-01            NaN
         13   -1    0    0    0    0  0.00000000000E+00  0.00000000000E+00  0.74505805969E-08  0.10566000000E+00  0.10566000000E+00 0.  1.
     999900   -1    0    0    0    0 -0.00000000000E+00 -0.00000000000E+00 -0.74505805969E-08  0.93827000000E+00  0.93827000000E+00 0.  1.
     999902    2    1    2    0    0 -0.13978901578E-01  0.48607883981E-02  0.82098621700E-02  0.10270054973E+01  0.10268660345E+01 0.  0.
     999903    2    3    3    0    0 -0.65940138247E-01  0.27134135187E-01  0.11690336133E+00  0.13851782222E+00  0.20890860615E-01 0.  0.
         14    1    1    2    0    0  0.13978901578E-01 -0.48607883981E-02 -0.82098621700E-02  0.16924502652E-01  0.00000000000E+00 0. -1.
     999901    1    3    3    0    0  0.51961236670E-01 -0.22273346789E-01 -0.10869349916E+00  0.88848767513E+00  0.88000000000E+00 0.  1.
        -11    1    4    4    0    0 -0.84346691645E-02  0.30352156442E-03  0.28281573653E-01  0.29518541606E-01  0.51100000000E-03 0. -1.
         11    1    4    4    0    0 -0.57505469083E-01  0.26830613623E-01  0.88621787679E-01  0.10899928061E+00  0.51100000000E-03 0.  1.
</event>
<event>
 8    1  0.1207611E+005  0.1043930E+01  0.7957747E-01            NaN
         13   -1    0    0    0    0  0.00000000000E+00  0.00000000000E+00  0.74505805969E-08  0.10566000000E+00  0.10566000000E+00 0. -1.
     999900   -1    0    0    0    0 -0.00000000000E+00 -0.00000000000E+00 -0.74505805969E-08  0.93827000000E+00  0.93827000000E+00 0.  1.
     999902    2    1    2    0    0 -0.76747995721E-02 -0.13418943416E-01 -0.17938857357E-01  0.10202493498E+01  0.10199744911E+01 0.  0.
     999903    2    3    3    0    0 -0.40455111851E-02  0.33403893036E-01 -0.12645442980E+00  0.13234103290E+00  0.19779786231E-01 0.  0.
         14    1    1    2    0    0  0.76747995721E-02  0.13418943416E-01  0.17938857357E-01  0.23680650205E-01  0.00000000000E+00 0. -1.
     999901    1    3    3    0    0 -0.36292883870E-02 -0.46822836452E-01  0.10851557244E+00  0.88790831689E+00  0.88000000000E+00 0. -1.
        -11    1    4    4    0    0 -0.50947080188E-02  0.40330213830E-02 -0.50132715729E-01  0.50554639932E-01  0.51100000000E-03 0.  1.
         11    1    4    4    0    0  0.10491968337E-02  0.29370871653E-01 -0.76321714068E-01  0.81786392969E-01  0.51100000000E-03 0. -1.
</event>
<event>
 8    1  0.1207611E+005  0.1043930E+01  0.7957747E-01            NaN
         13   -1    0    0    0    0  0.00000000000E+00  0.00000000000E+00  0.74505805969E-08  0.10566000000E+00  0.10566000000E+00 0.  1.
     999900   -1    0    0    0    0 -0.00000000000E+00 -0.00000000000E+00 -0.74505805969E-08  0.93827000000E+00  0.93827000000E+00 0.  1.
     999902    2    1    2    0    0 -0.19812814317E-01 -0.16084961440E-01 -0.77864979470E-02  0.10172484868E+01  0.10168985106E+01 0.  0.
     999903    2    3    3    0    0  0.64321289979E-01 -0.15092243294E-01 -0.10728618673E+00  0.12765322993E+00  0.20494318680E-01 0.  0.
         14    1    1    2    0    0  0.19812814317E-01  0.16084961440E-01  0.77864979470E-02  0.26681513188E-01  0.00000000000E+00 0.  1.
     999901    1    3    3    0    0 -0.84134104296E-01 -0.99271814605E-03  0.99499688778E-01  0.88959525688E+00  0.88000000000E+00 0. -1.
        -11    1    4    4    0    0  0.21324514525E-01 -0.15153250779E-01 -0.41577507863E-01  0.49125413078E-01  0.51100000000E-03 0.  1.
         11    1    4    4    0    0  0.42996775454E-01  0.61007485490E-04 -0.65708678862E-01  0.78527816856E-01  0.51100000000E-03 0. -1.
</event>
<event>
 8    1  0.1207611E+005  0.1043930E+01  0.7957747E-01            NaN
         13   -1    0    0    0    0  0.00000000000E+00  0.00000000000E+00  0.74505805969E-08  0.10566000000E+00  0.10566000000E+00 0.  1.
     999900   -1    0    0    0    0 -0.00000000000E+00 -0.00000000000E+00 -0.74505805969E-08  0.93827000000E+00  0.93827000000E+00 0. -1.
     999902    2    1    2    0    0 -0.10355003543E-01  0.22429065734E-03 -0.22050876038E-01  0.10195677846E+01  0.10192766797E+01 0.  0.
     999903    2    3    3    0    0  0.96866451624E-01 -0.80348242104E-01  0.17023019522E-01  0.12854862500E+00  0.19900159178E-01 0.  0.
         14    1    1    2    0    0  0.10355003543E-01 -0.22429065734E-03  0.22050876038E-01  0.24362215390E-01  0.00000000000E+00 0.  1.
     999901    1    3    3    0    0 -0.10722145517E+00  0.80572532762E-01 -0.39073895560E-01  0.89101915961E+00  0.88000000000E+00 0.  1.
        -11    1    4    4    0    0  0.42728265232E-01 -0.22973462603E-01  0.74295614402E-02  0.49080995689E-01  0.51100000000E-03 0.  1.
         11    1    4    4    0    0  0.54138186393E-01 -0.57374779501E-01  0.95934580821E-02  0.79467629307E-01  0.51100000000E-03 0. -1.
</event>
<event>
 8    1  0.1207611E+005  0.1043930E+01  0.7957747E-01            NaN
         13   -1    0    0    0    0  0.00000000000E+00  0.00000000000E+00  0.74505805969E-08  0.10566000000E+00  0.10566000000E+00 0.  1.
     999900   -1    0    0    0    0 -0.00000000000E+00 -0.00000000000E+00 -0.74505805969E-08  0.93827000000E+00  0.93827000000E+00 0.  1.
     999902    2    1    2    0    0  0.66807074921E-02  0.21058581152E-01 -0.71775375984E-02  0.10207004340E+01  0.10204360652E+01 0.  0.
     999903    2    3    3    0    0 -0.19533775641E-01  0.10605622001E+00  0.74323360091E-01  0.13246949886E+00  0.19867462827E-01 0.  0.
         14    1    1    2    0    0 -0.66807074921E-02 -0.21058581152E-01  0.71775375984E-02  0.23229566047E-01  0.00000000000E+00 0.  1.
     999901    1    3    3    0    0  0.26214483133E-01 -0.84997638855E-01 -0.81500897690E-01  0.88823093510E+00  0.88000000000E+00 0.  1.
        -11    1    4    4    0    0 -0.13718684340E-01  0.54993619310E-01  0.27742246338E-01  0.63106210611E-01  0.51100000000E-03 0. -1.
         11    1    4    4    0    0 -0.58150913015E-02  0.51062600698E-01  0.46581113753E-01  0.69363288246E-01  0.51100000000E-03 0.  1.
</event>
<event>
 8    1  0.1207611E+005  0.1043930E+01  0.7957747E-01            NaN
         13   -1    0    0    0    0  0.00000000000E+00  0.00000000000E+00  0.74505805969E-08  0.10566000000E+00  0.10566000000E+00 0.  1.
     999900   -1    0    0    0    0 -0.00000000000E+00 -0.00000000000E+00 -0.74505805969E-08  0.93827000000E+00  0.93827000000E+00 0. -1.
     999902    2    1    2    0    0  0.46786643701E-02  0.20350028116E-02  0.24321261233E-01  0.10190793484E+01  0.10187763069E+01 0.  0.
     999903    2    3    3    0    0 -0.85167113554E-01 -0.93773744103E-01 -0.97404055795E-02  0.12867956351E+00  0.20410836583E-01 0.  0.
         14    1    1    2    0    0 -0.46786643701E-02 -0.20350028116E-02 -0.24321261233E-01  0.24850651595E-01  0.00000000000E+00 0. -1.
     999901    1    3    3    0    0  0.89845777924E-01  0.95808746915E-01  0.34061666812E-01  0.89039978490E+00  0.88000000000E+00 0.  1.
        -11    1    4    4    0    0 -0.38310440667E-01 -0.35124754880E-01 -0.12858608964E-01  0.53544777663E-01  0.51100000000E-03 0. -1.
         11    1    4    4    0    0 -0.46856672886E-01 -0.58648989223E-01  0.31182033848E-02  0.75134785846E-01  0.51100000000E-03 0.  1.
</event>
<event>
 8    1  0.1207611E+005  0.1043930E+01  0.7957747E-01            NaN
         13   -1    0    0    0    0  0.00000000000E+00  0.00000000000E+00  0.74505805969E-08  0.10566000000E+00  0.10566000000E+00 0. -1.
     999900   -1    0    0    0    0 -0.00000000000E+00 -0.00000000000E+00 -0.74505805969E-08  0.93827000000E+00  0.93827000000E+00 0. -1.
     999902    2    1    2    0    0 -0.37930454065E-02 -0.18126526136E-01 -0.15005637778E-01  0.10200945787E+01  0.10198160727E+01 0.  0.
     999903    2    3    3    0    0  0.23730582059E-01  0.45501724753E-01 -0.11915615232E+00  0.13124507847E+00  0.19837704200E-01 0.  0.
         14    1    1    2    0    0  0.37930454065E-02  0.18126526136E-01  0.15005637778E-01  0.23835421295E-01  0.00000000000E+00 0. -1.
     999901    1    3    3    0    0 -0.27523627465E-01 -0.63628250889E-01  0.10415051454E+00  0.88884950023E+00  0.88000000000E+00 0.  1.
        -11    1    4    4    0    0 -0.12563986293E-03 -0.18092582881E-02 -0.61627618154E-02  0.64443739123E-02  0.51100000000E-03 0. -1.
         11    1    4    4    0    0  0.23856221922E-01  0.47310983041E-01 -0.11299339050E+00  0.12480070456E+00  0.51100000000E-03 0.  1.
</event>
<event>
 8    1  0.1207611E+005  0.1043930E+01  0.7957747E-01            NaN
         13   -1    0    0    0    0  0.00000000000E+00  0.00000000000E+00  0.74505805969E-08  0.10566000000E+00  0.10566000000E+00 0.  1.
     999900   -1    0    0    0    0 -0.00000000000E+00 -0.00000000000E+00 -0.74505805969E-08  0.93827000000E+00  0.93827000000E+00 0. -1.
     999902    2    1    2    0    0 -0.10320218139E-01  0.18355916273E-01 -0.88648188429E-02  0.10210819896E+01  0.10208263310E+01 0.  0.
     999903    2    3    3    0    0 -0.83957737671E-01  0.45371557470E-01 -0.91645598581E-01  0.13372355774E+00  0.19380253188E-01 0.  0.
         14    1    1    2    0    0  0.10320218139E-01 -0.18355916273E-01  0.88648188429E-02  0.22848010368E-01  0.00000000000E+00 0.  1.
     999901    1    3    3    0    0  0.73637519532E-01 -0.27015641197E-01  0.82780779739E-01  0.88735843189E+00  0.88000000000E+00 0.  1.
        -11    1    4    4    0    0 -0.13513443965E-01  0.10487367213E-01 -0.78528809707E-02  0.18828884709E-01  0.51100000000E-03 0. -1.
         11    1    4    4    0    0 -0.70444293706E-01  0.34884190257E-01 -0.83792717611E-01  0.11489467303E+00  0.51100000000E-03 0.  1.
</event>
<event>
 8    1  0.1207611E+005  0.1043930E+01  0.7957747E-01            NaN
         13   -1    0    0    0    0  0.00000000000E+00  0.00000000000E+00  0.74505805969E-08  0.10566000000E+00  0.10566000000E+00 0.  1.
     999900   -1    0    0    0    0 -0.00000000000E+00 -0.00000000000E+00 -0.74505805969E-08  0.93827000000E+00  0.93827000000E+00 0. -1.
     999902    2    1    2    0    0 -0.48688293368E-04 -0.45819774492E-02  0.24844795621E-01  0.10186661769E+01  0.10183528461E+01 0.  0.
     999903    2    3    3    0    0 -0.72138237986E-02 -0.10607140878E+00  0.73844548472E-01  0.13145007041E+00  0.22867458482E-01 0.  0.
         14    1    1    2    0    0  0.48688293368E-04  0.45819774492E-02 -0.24844795621E-01  0.25263823094E-01  0.00000000000E+00 0. -1.
     999901    1    3    3    0    0  0.71651355052E-02  0.10148943133E+00 -0.48999752851E-01  0.88721610649E+00  0.88000000000E+00 0. -1.
        -11    1    4    4    0    0 -0.11734949135E-02 -0.61628130536E-01  0.29357720143E-01  0.68275474488E-01  0.51100000000E-03 0.  1.
         11    1    4    4    0    0 -0.60403288852E-02 -0.44443278248E-01  0.44486828329E-01  0.63174595925E-01  0.51100000000E-03 0. -1.
</event>
<event>
 8    1  0.1207611E+005  0.1043930E+01  0.7957747E-01            NaN
         13   -1    0    0    0    0  0.00000000000E+00  0.00000000000E+00  0.74505805969E-08  0.10566000000E+00  0.10566000000E+00 0.  1.
     999900   -1    0    0    0    0 -0.00000000000E+00 -0.00000000000E+00 -0.74505805969E-08  0.93827000000E+00  0.93827000000E+00 0.  1.
     999902    2    1    2    0    0 -0.63485165762E-02 -0.25516746434E-02 -0.23502505371E-01  0.10194517961E+01  0.10191578789E+01 0.  0.
     999903    2    3    3    0    0  0.12393696173E+00 -0.13752147441E-01 -0.31229524979E-01  0.12975552026E+00  0.17655587425E-01 0.  0.
         14    1    1    2    0    0  0.63485165762E-02  0.25516746434E-02  0.23502505371E-01  0.24478203875E-01  0.00000000000E+00 0.  1.
     999901    1    3    3    0    0 -0.13028547830E+00  0.11200472797E-01  0.77270196080E-02  0.88969627586E+00  0.88000000000E+00 0. -1.
        -11    1    4    4    0    0  0.67852058367E-01 -0.11823683492E-01 -0.92945331553E-02  0.69500725057E-01  0.51100000000E-03 0. -1.
         11    1    4    4    0    0  0.56084903361E-01 -0.19284639488E-02 -0.21934991824E-01  0.60254795208E-01  0.51100000000E-03 0.  1.
</event>
<event>
 8    1  0.1207611E+005  0.1043930E+01  0.7957747E-01            NaN
         13   -1    0    0    0    0  0.00000000000E+00  0.00000000000E+00  0.74505805969E-08  0.10566000000E+00  0.10566000000E+00 0. -1.
     999900   -1    0    0    0    0 -0.00000000000E+00 -0.00000000000E+00 -0.74505805969E-08  0.93827000000E+00  0.93827000000E+00 0.  1.
     999902    2    1    2    0    0  0.17717966178E-02 -0.62180603757E-02 -0.22305079341E-01  0.10207067336E+01  0.10204425098E+01 0.  0.
     999903    2    3    3    0    0  0.10099815032E+00  0.80034484874E-01  0.67938512690E-02  0.13046400344E+00  0.19197777021E-01 0.  0.
         14    1    1    2    0    0 -0.17717966178E-02  0.62180603757E-02  0.22305079341E-01  0.23223266405E-01  0.00000000000E+00 0. -1.
     999901    1    3    3    0    0 -0.99226353698E-01 -0.86252545249E-01 -0.29098930610E-01  0.89024273015E+00  0.88000000000E+00 0.  1.
        -11    1    4    4    0    0  0.74776986632E-01  0.49586308136E-01  0.10650777234E-03  0.89725537888E-01  0.51100000000E-03 0.  1.
         11    1    4    4    0    0  0.26221163684E-01  0.30448176738E-01  0.66873434967E-02  0.40738465553E-01  0.51100000000E-03 0. -1.
</event>
<event>
 8    1  0.1207611E+005  0.1043930E+01  0.7957747E-01            NaN
         13   -1    0    0    0    0  0.00000000000E+00  0.00000000000E+00  0.74505805969E-08  0.10566000000E+00  0.10566000000E+00 0.  1.
     999900   -1    0    0    0    0 -0.00000000000E+00 -0.00000000000E+00 -0.74505805969E-08  0.93827000000E+00  0.93827000000E+00 0.  1.
     999902    2    1    2    0    0  0.19279292004E-01  0.11135473950E-01  0.68211532111E-02  0.10206444248E+01  0.10203787649E+01 0.  0.
     999903    2    3    3    0    0  0.10121894117E+00  0.81176691891E-01 -0.25879780092E-01  0.13346393058E+00  0.17547888492E-01 0.  0.
         14    1    1    2    0    0 -0.19279292004E-01 -0.11135473950E-01 -0.68211532111E-02  0.23285575179E-01  0.00000000000E+00 0. -1.
     999901    1    3    3    0    0 -0.81939649170E-01 -0.70041217941E-01  0.32700933303E-01  0.88718049424E+00  0.88000000000E+00 0.  1.
        -11    1    4    4    0    0  0.85636271055E-01  0.63677238151E-01 -0.26719086215E-01  0.11001150971E+00  0.51100000000E-03 0. -1.
         11    1    4    4    0    0  0.15582670118E-01  0.17499453740E-01  0.83930612320E-03  0.23452420877E-01  0.51100000000E-03 0.  1.
</event>
<event>
 8    1  0.1207611E+005  0.1043930E+01  0.7957747E-01            NaN
         13   -1    0    0    0    0  0.00000000000E+00  0.00000000000E+00  0.74505805969E-08  0.10566000000E+00  0.10566000000E+00 0. -1.
     999900   -1    0    0    0    0 -0.00000000000E+00 -0.00000000000E+00 -0.74505805969E-08  0.93827000000E+00  0.93827000000E+00 0. -1.
     999902    2    1    2    0    0 -0.11773889164E-01  0.20814601697E-01 -0.14593869181E-03  0.10200157070E+01  0.10197353329E+01 0.  0.
     999903    2    3    3    0    0  0.18666937986E-01 -0.91327201743E-01  0.86848836710E-01  0.12812416712E+00  0.13563532324E-01 0.  0.
         14    1    1    2    0    0  0.11773889164E-01 -0.20814601697E-01  0.14593869181E-03  0.23914292963E-01  0.00000000000E+00 0. -1.
     999901    1    3    3    0    0 -0.30440827150E-01  0.11214180344E+00 -0.86994775402E-01  0.89189153992E+00  0.88000000000E+00 0. -1.
        -11    1    4    4    0    0  0.10798724085E-01 -0.50311355918E-01  0.38723547828E-01  0.64402012806E-01  0.51100000000E-03 0. -1.
         11    1    4    4    0    0  0.78682139001E-02 -0.41015845825E-01  0.48125288883E-01  0.63722154309E-01  0.51100000000E-03 0.  1.
</event>
<event>
 8    1  0.1207611E+005  0.1043930E+01  0.7957747E-01            NaN
         13   -1    0    0    0    0  0.00000000000E+00  0.00000000000E+00  0.74505805969E-08  0.10566000000E+00  0.10566000000E+00 0.  1.
     999900   -1    0    0    0    0 -0.00000000000E+00 -0.00000000000E+00 -0.74505805969E-08  0.93827000000E+00  0.93827000000E+00 0.  1.
     999902    2    1    2    0    0  0.16739578271E-01 -0.58111055243E-02 -0.16837385235E-01  0.10194865966E+01  0.10191935246E+01 0.  0.
     999903    2    3    3    0    0  0.79012442831E-02  0.12112171004E+00  0.38347981693E-01  0.12862438473E+00  0.18459857637E-01 0.  0.
         14    1    1    2    0    0 -0.16739578271E-01  0.58111055243E-02  0.16837385235E-01  0.24443403397E-01  0.00000000000E+00 0.  1.
     999901    1    3    3    0    0  0.88383339875E-02 -0.12693281556E+00 -0.55185366928E-01  0.89086221187E+00  0.88000000000E+00 0.  1.
        -11    1    4    4    0    0 -0.35580234422E-02  0.43587256905E-01  0.20187862188E-01  0.48169693751E-01  0.51100000000E-03 0. -1.
         11    1    4    4    0    0  0.11459267725E-01  0.77534453134E-01  0.18160119505E-01  0.80454690982E-01  0.51100000000E-03 0.  1.
</event>
<event>
 8    1  0.1207611E+005  0.1043930E+01  0.7957747E-01            NaN
         13   -1    0    0    0    0  0.00000000000E+00  0.00000000000E+00  0.74505805969E-08  0.10566000000E+00  0.10566000000E+00 0. -1.
     999900   -1    0    0    0    0 -0.00000000000E+00 -0.00000000000E+00 -0.74505805969E-08  0.93827000000E+00  0.93827000000E+00 0.  1.
     999902    2    1    2    0    0  0.21058128810E-01  0.21440928720E-02  0.84517615571E-02  0.10211380234E+01  0.10208836313E+01 0.  0.
     999903    2    3    3    0    0  0.10412501983E+00  0.24880965612E-01 -0.76482424258E-01  0.13286391612E+00  0.18498021071E-01 0.  0.
         14    1    1    2    0    0 -0.21058128810E-01 -0.21440928720E-02 -0.84517615571E-02  0.22791976584E-01  0.00000000000E+00 0.  1.
     999901    1    3    3    0    0 -0.83066891017E-01 -0.22736872740E-01  0.84934185815E-01  0.88827410729E+00  0.88000000000E+00 0. -1.
        -11    1    4    4    0    0  0.59472198279E-01  0.23101460757E-01 -0.48373536351E-01  0.80067971108E-01  0.51100000000E-03 0.  1.
         11    1    4    4    0    0  0.44652821548E-01  0.17795048554E-02 -0.28108887907E-01  0.52795945016E-01  0.51100000000E-03 0. -1.
</event>
<event>
 8    1  0.1207611E+005  0.1043930E+01  0.7957747E-01            NaN
         13   -1    0    0    0    0  0.00000000000E+00  0.00000000000E+00  0.74505805969E-08  0.10566000000E+00  0.10566000000E+00 0.  1.
     999900   -1    0    0    0    0 -0.00000000000E+00 -0.00000000000E+00 -0.74505805969E-08  0.93827000000E+00  0.93827000000E+00 0. -1.
     999902    2    1    2    0    0  0.82301836164E-02 -0.26360340004E-01  0.58001550509E-02  0.10157121821E+01  0.10153201424E+01 0.  0.
     999903    2    3    3    0    0 -0.79789948277E-01  0.91856329706E-01 -0.13769567744E-02  0.12342622148E+00  0.20690939701E-01 0.  0.
         14    1    1    2    0    0 -0.82301836164E-02  0.26360340004E-01 -0.58001550509E-02  0.28217817883E-01  0.00000000000E+00 0.  1.
     999901    1    3    3    0    0  0.88020131893E-01 -0.11821666971E+00  0.71771118253E-02  0.89228596064E+00  0.88000000000E+00 0.  1.
        -11    1    4    4    0    0 -0.52550216176E-02  0.59698215988E-02  0.52004568854E-02  0.95162962827E-02  0.51100000000E-03 0. -1.
         11    1    4    4    0    0 -0.74534926659E-01  0.85886508107E-01 -0.65774136598E-02  0.11390992520E+00  0.51100000000E-03 0.  1.
</event>
<event>
 8    1  0.1207611E+005  0.1043930E+01  0.7957747E-01            NaN
         13   -1    0    0    0    0  0.00000000000E+00  0.00000000000E+00  0.74505805969E-08  0.10566000000E+00  0.10566000000E+00 0.  1.
     999900   -1    0    0    0    0 -0.00000000000E+00 -0.00000000000E+00 -0.74505805969E-08  0.93827000000E+00  0.93827000000E+00 0.  1.
     999902    2    1    2    0    0  0.13372878258E-01 -0.10490767655E-01  0.17926857628E-01  0.10192265123E+01  0.10189270931E+01 0.  0.
     999903    2    3    3    0    0 -0.21171945899E-01  0.48302508888E-01  0.11915926120E+00  0.13080206772E+00  0.11351992371E-01 0.  0.
         14    1    1    2    0    0 -0.13372878258E-01  0.10490767655E-01 -0.17926857628E-01  0.24703487675E-01  0.00000000000E+00 0. -1.
     999901    1    3    3    0    0  0.34544824158E-01 -0.58793276543E-01 -0.10123240357E+00  0.88842444461E+00  0.88000000000E+00 0.  1.
        -11    1    4    4    0    0 -0.97671441959E-03  0.13349607519E-01  0.34519300238E-01  0.37027141422E-01  0.51100000000E-03 0.  1.
         11    1    4    4    0    0 -0.20195231480E-01  0.34952901370E-01  0.84639960964E-01  0.93774926296E-01  0.51100000000E-03 0. -1.
</event>
<event>
 8    1  0.1207611E+005  0.1043930E+01  0.7957747E-01            NaN
         13   -1    0    0    0    0  0.00000000000E+00  0.00000000000E+00  0.74505805969E-08  0.10566000000E+00  0.10566000000E+00 0.  1.
     999900   -1    0    0    0    0 -0.00000000000E+00 -0.00000000000E+00 -0.74505805969E-08  0.93827000000E+00  0.93827000000E+00 0.  1.
     999902    2    1    2    0    0 -0.12853644675E-02  0.84557738920E-02  0.22719267965E-01  0.10196541393E+01  0.10193651193E+01 0.  0.
     999903    2    3    3    0    0  0.44611764407E-01  0.64576231837E-01  0.10524722937E+00  0.13282443942E+00  0.20125932923E-01 0.  0.
         14    1    1    2    0    0  0.12853644675E-02 -0.84557738920E-02 -0.22719267965E-01  0.24275860660E-01  0.00000000000E+00 0. -1.
     999901    1    3    3    0    0 -0.45897128874E-01 -0.56120457945E-01 -0.82527961407E-01  0.88682969992E+00  0.88000000000E+00 0.  1.
        -11    1    4    4    0    0  0.82504762687E-02  0.28722836120E-01  0.36200347888E-01  0.46944626760E-01  0.51100000000E-03 0.  1.
         11    1    4    4    0    0  0.36361288138E-01  0.35853395718E-01  0.69046881484E-01  0.85879812664E-01  0.51100000000E-03 0. -1.
</event>
<event>
 8    1  0.1207611E+005  0.1043930E+01  0.7957747E-01            NaN
         13   -1    0    0    0    0  0.00000000000E+00  0.00000000000E+00  0.74505805969E-08  0.10566000000E+00  0.10566000000E+00 0.  1.
     999900   -1    0    0    0    0 -0.00000000000E+00 -0.00000000000E+00 -0.74505805969E-08  0.93827000000E+00  0.93827000000E+00 0.  1.
     999902    2    1    2    0    0 -0.10932613148E-01 -0.10194813325E-01  0.19089401781E-01  0.10196841445E+01  0.10193958471E+01 0.  0.
     999903    2    3    3    0    0 -0.23575526977E-01 -0.10368233216E+00 -0.72027526538E-01  0.12996393337E+00  0.19920540244E-01 0.  0.
         14    1    1    2    0    0  0.10932613148E-01  0.10194813325E-01 -0.19089401781E-01  0.24245855509E-01  0.00000000000E+00 0.  1.
     999901    1    3    3    0    0  0.12642913828E-01  0.93487518836E-01  0.91116928319E-01  0.88972021112E+00  0.88000000000E+00 0. -1.
        -11    1    4    4    0    0 -0.17771020199E-02 -0.50455140040E-01 -0.30046250883E-01  0.58753021720E-01  0.51100000000E-03 0. -1.
         11    1    4    4    0    0 -0.21798424957E-01 -0.53227192121E-01 -0.41981275654E-01  0.71210911652E-01  0.51100000000E-03 0.  1.
</event>
<event>
 8    1  0.1207611E+005  0.1043930E+01  0.7957747E-01            NaN
         13   -1    0    0    0    0  0.00000000000E+00  0.00000000000E+00  0.74505805969E-08  0.10566000000E+00  0.10566000000E+00 0.  1.
     999900   -1    0    0    0    0 -0.00000000000E+00 -0.00000000000E+00 -0.74505805969E-08  0.93827000000E+00  0.93827000000E+00 0.  1.
     999902    2    1    2    0    0  0.68101377793E-02  0.20440889852E-01 -0.39444509259E-02  0.10220264239E+01  0.10217916835E+01 0.  0.
     999903    2    3    3    0    0  0.12944672640E+00 -0.12265629735E-01  0.16888984828E-01  0.13267639078E+00  0.20270328408E-01 0.  0.
         14    1    1    2    0    0 -0.68101377793E-02 -0.20440889852E-01  0.39444509259E-02  0.21903576138E-01  0.00000000000E+00 0.  1.
     999901    1    3    3    0    0 -0.12263658862E+00  0.32706519587E-01 -0.20833435754E-01  0.88935003308E+00  0.88000000000E+00 0.  1.
        -11    1    4    4    0    0  0.26030113961E-01 -0.12510507392E-02 -0.46234448525E-02  0.26472047976E-01  0.51100000000E-03 0.  1.
         11    1    4    4    0    0  0.10341661244E+00 -0.11014578996E-01  0.21512429681E-01  0.10620434281E+00  0.51100000000E-03 0. -1.
</event>
<event>
 8    1  0.1207611E+005  0.1043930E+01  0.7957747E-01            NaN
         13   -1    0    0    0    0  0.00000000000E+00  0.00000000000E+00  0.74505805969E-08  0.10566000000E+00  0.10566000000E+00 0.  1.
     999900   -1    0    0    0    0 -0.00000000000E+00 -0.00000000000E+00 -0.74505805969E-08  0.93827000000E+00  0.93827000000E+00 0. -1.
     999902    2    1    2    0    0  0.12711293268E-01 -0.18418731608E-01 -0.77628241352E-02  0.10202427019E+01  0.10199676871E+01 0.  0.
     999903    2    3    3    0    0 -0.11159238160E+00  0.56943380334E-01 -0.18418033134E-01  0.12825369698E+00  0.20356292640E-01 0.  0.
         14    1    1    2    0    0 -0.12711293268E-01  0.18418731608E-01  0.77628241352E-02  0.23687298055E-01  0.00000000000E+00 0. -1.
     999901    1    3    3    0    0  0.12430367486E+00 -0.75362111942E-01  0.10655208999E-01  0.89198900497E+00  0.88000000000E+00 0. -1.
        -11    1    4    4    0    0 -0.10361473513E+00  0.52345667887E-01 -0.22365460460E-01  0.11822249035E+00  0.51100000000E-03 0. -1.
         11    1    4    4    0    0 -0.79776464651E-02  0.45977124469E-02  0.39474273257E-02  0.10031206625E-01  0.51100000000E-03 0.  1.
</event>
<event>
 8    1  0.1207611E+005  0.1043930E+01  0.7957747E-01            NaN
         13   -1    0    0    0    0  0.00000000000E+00  0.00000000000E+00  0.74505805969E-08  0.10566000000E+00  0.10566000000E+00 0. -1.
     999900   -1    0    0    0    0 -0.00000000000E+00 -0.00000000000E+00 -0.74505805969E-08  0.93827000000E+00  0.93827000000E+00 0. -1.
     999902    2    1    2    0    0 -0.22324900567E-01  0.21258766330E-01 -0.20174234303E-01  0.10070879580E+01  0.10064138408E+01 0.  0.
     999903    2    3    3    0    0  0.23999313933E-01 -0.39574258754E-01 -0.10807823649E+00  0.11940912901E+00  0.20869735561E-01 0.  0.
         14    1    1    2    0    0  0.22324900567E-01 -0.21258766330E-01  0.20174234303E-01  0.36842042029E-01  0.00000000000E+00 0. -1.
     999901    1    3    3    0    0 -0.46324214499E-01  0.60833025083E-01  0.87904002186E-01  0.88767882896E+00  0.88000000000E+00 0.  1.
        -11    1    4    4    0    0  0.17911202324E-01 -0.22297172593E-01 -0.86458985003E-01  0.91068064013E-01  0.51100000000E-03 0.  1.
         11    1    4    4    0    0  0.60881116085E-02 -0.17277086161E-01 -0.21619251487E-01  0.28341064994E-01  0.51100000000E-03 0. -1.
</event>
<event>
 8    1  0.1207611E+005  0.1043930E+01  0.7957747E-01            NaN
         13   -1    0    0    0    0  0.00000000000E+00  0.00000000000E+00  0.74505805969E-08  0.10566000000E+00  0.10566000000E+00 0.  1.
     999900   -1    0    0    0    0 -0.00000000000E+00 -0.00000000000E+00 -0.74505805969E-08  0.93827000000E+00  0.93827000000E+00 0. -1.
     999902    2    1    2    0    0 -0.13082750402E-01  0.18979002814E-01  0.25268544312E-02  0.10207406512E+01  0.10204772075E+01 0.  0.
     999903    2    3    3    0    0  0.16236443313E-01  0.15686341382E-01 -0.12726975406E+00  0.13073075442E+00  0.19576936821E-01 0.  0.
         14    1    1    2    0    0  0.13082750402E-01 -0.18979002814E-01 -0.25268544312E-02  0.23189348831E-01  0.00000000000E+00 0. -1.
     999901    1    3    3    0    0 -0.29319193714E-01  0.32926614323E-02  0.12979660849E+00  0.89000989675E+00  0.88000000000E+00 0.  1.
        -11    1    4    4    0    0  0.89585293563E-02 -0.32616102292E-02 -0.37993905445E-01  0.39175136521E-01  0.51100000000E-03 0.  1.
         11    1    4    4    0    0  0.72779139563E-02  0.18947951611E-01 -0.89275848613E-01  0.91555617897E-01  0.51100000000E-03 0. -1.
</event>
<event>
 8    1  0.1843929E+005  0.1043930E+01  0.7957747E-01            NaN
         13   -1    0    0    0    0  0.00000000000E+00  0.00000000000E+00  0.74505805969E-08  0.10566000000E+00  0.10566000000E+00 0.  1.
     999900   -1    0    0    0    0 -0.00000000000E+00 -0.00000000000E+00 -0.74505805969E-08  0.93827000000E+00  0.93827000000E+00 0.  1.
     999902    2    1    2    0    0 -0.35650651409E-01  0.12957536892E-03 -0.75347220152E-02  0.10074915893E+01  0.10068324313E+01 0.  0.
     999903    2    3    3    0    0 -0.27935416939E-01 -0.10628135243E+00 -0.44579103168E-01  0.12027397422E+00  0.20060384902E-01 0.  0.
         14    1    1    2    0    0  0.35650651409E-01 -0.12957536892E-03  0.75347220152E-02  0.36438410661E-01  0.00000000000E+00 0.  1.
     999901    1    3    3    0    0 -0.77152344696E-02  0.10641092780E+00  0.37044381153E-01  0.88721761512E+00  0.88000000000E+00 0.  1.
        -11    1    4    4    0    0 -0.77480169023E-03 -0.39275006155E-01 -0.18345782481E-01  0.43358451103E-01  0.51100000000E-03 0. -1.
         11    1    4    4    0    0 -0.27160615249E-01 -0.67006346273E-01 -0.26233320687E-01  0.76915523120E-01  0.51100000000E-03 0.  1.
</event>
<event>
 8    1  0.1207611E+005  0.1043930E+01  0.7957747E-01            NaN
         13   -1    0    0    0    0  0.00000000000E+00  0.00000000000E+00  0.74505805969E-08  0.10566000000E+00  0.10566000000E+00 0. -1.
     999900   -1    0    0    0    0 -0.00000000000E+00 -0.00000000000E+00 -0.74505805969E-08  0.93827000000E+00  0.93827000000E+00 0. -1.
     999902    2    1    2    0    0 -0.14417440366E-01  0.96408336292E-03  0.19150207846E-01  0.10199399499E+01  0.10196577754E+01 0.  0.
     999903    2    3    3    0    0 -0.36601156626E-02 -0.27538384401E-01  0.12762973417E+00  0.13275568587E+00  0.23726862932E-01 0.  0.
         14    1    1    2    0    0  0.14417440366E-01 -0.96408336292E-03 -0.19150207846E-01  0.23990050104E-01  0.00000000000E+00 0.  1.
     999901    1    3    3    0    0 -0.10757324704E-01  0.28502467764E-01 -0.10847952632E+00  0.88718426403E+00  0.88000000000E+00 0. -1.
        -11    1    4    4    0    0 -0.12208520496E-01 -0.24478119584E-01  0.99480568828E-01  0.10317398415E+00  0.51100000000E-03 0. -1.
         11    1    4    4    0    0  0.85484048335E-02 -0.30602648176E-02  0.28149165342E-01  0.29581701716E-01  0.51100000000E-03 0.  1.
</event>
<event>
 8    1  0.1207611E+005  0.1043930E+01  0.7957747E-01            NaN
         13   -1    0    0    0    0  0.00000000000E+00  0.00000000000E+00  0.74505805969E-08  0.10566000000E+00  0.10566000000E+00 0.  1.
     999900   -1    0    0    0    0 -0.00000000000E+00 -0.00000000000E+00 -0.74505805969E-08  0.93827000000E+00  0.93827000000E+00 0.  1.
     999902    2    1    2    0    0  0.15484596439E-01  0.17325789924E-01 -0.39001176461E-02  0.10203680255E+01  0.10200959469E+01 0.  0.
     999903    2    3    3    0    0 -0.10350411951E+00  0.75809163979E-01  0.10766466890E-01  0.13031537076E+00  0.20150606617E-01 0.  0.
         14    1    1    2    0    0 -0.15484596439E-01 -0.17325789924E-01  0.39001176461E-02  0.23561974472E-01  0.00000000000E+00 0.  1.
     999901    1    3    3    0    0  0.11898871595E+00 -0.58483374054E-01 -0.14666584536E-01  0.89005265477E+00  0.88000000000E+00 0.  1.
        -11    1    4    4    0    0 -0.40873905452E-01  0.41979250206E-01  0.24258879234E-02  0.58643666734E-01  0.51100000000E-03 0.  1.
         11    1    4    4    0    0 -0.62630214059E-01  0.33829913773E-01  0.83405789670E-02  0.71671704022E-01  0.51100000000E-03 0. -1.
</event>
<event>
 8    1  0.1207611E+005  0.1043930E+01  0.7957747E-01            NaN
         13   -1    0    0    0    0  0.00000000000E+00  0.00000000000E+00  0.74505805969E-08  0.10566000000E+00  0.10566000000E+00 0. -1.
     999900   -1    0    0    0    0 -0.00000000000E+00 -0.00000000000E+00 -0.74505805969E-08  0.93827000000E+00  0.93827000000E+00 0. -1.
     999902    2    1    2    0    0 -0.11847190734E-01 -0.79450574641E-02  0.18747018118E-01  0.10203730360E+01  0.10201010744E+01 0.  0.
     999903    2    3    3    0    0 -0.78347480025E-01  0.25856360734E-01  0.10259321219E+00  0.13324564454E+00  0.20546425128E-01 0.  0.
         14    1    1    2    0    0  0.11847190734E-01  0.79450574641E-02 -0.18747018118E-01  0.23556964039E-01  0.00000000000E+00 0.  1.
     999901    1    3    3    0    0  0.66500289292E-01 -0.33801418198E-01 -0.83846194069E-01  0.88712739142E+00  0.88000000000E+00 0. -1.
        -11    1    4    4    0    0 -0.85735639393E-02  0.10409333386E-01  0.18228758651E-01  0.22680586040E-01  0.51100000000E-03 0. -1.
         11    1    4    4    0    0 -0.69773916086E-01  0.15447027348E-01  0.84364453537E-01  0.11056505850E+00  0.51100000000E-03 0.  1.
</event>
<event>
 8    1  0.1207611E+005  0.1043930E+01  0.7957747E-01            NaN
         13   -1    0    0    0    0  0.00000000000E+00  0.00000000000E+00  0.74505805969E-08  0.10566000000E+00  0.10566000000E+00 0. -1.
     999900   -1    0    0    0    0 -0.00000000000E+00 -0.00000000000E+00 -0.74505805969E-08  0.93827000000E+00  0.93827000000E+00 0.  1.
     999902    2    1    2    0    0  0.15734208094E-01  0.17171982448E-01 -0.78798872060E-03  0.10206262833E+01  0.10203602045E+01 0.  0.
     999903    2    3    3    0    0 -0.88668896152E-01 -0.63235610945E-01  0.65021339322E-01  0.12838401973E+00  0.19843546022E-01 0.  0.
         14    1    1    2    0    0 -0.15734208094E-01 -0.17171982448E-01  0.78798872060E-03  0.23303716694E-01  0.00000000000E+00 0.  1.
     999901    1    3    3    0    0  0.10440310425E+00  0.80407593393E-01 -0.65809328043E-01  0.89224226357E+00  0.88000000000E+00 0. -1.
        -11    1    4    4    0    0 -0.41251433984E-02 -0.22864458681E-03 -0.57736125689E-03  0.42028030438E-02  0.51100000000E-03 0. -1.
         11    1    4    4    0    0 -0.84543752754E-01 -0.63006966358E-01  0.65598700579E-01  0.12418121669E+00  0.51100000000E-03 0.  1.
</event>
<event>
 8    1  0.1207611E+005  0.1043930E+01  0.7957747E-01            NaN
         13   -1    0    0    0    0  0.00000000000E+00  0.00000000000E+00  0.74505805969E-08  0.10566000000E+00  0.10566000000E+00 0.  1.
     999900   -1    0    0    0    0 -0.00000000000E+00 -0.00000000000E+00 -0.74505805969E-08  0.93827000000E+00  0.93827000000E+00 0.  1.
     999902    2    1    2    0    0  0.20614342386E-02 -0.23434502794E-01 -0.38874834552E-02  0.10200859659E+01  0.10198072563E+01 0.  0.
     999903    2    3    3    0    0 -0.86829551791E-01  0.81510272264E-01 -0.43870383390E-01  0.12850666746E+00  0.20150868299E-01 0.  0.
         14    1    1    2    0    0 -0.20614342386E-02  0.23434502794E-01  0.38874834552E-02  0.23844034053E-01  0.00000000000E+00 0. -1.
     999901    1    3    3    0    0  0.88890986030E-01 -0.10494477506E+00  0.39982899935E-01  0.89157929849E+00  0.88000000000E+00 0. -1.
        -11    1    4    4    0    0 -0.17161189878E-01  0.21836902313E-01 -0.25419239449E-02  0.27894071753E-01  0.51100000000E-03 0. -1.
         11    1    4    4    0    0 -0.69668361913E-01  0.59673369951E-01 -0.41328459445E-01  0.10061259570E+00  0.51100000000E-03 0.  1.
</event>
<event>
 8    1  0.1207611E+005  0.1043930E+01  0.7957747E-01            NaN
         13   -1    0    0    0    0  0.00000000000E+00  0.00000000000E+00  0.74505805969E-08  0.10566000000E+00  0.10566000000E+00 0. -1.
     999900   -1    0    0    0    0 -0.00000000000E+00 -0.00000000000E+00 -0.74505805969E-08  0.93827000000E+00  0.93827000000E+00 0. -1.
     999902    2    1    2    0    0  0.12796279648E-01  0.16167442972E-01  0.96345319297E-02  0.10211713711E+01  0.10209177312E+01 0.  0.
     999903    2    3    3    0    0 -0.16491209874E-01  0.33794286256E-01  0.12629600765E+00  0.13281425675E+00  0.16581057310E-01 0.  0.
         14    1    1    2    0    0 -0.12796279648E-01 -0.16167442972E-01 -0.96345319297E-02  0.22758628926E-01  0.00000000000E+00 0.  1.
     999901    1    3    3    0    0  0.29287489522E-01 -0.17626843284E-01 -0.11666147572E+00  0.88835711432E+00  0.88000000000E+00 0. -1.
        -11    1    4    4    0    0 -0.17319892451E-03  0.19017964205E-01  0.55247415063E-01  0.58431592076E-01  0.51100000000E-03 0. -1.
         11    1    4    4    0    0 -0.16318010949E-01  0.14776322051E-01  0.71048592589E-01  0.74382664678E-01  0.51100000000E-03 0.  1.
</event>
<event>
 8    1  0.1207611E+005  0.1043930E+01  0.7957747E-01            NaN
         13   -1    0    0    0    0  0.00000000000E+00  0.00000000000E+00  0.74505805969E-08  0.10566000000E+00  0.10566000000E+00 0. -1.
     999900   -1    0    0    0    0 -0.00000000000E+00 -0.00000000000E+00 -0.74505805969E-08  0.93827000000E+00  0.93827000000E+00 0. -1.
     999902    2    1    2    0    0 -0.61574350305E-02  0.37196313856E-02  0.23301332264E-01  0.10195434925E+01  0.10192517998E+01 0.  0.
     999903    2    3    3    0    0 -0.45026988720E-01 -0.38793420038E-01 -0.11071239036E+00  0.12753571247E+00  0.21812047671E-01 0.  0.
         14    1    1    2    0    0  0.61574350305E-02 -0.37196313856E-02 -0.23301332264E-01  0.24386507521E-01  0.00000000000E+00 0.  1.
     999901    1    3    3    0    0  0.38869553690E-01  0.42513051424E-01  0.13401372263E+00  0.89200778001E+00  0.88000000000E+00 0.  1.
        -11    1    4    4    0    0  0.23012167569E-02 -0.27558096240E-02 -0.90113188768E-02  0.97136540059E-02  0.51100000000E-03 0.  1.
         11    1    4    4    0    0 -0.47328205477E-01 -0.36037610414E-01 -0.10170107149E+00  0.11782205846E+00  0.51100000000E-03 0. -1.
</event>
<event>
 8    1  0.1207611E+005  0.1043930E+01  0.7957747E-01            NaN
         13   -1    0    0    0    0  0.00000000000E+00  0.00000000000E+00  0.74505805969E-08  0.10566000000E+00  0.10566000000E+00 0. -1.
     999900   -1    0    0    0    0 -0.00000000000E+00 -0.00000000000E+00 -0.74505805969E-08  0.93827000000E+00  0.93827000000E+00 0. -1.
     999902    2    1    2    0    0 -0.91467452067E-02 -0.10016437869E-01 -0.18027595960E-01  0.10213692777E+01  0.10211200787E+01 0.  0.
     999903    2    3    3    0    0 -0.58574992683E-01  0.10803882450E+00  0.38179070614E-01  0.13033651398E+00  0.20653040362E-01 0.  0.
         14    1    1    2    0    0  0.91467452067E-02  0.10016437869E-01  0.18027595960E-01  0.22560722319E-01  0.00000000000E+00 0. -1.
     999901    1    3    3    0    0  0.49428247476E-01 -0.11805526237E+00 -0.56206666574E-01  0.89103276370E+00  0.88000000000E+00 0.  1.
        -11    1    4    4    0    0 -0.29693946876E-01  0.37165434689E-01  0.20410181659E-01  0.51767138737E-01  0.51100000000E-03 0.  1.
         11    1    4    4    0    0 -0.28881045806E-01  0.70873389812E-01  0.17768888955E-01  0.78569375242E-01  0.51100000000E-03 0. -1.
</event>
<event>
 8    1  0.1207611E+005  0.1043930E+01  0.7957747E-01            NaN
         13   -1    0    0    0    0  0.00000000000E+00  0.00000000000E+00  0.74505805969E-08  0.10566000000E+00  0.10566000000E+00 0.  1.
     999900   -1    0    0    0    0 -0.00000000000E+00 -0.00000000000E+00 -0.74505805969E-08  0.93827000000E+00  0.93827000000E+00 0. -1.
     999902    2    1    2    0    0 -0.84260453362E-02  0.21476167268E-01  0.35561990759E-02  0.10205875376E+01  0.10203205630E+01 0.  0.
     999903    2    3    3    0    0  0.11975298696E+00  0.44674006497E-01 -0.18510367659E-01  0.13072522382E+00  0.20246127724E-01 0.  0.
         14    1    1    2    0    0  0.84260453362E-02 -0.21476167268E-01 -0.35561990759E-02  0.23342462432E-01  0.00000000000E+00 0. -1.
     999901    1    3    3    0    0 -0.12817903230E+00 -0.23197839229E-01  0.22066566735E-01  0.88986231375E+00  0.88000000000E+00 0.  1.
        -11    1    4    4    0    0  0.81146582805E-01  0.29100493786E-01 -0.21926407900E-01  0.88952993900E-01  0.51100000000E-03 0. -1.
         11    1    4    4    0    0  0.38606404160E-01  0.15573512711E-01  0.34160402406E-02  0.41772229917E-01  0.51100000000E-03 0.  1.
</event>
<event>
 8    1  0.1207611E+005  0.1043930E+01  0.7957747E-01            NaN
         13   -1    0    0    0    0  0.00000000000E+00  0.00000000000E+00  0.74505805969E-08  0.10566000000E+00  0.10566000000E+00 0. -1.
     999900   -1    0    0    0    0 -0.00000000000E+00 -0.00000000000E+00 -0.74505805969E-08  0.93827000000E+00  0.93827000000E+00 0.  1.
     999902    2    1    2    0    0  0.73621138428E-02 -0.50954241865E-02  0.21736598557E-01  0.10204216231E+01  0.10201507953E+01 0.  0.
     999903    2    3    3    0    0  0.75763480555E-01  0.57414242422E-01  0.90664498171E-01  0.13287598442E+00  0.19986890404E-01 0.  0.
         14    1    1    2    0    0 -0.73621138428E-02  0.50954241865E-02 -0.21736598557E-01  0.23508376905E-01  0.00000000000E+00 0.  1.
     999901    1    3    3    0    0 -0.68401366712E-01 -0.62509666608E-01 -0.68927899614E-01  0.88754563868E+00  0.88000000000E+00 0.  1.
        -11    1    4    4    0    0  0.52739565983E-01  0.30162789504E-01  0.64653464847E-01  0.88721966437E-01  0.51100000000E-03 0.  1.
         11    1    4    4    0    0  0.23023914572E-01  0.27251452918E-01  0.26011033324E-01  0.44154017982E-01  0.51100000000E-03 0. -1.
</event>
<event>
 8    1  0.1207611E+005  0.1043930E+01  0.7957747E-01            NaN
         13   -1    0    0    0    0  0.00000000000E+00  0.00000000000E+00  0.74505805969E-08  0.10566000000E+00  0.10566000000E+00 0. -1.
     999900   -1    0    0    0    0 -0.00000000000E+00 -0.00000000000E+00 -0.74505805969E-08  0.93827000000E+00  0.93827000000E+00 0. -1.
     999902    2    1    2    0    0 -0.20412994229E-01 -0.12433864159E-01  0.61196808826E-02  0.10192573065E+01  0.10189586424E+01 0.  0.
     999903    2    3    3    0    0  0.11696864824E+00 -0.47586408010E-01  0.50930620901E-02  0.12790413799E+00  0.19682437238E-01 0.  0.
         14    1    1    2    0    0  0.20412994229E-01  0.12433864159E-01 -0.61196808826E-02  0.24672693518E-01  0.00000000000E+00 0.  1.
     999901    1    3    3    0    0 -0.13738164247E+00  0.35152543851E-01  0.10266187925E-02  0.89135316849E+00  0.88000000000E+00 0. -1.
        -11    1    4    4    0    0  0.99058737768E-01 -0.40217402520E-01 -0.28866765492E-02  0.10695170413E+00  0.51100000000E-03 0.  1.
         11    1    4    4    0    0  0.17909910474E-01 -0.73690054907E-02  0.79797386393E-02  0.20952433865E-01  0.51100000000E-03 0. -1.
</event>
<event>
 8    1  0.1207611E+005  0.1043930E+01  0.7957747E-01            NaN
         13   -1    0    0    0    0  0.00000000000E+00  0.00000000000E+00  0.74505805969E-08  0.10566000000E+00  0.10566000000E+00 0.  1.
     999900   -1    0    0    0    0 -0.00000000000E+00 -0.00000000000E+00 -0.74505805969E-08  0.93827000000E+00  0.93827000000E+00 0. -1.
     999902    2    1    2    0    0  0.22971829993E-01 -0.33601965542E-02 -0.35637983027E-02  0.10204417784E+01  0.10201714202E+01 0.  0.
     999903    2    3    3    0    0  0.72085064863E-01  0.65220088945E-01  0.86672070233E-01  0.13181481656E+00  0.20326867132E-01 0.  0.
         14    1    1    2    0    0 -0.22971829993E-01  0.33601965542E-02  0.35637983027E-02  0.23488221569E-01  0.00000000000E+00 0.  1.
     999901    1    3    3    0    0 -0.49113234870E-01 -0.68580285499E-01 -0.90235868535E-01  0.88862696187E+00  0.88000000000E+00 0. -1.
        -11    1    4    4    0    0  0.40445942655E-01  0.42173176696E-01  0.63624548115E-01  0.86387472203E-01  0.51100000000E-03 0. -1.
         11    1    4    4    0    0  0.31639122208E-01  0.23046912249E-01  0.23047522118E-01  0.45427344354E-01  0.51100000000E-03 0.  1.
</event>
<event>
 8    1  0.1207611E+005  0.1043930E+01  0.7957747E-01            NaN
         13   -1    0    0    0    0  0.00000000000E+00  0.00000000000E+00  0.74505805969E-08  0.10566000000E+00  0.10566000000E+00 0.  1.
     999900   -1    0    0    0    0 -0.00000000000E+00 -0.00000000000E+00 -0.74505805969E-08  0.93827000000E+00  0.93827000000E+00 0.  1.
     999902    2    1    2    0    0  0.37215679420E-02  0.21960476789E-01 -0.54812503886E-02  0.10209918938E+01  0.10207341919E+01 0.  0.
     999903    2    3    3    0    0 -0.91480777970E-01  0.73840837475E-01 -0.58374602156E-01  0.13276176309E+00  0.19922086879E-01 0.  0.
         14    1    1    2    0    0 -0.37215679420E-02 -0.21960476789E-01  0.54812503886E-02  0.22938106168E-01  0.00000000000E+00 0. -1.
     999901    1    3    3    0    0  0.95202345912E-01 -0.51880360687E-01  0.52893351768E-01  0.88823013074E+00  0.88000000000E+00 0. -1.
        -11    1    4    4    0    0 -0.66063625289E-01  0.45673850743E-01 -0.47412872256E-01  0.93267061735E-01  0.51100000000E-03 0.  1.
         11    1    4    4    0    0 -0.25417152680E-01  0.28166986732E-01 -0.10961729900E-01  0.39494701358E-01  0.51100000000E-03 0. -1.
</event>
<event>
 8    1  0.1207611E+005  0.1043930E+01  0.7957747E-01            NaN
         13   -1    0    0    0    0  0.00000000000E+00  0.00000000000E+00  0.74505805969E-08  0.10566000000E+00  0.10566000000E+00 0.  1.
     999900   -1    0    0    0    0 -0.00000000000E+00 -0.00000000000E+00 -0.74505805969E-08  0.93827000000E+00  0.93827000000E+00 0. -1.
     999902    2    1    2    0    0 -0.22439518854E-01  0.67389853019E-02 -0.42420709956E-02  0.10201194751E+01  0.10198415575E+01 0.  0.
     999903    2    3    3    0    0  0.93326596955E-01  0.47500443726E-01  0.71404078178E-01  0.12838766007E+00  0.20462234116E-01 0.  0.
         14    1    1    2    0    0  0.22439518854E-01 -0.67389853019E-02  0.42420709956E-02  0.23810524892E-01  0.00000000000E+00 0. -1.
     999901    1    3    3    0    0 -0.11576611581E+00 -0.40761458424E-01 -0.75646149173E-01  0.89173181504E+00  0.88000000000E+00 0. -1.
        -11    1    4    4    0    0  0.45967606921E-01  0.31245094744E-01  0.46467484683E-01  0.72448361509E-01  0.51100000000E-03 0.  1.
         11    1    4    4    0    0  0.47358990035E-01  0.16255348982E-01  0.24936593495E-01  0.55939298563E-01  0.51100000000E-03 0. -1.
</event>
<event>
 8    1  0.1207611E+005  0.1043930E+01  0.7957747E-01            NaN
         13   -1    0    0    0    0  0.00000000000E+00  0.00000000000E+00  0.74505805969E-08  0.10566000000E+00  0.10566000000E+00 0. -1.
     999900   -1    0    0    0    0 -0.00000000000E+00 -0.00000000000E+00 -0.74505805969E-08  0.93827000000E+00  0.93827000000E+00 0.  1.
     999902    2    1    2    0    0 -0.23686527740E-01 -0.41071861053E-02  0.21170782324E-02  0.10197969812E+01  0.10195113930E+01 0.  0.
     999903    2    3    3    0    0 -0.83697540349E-01  0.62825331228E-01  0.77642493636E-01  0.13199893445E+00  0.21049023127E-01 0.  0.
         14    1    1    2    0    0  0.23686527740E-01  0.41071861053E-02 -0.21170782324E-02  0.24133018757E-01  0.00000000000E+00 0.  1.
     999901    1    3    3    0    0  0.60011012609E-01 -0.66932517333E-01 -0.75525415404E-01  0.88779804679E+00  0.88000000000E+00 0. -1.
        -11    1    4    4    0    0 -0.17620647156E-01  0.19724644140E-01  0.29288650119E-01  0.39466884085E-01  0.51100000000E-03 0.  1.
         11    1    4    4    0    0 -0.66076893193E-01  0.43100687088E-01  0.48353843518E-01  0.92532050368E-01  0.51100000000E-03 0. -1.
</event>
<event>
 8    1  0.1207611E+005  0.1043930E+01  0.7957747E-01            NaN
         13   -1    0    0    0    0  0.00000000000E+00  0.00000000000E+00  0.74505805969E-08  0.10566000000E+00  0.10566000000E+00 0. -1.
     999900   -1    0    0    0    0 -0.00000000000E+00 -0.00000000000E+00 -0.74505805969E-08  0.93827000000E+00  0.93827000000E+00 0.  1.
     999902    2    1    2    0    0 -0.60575113035E-02  0.19178367686E-01 -0.10717086803E-01  0.10211405467E+01  0.10208862116E+01 0.  0.
     999903    2    3    3    0    0 -0.27642672660E-01 -0.23933947907E-01 -0.12572109452E+00  0.13234894421E+00  0.19326101837E-01 0.  0.
         14    1    1    2    0    0  0.60575113035E-02 -0.19178367686E-01  0.10717086803E-01  0.22789453259E-01  0.00000000000E+00 0. -1.
     999901    1    3    3    0    0  0.21585161357E-01  0.43112315593E-01  0.11500400771E+00  0.88879160253E+00  0.88000000000E+00 0.  1.
        -11    1    4    4    0    0 -0.15922962897E-01 -0.12726157969E-01 -0.99080499685E-01  0.10115682074E+00  0.51100000000E-03 0.  1.
         11    1    4    4    0    0 -0.11719709763E-01 -0.11207789938E-01 -0.26640594830E-01  0.31192123463E-01  0.51100000000E-03 0. -1.
</event>
<event>
 8    1  0.1207611E+005  0.1043930E+01  0.7957747E-01            NaN
         13   -1    0    0    0    0  0.00000000000E+00  0.00000000000E+00  0.74505805969E-08  0.10566000000E+00  0.10566000000E+00 0.  1.
     999900   -1    0    0    0    0 -0.00000000000E+00 -0.00000000000E+00 -0.74505805969E-08  0.93827000000E+00  0.93827000000E+00 0.  1.
     999902    2    1    2    0    0 -0.11899608240E-01 -0.15371054196E-01  0.13796258474E-01  0.10200929127E+01  0.10198143673E+01 0.  0.
     999903    2    3    3    0    0 -0.12421562720E+00 -0.14382857006E-01  0.39801785449E-01  0.13257268640E+00  0.18840022219E-01 0.  0.
         14    1    1    2    0    0  0.11899608240E-01  0.15371054196E-01 -0.13796258474E-01  0.23837087307E-01  0.00000000000E+00 0. -1.
     999901    1    3    3    0    0  0.11231601896E+00 -0.98819719059E-03 -0.26005526975E-01  0.88752022629E+00  0.88000000000E+00 0.  1.
        -11    1    4    4    0    0 -0.48542442869E-01 -0.85365338960E-03  0.23706382169E-01  0.54031020352E-01  0.51100000000E-03 0. -1.
         11    1    4    4    0    0 -0.75673184333E-01 -0.13529203616E-01  0.16095403281E-01  0.78541666046E-01  0.51100000000E-03 0.  1.
</event>
<event>
 8    1  0.1207611E+005  0.1043930E+01  0.7957747E-01            NaN
         13   -1    0    0    0    0  0.00000000000E+00  0.00000000000E+00  0.74505805969E-08  0.10566000000E+00  0.10566000000E+00 0.  1.
     999900   -1    0    0    0    0 -0.00000000000E+00 -0.00000000000E+00 -0.74505805969E-08  0.93827000000E+00  0.93827000000E+00 0. -1.
     999902    2    1    2    0    0 -0.85928109095E-02 -0.51330951241E-02  0.19811848910E-01  0.10217332790E+01  0.10214921434E+01 0.  0.
     999903    2    3    3    0    0  0.10783692682E-01  0.10988677728E+00 -0.65700688115E-01  0.12992757489E+00  0.19318448421E-01 0.  0.
         14    1    1    2    0    0  0.85928109095E-02  0.51330951241E-02 -0.19811848910E-01  0.22196720977E-01  0.00000000000E+00 0.  1.
     999901    1    3    3    0    0 -0.19376503592E-01 -0.11501987240E+00  0.85512537025E-01  0.89180570413E+00  0.88000000000E+00 0.  1.
        -11    1    4    4    0    0  0.13239667177E-01  0.40626967167E-01 -0.23111841036E-01  0.48582482081E-01  0.51100000000E-03 0.  1.
         11    1    4    4    0    0 -0.24559744947E-02  0.69259810111E-01 -0.42588847079E-01  0.81345092807E-01  0.51100000000E-03 0. -1.
</event>
<event>
 8    1  0.1207611E+005  0.1043930E+01  0.7957747E-01            NaN
         13   -1    0    0    0    0  0.00000000000E+00  0.00000000000E+00  0.74505805969E-08  0.10566000000E+00  0.10566000000E+00 0.  1.
     999900   -1    0    0    0    0 -0.00000000000E+00 -0.00000000000E+00 -0.74505805969E-08  0.93827000000E+00  0.93827000000E+00 0. -1.
     999902    2    1    2    0    0  0.61848443071E-02  0.90508132090E-02 -0.97981775057E-02  0.10292271499E+01  0.10291221270E+01 0.  0.
     999903    2    3    3    0    0 -0.12239788004E+00  0.47144738256E-01  0.36625244753E-01  0.13785753056E+00  0.21434150240E-01 0.  0.
         14    1    1    2    0    0 -0.61848443071E-02 -0.90508132090E-02  0.97981775057E-02  0.14702850107E-01  0.00000000000E+00 0.  1.
     999901    1    3    3    0    0  0.12858272435E+00 -0.38093925047E-01 -0.46423422259E-01  0.89136961933E+00  0.88000000000E+00 0.  1.
        -11    1    4    4    0    0 -0.75260105262E-01  0.39960912114E-01  0.22868588563E-01  0.88228064724E-01  0.51100000000E-03 0. -1.
         11    1    4    4    0    0 -0.47137774779E-01  0.71838261414E-02  0.13756656191E-01  0.49629465841E-01  0.51100000000E-03 0.  1.
</event>
<event>
 8    1  0.1207611E+005  0.1043930E+01  0.7957747E-01            NaN
         13   -1    0    0    0    0  0.00000000000E+00  0.00000000000E+00  0.74505805969E-08  0.10566000000E+00  0.10566000000E+00 0.  1.
     999900   -1    0    0    0    0 -0.00000000000E+00 -0.00000000000E+00 -0.74505805969E-08  0.93827000000E+00  0.93827000000E+00 0. -1.
     999902    2    1    2    0    0  0.25545101546E-02 -0.62412262743E-02 -0.22579111685E-01  0.10203653079E+01  0.10200931658E+01 0.  0.
     999903    2    3    3    0    0  0.10500702409E-01  0.12537352492E+00 -0.28292015676E-01  0.13052362428E+00  0.20179019837E-01 0.  0.
         14    1    1    2    0    0 -0.25545101546E-02  0.62412262743E-02  0.22579111685E-01  0.23564692063E-01  0.00000000000E+00 0.  1.
     999901    1    3    3    0    0 -0.79461922543E-02 -0.13161475120E+00  0.57129039908E-02  0.88984168366E+00  0.88000000000E+00 0. -1.
        -11    1    4    4    0    0  0.14231534102E-01  0.86868387104E-01 -0.13278172355E-01  0.89023728427E-01  0.51100000000E-03 0.  1.
         11    1    4    4    0    0 -0.37308316931E-02  0.38505137818E-01 -0.15013843320E-01  0.41499895852E-01  0.51100000000E-03 0. -1.
</event>
<event>
 8    1  0.1207611E+005  0.1043930E+01  0.7957747E-01            NaN
         13   -1    0    0    0    0  0.00000000000E+00  0.00000000000E+00  0.74505805969E-08  0.10566000000E+00  0.10566000000E+00 0. -1.
     999900   -1    0    0    0    0 -0.00000000000E+00 -0.00000000000E+00 -0.74505805969E-08  0.93827000000E+00  0.93827000000E+00 0.  1.
     999902    2    1    2    0    0  0.70404981325E-02 -0.21348465962E-01  0.62902831074E-02  0.10205870509E+01  0.10203200650E+01 0.  0.
     999903    2    3    3    0    0 -0.11227255003E-01  0.12058082281E+00 -0.36235564269E-01  0.12801431909E+00  0.20220378079E-01 0.  0.
         14    1    1    2    0    0 -0.70404981325E-02  0.21348465962E-01 -0.62902831074E-02  0.23342949138E-01  0.00000000000E+00 0.  1.
     999901    1    3    3    0    0  0.18267753135E-01 -0.14192928877E+00  0.42525847377E-01  0.89257273178E+00  0.88000000000E+00 0. -1.
        -11    1    4    4    0    0 -0.11235963029E-01  0.30536813187E-01 -0.12799230568E-01  0.34968918326E-01  0.51100000000E-03 0. -1.
         11    1    4    4    0    0  0.87080257784E-05  0.90044009619E-01 -0.23436333701E-01  0.93045400760E-01  0.51100000000E-03 0.  1.
</event>
<event>
 8    1  0.1207611E+005  0.1043930E+01  0.7957747E-01            NaN
         13   -1    0    0    0    0  0.00000000000E+00  0.00000000000E+00  0.74505805969E-08  0.10566000000E+00  0.10566000000E+00 0. -1.
     999900   -1    0    0    0    0 -0.00000000000E+00 -0.00000000000E+00 -0.74505805969E-08  0.93827000000E+00  0.93827000000E+00 0.  1.
     999902    2    1    2    0    0  0.12392400124E-01  0.20410699941E-01  0.23241577556E-02  0.10199389608E+01  0.10196567627E+01 0.  0.
     999903    2    3    3    0    0  0.87116918521E-01  0.36889291412E-01  0.90173846773E-01  0.13226060379E+00  0.20282193188E-01 0.  0.
         14    1    1    2    0    0 -0.12392400124E-01 -0.20410699941E-01 -0.23241577556E-02  0.23991039206E-01  0.00000000000E+00 0.  1.
     999901    1    3    3    0    0 -0.74724518397E-01 -0.16478591472E-01 -0.87849689018E-01  0.88767835700E+00  0.88000000000E+00 0.  1.
        -11    1    4    4    0    0  0.40507558217E-01  0.10696843934E-01  0.28689950162E-01  0.50780499250E-01  0.51100000000E-03 0. -1.
         11    1    4    4    0    0  0.46609360304E-01  0.26192447478E-01  0.61483896612E-01  0.81480104544E-01  0.51100000000E-03 0.  1.
</event>
<event>
 8    1  0.1207611E+005  0.1043930E+01  0.7957747E-01            NaN
         13   -1    0    0    0    0  0.00000000000E+00  0.00000000000E+00  0.74505805969E-08  0.10566000000E+00  0.10566000000E+00 0. -1.
     999900   -1    0    0    0    0 -0.00000000000E+00 -0.00000000000E+00 -0.74505805969E-08  0.93827000000E+00  0.93827000000E+00 0. -1.
     999902    2    1    2    0    0  0.22131365026E-01  0.30864188962E-03 -0.87546589187E-02  0.10201279700E+01  0.10198502530E+01 0.  0.
     999903    2    3    3    0    0  0.19711356171E-01 -0.59018104299E-01 -0.11439466224E+00  0.13182321965E+00  0.20482878056E-01 0.  0.
         14    1    1    2    0    0 -0.22131365026E-01 -0.30864188962E-03  0.87546589187E-02  0.23802029966E-01  0.00000000000E+00 0. -1.
     999901    1    3    3    0    0  0.24200088549E-02  0.59326746189E-01  0.10564000332E+00  0.88830475039E+00  0.88000000000E+00 0.  1.
        -11    1    4    4    0    0  0.15817528067E-02 -0.13421408032E-01 -0.43862494780E-01  0.45900062144E-01  0.51100000000E-03 0. -1.
         11    1    4    4    0    0  0.18129603364E-01 -0.45596696267E-01 -0.70532167455E-01  0.85923157505E-01  0.51100000000E-03 0.  1.
</event>
<event>
 8    1  0.1207611E+005  0.1043930E+01  0.7957747E-01            NaN
         13   -1    0    0    0    0  0.00000000000E+00  0.00000000000E+00  0.74505805969E-08  0.10566000000E+00  0.10566000000E+00 0.  1.
     999900   -1    0    0    0    0 -0.00000000000E+00 -0.00000000000E+00 -0.74505805969E-08  0.93827000000E+00  0.93827000000E+00 0.  1.
     999902    2    1    2    0    0  0.19943317291E-01 -0.57799855474E-02 -0.12610993346E-01  0.10196363529E+01  0.10193469041E+01 0.  0.
     999903    2    3    3    0    0  0.58933146434E-01  0.10901672352E+00  0.34809152774E-01  0.13005939642E+00  0.18601282933E-01 0.  0.
         14    1    1    2    0    0 -0.19943317291E-01  0.57799855474E-02  0.12610993346E-01  0.24293647126E-01  0.00000000000E+00 0.  1.
     999901    1    3    3    0    0 -0.38989829143E-01 -0.11479670906E+00 -0.47420146120E-01  0.88957695645E+00  0.88000000000E+00 0.  1.
        -11    1    4    4    0    0  0.25130872099E-02  0.12551612756E-01 -0.61345349692E-03  0.12825600816E-01  0.51100000000E-03 0.  1.
         11    1    4    4    0    0  0.56420059224E-01  0.96465110760E-01  0.35422606271E-01  0.11723379561E+00  0.51100000000E-03 0. -1.
</event>
<event>
 8    1  0.1207611E+005  0.1043930E+01  0.7957747E-01            NaN
         13   -1    0    0    0    0  0.00000000000E+00  0.00000000000E+00  0.74505805969E-08  0.10566000000E+00  0.10566000000E+00 0. -1.
     999900   -1    0    0    0    0 -0.00000000000E+00 -0.00000000000E+00 -0.74505805969E-08  0.93827000000E+00  0.93827000000E+00 0.  1.
     999902    2    1    2    0    0 -0.18428773051E-01 -0.66226055658E-02 -0.12999040465E-01  0.10204256678E+01  0.10201549342E+01 0.  0.
     999903    2    3    3    0    0  0.57119138665E-01  0.10319840277E+00  0.47094170836E-01  0.12836102051E+00  0.18606029247E-01 0.  0.
         14    1    1    2    0    0  0.18428773051E-01  0.66226055658E-02  0.12999040465E-01  0.23504332232E-01  0.00000000000E+00 0.  1.
     999901    1    3    3    0    0 -0.75547911715E-01 -0.10982100834E+00 -0.60093211301E-01  0.89206464725E+00  0.88000000000E+00 0.  1.
        -11    1    4    4    0    0  0.15391648372E-01  0.46460461684E-01  0.20765474084E-01  0.53169007650E-01  0.51100000000E-03 0. -1.
         11    1    4    4    0    0  0.41727490293E-01  0.56737941087E-01  0.26328696751E-01  0.75192012864E-01  0.51100000000E-03 0.  1.
</event>
<event>
 8    1  0.1207611E+005  0.1043930E+01  0.7957747E-01            NaN
         13   -1    0    0    0    0  0.00000000000E+00  0.00000000000E+00  0.74505805969E-08  0.10566000000E+00  0.10566000000E+00 0. -1.
     999900   -1    0    0    0    0 -0.00000000000E+00 -0.00000000000E+00 -0.74505805969E-08  0.93827000000E+00  0.93827000000E+00 0. -1.
     999902    2    1    2    0    0  0.21379075442E-01  0.91399494612E-03  0.41193981393E-02  0.10221384949E+01  0.10219061763E+01 0.  0.
     999903    2    3    3    0    0 -0.12376153787E+00  0.23814074561E-01  0.21300657350E-01  0.12979024060E+00  0.22533533880E-01 0.  0.
         14    1    1    2    0    0 -0.21379075442E-01 -0.91399494612E-03 -0.41193981393E-02  0.21791505101E-01  0.00000000000E+00 0. -1.
     999901    1    3    3    0    0  0.14514061331E+00 -0.22900079615E-01 -0.17181259211E-01  0.89234825430E+00  0.88000000000E+00 0.  1.
        -11    1    4    4    0    0 -0.99790119392E-01  0.27955281510E-01  0.18872199855E-01  0.10533748972E+00  0.51100000000E-03 0.  1.
         11    1    4    4    0    0 -0.23971418477E-01 -0.41412069491E-02  0.24284574955E-02  0.24452750880E-01  0.51100000000E-03 0. -1.
</event>
<event>
 8    1  0.1207611E+005  0.1043930E+01  0.7957747E-01            NaN
         13   -1    0    0    0    0  0.00000000000E+00  0.00000000000E+00  0.74505805969E-08  0.10566000000E+00  0.10566000000E+00 0.  1.
     999900   -1    0    0    0    0 -0.00000000000E+00 -0.00000000000E+00 -0.74505805969E-08  0.93827000000E+00  0.93827000000E+00 0.  1.
     999902    2    1    2    0    0 -0.21916750501E-01  0.12160115841E-01 -0.81969594255E-02  0.10175595143E+01  0.10172177558E+01 0.  0.
     999903    2    3    3    0    0  0.86598361342E-01  0.65534229110E-01 -0.63180016924E-01  0.12758903052E+00  0.22208890092E-01 0.  0.
         14    1    1    2    0    0  0.21916750501E-01 -0.12160115841E-01  0.81969594255E-02  0.26370485654E-01  0.00000000000E+00 0.  1.
     999901    1    3    3    0    0 -0.10851511184E+00 -0.53374113269E-01  0.54983057499E-01  0.88997048382E+00  0.88000000000E+00 0. -1.
        -11    1    4    4    0    0  0.25616738224E-01  0.81081862189E-02 -0.12058331203E-01  0.29455465255E-01  0.51100000000E-03 0. -1.
         11    1    4    4    0    0  0.60981623118E-01  0.57426042891E-01 -0.51121685721E-01  0.98133565268E-01  0.51100000000E-03 0.  1.
</event>
<event>
 8    1  0.1207611E+005  0.1043930E+01  0.7957747E-01            NaN
         13   -1    0    0    0    0  0.00000000000E+00  0.00000000000E+00  0.74505805969E-08  0.10566000000E+00  0.10566000000E+00 0. -1.
     999900   -1    0    0    0    0 -0.00000000000E+00 -0.00000000000E+00 -0.74505805969E-08  0.93827000000E+00  0.93827000000E+00 0. -1.
     999902    2    1    2    0    0  0.18174040559E-01  0.14398039553E-01 -0.25873321123E-02  0.10205998997E+01  0.10203332111E+01 0.  0.
     999903    2    3    3    0    0  0.31019444212E-02  0.58148235556E-01  0.11619986255E+00  0.13141395437E+00  0.19400515172E-01 0.  0.
         14    1    1    2    0    0 -0.18174040559E-01 -0.14398039553E-01  0.25873321123E-02  0.23330100314E-01  0.00000000000E+00 0. -1.
     999901    1    3    3    0    0  0.15072096138E-01 -0.43750196003E-01 -0.11878719466E+00  0.88918594532E+00  0.88000000000E+00 0. -1.
        -11    1    4    4    0    0  0.17165638839E-02  0.10316330982E-01  0.40701529260E-01  0.42026763872E-01  0.51100000000E-03 0. -1.
         11    1    4    4    0    0  0.13853805373E-02  0.47831904573E-01  0.75498333291E-01  0.89387190497E-01  0.51100000000E-03 0.  1.
</event>
<event>
 8    1  0.1207611E+005  0.1043930E+01  0.7957747E-01            NaN
         13   -1    0    0    0    0  0.00000000000E+00  0.00000000000E+00  0.74505805969E-08  0.10566000000E+00  0.10566000000E+00 0.  1.
     999900   -1    0    0    0    0 -0.00000000000E+00 -0.00000000000E+00 -0.74505805969E-08  0.93827000000E+00  0.93827000000E+00 0.  1.
     999902    2    1    2    0    0 -0.15877234751E-01  0.17228629259E-01  0.40250891689E-02  0.10201578820E+01  0.10198808708E+01 0.  0.
     999903    2    3    3    0    0  0.12613971415E+00  0.47379794363E-02 -0.13007452739E-01  0.12852178049E+00  0.20371016153E-01 0.  0.
         14    1    1    2    0    0  0.15877234751E-01 -0.17228629259E-01 -0.40250891689E-02  0.23772117960E-01  0.00000000000E+00 0. -1.
     999901    1    3    3    0    0 -0.14201694890E+00  0.12490649823E-01  0.17032541907E-01  0.89163610155E+00  0.88000000000E+00 0. -1.
        -11    1    4    4    0    0  0.53241457849E-01 -0.23491831057E-02 -0.14604937382E-01  0.55260626237E-01  0.51100000000E-03 0. -1.
         11    1    4    4    0    0  0.72898256297E-01  0.70871625420E-02  0.15974846435E-02  0.73261154251E-01  0.51100000000E-03 0.  1.
</event>
<event>
 8    1  0.1207611E+005  0.1043930E+01  0.7957747E-01            NaN
         13   -1    0    0    0    0  0.00000000000E+00  0.00000000000E+00  0.74505805969E-08  0.10566000000E+00  0.10566000000E+00 0. -1.
     999900   -1    0    0    0    0 -0.00000000000E+00 -0.00000000000E+00 -0.74505805969E-08  0.93827000000E+00  0.93827000000E+00 0. -1.
     999902    2    1    2    0    0 -0.22944547046E-01  0.43024781151E-02 -0.42526486893E-02  0.10202013553E+01  0.10199253683E+01 0.  0.
     999903    2    3    3    0    0 -0.81747707377E-01  0.83633091975E-01  0.58838343032E-01  0.13243357533E+00  0.19987984644E-01 0.  0.
         14    1    1    2    0    0  0.22944547046E-01 -0.43024781151E-02  0.42526486893E-02  0.23728644671E-01  0.00000000000E+00 0. -1.
     999901    1    3    3    0    0  0.58803160332E-01 -0.79330613860E-01 -0.63090991721E-01  0.88776777999E+00  0.88000000000E+00 0. -1.
        -11    1    4    4    0    0 -0.26146390364E-01  0.25798807159E-01  0.29123958154E-01  0.46879401014E-01  0.51100000000E-03 0.  1.
         11    1    4    4    0    0 -0.55601317014E-01  0.57834284816E-01  0.29714384878E-01  0.85554174320E-01  0.51100000000E-03 0. -1.
</event>
<event>
 8    1  0.1207611E+005  0.1043930E+01  0.7957747E-01            NaN
         13   -1    0    0    0    0  0.00000000000E+00  0.00000000000E+00  0.74505805969E-08  0.10566000000E+00  0.10566000000E+00 0. -1.
     999900   -1    0    0    0    0 -0.00000000000E+00 -0.00000000000E+00 -0.74505805969E-08  0.93827000000E+00  0.93827000000E+00 0.  1.
     999902    2    1    2    0    0  0.19016919800E-01  0.15258429455E-02 -0.13674961466E-01  0.10204571219E+01  0.10201871209E+01 0.  0.
     999903    2    3    3    0    0 -0.41324111686E-01 -0.76203755014E-01  0.94002223959E-01  0.12844966299E+00  0.12173878957E-01 0.  0.
         14    1    1    2    0    0 -0.19016919800E-01 -0.15258429455E-02  0.13674961466E-01  0.23472878104E-01  0.00000000000E+00 0. -1.
     999901    1    3    3    0    0  0.60341031486E-01  0.77729597959E-01 -0.10767718542E+00  0.89200745890E+00  0.88000000000E+00 0. -1.
        -11    1    4    4    0    0 -0.31235491069E-01 -0.63333162276E-01  0.70266355268E-01  0.99621117992E-01  0.51100000000E-03 0.  1.
         11    1    4    4    0    0 -0.10088620617E-01 -0.12870592737E-01  0.23735868690E-01  0.28828545000E-01  0.51100000000E-03 0. -1.
</event>
<event>
 8    1  0.1207611E+005  0.1043930E+01  0.7957747E-01            NaN
         13   -1    0    0    0    0  0.00000000000E+00  0.00000000000E+00  0.74505805969E-08  0.10566000000E+00  0.10566000000E+00 0.  1.
     999900   -1    0    0    0    0 -0.00000000000E+00 -0.00000000000E+00 -0.74505805969E-08  0.93827000000E+00  0.93827000000E+00 0. -1.
     999902    2    1    2    0    0  0.17592188675E-01 -0.66455854400E-02  0.14158535834E-01  0.10203903941E+01  0.10201188379E+01 0.  0.
     999903    2    3    3    0    0 -0.12296494269E+00 -0.16577295158E-01 -0.25905401818E-01  0.12828049890E+00  0.19738609593E-01 0.  0.
         14    1    1    2    0    0 -0.17592188675E-01  0.66455854400E-02 -0.14158535834E-01  0.23539605884E-01  0.00000000000E+00 0. -1.
     999901    1    3    3    0    0  0.14055713137E+00  0.99317097176E-02  0.40063937652E-01  0.89210989521E+00  0.88000000000E+00 0.  1.
        -11    1    4    4    0    0 -0.49029083035E-01 -0.14466923205E-01 -0.16493931363E-01  0.53716419678E-01  0.51100000000E-03 0. -1.
         11    1    4    4    0    0 -0.73935859660E-01 -0.21103719526E-02 -0.94114704553E-02  0.74564079224E-01  0.51100000000E-03 0.  1.
</event>
<event>
 8    1  0.1207611E+005  0.1043930E+01  0.7957747E-01            NaN
         13   -1    0    0    0    0  0.00000000000E+00  0.00000000000E+00  0.74505805969E-08  0.10566000000E+00  0.10566000000E+00 0.  1.
     999900   -1    0    0    0    0 -0.00000000000E+00 -0.00000000000E+00 -0.74505805969E-08  0.93827000000E+00  0.93827000000E+00 0. -1.
     999902    2    1    2    0    0  0.24677525972E-01  0.63601058014E-03  0.55253465312E-02  0.10186334735E+01  0.10183193208E+01 0.  0.
     999903    2    3    3    0    0 -0.64394332239E-01  0.17996070906E-01 -0.10597627652E+00  0.12696774043E+00  0.20477971909E-01 0.  0.
         14    1    1    2    0    0 -0.24677525972E-01 -0.63601058014E-03 -0.55253465312E-02  0.25296526477E-01  0.00000000000E+00 0. -1.
     999901    1    3    3    0    0  0.89071858211E-01 -0.17360060326E-01  0.11150162305E+00  0.89166573309E+00  0.88000000000E+00 0.  1.
        -11    1    4    4    0    0 -0.26518157851E-01  0.17951136566E-01 -0.50100811428E-01  0.59462664140E-01  0.51100000000E-03 0. -1.
         11    1    4    4    0    0 -0.37876174388E-01  0.44934339746E-04 -0.55875465092E-01  0.67505076295E-01  0.51100000000E-03 0.  1.
</event>
<event>
 8    1  0.1207611E+005  0.1043930E+01  0.7957747E-01            NaN
         13   -1    0    0    0    0  0.00000000000E+00  0.00000000000E+00  0.74505805969E-08  0.10566000000E+00  0.10566000000E+00 0. -1.
     999900   -1    0    0    0    0 -0.00000000000E+00 -0.00000000000E+00 -0.74505805969E-08  0.93827000000E+00  0.93827000000E+00 0.  1.
     999902    2    1    2    0    0  0.19705413629E-01 -0.57030088556E-02 -0.11196819897E-01  0.10205591547E+01  0.10202915229E+01 0.  0.
     999903    2    3    3    0    0  0.61104095498E-01 -0.41466932436E-01 -0.10924975824E+00  0.13342484250E+00  0.20333763772E-01 0.  0.
         14    1    1    2    0    0 -0.19705413629E-01  0.57030088556E-02  0.11196819897E-01  0.23370845344E-01  0.00000000000E+00 0. -1.
     999901    1    3    3    0    0 -0.41398681869E-01  0.35763923580E-01  0.98052938338E-01  0.88713431216E+00  0.88000000000E+00 0. -1.
        -11    1    4    4    0    0  0.49327500366E-01 -0.36997761974E-01 -0.76020906463E-01  0.97885014297E-01  0.51100000000E-03 0. -1.
         11    1    4    4    0    0  0.11776595131E-01 -0.44691704621E-02 -0.33228851773E-01  0.35539828202E-01  0.51100000000E-03 0.  1.
</event>
<event>
 8    1  0.1207611E+005  0.1043930E+01  0.7957747E-01            NaN
         13   -1    0    0    0    0  0.00000000000E+00  0.00000000000E+00  0.74505805969E-08  0.10566000000E+00  0.10566000000E+00 0. -1.
     999900   -1    0    0    0    0 -0.00000000000E+00 -0.00000000000E+00 -0.74505805969E-08  0.93827000000E+00  0.93827000000E+00 0.  1.
     999902    2    1    2    0    0 -0.20910359178E-01  0.10984872487E-01 -0.55676585659E-02  0.10196625451E+01  0.10193737276E+01 0.  0.
     999903    2    3    3    0    0  0.51663738936E-01  0.71612884239E-01 -0.93707284024E-01  0.13021814039E+00  0.19446385211E-01 0.  0.
         14    1    1    2    0    0  0.20910359178E-01 -0.10984872487E-01  0.55676585659E-02  0.24267454881E-01  0.00000000000E+00 0. -1.
     999901    1    3    3    0    0 -0.72574098113E-01 -0.60628011752E-01  0.88139625458E-01  0.88944440473E+00  0.88000000000E+00 0. -1.
        -11    1    4    4    0    0  0.20125461123E-01  0.17196471700E-01 -0.19162536380E-01  0.32683585266E-01  0.51100000000E-03 0. -1.
         11    1    4    4    0    0  0.31538277813E-01  0.54416412539E-01 -0.74544747644E-01  0.97534555125E-01  0.51100000000E-03 0.  1.
</event>
<event>
 8    1  0.1207611E+005  0.1043930E+01  0.7957747E-01            NaN
         13   -1    0    0    0    0  0.00000000000E+00  0.00000000000E+00  0.74505805969E-08  0.10566000000E+00  0.10566000000E+00 0.  1.
     999900   -1    0    0    0    0 -0.00000000000E+00 -0.00000000000E+00 -0.74505805969E-08  0.93827000000E+00  0.93827000000E+00 0. -1.
     999902    2    1    2    0    0  0.16293595039E-01 -0.11905435058E-01  0.12405554766E-01  0.10202420619E+01  0.10199670320E+01 0.  0.
     999903    2    3    3    0    0 -0.42720235952E-01 -0.18349318302E-01 -0.11831089701E+00  0.12860819832E+00  0.19516256906E-01 0.  0.
         14    1    1    2    0    0 -0.16293595039E-01  0.11905435058E-01 -0.12405554766E-01  0.23687938118E-01  0.00000000000E+00 0.  1.
     999901    1    3    3    0    0  0.59013830991E-01  0.64438832441E-02  0.13071645177E+00  0.89163386356E+00  0.88000000000E+00 0.  1.
        -11    1    4    4    0    0 -0.69809761263E-02 -0.65459063908E-02 -0.47056055939E-01  0.48022041186E-01  0.51100000000E-03 0. -1.
         11    1    4    4    0    0 -0.35739259825E-01 -0.11803411912E-01 -0.71254841068E-01  0.80586157138E-01  0.51100000000E-03 0.  1.
</event>
<event>
 8    1  0.1207611E+005  0.1043930E+01  0.7957747E-01            NaN
         13   -1    0    0    0    0  0.00000000000E+00  0.00000000000E+00  0.74505805969E-08  0.10566000000E+00  0.10566000000E+00 0. -1.
     999900   -1    0    0    0    0 -0.00000000000E+00 -0.00000000000E+00 -0.74505805969E-08  0.93827000000E+00  0.93827000000E+00 0. -1.
     999902    2    1    2    0    0 -0.15595038263E-01  0.18183524615E-01 -0.30231606333E-02  0.10197849118E+01  0.10194990343E+01 0.  0.
     999903    2    3    3    0    0 -0.17386560581E-01 -0.36716231438E-01 -0.12209744455E+00  0.13006817153E+00  0.18962308393E-01 0.  0.
         14    1    1    2    0    0  0.15595038263E-01 -0.18183524615E-01  0.30231606333E-02  0.24145088239E-01  0.00000000000E+00 0. -1.
     999901    1    3    3    0    0  0.17915223179E-02  0.54899756053E-01  0.11907428391E+00  0.88971674024E+00  0.88000000000E+00 0.  1.
        -11    1    4    4    0    0 -0.14763499035E-01 -0.98458448159E-02 -0.52193027368E-01  0.55129618090E-01  0.51100000000E-03 0.  1.
         11    1    4    4    0    0 -0.26230615460E-02 -0.26870386622E-01 -0.69904417177E-01  0.74938553435E-01  0.51100000000E-03 0. -1.
</event>
<event>
 8    1  0.1207611E+005  0.1043930E+01  0.7957747E-01            NaN
         13   -1    0    0    0    0  0.00000000000E+00  0.00000000000E+00  0.74505805969E-08  0.10566000000E+00  0.10566000000E+00 0.  1.
     999900   -1    0    0    0    0 -0.00000000000E+00 -0.00000000000E+00 -0.74505805969E-08  0.93827000000E+00  0.93827000000E+00 0. -1.
     999902    2    1    2    0    0  0.13230245897E-01 -0.16025706626E-01 -0.12726902269E-01  0.10195612347E+01  0.10192699714E+01 0.  0.
     999903    2    3    3    0    0  0.54287361213E-01  0.87449075012E-01 -0.77234579991E-01  0.13020531181E+00  0.19844005868E-01 0.  0.
         14    1    1    2    0    0 -0.13230245897E-01  0.16025706626E-01  0.12726902269E-01  0.24368765268E-01  0.00000000000E+00 0.  1.
     999901    1    3    3    0    0 -0.41057115315E-01 -0.10347478164E+00  0.64507677723E-01  0.88935592292E+00  0.88000000000E+00 0.  1.
        -11    1    4    4    0    0  0.36780015615E-01  0.48443621531E-01 -0.35355144487E-01  0.70354824841E-01  0.51100000000E-03 0. -1.
         11    1    4    4    0    0  0.17507345597E-01  0.39005453480E-01 -0.41879435504E-01  0.59850486967E-01  0.51100000000E-03 0.  1.
</event>
<event>
 8    1  0.1207611E+005  0.1043930E+01  0.7957747E-01            NaN
         13   -1    0    0    0    0  0.00000000000E+00  0.00000000000E+00  0.74505805969E-08  0.10566000000E+00  0.10566000000E+00 0. -1.
     999900   -1    0    0    0    0 -0.00000000000E+00 -0.00000000000E+00 -0.74505805969E-08  0.93827000000E+00  0.93827000000E+00 0.  1.
     999902    2    1    2    0    0 -0.19809567429E-01 -0.17489533124E-01 -0.33123464166E-02  0.10172977945E+01  0.10169491277E+01 0.  0.
     999903    2    3    3    0    0 -0.55384649758E-01 -0.11498756085E+00 -0.21868088408E-01  0.13100452055E+00  0.19858815067E-01 0.  0.
         14    1    1    2    0    0  0.19809567429E-01  0.17489533124E-01  0.33123464166E-02  0.26632205493E-01  0.00000000000E+00 0. -1.
     999901    1    3    3    0    0  0.35575082328E-01  0.97498027727E-01  0.18555741991E-01  0.88629327395E+00  0.88000000000E+00 0.  1.
        -11    1    4    4    0    0 -0.51850666280E-01 -0.90684722547E-01 -0.20085107142E-01  0.10637613993E+00  0.51100000000E-03 0. -1.
         11    1    4    4    0    0 -0.35339834778E-02 -0.24302838304E-01 -0.17829812655E-02  0.24628380622E-01  0.51100000000E-03 0.  1.
</event>
<event>
 8    1  0.1207611E+005  0.1043930E+01  0.7957747E-01            NaN
         13   -1    0    0    0    0  0.00000000000E+00  0.00000000000E+00  0.74505805969E-08  0.10566000000E+00  0.10566000000E+00 0.  1.
     999900   -1    0    0    0    0 -0.00000000000E+00 -0.00000000000E+00 -0.74505805969E-08  0.93827000000E+00  0.93827000000E+00 0. -1.
     999902    2    1    2    0    0 -0.23101356140E-01 -0.47651319030E-02  0.31532322710E-02  0.10201324789E+01  0.10198548683E+01 0.  0.
     999903    2    3    3    0    0 -0.33709882921E-01 -0.50186549837E-01 -0.11452623772E+00  0.13107449219E+00  0.20229122185E-01 0.  0.
         14    1    1    2    0    0  0.23101356140E-01  0.47651319030E-02 -0.31532322710E-02  0.23797521117E-01  0.00000000000E+00 0.  1.
     999901    1    3    3    0    0  0.10608526781E-01  0.45421417934E-01  0.11767946999E+00  0.88905798669E+00  0.88000000000E+00 0.  1.
        -11    1    4    4    0    0 -0.19830720820E-01 -0.43287788579E-01 -0.77897633887E-01  0.91298371368E-01  0.51100000000E-03 0. -1.
         11    1    4    4    0    0 -0.13879162101E-01 -0.68987612579E-02 -0.36628603836E-01  0.39776120820E-01  0.51100000000E-03 0.  1.
</event>
<event>
 8    1  0.1207611E+005  0.1043930E+01  0.7957747E-01            NaN
         13   -1    0    0    0    0  0.00000000000E+00  0.00000000000E+00  0.74505805969E-08  0.10566000000E+00  0.10566000000E+00 0.  1.
     999900   -1    0    0    0    0 -0.00000000000E+00 -0.00000000000E+00 -0.74505805969E-08  0.93827000000E+00  0.93827000000E+00 0. -1.
     999902    2    1    2    0    0 -0.13955563499E-01 -0.16753464917E-01 -0.87346320181E-02  0.10204410635E+01  0.10201706887E+01 0.  0.
     999903    2    3    3    0    0  0.98558952832E-01 -0.77303467268E-01  0.30202953587E-01  0.13036131726E+00  0.19803065369E-01 0.  0.
         14    1    1    2    0    0  0.13955563499E-01  0.16753464917E-01  0.87346320181E-02  0.23488936455E-01  0.00000000000E+00 0. -1.
     999901    1    3    3    0    0 -0.11251451633E+00  0.60550002351E-01 -0.38937585606E-01  0.89007974628E+00  0.88000000000E+00 0.  1.
        -11    1    4    4    0    0  0.50026103740E-01 -0.34715241267E-01  0.51887562096E-02  0.61114182835E-01  0.51100000000E-03 0. -1.
         11    1    4    4    0    0  0.48532849091E-01 -0.42588226001E-01  0.25014197378E-01  0.69247134427E-01  0.51100000000E-03 0.  1.
</event>
<event>
 8    1  0.1207611E+005  0.1043930E+01  0.7957747E-01            NaN
         13   -1    0    0    0    0  0.00000000000E+00  0.00000000000E+00  0.74505805969E-08  0.10566000000E+00  0.10566000000E+00 0. -1.
     999900   -1    0    0    0    0 -0.00000000000E+00 -0.00000000000E+00 -0.74505805969E-08  0.93827000000E+00  0.93827000000E+00 0. -1.
     999902    2    1    2    0    0  0.35006601660E-02  0.66420289105E-02 -0.21975580204E-01  0.10207072247E+01  0.10204430122E+01 0.  0.
     999903    2    3    3    0    0 -0.93339037848E-01 -0.86640761414E-01 -0.21975493319E-01  0.13049398835E+00  0.18082067480E-01 0.  0.
         14    1    1    2    0    0 -0.35006601660E-02 -0.66420289105E-02  0.21975580204E-01  0.23222775350E-01  0.00000000000E+00 0. -1.
     999901    1    3    3    0    0  0.96839698014E-01  0.93282790325E-01 -0.86884836051E-07  0.89021323630E+00  0.88000000000E+00 0.  1.
        -11    1    4    4    0    0 -0.42554926741E-01 -0.31213346254E-01 -0.15665461945E-01  0.55053270504E-01  0.51100000000E-03 0. -1.
         11    1    4    4    0    0 -0.50784111107E-01 -0.55427415161E-01 -0.63100313745E-02  0.75440717847E-01  0.51100000000E-03 0.  1.
</event>
<event>
 8    1  0.1207611E+005  0.1043930E+01  0.7957747E-01            NaN
         13   -1    0    0    0    0  0.00000000000E+00  0.00000000000E+00  0.74505805969E-08  0.10566000000E+00  0.10566000000E+00 0. -1.
     999900   -1    0    0    0    0 -0.00000000000E+00 -0.00000000000E+00 -0.74505805969E-08  0.93827000000E+00  0.93827000000E+00 0. -1.
     999902    2    1    2    0    0 -0.20737877812E-02 -0.18811832826E-01 -0.13110116385E-01  0.10209069506E+01  0.10206473147E+01 0.  0.
     999903    2    3    3    0    0  0.18903578192E-01 -0.12716811112E+00  0.28164981992E-01  0.13305292735E+00  0.19512598809E-01 0.  0.
         14    1    1    2    0    0  0.20737877812E-02  0.18811832826E-01  0.13110116385E-01  0.23023049356E-01  0.00000000000E+00 0. -1.
     999901    1    3    3    0    0 -0.20977365974E-01  0.10835627829E+00 -0.41275098377E-01  0.88785402329E+00  0.88000000000E+00 0.  1.
        -11    1    4    4    0    0 -0.54093548610E-03 -0.41114491630E-01  0.26201935338E-02  0.41204618289E-01  0.51100000000E-03 0. -1.
         11    1    4    4    0    0  0.19444513679E-01 -0.86053619489E-01  0.25544788459E-01  0.91848309063E-01  0.51100000000E-03 0.  1.
</event>
<event>
 8    1  0.1207611E+005  0.1043930E+01  0.7957747E-01            NaN
         13   -1    0    0    0    0  0.00000000000E+00  0.00000000000E+00  0.74505805969E-08  0.10566000000E+00  0.10566000000E+00 0. -1.
     999900   -1    0    0    0    0 -0.00000000000E+00 -0.00000000000E+00 -0.74505805969E-08  0.93827000000E+00  0.93827000000E+00 0. -1.
     999902    2    1    2    0    0 -0.15679097609E-01  0.14270897278E-01 -0.90081129050E-02  0.10208944034E+01  0.10206344812E+01 0.  0.
     999903    2    3    3    0    0  0.74150402200E-01  0.94829401643E-01  0.47936400678E-01  0.13083727646E+00  0.18154802064E-01 0.  0.
         14    1    1    2    0    0  0.15679097609E-01 -0.14270897278E-01  0.90081129050E-02  0.23035596564E-01  0.00000000000E+00 0.  1.
     999901    1    3    3    0    0 -0.89829499809E-01 -0.80558504365E-01 -0.56944513583E-01  0.89005712698E+00  0.88000000000E+00 0. -1.
        -11    1    4    4    0    0  0.35198553419E-01  0.57988811002E-01  0.31208918890E-01  0.74671936519E-01  0.51100000000E-03 0.  1.
         11    1    4    4    0    0  0.38951848781E-01  0.36840590641E-01  0.16727481788E-01  0.56165339937E-01  0.51100000000E-03 0. -1.
</event>
<event>
 8    1  0.1207611E+005  0.1043930E+01  0.7957747E-01            NaN
         13   -1    0    0    0    0  0.00000000000E+00  0.00000000000E+00  0.74505805969E-08  0.10566000000E+00  0.10566000000E+00 0. -1.
     999900   -1    0    0    0    0 -0.00000000000E+00 -0.00000000000E+00 -0.74505805969E-08  0.93827000000E+00  0.93827000000E+00 0.  1.
     999902    2    1    2    0    0 -0.25449150902E-02 -0.24394404065E-01  0.13399036021E-03  0.10194028417E+01  0.10191077333E+01 0.  0.
     999903    2    3    3    0    0  0.86026337062E-01 -0.25697000644E-01  0.91978102558E-01  0.13019988148E+00  0.20764664113E-01 0.  0.
         14    1    1    2    0    0  0.25449150902E-02  0.24394404065E-01 -0.13399036021E-03  0.24527158334E-01  0.00000000000E+00 0. -1.
     999901    1    3    3    0    0 -0.88571252153E-01  0.13025965788E-02 -0.91844112198E-01  0.88920296019E+00  0.88000000000E+00 0.  1.
        -11    1    4    4    0    0  0.36264314995E-01 -0.97354893145E-02  0.53220584140E-01  0.65135028913E-01  0.51100000000E-03 0.  1.
         11    1    4    4    0    0  0.49762022068E-01 -0.15961511329E-01  0.38757518418E-01  0.65064852564E-01  0.51100000000E-03 0. -1.
</event>
<event>
 8    1  0.1207611E+005  0.1043930E+01  0.7957747E-01            NaN
         13   -1    0    0    0    0  0.00000000000E+00  0.00000000000E+00  0.74505805969E-08  0.10566000000E+00  0.10566000000E+00 0. -1.
     999900   -1    0    0    0    0 -0.00000000000E+00 -0.00000000000E+00 -0.74505805969E-08  0.93827000000E+00  0.93827000000E+00 0.  1.
     999902    2    1    2    0    0  0.35812774185E-02 -0.22766703055E-01 -0.10506252549E-01  0.10186015642E+01  0.10182866085E+01 0.  0.
     999903    2    3    3    0    0  0.78652396963E-01  0.64328879318E-01 -0.76400114223E-01  0.12867835717E+00  0.19918280252E-01 0.  0.
         14    1    1    2    0    0 -0.35812774185E-02  0.22766703055E-01  0.10506252549E-01  0.25328435770E-01  0.00000000000E+00 0.  1.
     999901    1    3    3    0    0 -0.75071119544E-01 -0.87095582373E-01  0.65893861674E-01  0.88992320706E+00  0.88000000000E+00 0. -1.
        -11    1    4    4    0    0  0.11226110889E-01  0.13708838510E-01 -0.22351951750E-01  0.28527682819E-01  0.51100000000E-03 0.  1.
         11    1    4    4    0    0  0.67426286074E-01  0.50620040808E-01 -0.54048162473E-01  0.10015067435E+00  0.51100000000E-03 0. -1.
</event>
<event>
 8    1  0.1207611E+005  0.1043930E+01  0.7957747E-01            NaN
         13   -1    0    0    0    0  0.00000000000E+00  0.00000000000E+00  0.74505805969E-08  0.10566000000E+00  0.10566000000E+00 0. -1.
     999900   -1    0    0    0    0 -0.00000000000E+00 -0.00000000000E+00 -0.74505805969E-08  0.93827000000E+00  0.93827000000E+00 0.  1.
     999902    2    1    2    0    0  0.83209261776E-02 -0.17496205063E-01  0.14782292560E-01  0.10195605278E+01  0.10192692473E+01 0.  0.
     999903    2    3    3    0    0  0.67564276025E-01 -0.70998816558E-02 -0.10784105666E+00  0.12902454094E+00  0.20057391373E-01 0.  0.
         14    1    1    2    0    0 -0.83209261776E-02  0.17496205063E-01 -0.14782292560E-01  0.24369472243E-01  0.00000000000E+00 0.  1.
     999901    1    3    3    0    0 -0.59243349847E-01 -0.10396323407E-01  0.12262334922E+00  0.89053598682E+00  0.88000000000E+00 0. -1.
        -11    1    4    4    0    0  0.33364915453E-01 -0.16063418648E-02 -0.35105195312E-01  0.48460641517E-01  0.51100000000E-03 0. -1.
         11    1    4    4    0    0  0.34199360572E-01 -0.54935397909E-02 -0.72735861350E-01  0.80563899423E-01  0.51100000000E-03 0.  1.
</event>
<event>
 8    1  0.1207611E+005  0.1043930E+01  0.7957747E-01            NaN
         13   -1    0    0    0    0  0.00000000000E+00  0.00000000000E+00  0.74505805969E-08  0.10566000000E+00  0.10566000000E+00 0.  1.
     999900   -1    0    0    0    0 -0.00000000000E+00 -0.00000000000E+00 -0.74505805969E-08  0.93827000000E+00  0.93827000000E+00 0. -1.
     999902    2    1    2    0    0  0.15934228738E-01 -0.81320570181E-02  0.25723464784E-01  0.10125974827E+01  0.10121126101E+01 0.  0.
     999903    2    3    3    0    0 -0.63997223017E-01  0.74072814078E-01 -0.67001212563E-01  0.12032816040E+00  0.20181113984E-01 0.  0.
         14    1    1    2    0    0 -0.15934228738E-01  0.81320570181E-02 -0.25723464784E-01  0.31332517251E-01  0.00000000000E+00 0. -1.
     999901    1    3    3    0    0  0.79931451755E-01 -0.82204871096E-01  0.92724677347E-01  0.89226932235E+00  0.88000000000E+00 0.  1.
        -11    1    4    4    0    0 -0.47177633492E-01  0.55549359646E-01 -0.38592579569E-01  0.82468835191E-01  0.51100000000E-03 0. -1.
         11    1    4    4    0    0 -0.16819589525E-01  0.18523454432E-01 -0.28408632994E-01  0.37859325212E-01  0.51100000000E-03 0.  1.
</event>
<event>
 8    1  0.1207611E+005  0.1043930E+01  0.7957747E-01            NaN
         13   -1    0    0    0    0  0.00000000000E+00  0.00000000000E+00  0.74505805969E-08  0.10566000000E+00  0.10566000000E+00 0.  1.
     999900   -1    0    0    0    0 -0.00000000000E+00 -0.00000000000E+00 -0.74505805969E-08  0.93827000000E+00  0.93827000000E+00 0. -1.
     999902    2    1    2    0    0 -0.27659711316E-02 -0.11133398190E-01 -0.20222318228E-01  0.10206803698E+01  0.10204155388E+01 0.  0.
     999903    2    3    3    0    0 -0.71977243401E-01  0.70377313242E-01 -0.83009604089E-01  0.13198669951E+00  0.19904891091E-01 0.  0.
         14    1    1    2    0    0  0.27659711316E-02  0.11133398190E-01  0.20222318228E-01  0.23249630235E-01  0.00000000000E+00 0.  1.
     999901    1    3    3    0    0  0.69211272269E-01 -0.81510711432E-01  0.62787285861E-01  0.88869367026E+00  0.88000000000E+00 0.  1.
        -11    1    4    4    0    0 -0.41359274663E-01  0.27132973838E-01 -0.43752991192E-01  0.66040693737E-01  0.51100000000E-03 0.  1.
         11    1    4    4    0    0 -0.30617968737E-01  0.43244339404E-01 -0.39256612898E-01  0.65946005772E-01  0.51100000000E-03 0. -1.
</event>
<event>
 8    1  0.1207611E+005  0.1043930E+01  0.7957747E-01            NaN
         13   -1    0    0    0    0  0.00000000000E+00  0.00000000000E+00  0.74505805969E-08  0.10566000000E+00  0.10566000000E+00 0. -1.
     999900   -1    0    0    0    0 -0.00000000000E+00 -0.00000000000E+00 -0.74505805969E-08  0.93827000000E+00  0.93827000000E+00 0. -1.
     999902    2    1    2    0    0 -0.15624939224E-01  0.16587248916E-01  0.75974674720E-02  0.10199092368E+01  0.10196263307E+01 0.  0.
     999903    2    3    3    0    0  0.47761528889E-01  0.19462755154E-02 -0.11769953477E+00  0.12865644371E+00  0.20355549421E-01 0.  0.
         14    1    1    2    0    0  0.15624939224E-01 -0.16587248916E-01 -0.75974674720E-02  0.24020763192E-01  0.00000000000E+00 0.  1.
     999901    1    3    3    0    0 -0.63386468113E-01  0.14640973401E-01  0.12529700224E+00  0.89125279310E+00  0.88000000000E+00 0.  1.
        -11    1    4    4    0    0  0.17785794420E-01 -0.63678358049E-02 -0.28585876442E-01  0.34268021083E-01  0.51100000000E-03 0.  1.
         11    1    4    4    0    0  0.29975734470E-01  0.83141113203E-02 -0.89113658326E-01  0.94388422623E-01  0.51100000000E-03 0. -1.
</event>
<event>
 8    1  0.1207611E+005  0.1043930E+01  0.7957747E-01            NaN
         13   -1    0    0    0    0  0.00000000000E+00  0.00000000000E+00  0.74505805969E-08  0.10566000000E+00  0.10566000000E+00 0. -1.
     999900   -1    0    0    0    0 -0.00000000000E+00 -0.00000000000E+00 -0.74505805969E-08  0.93827000000E+00  0.93827000000E+00 0. -1.
     999902    2    1    2    0    0 -0.29622891015E-02  0.23206274241E-01 -0.11191864764E-02  0.10205086657E+01  0.10202398629E+01 0.  0.
     999903    2    3    3    0    0 -0.11714855453E+00 -0.35691310547E-01  0.39572136093E-01  0.13024847205E+00  0.20026408579E-01 0.  0.
         14    1    1    2    0    0  0.29622891015E-02 -0.23206274241E-01  0.11191864764E-02  0.23421334275E-01  0.00000000000E+00 0.  1.
     999901    1    3    3    0    0  0.11418626543E+00  0.58897584788E-01 -0.40691322570E-01  0.89026019367E+00  0.88000000000E+00 0. -1.
        -11    1    4    4    0    0 -0.57142145613E-01 -0.19556638909E-01  0.29783304760E-01  0.67342358840E-01  0.51100000000E-03 0. -1.
         11    1    4    4    0    0 -0.60006408914E-01 -0.16134671638E-01  0.97888313338E-02  0.62906113212E-01  0.51100000000E-03 0.  1.
</event>
<event>
 8    1  0.1207611E+005  0.1043930E+01  0.7957747E-01            NaN
         13   -1    0    0    0    0  0.00000000000E+00  0.00000000000E+00  0.74505805969E-08  0.10566000000E+00  0.10566000000E+00 0.  1.
     999900   -1    0    0    0    0 -0.00000000000E+00 -0.00000000000E+00 -0.74505805969E-08  0.93827000000E+00  0.93827000000E+00 0. -1.
     999902    2    1    2    0    0 -0.12625278952E-01 -0.19221118341E-01 -0.58241063937E-02  0.10202072414E+01  0.10199313929E+01 0.  0.
     999903    2    3    3    0    0  0.65832763637E-01 -0.65750876327E-01 -0.90691521960E-01  0.13143102604E+00  0.19799796554E-01 0.  0.
         14    1    1    2    0    0  0.12625278952E-01  0.19221118341E-01  0.58241063937E-02  0.23722758570E-01  0.00000000000E+00 0.  1.
     999901    1    3    3    0    0 -0.78458042589E-01  0.46529757986E-01  0.84867415566E-01  0.88877621539E+00  0.88000000000E+00 0.  1.
        -11    1    4    4    0    0  0.22091170712E-01 -0.15361976691E-01 -0.37173386094E-01  0.45892612760E-01  0.51100000000E-03 0. -1.
         11    1    4    4    0    0  0.43741592925E-01 -0.50388899636E-01 -0.53518135866E-01  0.85538413276E-01  0.51100000000E-03 0.  1.
</event>
<event>
 8    1  0.1207611E+005  0.1043930E+01  0.7957747E-01            NaN
         13   -1    0    0    0    0  0.00000000000E+00  0.00000000000E+00  0.74505805969E-08  0.10566000000E+00  0.10566000000E+00 0.  1.
     999900   -1    0    0    0    0 -0.00000000000E+00 -0.00000000000E+00 -0.74505805969E-08  0.93827000000E+00  0.93827000000E+00 0. -1.
     999902    2    1    2    0    0 -0.92136676374E-02  0.35716752325E-02 -0.21767093094E-01  0.10200248776E+01  0.10197447210E+01 0.  0.
     999903    2    3    3    0    0  0.71435976630E-01 -0.10306371952E+00  0.21776592833E-01  0.12886185934E+00  0.20147698586E-01 0.  0.
         14    1    1    2    0    0  0.92136676374E-02 -0.35716752325E-02  0.21767093094E-01  0.23905122402E-01  0.00000000000E+00 0.  1.
     999901    1    3    3    0    0 -0.80649644268E-01  0.10663539475E+00 -0.43543685926E-01  0.89116301826E+00  0.88000000000E+00 0. -1.
        -11    1    4    4    0    0  0.55756905826E-01 -0.65056021651E-01  0.11244433435E-01  0.86416531431E-01  0.51100000000E-03 0.  1.
         11    1    4    4    0    0  0.15679070804E-01 -0.38007697866E-01  0.10532159397E-01  0.42445327905E-01  0.51100000000E-03 0. -1.
</event>
<event>
 8    1  0.1207611E+005  0.1043930E+01  0.7957747E-01            NaN
         13   -1    0    0    0    0  0.00000000000E+00  0.00000000000E+00  0.74505805969E-08  0.10566000000E+00  0.10566000000E+00 0. -1.
     999900   -1    0    0    0    0 -0.00000000000E+00 -0.00000000000E+00 -0.74505805969E-08  0.93827000000E+00  0.93827000000E+00 0. -1.
     999902    2    1    2    0    0  0.32440624820E-02  0.13009367666E-01 -0.16100767940E-01  0.10229776179E+01  0.10227630245E+01 0.  0.
     999903    2    3    3    0    0 -0.11369953274E+00  0.39963775418E-01 -0.54855482693E-01  0.13398702598E+00  0.20462454877E-01 0.  0.
         14    1    1    2    0    0 -0.32440624820E-02 -0.13009367666E-01  0.16100767940E-01  0.20952382125E-01  0.00000000000E+00 0.  1.
     999901    1    3    3    0    0  0.11694359522E+00 -0.26954407752E-01  0.38754714754E-01  0.88899059189E+00  0.88000000000E+00 0.  1.
        -11    1    4    4    0    0 -0.96082665116E-02  0.15520749026E-02 -0.10958106964E-01  0.14665229323E-01  0.51100000000E-03 0.  1.
         11    1    4    4    0    0 -0.10409126623E+00  0.38411700516E-01 -0.43897375729E-01  0.11932179666E+00  0.51100000000E-03 0. -1.
</event>
<event>
 8    1  0.1207611E+005  0.1043930E+01  0.7957747E-01            NaN
         13   -1    0    0    0    0  0.00000000000E+00  0.00000000000E+00  0.74505805969E-08  0.10566000000E+00  0.10566000000E+00 0. -1.
     999900   -1    0    0    0    0 -0.00000000000E+00 -0.00000000000E+00 -0.74505805969E-08  0.93827000000E+00  0.93827000000E+00 0. -1.
     999902    2    1    2    0    0  0.14894723444E-01  0.37828001373E-02 -0.22301795153E-01  0.10168461962E+01  0.10164854422E+01 0.  0.
     999903    2    3    3    0    0 -0.40606095593E-01 -0.40429952721E-01 -0.11398907929E+00  0.12924174231E+00  0.20651432877E-01 0.  0.
         14    1    1    2    0    0 -0.14894723444E-01 -0.37828001373E-02  0.22301795153E-01  0.27083803839E-01  0.00000000000E+00 0. -1.
     999901    1    3    3    0    0  0.55500819037E-01  0.44212752858E-01  0.91687284140E-01  0.88760445385E+00  0.88000000000E+00 0.  1.
        -11    1    4    4    0    0 -0.40574410952E-02 -0.11596338970E-01 -0.39787627796E-01  0.41644379602E-01  0.51100000000E-03 0.  1.
         11    1    4    4    0    0 -0.36548654498E-01 -0.28833613751E-01 -0.74201451497E-01  0.87597362705E-01  0.51100000000E-03 0. -1.
</event>
<event>
 8    1  0.1207611E+005  0.1043930E+01  0.7957747E-01            NaN
         13   -1    0    0    0    0  0.00000000000E+00  0.00000000000E+00  0.74505805969E-08  0.10566000000E+00  0.10566000000E+00 0.  1.
     999900   -1    0    0    0    0 -0.00000000000E+00 -0.00000000000E+00 -0.74505805969E-08  0.93827000000E+00  0.93827000000E+00 0.  1.
     999902    2    1    2    0    0 -0.17178834930E-01 -0.12769587458E-01 -0.11546408461E-01  0.10196093445E+01  0.10193192440E+01 0.  0.
     999903    2    3    3    0    0  0.53846902055E-01  0.43793474711E-01 -0.10748054672E+00  0.12975126923E+00  0.21586260839E-01 0.  0.
         14    1    1    2    0    0  0.17178834930E-01  0.12769587458E-01  0.11546408461E-01  0.24320655455E-01  0.00000000000E+00 0.  1.
     999901    1    3    3    0    0 -0.71025736985E-01 -0.56563062169E-01  0.95934138255E-01  0.88985807531E+00  0.88000000000E+00 0. -1.
        -11    1    4    4    0    0  0.41446001544E-01  0.24106683829E-01 -0.59430628857E-01  0.76362058751E-01  0.51100000000E-03 0.  1.
         11    1    4    4    0    0  0.12400900511E-01  0.19686790881E-01 -0.48049917859E-01  0.53389210482E-01  0.51100000000E-03 0. -1.
</event>
<event>
 8    1  0.1207611E+005  0.1043930E+01  0.7957747E-01            NaN
         13   -1    0    0    0    0  0.00000000000E+00  0.00000000000E+00  0.74505805969E-08  0.10566000000E+00  0.10566000000E+00 0.  1.
     999900   -1    0    0    0    0 -0.00000000000E+00 -0.00000000000E+00 -0.74505805969E-08  0.93827000000E+00  0.93827000000E+00 0. -1.
     999902    2    1    2    0    0 -0.13273895371E-01 -0.10076060843E-01 -0.17813218206E-01  0.10195366804E+01  0.10192448227E+01 0.  0.
     999903    2    3    3    0    0 -0.12897451422E+00  0.12945202549E-01 -0.12068212412E-01  0.13164613707E+00  0.19571920376E-01 0.  0.
         14    1    1    2    0    0  0.13273895371E-01  0.10076060843E-01  0.17813218206E-01  0.24393319644E-01  0.00000000000E+00 0.  1.
     999901    1    3    3    0    0  0.11570061885E+00 -0.23021263392E-01 -0.57450057931E-02  0.88789054329E+00  0.88000000000E+00 0. -1.
        -11    1    4    4    0    0 -0.10437621583E+00  0.17386154243E-01 -0.13101780125E-01  0.10662359285E+00  0.51100000000E-03 0. -1.
         11    1    4    4    0    0 -0.24598298391E-01 -0.44409516947E-02  0.10335677122E-02  0.25022544213E-01  0.51100000000E-03 0.  1.
</event>
<event>
 8    1  0.1207611E+005  0.1043930E+01  0.7957747E-01            NaN
         13   -1    0    0    0    0  0.00000000000E+00  0.00000000000E+00  0.74505805969E-08  0.10566000000E+00  0.10566000000E+00 0. -1.
     999900   -1    0    0    0    0 -0.00000000000E+00 -0.00000000000E+00 -0.74505805969E-08  0.93827000000E+00  0.93827000000E+00 0. -1.
     999902    2    1    2    0    0 -0.15325760735E-01 -0.40452760605E-02 -0.18355257323E-01  0.10196780172E+01  0.10193895722E+01 0.  0.
     999903    2    3    3    0    0 -0.15361642516E-01  0.12645501380E+00  0.12110648223E-01  0.12953280521E+00  0.20130306730E-01 0.  0.
         14    1    1    2    0    0  0.15325760735E-01  0.40452760605E-02  0.18355257323E-01  0.24251982845E-01  0.00000000000E+00 0. -1.
     999901    1    3    3    0    0  0.35881781009E-04 -0.13050028986E+00 -0.30465905545E-01  0.89014521194E+00  0.88000000000E+00 0.  1.
        -11    1    4    4    0    0 -0.19718007533E-01  0.89628993047E-01  0.10991609630E-01  0.92429610077E-01  0.51100000000E-03 0.  1.
         11    1    4    4    0    0  0.43563650169E-02  0.36826020757E-01  0.11190385925E-02  0.37103195136E-01  0.51100000000E-03 0. -1.
</event>
<event>
 8    1  0.1207611E+005  0.1043930E+01  0.7957747E-01            NaN
         13   -1    0    0    0    0  0.00000000000E+00  0.00000000000E+00  0.74505805969E-08  0.10566000000E+00  0.10566000000E+00 0. -1.
     999900   -1    0    0    0    0 -0.00000000000E+00 -0.00000000000E+00 -0.74505805969E-08  0.93827000000E+00  0.93827000000E+00 0. -1.
     999902    2    1    2    0    0 -0.98702559536E-02 -0.14165239639E-01  0.15819661849E-01  0.10205133891E+01  0.10202446959E+01 0.  0.
     999903    2    3    3    0    0  0.75245338311E-01 -0.10574254509E+00 -0.86274143688E-03  0.13151993024E+00  0.21293213638E-01 0.  0.
         14    1    1    2    0    0  0.98702559536E-02  0.14165239639E-01 -0.15819661849E-01  0.23416610934E-01  0.00000000000E+00 0.  1.
     999901    1    3    3    0    0 -0.85115594265E-01  0.91577305453E-01  0.16682403286E-01  0.88899345883E+00  0.88000000000E+00 0. -1.
        -11    1    4    4    0    0  0.52236326634E-01 -0.81323343760E-01  0.74732694356E-02  0.96944473476E-01  0.51100000000E-03 0. -1.
         11    1    4    4    0    0  0.23009011677E-01 -0.24419201331E-01 -0.83360108725E-02  0.34575456761E-01  0.51100000000E-03 0.  1.
</event>
<event>
 8    1  0.1207611E+005  0.1043930E+01  0.7957747E-01            NaN
         13   -1    0    0    0    0  0.00000000000E+00  0.00000000000E+00  0.74505805969E-08  0.10566000000E+00  0.10566000000E+00 0.  1.
     999900   -1    0    0    0    0 -0.00000000000E+00 -0.00000000000E+00 -0.74505805969E-08  0.93827000000E+00  0.93827000000E+00 0. -1.
     999902    2    1    2    0    0  0.11825132064E-01  0.28054877721E-01  0.40186458683E-02  0.10132207273E+01  0.10127552433E+01 0.  0.
     999903    2    3    3    0    0 -0.56252558694E-01 -0.85564563374E-01 -0.61145852779E-01  0.12092573058E+00  0.19964271558E-01 0.  0.
         14    1    1    2    0    0 -0.11825132064E-01 -0.28054877721E-01 -0.40186458683E-02  0.30709272653E-01  0.00000000000E+00 0. -1.
     999901    1    3    3    0    0  0.68077690758E-01  0.11361944109E+00  0.65164498648E-01  0.89229499677E+00  0.88000000000E+00 0. -1.
        -11    1    4    4    0    0 -0.15022018038E-02 -0.24383052090E-02 -0.70745360269E-02  0.76493217704E-02  0.51100000000E-03 0.  1.
         11    1    4    4    0    0 -0.54750356891E-01 -0.83126258165E-01 -0.54071316752E-01  0.11327640881E+00  0.51100000000E-03 0. -1.
</event>
<event>
 8    1  0.1207611E+005  0.1043930E+01  0.7957747E-01            NaN
         13   -1    0    0    0    0  0.00000000000E+00  0.00000000000E+00  0.74505805969E-08  0.10566000000E+00  0.10566000000E+00 0. -1.
     999900   -1    0    0    0    0 -0.00000000000E+00 -0.00000000000E+00 -0.74505805969E-08  0.93827000000E+00  0.93827000000E+00 0. -1.
     999902    2    1    2    0    0 -0.19206053627E-01 -0.58503095239E-03  0.13093301581E-01  0.10206781333E+01  0.10204132509E+01 0.  0.
     999903    2    3    3    0    0 -0.12778581963E-01 -0.12640778944E+00 -0.24063323430E-01  0.13092912731E+00  0.20522462176E-01 0.  0.
         14    1    1    2    0    0  0.19206053627E-01  0.58503095239E-03 -0.13093301581E-01  0.23251866666E-01  0.00000000000E+00 0.  1.
     999901    1    3    3    0    0 -0.64274716642E-02  0.12582275849E+00  0.37156625011E-01  0.88974900603E+00  0.88000000000E+00 0. -1.
        -11    1    4    4    0    0  0.19475151109E-02 -0.64745400664E-01 -0.18059104111E-01  0.67246948514E-01  0.51100000000E-03 0.  1.
         11    1    4    4    0    0 -0.14726097074E-01 -0.61662388779E-01 -0.60042193186E-02  0.63682178791E-01  0.51100000000E-03 0. -1.
</event>
<event>
 8    1  0.1207611E+005  0.1043930E+01  0.7957747E-01            NaN
         13   -1    0    0    0    0  0.00000000000E+00  0.00000000000E+00  0.74505805969E-08  0.10566000000E+00  0.10566000000E+00 0. -1.
     999900   -1    0    0    0    0 -0.00000000000E+00 -0.00000000000E+00 -0.74505805969E-08  0.93827000000E+00  0.93827000000E+00 0. -1.
     999902    2    1    2    0    0  0.67517367306E-02  0.14360623772E-01  0.16830112003E-01  0.10207985034E+01  0.10205363876E+01 0.  0.
     999903    2    3    3    0    0 -0.65339055220E-01  0.87419011654E-01 -0.68872974732E-01  0.13069759375E+00  0.20666364639E-01 0.  0.
         14    1    1    2    0    0 -0.67517367306E-02 -0.14360623772E-01 -0.16830112003E-01  0.23131496580E-01  0.00000000000E+00 0.  1.
     999901    1    3    3    0    0  0.72090791950E-01 -0.73058387882E-01  0.85703086735E-01  0.89010090967E+00  0.88000000000E+00 0.  1.
        -11    1    4    4    0    0 -0.32281840151E-01  0.45141750688E-01 -0.22930245529E-01  0.60049580679E-01  0.51100000000E-03 0. -1.
         11    1    4    4    0    0 -0.33057215069E-01  0.42277260966E-01 -0.45942729203E-01  0.70648013069E-01  0.51100000000E-03 0.  1.
</event>
<event>
 8    1  0.1207611E+005  0.1043930E+01  0.7957747E-01            NaN
         13   -1    0    0    0    0  0.00000000000E+00  0.00000000000E+00  0.74505805969E-08  0.10566000000E+00  0.10566000000E+00 0.  1.
     999900   -1    0    0    0    0 -0.00000000000E+00 -0.00000000000E+00 -0.74505805969E-08  0.93827000000E+00  0.93827000000E+00 0. -1.
     999902    2    1    2    0    0  0.16044611403E-01 -0.18902976177E-01 -0.36505028007E-02  0.10188685109E+01  0.10185602409E+01 0.  0.
     999903    2    3    3    0    0  0.12566115933E+00  0.89557697140E-02  0.29809988102E-01  0.13099943176E+00  0.20032048253E-01 0.  0.
         14    1    1    2    0    0 -0.16044611403E-01  0.18902976177E-01  0.36505028007E-02  0.25061489064E-01  0.00000000000E+00 0. -1.
     999901    1    3    3    0    0 -0.10961654792E+00 -0.27858745891E-01 -0.33460490903E-01  0.88786907917E+00  0.88000000000E+00 0. -1.
        -11    1    4    4    0    0  0.50086996651E-01 -0.60391042550E-02  0.13782350148E-01  0.52300978101E-01  0.51100000000E-03 0.  1.
         11    1    4    4    0    0  0.75574162675E-01  0.14994873969E-01  0.16027637954E-01  0.78698453661E-01  0.51100000000E-03 0. -1.
</event>
<event>
 7    1  0.1692566E+005  0.1043930E+01  0.7957747E-01            NaN
         13   -1    0    0    0    0  0.00000000000E+00  0.00000000000E+00  0.74505805969E-08  0.10566000000E+00  0.10566000000E+00 0.  1.
     999900   -1    0    0    0    0 -0.00000000000E+00 -0.00000000000E+00 -0.74505805969E-08  0.93827000000E+00  0.93827000000E+00 0. -1.
     999903    2    1    2    0    0  0.62532438359E-01  0.63925035477E-01 -0.43676749028E-02  0.91731128624E-01  0.19970161912E-01 0.  0.
         14    1    1    2    0    0  0.48666151889E-01  0.34597738492E-01  0.19529484875E-02  0.59742881218E-01  0.00000000000E+00 0.  1.
     999901    1    1    2    0    0 -0.11119859025E+00 -0.98522773970E-01  0.24147264153E-02  0.89245599016E+00  0.88000000000E+00 0. -1.
        -11    1    3    3    0    0  0.41778228555E-01  0.54880769272E-01 -0.28041529003E-02  0.69032192574E-01  0.51100000000E-03 0. -1.
         11    1    3    3    0    0  0.20754209804E-01  0.90442662057E-02 -0.15635220025E-02  0.22698936051E-01  0.51100000000E-03 0.  1.
</event>
<event>
 8    1  0.1207611E+005  0.1043930E+01  0.7957747E-01            NaN
         13   -1    0    0    0    0  0.00000000000E+00  0.00000000000E+00  0.74505805969E-08  0.10566000000E+00  0.10566000000E+00 0. -1.
     999900   -1    0    0    0    0 -0.00000000000E+00 -0.00000000000E+00 -0.74505805969E-08  0.93827000000E+00  0.93827000000E+00 0.  1.
     999902    2    1    2    0    0  0.11427727013E-01 -0.18873163454E-01  0.32412734643E-02  0.10216298857E+01  0.10213864735E+01 0.  0.
     999903    2    3    3    0    0  0.66583981062E-01  0.79209030442E-01 -0.79036598453E-01  0.13065739606E+00  0.10820083723E-01 0.  0.
         14    1    1    2    0    0 -0.11427727013E-01  0.18873163454E-01 -0.32412734643E-02  0.22300114285E-01  0.00000000000E+00 0.  1.
     999901    1    3    3    0    0 -0.55156254049E-01 -0.98082193897E-01  0.82277871917E-01  0.89097248966E+00  0.88000000000E+00 0. -1.
        -11    1    4    4    0    0  0.59369011195E-01  0.74993766041E-01 -0.73344293501E-01  0.12053377512E+00  0.51100000000E-03 0. -1.
         11    1    4    4    0    0  0.72149698663E-02  0.42152644015E-02 -0.56923049522E-02  0.10123620934E-01  0.51100000000E-03 0.  1.
</event>
<event>
 8    1  0.1207611E+005  0.1043930E+01  0.7957747E-01            NaN
         13   -1    0    0    0    0  0.00000000000E+00  0.00000000000E+00  0.74505805969E-08  0.10566000000E+00  0.10566000000E+00 0. -1.
     999900   -1    0    0    0    0 -0.00000000000E+00 -0.00000000000E+00 -0.74505805969E-08  0.93827000000E+00  0.93827000000E+00 0.  1.
     999902    2    1    2    0    0 -0.92684746823E-02 -0.20156771805E-01 -0.58579318044E-02  0.10209840758E+01  0.10207261962E+01 0.  0.
     999903    2    3    3    0    0  0.12171824969E+00 -0.23376220428E-01  0.35107893783E-01  0.13034044017E+00  0.19856639930E-01 0.  0.
         14    1    1    2    0    0  0.92684746823E-02  0.20156771805E-01  0.58579318044E-02  0.22945924204E-01  0.00000000000E+00 0. -1.
     999901    1    3    3    0    0 -0.13098672437E+00  0.32194486226E-02 -0.40965825588E-01  0.89064363562E+00  0.88000000000E+00 0.  1.
        -11    1    4    4    0    0  0.89286708773E-01 -0.24664643680E-01  0.21210636646E-01  0.95029538772E-01  0.51100000000E-03 0.  1.
         11    1    4    4    0    0  0.32431540917E-01  0.12884232521E-02  0.13897257137E-01  0.35310901400E-01  0.51100000000E-03 0. -1.
</event>
<event>
 8    1  0.1207611E+005  0.1043930E+01  0.7957747E-01            NaN
         13   -1    0    0    0    0  0.00000000000E+00  0.00000000000E+00  0.74505805969E-08  0.10566000000E+00  0.10566000000E+00 0.  1.
     999900   -1    0    0    0    0 -0.00000000000E+00 -0.00000000000E+00 -0.74505805969E-08  0.93827000000E+00  0.93827000000E+00 0.  1.
     999902    2    1    2    0    0  0.11704161834E-01 -0.57964024160E-02 -0.18531991076E-01  0.10212579825E+01  0.10210062911E+01 0.  0.
     999903    2    3    3    0    0  0.30491219512E-01 -0.12150058859E+00 -0.40811481803E-01  0.13320573855E+00  0.19649026459E-01 0.  0.
         14    1    1    2    0    0 -0.11704161834E-01  0.57964024160E-02  0.18531991076E-01  0.22672017520E-01  0.00000000000E+00 0.  1.
     999901    1    3    3    0    0 -0.18787057678E-01  0.11570418618E+00  0.22279490727E-01  0.88805224393E+00  0.88000000000E+00 0. -1.
        -11    1    4    4    0    0  0.23113474953E-01 -0.52255303515E-01 -0.19559528984E-01  0.60396074085E-01  0.51100000000E-03 0.  1.
         11    1    4    4    0    0  0.73777445593E-02 -0.69245285079E-01 -0.21251952819E-01  0.72809664468E-01  0.51100000000E-03 0. -1.
</event>
<event>
 8    1  0.1207611E+005  0.1043930E+01  0.7957747E-01            NaN
         13   -1    0    0    0    0  0.00000000000E+00  0.00000000000E+00  0.74505805969E-08  0.10566000000E+00  0.10566000000E+00 0. -1.
     999900   -1    0    0    0    0 -0.00000000000E+00 -0.00000000000E+00 -0.74505805969E-08  0.93827000000E+00  0.93827000000E+00 0. -1.
     999902    2    1    2    0    0  0.20426679601E-01  0.54831359030E-02  0.89216359678E-02  0.10209754883E+01  0.10207174134E+01 0.  0.
     999903    2    3    3    0    0 -0.41289265663E-02  0.11572546975E+00 -0.55853061714E-01  0.13139574965E+00  0.27126484108E-01 0.  0.
         14    1    1    2    0    0 -0.20426679601E-01 -0.54831359030E-02 -0.89216359678E-02  0.22954511696E-01  0.00000000000E+00 0.  1.
     999901    1    3    3    0    0  0.24555606168E-01 -0.11024233384E+00  0.64774697681E-01  0.88957973866E+00  0.88000000000E+00 0.  1.
        -11    1    4    4    0    0 -0.15553220014E-01  0.76730557115E-01 -0.36250904280E-01  0.86277866397E-01  0.51100000000E-03 0.  1.
         11    1    4    4    0    0  0.11424293448E-01  0.38994912633E-01 -0.19602157433E-01  0.45117883251E-01  0.51100000000E-03 0. -1.
</event>
<event>
 8    1  0.1207611E+005  0.1043930E+01  0.7957747E-01            NaN
         13   -1    0    0    0    0  0.00000000000E+00  0.00000000000E+00  0.74505805969E-08  0.10566000000E+00  0.10566000000E+00 0. -1.
     999900   -1    0    0    0    0 -0.00000000000E+00 -0.00000000000E+00 -0.74505805969E-08  0.93827000000E+00  0.93827000000E+00 0.  1.
     999902    2    1    2    0    0 -0.99671054403E-02 -0.14032653937E-01 -0.16805966858E-01  0.10198738347E+01  0.10195900841E+01 0.  0.
     999903    2    3    3    0    0  0.40868271315E-01  0.12023549850E+00  0.53310674466E-02  0.12796452283E+00  0.14822554564E-01 0.  0.
         14    1    1    2    0    0  0.99671054403E-02  0.14032653937E-01  0.16805966858E-01  0.24056165309E-01  0.00000000000E+00 0. -1.
     999901    1    3    3    0    0 -0.50835376755E-01 -0.13426815244E+00 -0.22137034304E-01  0.89190931186E+00  0.88000000000E+00 0.  1.
        -11    1    4    4    0    0  0.22905983175E-01  0.72917037325E-01 -0.38243208821E-02  0.76527543726E-01  0.51100000000E-03 0.  1.
         11    1    4    4    0    0  0.17962288139E-01  0.47318461177E-01  0.91553883287E-02  0.51436979108E-01  0.51100000000E-03 0. -1.
</event>
<event>
 7    1  0.1207611E+005  0.1043930E+01  0.7957747E-01            NaN
         13   -1    0    0    0    0  0.00000000000E+00  0.00000000000E+00  0.74505805969E-08  0.10566000000E+00  0.10566000000E+00 0.  1.
     999900   -1    0    0    0    0 -0.00000000000E+00 -0.00000000000E+00 -0.74505805969E-08  0.93827000000E+00  0.93827000000E+00 0.  1.
     999902    2    1    2    0    0 -0.28829864739E-02 -0.22939984214E-01  0.19756058129E-02  0.10207253129E+01  0.10204615166E+01 0.  0.
         14    1    1    2    0    0  0.28829864739E-02  0.22939984214E-01 -0.19756058129E-02  0.23204687136E-01  0.00000000000E+00 0.  1.
     999901    1    3    3    0    0  0.92992791341E-01  0.41853888079E-01 -0.17789814580E-01  0.88606765243E+00  0.88000000000E+00 0.  1.
        -11    1    3    3    0    0 -0.36275470298E-01  0.88189136524E-02  0.13617421650E-01  0.39741392486E-01  0.51100000000E-03 0. -1.
         11    1    3    3    0    0 -0.59600307517E-01 -0.73612785945E-01  0.61479987431E-02  0.94916267944E-01  0.51100000000E-03 0.  1.
</event>
<event>
 8    1  0.1207611E+005  0.1043930E+01  0.7957747E-01            NaN
         13   -1    0    0    0    0  0.00000000000E+00  0.00000000000E+00  0.74505805969E-08  0.10566000000E+00  0.10566000000E+00 0.  1.
     999900   -1    0    0    0    0 -0.00000000000E+00 -0.00000000000E+00 -0.74505805969E-08  0.93827000000E+00  0.93827000000E+00 0. -1.
     999902    2    1    2    0    0 -0.56903844332E-03  0.65872051871E-02  0.22797945780E-01  0.10201926579E+01  0.10199164661E+01 0.  0.
     999903    2    3    3    0    0  0.12264443279E-01  0.12730774808E+00 -0.18820487559E-01  0.13088380172E+00  0.20461659530E-01 0.  0.
         14    1    1    2    0    0  0.56903844332E-03 -0.65872051871E-02 -0.22797945780E-01  0.23737342073E-01  0.00000000000E+00 0. -1.
     999901    1    3    3    0    0 -0.12833481723E-01 -0.12072054289E+00  0.41618433338E-01  0.88930885620E+00  0.88000000000E+00 0.  1.
        -11    1    4    4    0    0  0.89533801678E-02  0.36015191220E-01  0.20665430686E-02  0.37172419027E-01  0.51100000000E-03 0.  1.
         11    1    4    4    0    0  0.33110631115E-02  0.91292556862E-01 -0.20887030627E-01  0.93711382696E-01  0.51100000000E-03 0. -1.
</event>
<event>
 8    1  0.1207611E+005  0.1043930E+01  0.7957747E-01            NaN
         13   -1    0    0    0    0  0.00000000000E+00  0.00000000000E+00  0.74505805969E-08  0.10566000000E+00  0.10566000000E+00 0. -1.
     999900   -1    0    0    0    0 -0.00000000000E+00 -0.00000000000E+00 -0.74505805969E-08  0.93827000000E+00  0.93827000000E+00 0. -1.
     999902    2    1    2    0    0 -0.19982310895E-01 -0.16021821890E-01  0.44567879711E-02  0.10179327985E+01  0.10176007704E+01 0.  0.
     999903    2    3    3    0    0 -0.44462164764E-01  0.10266568354E+00  0.58694054047E-01  0.12797343529E+00  0.20373548690E-01 0.  0.
         14    1    1    2    0    0  0.19982310895E-01  0.16021821890E-01 -0.44567879711E-02  0.25997201472E-01  0.00000000000E+00 0.  1.
     999901    1    3    3    0    0  0.24479853869E-01 -0.11868750543E+00 -0.54237266076E-01  0.88995936324E+00  0.88000000000E+00 0. -1.
        -11    1    4    4    0    0 -0.25304331019E-02  0.18482979995E-01  0.16430004987E-01  0.24864227839E-01  0.51100000000E-03 0.  1.
         11    1    4    4    0    0 -0.41931731662E-01  0.84182703545E-01  0.42264049060E-01  0.10310920745E+00  0.51100000000E-03 0. -1.
</event>
<event>
 8    1  0.1207611E+005  0.1043930E+01  0.7957747E-01            NaN
         13   -1    0    0    0    0  0.00000000000E+00  0.00000000000E+00  0.74505805969E-08  0.10566000000E+00  0.10566000000E+00 0. -1.
     999900   -1    0    0    0    0 -0.00000000000E+00 -0.00000000000E+00 -0.74505805969E-08  0.93827000000E+00  0.93827000000E+00 0. -1.
     999902    2    1    2    0    0 -0.13724939988E-01  0.15570117141E-01  0.93142549891E-02  0.10211801017E+01  0.10209266586E+01 0.  0.
     999903    2    3    3    0    0  0.96463375356E-01  0.54836654709E-01 -0.65379519940E-01  0.13030273316E+00  0.19800988780E-01 0.  0.
         14    1    1    2    0    0  0.13724939988E-01 -0.15570117141E-01 -0.93142549891E-02  0.22749898273E-01  0.00000000000E+00 0. -1.
     999901    1    3    3    0    0 -0.11018831534E+00 -0.39266537568E-01  0.74693774929E-01  0.89087736857E+00  0.88000000000E+00 0. -1.
        -11    1    4    4    0    0  0.40261286015E-01  0.13193254625E-01 -0.19456313783E-01  0.46624482691E-01  0.51100000000E-03 0. -1.
         11    1    4    4    0    0  0.56202089341E-01  0.41643400084E-01 -0.45923206157E-01  0.83678250469E-01  0.51100000000E-03 0.  1.
</event>
<event>
 8    1  0.1207611E+005  0.1043930E+01  0.7957747E-01            NaN
         13   -1    0    0    0    0  0.00000000000E+00  0.00000000000E+00  0.74505805969E-08  0.10566000000E+00  0.10566000000E+00 0. -1.
     999900   -1    0    0    0    0 -0.00000000000E+00 -0.00000000000E+00 -0.74505805969E-08  0.93827000000E+00  0.93827000000E+00 0. -1.
     999902    2    1    2    0    0  0.29855835633E-02  0.54704424787E-03 -0.23827595382E-01  0.10199098570E+01  0.10196269657E+01 0.  0.
     999903    2    3    3    0    0 -0.10744098935E-02  0.12378748841E+00  0.32888181656E-01  0.12950468522E+00  0.19113721667E-01 0.  0.
         14    1    1    2    0    0 -0.29855835633E-02 -0.54704424787E-03  0.23827595382E-01  0.24020142970E-01  0.00000000000E+00 0. -1.
     999901    1    3    3    0    0  0.40599934569E-02 -0.12324044417E+00 -0.56715777038E-01  0.89040517181E+00  0.88000000000E+00 0. -1.
        -11    1    4    4    0    0 -0.62443382292E-02  0.98300007290E-01  0.31666170808E-01  0.10346444166E+00  0.51100000000E-03 0.  1.
         11    1    4    4    0    0  0.51699283357E-02  0.25487481124E-01  0.12220108481E-02  0.26040243558E-01  0.51100000000E-03 0. -1.
</event>
<event>
 8    1  0.1207611E+005  0.1043930E+01  0.7957747E-01            NaN
         13   -1    0    0    0    0  0.00000000000E+00  0.00000000000E+00  0.74505805969E-08  0.10566000000E+00  0.10566000000E+00 0.  1.
     999900   -1    0    0    0    0 -0.00000000000E+00 -0.00000000000E+00 -0.74505805969E-08  0.93827000000E+00  0.93827000000E+00 0.  1.
     999902    2    1    2    0    0  0.94885914275E-02  0.15486911515E-01  0.15451474122E-01  0.10200841230E+01  0.10198053698E+01 0.  0.
     999903    2    3    3    0    0  0.87170120675E-01 -0.63594836043E-01 -0.69003469871E-01  0.12911780474E+00  0.16339998039E-01 0.  0.
         14    1    1    2    0    0 -0.94885914275E-02 -0.15486911515E-01 -0.15451474122E-01  0.23845876962E-01  0.00000000000E+00 0. -1.
     999901    1    3    3    0    0 -0.77681529247E-01  0.79081747557E-01  0.84454943994E-01  0.89096631830E+00  0.88000000000E+00 0. -1.
        -11    1    4    4    0    0  0.18972589667E-01 -0.21245800306E-01 -0.13535657492E-01  0.31540740861E-01  0.51100000000E-03 0. -1.
         11    1    4    4    0    0  0.68197531008E-01 -0.42349035736E-01 -0.55467812380E-01  0.97577063875E-01  0.51100000000E-03 0.  1.
</event>
<event>
 8    1  0.1207611E+005  0.1043930E+01  0.7957747E-01            NaN
         13   -1    0    0    0    0  0.00000000000E+00  0.00000000000E+00  0.74505805969E-08  0.10566000000E+00  0.10566000000E+00 0.  1.
     999900   -1    0    0    0    0 -0.00000000000E+00 -0.00000000000E+00 -0.74505805969E-08  0.93827000000E+00  0.93827000000E+00 0.  1.
     999902    2    1    2    0    0 -0.12124746374E-01  0.32351669013E-02  0.19531188726E-01  0.10207148517E+01  0.10204508147E+01 0.  0.
     999903    2    3    3    0    0 -0.35828114032E-01  0.11724914753E+00 -0.40499983128E-01  0.13101558842E+00  0.22222048138E-01 0.  0.
         14    1    1    2    0    0  0.12124746374E-01 -0.32351669013E-02 -0.19531188726E-01  0.23215148343E-01  0.00000000000E+00 0. -1.
     999901    1    3    3    0    0  0.23703367657E-01 -0.11401398063E+00  0.60031171854E-01  0.88969926324E+00  0.88000000000E+00 0. -1.
        -11    1    4    4    0    0 -0.23755007969E-01  0.10290926528E+00 -0.37191201883E-01  0.11197349643E+00  0.51100000000E-03 0.  1.
         11    1    4    4    0    0 -0.12073106063E-01  0.14339882247E-01 -0.33087812450E-02  0.19042091986E-01  0.51100000000E-03 0. -1.
</event>
<event>
 8    1  0.1207611E+005  0.1043930E+01  0.7957747E-01            NaN
         13   -1    0    0    0    0  0.00000000000E+00  0.00000000000E+00  0.74505805969E-08  0.10566000000E+00  0.10566000000E+00 0.  1.
     999900   -1    0    0    0    0 -0.00000000000E+00 -0.00000000000E+00 -0.74505805969E-08  0.93827000000E+00  0.93827000000E+00 0.  1.
     999902    2    1    2    0    0 -0.12470779660E-01 -0.99648688769E-03  0.20597461738E-01  0.10198308556E+01  0.10195460780E+01 0.  0.
     999903    2    3    3    0    0  0.56597916273E-01 -0.50478059664E-01 -0.10042385551E+00  0.12749399653E+00  0.20455066865E-01 0.  0.
         14    1    1    2    0    0  0.12470779660E-01  0.99648688769E-03 -0.20597461738E-01  0.24099144414E-01  0.00000000000E+00 0. -1.
     999901    1    3    3    0    0 -0.69068695934E-01  0.49481572777E-01  0.12102131725E+00  0.89233685906E+00  0.88000000000E+00 0. -1.
        -11    1    4    4    0    0  0.13470623222E-01 -0.19684144166E-02 -0.18337605799E-01  0.22844282714E-01  0.51100000000E-03 0.  1.
         11    1    4    4    0    0  0.43127293051E-01 -0.48509645248E-01 -0.82086249716E-01  0.10464971381E+00  0.51100000000E-03 0. -1.
</event>
<event>
 8    1  0.1207611E+005  0.1043930E+01  0.7957747E-01            NaN
         13   -1    0    0    0    0  0.00000000000E+00  0.00000000000E+00  0.74505805969E-08  0.10566000000E+00  0.10566000000E+00 0.  1.
     999900   -1    0    0    0    0 -0.00000000000E+00 -0.00000000000E+00 -0.74505805969E-08  0.93827000000E+00  0.93827000000E+00 0.  1.
     999902    2    1    2    0    0 -0.20005231294E-01 -0.95075321848E-02  0.83553997855E-02  0.10202569108E+01  0.10199822297E+01 0.  0.
     999903    2    3    3    0    0  0.50249705076E-02  0.12345079467E+00 -0.31340134549E-01  0.12903294167E+00  0.20048615115E-01 0.  0.
         14    1    1    2    0    0  0.20005231294E-01  0.95075321848E-02 -0.83553997855E-02  0.23673089214E-01  0.00000000000E+00 0. -1.
     999901    1    3    3    0    0 -0.25030201801E-01 -0.13295832686E+00  0.39695534334E-01  0.89122396912E+00  0.88000000000E+00 0. -1.
        -11    1    4    4    0    0 -0.72352112705E-02  0.43998188762E-01 -0.78578205774E-02  0.45279083048E-01  0.51100000000E-03 0. -1.
         11    1    4    4    0    0  0.12260181778E-01  0.79452605912E-01 -0.23482313971E-01  0.83753858621E-01  0.51100000000E-03 0.  1.
</event>
<event>
 8    1  0.1207611E+005  0.1043930E+01  0.7957747E-01            NaN
         13   -1    0    0    0    0  0.00000000000E+00  0.00000000000E+00  0.74505805969E-08  0.10566000000E+00  0.10566000000E+00 0.  1.
     999900   -1    0    0    0    0 -0.00000000000E+00 -0.00000000000E+00 -0.74505805969E-08  0.93827000000E+00  0.93827000000E+00 0.  1.
     999902    2    1    2    0    0  0.82362064517E-02 -0.21894299098E-01 -0.72885309207E-03  0.10205264392E+01  0.10202580490E+01 0.  0.
     999903    2    3    3    0    0  0.88929467258E-01 -0.95296132906E-01  0.21652549837E-01  0.13350887529E+00  0.19130702374E-01 0.  0.
         14    1    1    2    0    0 -0.82362064517E-02  0.21894299098E-01  0.72885309207E-03  0.23403560766E-01  0.00000000000E+00 0.  1.
     999901    1    3    3    0    0 -0.80693260807E-01  0.73401833809E-01 -0.22381402929E-01  0.88701756394E+00  0.88000000000E+00 0.  1.
        -11    1    4    4    0    0  0.26653894183E-01 -0.26218703422E-01 -0.23180347733E-02  0.37463113732E-01  0.51100000000E-03 0. -1.
         11    1    4    4    0    0  0.62275573075E-01 -0.69077429484E-01  0.23970584610E-01  0.96045761559E-01  0.51100000000E-03 0.  1.
</event>
<event>
 8    1  0.1207611E+005  0.1043930E+01  0.7957747E-01            NaN
         13   -1    0    0    0    0  0.00000000000E+00  0.00000000000E+00  0.74505805969E-08  0.10566000000E+00  0.10566000000E+00 0.  1.
     999900   -1    0    0    0    0 -0.00000000000E+00 -0.00000000000E+00 -0.74505805969E-08  0.93827000000E+00  0.93827000000E+00 0. -1.
     999902    2    1    2    0    0  0.19618929131E-01 -0.13243963275E-01  0.14738326750E-02  0.10202133998E+01  0.10199376961E+01 0.  0.
     999903    2    3    3    0    0  0.17910599744E-02 -0.92533205760E-01 -0.91255347941E-01  0.13161713722E+00  0.20734758682E-01 0.  0.
         14    1    1    2    0    0 -0.19618929131E-01  0.13243963275E-01 -0.14738326750E-02  0.23716600225E-01  0.00000000000E+00 0.  1.
     999901    1    3    3    0    0  0.17827869156E-01  0.79289242486E-01  0.92729180616E-01  0.88859626256E+00  0.88000000000E+00 0. -1.
        -11    1    4    4    0    0 -0.40772845741E-03 -0.35631511848E-01 -0.49538646341E-01  0.61025482229E-01  0.51100000000E-03 0.  1.
         11    1    4    4    0    0  0.21987884318E-02 -0.56901693913E-01 -0.41716701600E-01  0.70591654989E-01  0.51100000000E-03 0. -1.
</event>
<event>
 8    1  0.1207611E+005  0.1043930E+01  0.7957747E-01            NaN
         13   -1    0    0    0    0  0.00000000000E+00  0.00000000000E+00  0.74505805969E-08  0.10566000000E+00  0.10566000000E+00 0.  1.
     999900   -1    0    0    0    0 -0.00000000000E+00 -0.00000000000E+00 -0.74505805969E-08  0.93827000000E+00  0.93827000000E+00 0.  1.
     999902    2    1    2    0    0 -0.10282801607E-01  0.24581774409E-01 -0.37654406506E-02  0.10170194410E+01  0.10166633490E+01 0.  0.
     999903    2    3    3    0    0  0.11441423708E+00  0.18648581503E-01  0.47280578762E-01  0.12674406208E+00  0.19753908619E-01 0.  0.
         14    1    1    2    0    0  0.10282801607E-01 -0.24581774409E-01  0.37654406506E-02  0.26910558993E-01  0.00000000000E+00 0.  1.
     999901    1    3    3    0    0 -0.12469703868E+00  0.59331929062E-02 -0.51046019412E-01  0.89027537893E+00  0.88000000000E+00 0.  1.
        -11    1    4    4    0    0  0.31150994110E-01  0.98755317074E-02  0.53931649413E-02  0.33124883541E-01  0.51100000000E-03 0.  1.
         11    1    4    4    0    0  0.83263242966E-01  0.87730497957E-02  0.41887413820E-01  0.93619178534E-01  0.51100000000E-03 0. -1.
</event>
<event>
 8    1  0.1207611E+005  0.1043930E+01  0.7957747E-01            NaN
         13   -1    0    0    0    0  0.00000000000E+00  0.00000000000E+00  0.74505805969E-08  0.10566000000E+00  0.10566000000E+00 0. -1.
     999900   -1    0    0    0    0 -0.00000000000E+00 -0.00000000000E+00 -0.74505805969E-08  0.93827000000E+00  0.93827000000E+00 0. -1.
     999902    2    1    2    0    0 -0.92687426045E-02 -0.16514910416E-02  0.22407571358E-01  0.10196249333E+01  0.10193352090E+01 0.  0.
     999903    2    3    3    0    0 -0.10448659303E+00  0.65006391778E-01  0.42702260760E-01  0.13175017481E+00  0.19782476925E-01 0.  0.
         14    1    1    2    0    0  0.92687426045E-02  0.16514910416E-02 -0.22407571358E-01  0.24305066680E-01  0.00000000000E+00 0.  1.
     999901    1    3    3    0    0  0.95217850427E-01 -0.66657882819E-01 -0.20294689401E-01  0.88787475851E+00  0.88000000000E+00 0.  1.
        -11    1    4    4    0    0 -0.75650643973E-01  0.46648734132E-01  0.21229694461E-01  0.91378801577E-01  0.51100000000E-03 0. -1.
         11    1    4    4    0    0 -0.28835949058E-01  0.18357657646E-01  0.21472566298E-01  0.40371373233E-01  0.51100000000E-03 0.  1.
</event>
<event>
 8    1  0.1207611E+005  0.1043930E+01  0.7957747E-01            NaN
         13   -1    0    0    0    0  0.00000000000E+00  0.00000000000E+00  0.74505805969E-08  0.10566000000E+00  0.10566000000E+00 0.  1.
     999900   -1    0    0    0    0 -0.00000000000E+00 -0.00000000000E+00 -0.74505805969E-08  0.93827000000E+00  0.93827000000E+00 0. -1.
     999902    2    1    2    0    0 -0.30311932067E-02 -0.10519293878E-01  0.19231985690E-01  0.10218005411E+01  0.10215608807E+01 0.  0.
     999903    2    3    3    0    0 -0.54859556550E-01 -0.53963057092E-01  0.10838647141E+00  0.13471426454E+00  0.21879748845E-01 0.  0.
         14    1    1    2    0    0  0.30311932067E-02  0.10519293878E-01 -0.19231985690E-01  0.22129458862E-01  0.00000000000E+00 0. -1.
     999901    1    3    3    0    0  0.51828363344E-01  0.43443763215E-01 -0.89154485720E-01  0.88708627660E+00  0.88000000000E+00 0. -1.
        -11    1    4    4    0    0 -0.18235574131E-01 -0.32160256980E-01  0.43654493225E-01  0.57208340237E-01  0.51100000000E-03 0.  1.
         11    1    4    4    0    0 -0.36623982420E-01 -0.21802800112E-01  0.64731978185E-01  0.77505924301E-01  0.51100000000E-03 0. -1.
</event>
<event>
 8    1  0.1207611E+005  0.1043930E+01  0.7957747E-01            NaN
         13   -1    0    0    0    0  0.00000000000E+00  0.00000000000E+00  0.74505805969E-08  0.10566000000E+00  0.10566000000E+00 0. -1.
     999900   -1    0    0    0    0 -0.00000000000E+00 -0.00000000000E+00 -0.74505805969E-08  0.93827000000E+00  0.93827000000E+00 0. -1.
     999902    2    1    2    0    0  0.16759389720E-01  0.16750197215E-02  0.16420451906E-01  0.10204073710E+01  0.10201362109E+01 0.  0.
     999903    2    3    3    0    0  0.12506394130E+00 -0.26297883965E-01  0.30670536942E-01  0.13321211392E+00  0.21730562484E-01 0.  0.
         14    1    1    2    0    0 -0.16759389720E-01 -0.16750197215E-02 -0.16420451906E-01  0.23522629012E-01  0.00000000000E+00 0.  1.
     999901    1    3    3    0    0 -0.10830455158E+00  0.27972903686E-01 -0.14250085036E-01  0.88719525706E+00  0.88000000000E+00 0. -1.
        -11    1    4    4    0    0  0.10331001855E+00 -0.24781698198E-01  0.17337693900E-01  0.10764733740E+00  0.51100000000E-03 0.  1.
         11    1    4    4    0    0  0.21753922747E-01 -0.15161857672E-02  0.13332843041E-01  0.25564776524E-01  0.51100000000E-03 0. -1.
</event>
<event>
 8    1  0.1207611E+005  0.1043930E+01  0.7957747E-01            NaN
         13   -1    0    0    0    0  0.00000000000E+00  0.00000000000E+00  0.74505805969E-08  0.10566000000E+00  0.10566000000E+00 0. -1.
     999900   -1    0    0    0    0 -0.00000000000E+00 -0.00000000000E+00 -0.74505805969E-08  0.93827000000E+00  0.93827000000E+00 0.  1.
     999902    2    1    2    0    0  0.17991165489E-02 -0.23589250852E-01  0.22533812346E-02  0.10201651667E+01  0.10198883272E+01 0.  0.
     999903    2    3    3    0    0  0.27644192412E-01 -0.12897369599E+00 -0.32440053207E-02  0.13348367342E+00  0.20222558367E-01 0.  0.
         14    1    1    2    0    0 -0.17991165489E-02  0.23589250852E-01 -0.22533812346E-02  0.23764833328E-01  0.00000000000E+00 0. -1.
     999901    1    3    3    0    0 -0.25845075863E-01  0.10538444514E+00  0.54973865552E-02  0.88668149326E+00  0.88000000000E+00 0.  1.
        -11    1    4    4    0    0  0.81817102676E-02 -0.84301664573E-01 -0.30121134640E-02  0.84752846449E-01  0.51100000000E-03 0. -1.
         11    1    4    4    0    0  0.19462482144E-01 -0.44672031416E-01 -0.23189185663E-03  0.48730826967E-01  0.51100000000E-03 0.  1.
</event>
<event>
 8    1  0.1207611E+005  0.1043930E+01  0.7957747E-01            NaN
         13   -1    0    0    0    0  0.00000000000E+00  0.00000000000E+00  0.74505805969E-08  0.10566000000E+00  0.10566000000E+00 0. -1.
     999900   -1    0    0    0    0 -0.00000000000E+00 -0.00000000000E+00 -0.74505805969E-08  0.93827000000E+00  0.93827000000E+00 0. -1.
     999902    2    1    2    0    0 -0.35382911662E-02 -0.76915453498E-02 -0.22313481585E-01  0.10200643168E+01  0.10197850948E+01 0.  0.
     999903    2    3    3    0    0  0.97653791356E-01 -0.78075857177E-01 -0.35085849077E-01  0.13138162748E+00  0.19950258005E-01 0.  0.
         14    1    1    2    0    0  0.35382911662E-02  0.76915453498E-02  0.22313481585E-01  0.23865683202E-01  0.00000000000E+00 0. -1.
     999901    1    3    3    0    0 -0.10119208252E+00  0.70384311828E-01  0.12772367492E-01  0.88868268931E+00  0.88000000000E+00 0.  1.
        -11    1    4    4    0    0  0.36875161154E-01 -0.39205681334E-01 -0.21534739014E-01  0.57973002892E-01  0.51100000000E-03 0. -1.
         11    1    4    4    0    0  0.60778630202E-01 -0.38870175843E-01 -0.13551110063E-01  0.73408624591E-01  0.51100000000E-03 0.  1.
</event>
<event>
 8    1  0.1207611E+005  0.1043930E+01  0.7957747E-01            NaN
         13   -1    0    0    0    0  0.00000000000E+00  0.00000000000E+00  0.74505805969E-08  0.10566000000E+00  0.10566000000E+00 0. -1.
     999900   -1    0    0    0    0 -0.00000000000E+00 -0.00000000000E+00 -0.74505805969E-08  0.93827000000E+00  0.93827000000E+00 0.  1.
     999902    2    1    2    0    0 -0.95668382479E-03 -0.29270328517E-04  0.23833983579E-01  0.10200768058E+01  0.10197978794E+01 0.  0.
     999903    2    3    3    0    0  0.88293713815E-01  0.88443867840E-01  0.35283959036E-01  0.13107498825E+00  0.17821254769E-01 0.  0.
         14    1    1    2    0    0  0.95668382479E-03  0.29270328517E-04 -0.23833983579E-01  0.23853194209E-01  0.00000000000E+00 0.  1.
     999901    1    3    3    0    0 -0.89250397640E-01 -0.88473138168E-01 -0.11449975456E-01  0.88900181754E+00  0.88000000000E+00 0. -1.
        -11    1    4    4    0    0  0.47058759450E-01  0.38818906785E-01  0.24081599439E-01  0.65586728212E-01  0.51100000000E-03 0. -1.
         11    1    4    4    0    0  0.41234954365E-01  0.49624961055E-01  0.11202359596E-01  0.65488260037E-01  0.51100000000E-03 0.  1.
</event>
<event>
 8    1  0.1207611E+005  0.1043930E+01  0.7957747E-01            NaN
         13   -1    0    0    0    0  0.00000000000E+00  0.00000000000E+00  0.74505805969E-08  0.10566000000E+00  0.10566000000E+00 0. -1.
     999900   -1    0    0    0    0 -0.00000000000E+00 -0.00000000000E+00 -0.74505805969E-08  0.93827000000E+00  0.93827000000E+00 0.  1.
     999902    2    1    2    0    0 -0.42132748289E-02  0.20240478787E-01  0.10514407598E-01  0.10207355732E+01  0.10204720129E+01 0.  0.
     999903    2    3    3    0    0 -0.32862056151E-01 -0.64451833846E-01  0.10717154063E+00  0.13094001139E+00  0.20629925892E-01 0.  0.
         14    1    1    2    0    0  0.42132748289E-02 -0.20240478787E-01 -0.10514407598E-01  0.23194426776E-01  0.00000000000E+00 0.  1.
     999901    1    3    3    0    0  0.28648781322E-01  0.84692312633E-01 -0.96657133030E-01  0.88979556183E+00  0.88000000000E+00 0.  1.
        -11    1    4    4    0    0 -0.50395259168E-02 -0.28456316880E-01  0.32443875018E-01  0.43451408942E-01  0.51100000000E-03 0.  1.
         11    1    4    4    0    0 -0.27822530234E-01 -0.35995516966E-01  0.74727665610E-01  0.87488602451E-01  0.51100000000E-03 0. -1.
</event>
<event>
 8    1  0.1207611E+005  0.1043930E+01  0.7957747E-01            NaN
         13   -1    0    0    0    0  0.00000000000E+00  0.00000000000E+00  0.74505805969E-08  0.10566000000E+00  0.10566000000E+00 0.  1.
     999900   -1    0    0    0    0 -0.00000000000E+00 -0.00000000000E+00 -0.74505805969E-08  0.93827000000E+00  0.93827000000E+00 0.  1.
     999902    2    1    2    0    0 -0.60515907488E-02 -0.76567718281E-02 -0.21242628464E-01  0.10205527211E+01  0.10202849403E+01 0.  0.
     999903    2    3    3    0    0 -0.11147645693E+00  0.28553860170E-01  0.57240305660E-01  0.13005556599E+00  0.19891562864E-01 0.  0.
         14    1    1    2    0    0  0.60515907488E-02  0.76567718281E-02  0.21242628464E-01  0.23377278916E-01  0.00000000000E+00 0.  1.
     999901    1    3    3    0    0  0.10542486618E+00 -0.36210631999E-01 -0.78482934125E-01  0.89049715509E+00  0.88000000000E+00 0.  1.
        -11    1    4    4    0    0 -0.61442961115E-01  0.92293732783E-02  0.22175834902E-01  0.65973082210E-01  0.51100000000E-03 0. -1.
         11    1    4    4    0    0 -0.50033495815E-01  0.19324486892E-01  0.35064470759E-01  0.64082483782E-01  0.51100000000E-03 0.  1.
</event>
<event>
 8    1  0.1207611E+005  0.1043930E+01  0.7957747E-01            NaN
         13   -1    0    0    0    0  0.00000000000E+00  0.00000000000E+00  0.74505805969E-08  0.10566000000E+00  0.10566000000E+00 0. -1.
     999900   -1    0    0    0    0 -0.00000000000E+00 -0.00000000000E+00 -0.74505805969E-08  0.93827000000E+00  0.93827000000E+00 0.  1.
     999902    2    1    2    0    0 -0.17109518932E-01 -0.13160884484E-01 -0.97958257338E-02  0.10202255127E+01  0.10199500939E+01 0.  0.
     999903    2    3    3    0    0 -0.70561549015E-01 -0.81601579727E-01  0.73608174490E-01  0.13202650593E+00  0.19367108828E-01 0.  0.
         14    1    1    2    0    0  0.17109518932E-01  0.13160884484E-01  0.97958257338E-02  0.23704487345E-01  0.00000000000E+00 0. -1.
     999901    1    3    3    0    0  0.53452030082E-01  0.68440695243E-01 -0.83404000224E-01  0.88819900672E+00  0.88000000000E+00 0.  1.
        -11    1    4    4    0    0 -0.55891804186E-01 -0.51060200235E-01  0.49939819635E-01  0.90693354383E-01  0.51100000000E-03 0.  1.
         11    1    4    4    0    0 -0.14669744829E-01 -0.30541379492E-01  0.23668354855E-01  0.41333151552E-01  0.51100000000E-03 0. -1.
</event>
<event>
 8    1  0.1207611E+005  0.1043930E+01  0.7957747E-01            NaN
         13   -1    0    0    0    0  0.00000000000E+00  0.00000000000E+00  0.74505805969E-08  0.10566000000E+00  0.10566000000E+00 0.  1.
     999900   -1    0    0    0    0 -0.00000000000E+00 -0.00000000000E+00 -0.74505805969E-08  0.93827000000E+00  0.93827000000E+00 0.  1.
     999902    2    1    2    0    0 -0.20447686584E-01  0.11174773230E-01 -0.55351084761E-02  0.10199796165E+01  0.10196983854E+01 0.  0.
     999903    2    3    3    0    0 -0.69592257404E-01  0.23780336388E-01 -0.10858362195E+00  0.13251520303E+00  0.19007613962E-01 0.  0.
         14    1    1    2    0    0  0.20447686584E-01 -0.11174773230E-01  0.55351084761E-02  0.23950383488E-01  0.00000000000E+00 0.  1.
     999901    1    3    3    0    0  0.49144570820E-01 -0.12605563158E-01  0.10304851348E+00  0.88746441348E+00  0.88000000000E+00 0. -1.
        -11    1    4    4    0    0 -0.26438022176E-01  0.18669412672E-01 -0.50234327442E-01  0.59760059912E-01  0.51100000000E-03 0. -1.
         11    1    4    4    0    0 -0.43154235228E-01  0.51109237158E-02 -0.58349294512E-01  0.72755143120E-01  0.51100000000E-03 0.  1.
</event>
<event>
 8    1  0.1207611E+005  0.1043930E+01  0.7957747E-01            NaN
         13   -1    0    0    0    0  0.00000000000E+00  0.00000000000E+00  0.74505805969E-08  0.10566000000E+00  0.10566000000E+00 0. -1.
     999900   -1    0    0    0    0 -0.00000000000E+00 -0.00000000000E+00 -0.74505805969E-08  0.93827000000E+00  0.93827000000E+00 0.  1.
     999902    2    1    2    0    0  0.68758218990E-02  0.22677694749E-01 -0.44780753973E-03  0.10202286225E+01  0.10199532768E+01 0.  0.
     999903    2    3    3    0    0 -0.11077125627E+00 -0.46867250771E-01  0.40962512141E-01  0.12871746211E+00  0.20577833724E-01 0.  0.
         14    1    1    2    0    0 -0.68758218990E-02 -0.22677694749E-01  0.44780753973E-03  0.23701377545E-01  0.00000000000E+00 0. -1.
     999901    1    3    3    0    0  0.11764707817E+00  0.69544945520E-01 -0.41410319680E-01  0.89151116035E+00  0.88000000000E+00 0. -1.
        -11    1    4    4    0    0 -0.91353481014E-01 -0.42195705226E-01  0.41202946436E-01  0.10873766573E+00  0.51100000000E-03 0.  1.
         11    1    4    4    0    0 -0.19417775253E-01 -0.46715455446E-02 -0.24043429515E-03  0.19979796375E-01  0.51100000000E-03 0. -1.
</event>
<event>
 8    1  0.1207611E+005  0.1043930E+01  0.7957747E-01            NaN
         13   -1    0    0    0    0  0.00000000000E+00  0.00000000000E+00  0.74505805969E-08  0.10566000000E+00  0.10566000000E+00 0. -1.
     999900   -1    0    0    0    0 -0.00000000000E+00 -0.00000000000E+00 -0.74505805969E-08  0.93827000000E+00  0.93827000000E+00 0. -1.
     999902    2    1    2    0    0  0.73305403049E-02 -0.12551873060E-01  0.19212606101E-01  0.10198382883E+01  0.10195536885E+01 0.  0.
     999903    2    3    3    0    0 -0.49059855603E-01 -0.11468382595E+00 -0.34470647679E-01  0.13051680298E+00  0.16945823772E-01 0.  0.
         14    1    1    2    0    0 -0.73305403049E-02  0.12551873060E-01 -0.19212606101E-01  0.24091711679E-01  0.00000000000E+00 0.  1.
     999901    1    3    3    0    0  0.56390395907E-01  0.10213195289E+00  0.53683253780E-01  0.88932148534E+00  0.88000000000E+00 0.  1.
        -11    1    4    4    0    0 -0.41507797332E-01 -0.82044131901E-01 -0.20442824740E-01  0.94192924485E-01  0.51100000000E-03 0. -1.
         11    1    4    4    0    0 -0.75520582706E-02 -0.32639694046E-01 -0.14027822939E-01  0.36323878495E-01  0.51100000000E-03 0.  1.
</event>
<event>
 8    1  0.1207611E+005  0.1043930E+01  0.7957747E-01            NaN
         13   -1    0    0    0    0  0.00000000000E+00  0.00000000000E+00  0.74505805969E-08  0.10566000000E+00  0.10566000000E+00 0. -1.
     999900   -1    0    0    0    0 -0.00000000000E+00 -0.00000000000E+00 -0.74505805969E-08  0.93827000000E+00  0.93827000000E+00 0.  1.
     999902    2    1    2    0    0  0.10980736006E-01 -0.21756808200E-01  0.44201391709E-03  0.10195552048E+01  0.10192637956E+01 0.  0.
     999903    2    3    3    0    0  0.12089414967E+00  0.44839138697E-01  0.36759224636E-03  0.13022063095E+00  0.18202577198E-01 0.  0.
         14    1    1    2    0    0 -0.10980736006E-01  0.21756808200E-01 -0.44201391709E-03  0.24374795232E-01  0.00000000000E+00 0. -1.
     999901    1    3    3    0    0 -0.10991341367E+00 -0.66595946897E-01  0.74421670730E-04  0.88933457382E+00  0.88000000000E+00 0.  1.
        -11    1    4    4    0    0  0.41426330768E-01  0.24715072161E-01 -0.82279932595E-04  0.48241512868E-01  0.51100000000E-03 0. -1.
         11    1    4    4    0    0  0.79467818906E-01  0.20124066536E-01  0.44987217895E-03  0.81979118083E-01  0.51100000000E-03 0.  1.
</event>
<event>
 8    1  0.1207611E+005  0.1043930E+01  0.7957747E-01            NaN
         13   -1    0    0    0    0  0.00000000000E+00  0.00000000000E+00  0.74505805969E-08  0.10566000000E+00  0.10566000000E+00 0.  1.
     999900   -1    0    0    0    0 -0.00000000000E+00 -0.00000000000E+00 -0.74505805969E-08  0.93827000000E+00  0.93827000000E+00 0. -1.
     999902    2    1    2    0    0 -0.50565394471E-02 -0.21826304761E-01  0.67668487720E-02  0.10205260172E+01  0.10202576171E+01 0.  0.
     999903    2    3    3    0    0 -0.67723884041E-01 -0.10263645109E+00  0.48415277456E-01  0.13362575927E+00  0.19774703217E-01 0.  0.
         14    1    1    2    0    0  0.50565394471E-02  0.21826304761E-01 -0.67668487720E-02  0.23403982845E-01  0.00000000000E+00 0.  1.
     999901    1    3    3    0    0  0.62667344594E-01  0.80810146328E-01 -0.41648428684E-01  0.88690025789E+00  0.88000000000E+00 0. -1.
        -11    1    4    4    0    0 -0.66878257735E-01 -0.98343671768E-01  0.49903746474E-01  0.12897606044E+00  0.51100000000E-03 0.  1.
         11    1    4    4    0    0 -0.84562630662E-03 -0.42927793206E-02 -0.14884690180E-02  0.46496988250E-02  0.51100000000E-03 0. -1.
</event>
<event>
 8    1  0.1207611E+005  0.1043930E+01  0.7957747E-01            NaN
         13   -1    0    0    0    0  0.00000000000E+00  0.00000000000E+00  0.74505805969E-08  0.10566000000E+00  0.10566000000E+00 0.  1.
     999900   -1    0    0    0    0 -0.00000000000E+00 -0.00000000000E+00 -0.74505805969E-08  0.93827000000E+00  0.93827000000E+00 0. -1.
     999902    2    1    2    0    0 -0.12894110467E-01 -0.12214203250E-01  0.14201218134E-01  0.10211897396E+01  0.10209365136E+01 0.  0.
     999903    2    3    3    0    0 -0.14954819411E-01  0.66043529632E-01 -0.10829569507E+00  0.12926260525E+00  0.19886405283E-01 0.  0.
         14    1    1    2    0    0  0.12894110467E-01  0.12214203250E-01 -0.14201218134E-01  0.22740260383E-01  0.00000000000E+00 0. -1.
     999901    1    3    3    0    0  0.20607089438E-02 -0.78257732882E-01  0.12249691321E+00  0.89192713437E+00  0.88000000000E+00 0.  1.
        -11    1    4    4    0    0 -0.43029856302E-02  0.33859350237E-01 -0.71484304033E-01  0.79216400624E-01  0.51100000000E-03 0.  1.
         11    1    4    4    0    0 -0.10651833781E-01  0.32184179395E-01 -0.36811391038E-01  0.50046204625E-01  0.51100000000E-03 0. -1.
</event>
<event>
 8    1  0.1207611E+005  0.1043930E+01  0.7957747E-01            NaN
         13   -1    0    0    0    0  0.00000000000E+00  0.00000000000E+00  0.74505805969E-08  0.10566000000E+00  0.10566000000E+00 0. -1.
     999900   -1    0    0    0    0 -0.00000000000E+00 -0.00000000000E+00 -0.74505805969E-08  0.93827000000E+00  0.93827000000E+00 0.  1.
     999902    2    1    2    0    0  0.18851091292E-01  0.74858256143E-02 -0.46016984281E-02  0.10231315179E+01  0.10229200976E+01 0.  0.
     999903    2    3    3    0    0 -0.24174741283E-01 -0.10514251964E+00  0.72610774873E-01  0.13156091923E+00  0.19914399035E-01 0.  0.
         14    1    1    2    0    0 -0.18851091292E-01 -0.74858256143E-02  0.46016984281E-02  0.20798482071E-01  0.00000000000E+00 0. -1.
     999901    1    3    3    0    0  0.43025832575E-01  0.11262834526E+00 -0.77212473301E-01  0.89157059870E+00  0.88000000000E+00 0.  1.
        -11    1    4    4    0    0 -0.11746306227E-01 -0.22881372387E-01  0.24121921412E-01  0.35265579903E-01  0.51100000000E-03 0. -1.
         11    1    4    4    0    0 -0.12428435056E-01 -0.82261147257E-01  0.48488853461E-01  0.96295339331E-01  0.51100000000E-03 0.  1.
</event>
<event>
 8    1  0.1207611E+005  0.1043930E+01  0.7957747E-01            NaN
         13   -1    0    0    0    0  0.00000000000E+00  0.00000000000E+00  0.74505805969E-08  0.10566000000E+00  0.10566000000E+00 0.  1.
     999900   -1    0    0    0    0 -0.00000000000E+00 -0.00000000000E+00 -0.74505805969E-08  0.93827000000E+00  0.93827000000E+00 0. -1.
     999902    2    1    2    0    0  0.11483591953E-01  0.19425864544E-01  0.34577285454E-02  0.10211003486E+01  0.10208451052E+01 0.  0.
     999903    2    3    3    0    0 -0.23912031685E-01 -0.11386145219E-01 -0.12620116176E+00  0.13036264423E+00  0.19137821672E-01 0.  0.
         14    1    1    2    0    0 -0.11483591953E-01 -0.19425864544E-01 -0.34577285454E-02  0.22829651424E-01  0.00000000000E+00 0. -1.
     999901    1    3    3    0    0  0.35395623638E-01  0.30812009763E-01  0.12965889030E+00  0.89073770435E+00  0.88000000000E+00 0.  1.
        -11    1    4    4    0    0 -0.12137648600E-01 -0.15789547233E-01 -0.70692890169E-01  0.73446430525E-01  0.51100000000E-03 0. -1.
         11    1    4    4    0    0 -0.11774383085E-01  0.44034020141E-02 -0.55508271587E-01  0.56916213700E-01  0.51100000000E-03 0.  1.
</event>
<event>
 8    1  0.1207611E+005  0.1043930E+01  0.7957747E-01            NaN
         13   -1    0    0    0    0  0.00000000000E+00  0.00000000000E+00  0.74505805969E-08  0.10566000000E+00  0.10566000000E+00 0.  1.
     999900   -1    0    0    0    0 -0.00000000000E+00 -0.00000000000E+00 -0.74505805969E-08  0.93827000000E+00  0.93827000000E+00 0.  1.
     999902    2    1    2    0    0  0.76025945539E-02  0.66102512875E-02 -0.21962746258E-01  0.10197668651E+01  0.10194805550E+01 0.  0.
     999903    2    3    3    0    0 -0.30225601879E-01  0.97487135409E-01 -0.81699079904E-01  0.13226587349E+00  0.20054751402E-01 0.  0.
         14    1    1    2    0    0 -0.76025945539E-02 -0.66102512875E-02  0.21962746258E-01  0.24163134922E-01  0.00000000000E+00 0.  1.
     999901    1    3    3    0    0  0.37828196433E-01 -0.90876884121E-01  0.59736333645E-01  0.88750099159E+00  0.88000000000E+00 0. -1.
        -11    1    4    4    0    0 -0.44957585373E-02  0.43792473917E-01 -0.40844647246E-01  0.60054466497E-01  0.51100000000E-03 0.  1.
         11    1    4    4    0    0 -0.25729843342E-01  0.53694661492E-01 -0.40854432657E-01  0.72211406993E-01  0.51100000000E-03 0. -1.
</event>
<event>
 8    1  0.1207611E+005  0.1043930E+01  0.7957747E-01            NaN
         13   -1    0    0    0    0  0.00000000000E+00  0.00000000000E+00  0.74505805969E-08  0.10566000000E+00  0.10566000000E+00 0. -1.
     999900   -1    0    0    0    0 -0.00000000000E+00 -0.00000000000E+00 -0.74505805969E-08  0.93827000000E+00  0.93827000000E+00 0.  1.
     999902    2    1    2    0    0 -0.12365079996E-01  0.73747182308E-02 -0.18765891072E-01  0.10202775088E+01  0.10200033111E+01 0.  0.
     999903    2    3    3    0    0  0.58329790710E-01 -0.20525419168E-01 -0.11474914428E+00  0.13180186630E+00  0.19511753687E-01 0.  0.
         14    1    1    2    0    0  0.12365079996E-01 -0.73747182308E-02  0.18765891072E-01  0.23652491201E-01  0.00000000000E+00 0. -1.
     999901    1    3    3    0    0 -0.70694870706E-01  0.27900137399E-01  0.95983253208E-01  0.88847564250E+00  0.88000000000E+00 0.  1.
        -11    1    4    4    0    0  0.48349293997E-01 -0.90748996635E-02 -0.80675399187E-01  0.94492270524E-01  0.51100000000E-03 0. -1.
         11    1    4    4    0    0  0.99804967129E-02 -0.11450519504E-01 -0.34073745093E-01  0.37309595780E-01  0.51100000000E-03 0.  1.
</event>
<event>
 8    1  0.1207611E+005  0.1043930E+01  0.7957747E-01            NaN
         13   -1    0    0    0    0  0.00000000000E+00  0.00000000000E+00  0.74505805969E-08  0.10566000000E+00  0.10566000000E+00 0.  1.
     999900   -1    0    0    0    0 -0.00000000000E+00 -0.00000000000E+00 -0.74505805969E-08  0.93827000000E+00  0.93827000000E+00 0. -1.
     999902    2    1    2    0    0 -0.73164030092E-02  0.13240666680E-01 -0.16888731373E-01  0.10212567943E+01  0.10210050763E+01 0.  0.
     999903    2    3    3    0    0 -0.48564882026E-01 -0.10368749585E+00 -0.60577188975E-01  0.13149148061E+00  0.22600201019E-01 0.  0.
         14    1    1    2    0    0  0.73164030092E-02 -0.13240666680E-01  0.16888731373E-01  0.22673205651E-01  0.00000000000E+00 0.  1.
     999901    1    3    3    0    0  0.41248479017E-01  0.11692816253E+00  0.43688457602E-01  0.88976531374E+00  0.88000000000E+00 0. -1.
        -11    1    4    4    0    0 -0.27518846483E-01 -0.55166800188E-01 -0.19953797672E-01  0.64800292571E-01  0.51100000000E-03 0.  1.
         11    1    4    4    0    0 -0.21046035543E-01 -0.48520695660E-01 -0.40623391303E-01  0.66691188034E-01  0.51100000000E-03 0. -1.
</event>
<event>
 7    1  0.1207611E+005  0.1043930E+01  0.7957747E-01            NaN
         13   -1    0    0    0    0  0.00000000000E+00  0.00000000000E+00  0.74505805969E-08  0.10566000000E+00  0.10566000000E+00 0. -1.
     999900   -1    0    0    0    0 -0.00000000000E+00 -0.00000000000E+00 -0.74505805969E-08  0.93827000000E+00  0.93827000000E+00 0. -1.
     999903    2    1    2    0    0  0.36899423296E-02 -0.23429046512E-01 -0.76318824529E-01  0.82615289988E-01  0.20932923052E-01 0.  0.
         14    1    1    2    0    0 -0.38528306406E-01 -0.48597409173E-01 -0.34163955091E-01  0.70804762553E-01  0.00000000000E+00 0.  1.
     999901    1    1    2    0    0  0.34838364076E-01  0.72026455684E-01  0.11048277962E+00  0.89050994746E+00  0.88000000000E+00 0.  1.
        -11    1    3    3    0    0  0.63584152259E-02 -0.14372139437E-01 -0.19668827919E-01  0.25181575584E-01  0.51100000000E-03 0. -1.
         11    1    3    3    0    0 -0.26684728963E-02 -0.90569070744E-02 -0.56649996610E-01  0.57433714404E-01  0.51100000000E-03 0.  1.
</event>
<event>
 8    1  0.1207611E+005  0.1043930E+01  0.7957747E-01            NaN
         13   -1    0    0    0    0  0.00000000000E+00  0.00000000000E+00  0.74505805969E-08  0.10566000000E+00  0.10566000000E+00 0.  1.
     999900   -1    0    0    0    0 -0.00000000000E+00 -0.00000000000E+00 -0.74505805969E-08  0.93827000000E+00  0.93827000000E+00 0. -1.
     999902    2    1    2    0    0  0.13535635164E-01  0.13412977140E-01  0.12447826732E-01  0.10211688540E+01  0.10209151574E+01 0.  0.
     999903    2    3    3    0    0 -0.54447340107E-01  0.61239140106E-01 -0.98107273814E-01  0.13036502769E+00  0.25598010528E-01 0.  0.
         14    1    1    2    0    0 -0.13535635164E-01 -0.13412977140E-01 -0.12447826732E-01  0.22761145959E-01  0.00000000000E+00 0. -1.
     999901    1    3    3    0    0  0.67982975270E-01 -0.47826162966E-01  0.11055510055E+00  0.89080382635E+00  0.88000000000E+00 0.  1.
        -11    1    4    4    0    0 -0.12646053942E-01  0.15175827370E-01 -0.42745859423E-01  0.47092441384E-01  0.51100000000E-03 0. -1.
         11    1    4    4    0    0 -0.41801286165E-01  0.46063312735E-01 -0.55361414391E-01  0.83272586303E-01  0.51100000000E-03 0.  1.
</event>
<event>
 8    1  0.1207611E+005  0.1043930E+01  0.7957747E-01            NaN
         13   -1    0    0    0    0  0.00000000000E+00  0.00000000000E+00  0.74505805969E-08  0.10566000000E+00  0.10566000000E+00 0.  1.
     999900   -1    0    0    0    0 -0.00000000000E+00 -0.00000000000E+00 -0.74505805969E-08  0.93827000000E+00  0.93827000000E+00 0. -1.
     999902    2    1    2    0    0  0.17621175629E-01  0.12136860108E-01  0.87339565119E-02  0.10208195868E+01  0.10205579540E+01 0.  0.
     999903    2    3    3    0    0  0.14385352801E-01  0.16990617575E-01  0.12827665718E+00  0.13271796713E+00  0.25759242215E-01 0.  0.
         14    1    1    2    0    0 -0.17621175629E-01 -0.12136860108E-01 -0.87339565119E-02  0.23110413242E-01  0.00000000000E+00 0. -1.
     999901    1    3    3    0    0  0.32358228285E-02 -0.48537574673E-02 -0.11954270067E+00  0.88810161963E+00  0.88000000000E+00 0. -1.
        -11    1    4    4    0    0 -0.56117003329E-02 -0.20740993669E-03  0.95030333797E-02  0.11050020992E-01  0.51100000000E-03 0. -1.
         11    1    4    4    0    0  0.19997053134E-01  0.17198027512E-01  0.11877362380E+00  0.12166794613E+00  0.51100000000E-03 0.  1.
</event>
<event>
 8    1  0.1207611E+005  0.1043930E+01  0.7957747E-01            NaN
         13   -1    0    0    0    0  0.00000000000E+00  0.00000000000E+00  0.74505805969E-08  0.10566000000E+00  0.10566000000E+00 0. -1.
     999900   -1    0    0    0    0 -0.00000000000E+00 -0.00000000000E+00 -0.74505805969E-08  0.93827000000E+00  0.93827000000E+00 0.  1.
     999902    2    1    2    0    0 -0.30393089439E-02 -0.38594407144E-02 -0.23605257910E-01  0.10198189884E+01  0.10195339269E+01 0.  0.
     999903    2    3    3    0    0  0.21859250891E-01 -0.12664023690E+00 -0.16806890611E-01  0.13092007397E+00  0.18493721824E-01 0.  0.
         14    1    1    2    0    0  0.30393089439E-02  0.38594407144E-02  0.23605257910E-01  0.24111011644E-01  0.00000000000E+00 0. -1.
     999901    1    3    3    0    0 -0.24898559835E-01  0.12278079618E+00 -0.67983672995E-02  0.88889891438E+00  0.88000000000E+00 0. -1.
        -11    1    4    4    0    0  0.15857439548E-01 -0.40991176419E-01 -0.68245875906E-02  0.44481131393E-01  0.51100000000E-03 0.  1.
         11    1    4    4    0    0  0.60018113429E-02 -0.85649060476E-01 -0.99823030201E-02  0.86438942580E-01  0.51100000000E-03 0. -1.
</event>
<event>
 8    1  0.1207611E+005  0.1043930E+01  0.7957747E-01            NaN
         13   -1    0    0    0    0  0.00000000000E+00  0.00000000000E+00  0.74505805969E-08  0.10566000000E+00  0.10566000000E+00 0.  1.
     999900   -1    0    0    0    0 -0.00000000000E+00 -0.00000000000E+00 -0.74505805969E-08  0.93827000000E+00  0.93827000000E+00 0. -1.
     999902    2    1    2    0    0 -0.39843224172E-02  0.21744235914E-01 -0.50026498836E-02  0.10212647595E+01  0.10210132202E+01 0.  0.
     999903    2    3    3    0    0  0.92158006257E-01 -0.75965144515E-01  0.45119405800E-01  0.12924307208E+00  0.20104964601E-01 0.  0.
         14    1    1    2    0    0  0.39843224172E-02 -0.21744235914E-01  0.50026498836E-02  0.22665240490E-01  0.00000000000E+00 0. -1.
     999901    1    3    3    0    0 -0.96142328674E-01  0.97709380429E-01 -0.50122055684E-01  0.89202168743E+00  0.88000000000E+00 0.  1.
        -11    1    4    4    0    0  0.69742563882E-01 -0.53947099635E-01  0.41995050367E-01  0.97663504710E-01  0.51100000000E-03 0.  1.
         11    1    4    4    0    0  0.22415442375E-01 -0.22018044879E-01  0.31243554325E-02  0.31579567366E-01  0.51100000000E-03 0. -1.
</event>
<event>
 8    1  0.1207611E+005  0.1043930E+01  0.7957747E-01            NaN
         13   -1    0    0    0    0  0.00000000000E+00  0.00000000000E+00  0.74505805969E-08  0.10566000000E+00  0.10566000000E+00 0.  1.
     999900   -1    0    0    0    0 -0.00000000000E+00 -0.00000000000E+00 -0.74505805969E-08  0.93827000000E+00  0.93827000000E+00 0.  1.
     999902    2    1    2    0    0  0.17498560581E-01 -0.67670539233E-03  0.16050668907E-01  0.10201753894E+01  0.10198987909E+01 0.  0.
     999903    2    3    3    0    0  0.93801945720E-01 -0.91528455803E-02 -0.88258084240E-01  0.13069555965E+00  0.20230182306E-01 0.  0.
         14    1    1    2    0    0 -0.17498560581E-01  0.67670539233E-03 -0.16050668907E-01  0.23754610604E-01  0.00000000000E+00 0.  1.
     999901    1    3    3    0    0 -0.76303385139E-01  0.84761401880E-02  0.10430875315E+00  0.88947982974E+00  0.88000000000E+00 0. -1.
        -11    1    4    4    0    0  0.71630885047E-01  0.18091461796E-02 -0.65764438265E-01  0.97259853814E-01  0.51100000000E-03 0. -1.
         11    1    4    4    0    0  0.22171060673E-01 -0.10961991760E-01 -0.22493645975E-01  0.33435705839E-01  0.51100000000E-03 0.  1.
</event>
<event>
 8    1  0.1207611E+005  0.1043930E+01  0.7957747E-01            NaN
         13   -1    0    0    0    0  0.00000000000E+00  0.00000000000E+00  0.74505805969E-08  0.10566000000E+00  0.10566000000E+00 0.  1.
     999900   -1    0    0    0    0 -0.00000000000E+00 -0.00000000000E+00 -0.74505805969E-08  0.93827000000E+00  0.93827000000E+00 0. -1.
     999902    2    1    2    0    0 -0.25511044084E-01  0.71860012959E-03 -0.45206079514E-02  0.10180115577E+01  0.10176815641E+01 0.  0.
     999903    2    3    3    0    0 -0.68159838830E-01 -0.25454558038E-01  0.10548397230E+00  0.12975204516E+00  0.20372203011E-01 0.  0.
         14    1    1    2    0    0  0.25511044084E-01 -0.71860012959E-03  0.45206079514E-02  0.25918442327E-01  0.00000000000E+00 0.  1.
     999901    1    3    3    0    0  0.42648794746E-01  0.26173158167E-01 -0.11000458025E+00  0.88825951252E+00  0.88000000000E+00 0. -1.
        -11    1    4    4    0    0 -0.39061870216E-01 -0.17571810122E-01  0.77832705968E-01  0.88841372429E-01  0.51100000000E-03 0.  1.
         11    1    4    4    0    0 -0.29097968614E-01 -0.78827479156E-02  0.27651266332E-01  0.40910672726E-01  0.51100000000E-03 0. -1.
</event>
<event>
 8    1  0.1207611E+005  0.1043930E+01  0.7957747E-01            NaN
         13   -1    0    0    0    0  0.00000000000E+00  0.00000000000E+00  0.74505805969E-08  0.10566000000E+00  0.10566000000E+00 0. -1.
     999900   -1    0    0    0    0 -0.00000000000E+00 -0.00000000000E+00 -0.74505805969E-08  0.93827000000E+00  0.93827000000E+00 0.  1.
     999902    2    1    2    0    0  0.20682152829E-01 -0.15586832774E-01  0.27086125716E-01  0.10064552217E+01  0.10057573039E+01 0.  0.
     999903    2    3    3    0    0 -0.30738603347E-01 -0.11293880561E+00 -0.71494440651E-02  0.11893419378E+00  0.19854277879E-01 0.  0.
         14    1    1    2    0    0 -0.20682152829E-01  0.15586832774E-01 -0.27086125716E-01  0.37474778290E-01  0.00000000000E+00 0.  1.
     999901    1    3    3    0    0  0.51420756176E-01  0.97351972841E-01  0.34235569781E-01  0.88752102793E+00  0.88000000000E+00 0.  1.
        -11    1    4    4    0    0 -0.20720243175E-01 -0.82447700149E-01  0.35834230625E-02  0.85088505563E-01  0.51100000000E-03 0.  1.
         11    1    4    4    0    0 -0.10018360173E-01 -0.30491105465E-01 -0.10732867128E-01  0.33845688216E-01  0.51100000000E-03 0. -1.
</event>
<event>
 8    1  0.1207611E+005  0.1043930E+01  0.7957747E-01            NaN
         13   -1    0    0    0    0  0.00000000000E+00  0.00000000000E+00  0.74505805969E-08  0.10566000000E+00  0.10566000000E+00 0. -1.
     999900   -1    0    0    0    0 -0.00000000000E+00 -0.00000000000E+00 -0.74505805969E-08  0.93827000000E+00  0.93827000000E+00 0.  1.
     999902    2    1    2    0    0 -0.22910225078E-02 -0.58114388854E-02  0.22838145527E-01  0.10202529542E+01  0.10199781802E+01 0.  0.
     999903    2    3    3    0    0  0.13328219151E-01 -0.16247483255E-01 -0.12436150171E+00  0.12782894743E+00  0.20804676301E-01 0.  0.
         14    1    1    2    0    0  0.22910225078E-02  0.58114388854E-02 -0.22838145527E-01  0.23677045786E-01  0.00000000000E+00 0.  1.
     999901    1    3    3    0    0 -0.15619241659E-01  0.10436044369E-01  0.14719964724E+00  0.89242400678E+00  0.88000000000E+00 0. -1.
        -11    1    4    4    0    0  0.10168562479E-01 -0.21234698938E-01 -0.94988403390E-01  0.97864038346E-01  0.51100000000E-03 0.  1.
         11    1    4    4    0    0  0.31596566718E-02  0.49872156834E-02 -0.29373098321E-01  0.29964909086E-01  0.51100000000E-03 0. -1.
</event>
<event>
 8    1  0.1207611E+005  0.1043930E+01  0.7957747E-01            NaN
         13   -1    0    0    0    0  0.00000000000E+00  0.00000000000E+00  0.74505805969E-08  0.10566000000E+00  0.10566000000E+00 0.  1.
     999900   -1    0    0    0    0 -0.00000000000E+00 -0.00000000000E+00 -0.74505805969E-08  0.93827000000E+00  0.93827000000E+00 0.  1.
     999902    2    1    2    0    0  0.18722113612E-01  0.82137235629E-02 -0.11513194716E-01  0.10204664869E+01  0.10201967038E+01 0.  0.
     999903    2    3    3    0    0 -0.38794820743E-01 -0.12144132286E+00 -0.65824035677E-02  0.12909510445E+00  0.19214186000E-01 0.  0.
         14    1    1    2    0    0 -0.18722113612E-01 -0.82137235629E-02  0.11513194716E-01  0.23463513067E-01  0.00000000000E+00 0. -1.
     999901    1    3    3    0    0  0.57516934354E-01  0.12965504642E+00 -0.49307911486E-02  0.89137138248E+00  0.88000000000E+00 0.  1.
        -11    1    4    4    0    0 -0.48662593587E-02 -0.38661911501E-01 -0.71943961817E-02  0.39628832161E-01  0.51100000000E-03 0. -1.
         11    1    4    4    0    0 -0.33928561384E-01 -0.82779411357E-01  0.61199261402E-03  0.89466272294E-01  0.51100000000E-03 0.  1.
</event>
<event>
 8    1  0.1207611E+005  0.1043930E+01  0.7957747E-01            NaN
         13   -1    0    0    0    0  0.00000000000E+00  0.00000000000E+00  0.74505805969E-08  0.10566000000E+00  0.10566000000E+00 0.  1.
     999900   -1    0    0    0    0 -0.00000000000E+00 -0.00000000000E+00 -0.74505805969E-08  0.93827000000E+00  0.93827000000E+00 0. -1.
     999902    2    1    2    0    0 -0.16564738900E-01 -0.11437568357E-01 -0.13160697709E-01  0.10198797919E+01  0.10195961835E+01 0.  0.
     999903    2    3    3    0    0 -0.58206077531E-01  0.98801985594E-01 -0.60279684350E-01  0.13077520907E+00  0.17853154971E-01 0.  0.
         14    1    1    2    0    0  0.16564738900E-01  0.11437568357E-01  0.13160697709E-01  0.24050208086E-01  0.00000000000E+00 0. -1.
     999901    1    3    3    0    0  0.41641338631E-01 -0.11023955395E+00  0.47118986640E-01  0.88910458285E+00  0.88000000000E+00 0.  1.
        -11    1    4    4    0    0 -0.28189558547E-01  0.61828545202E-01 -0.41208931464E-01  0.79472368571E-01  0.51100000000E-03 0. -1.
         11    1    4    4    0    0 -0.30016518985E-01  0.36973440392E-01 -0.19070752885E-01  0.51302840496E-01  0.51100000000E-03 0.  1.
</event>
<event>
 8    1  0.1207611E+005  0.1043930E+01  0.7957747E-01            NaN
         13   -1    0    0    0    0  0.00000000000E+00  0.00000000000E+00  0.74505805969E-08  0.10566000000E+00  0.10566000000E+00 0.  1.
     999900   -1    0    0    0    0 -0.00000000000E+00 -0.00000000000E+00 -0.74505805969E-08  0.93827000000E+00  0.93827000000E+00 0.  1.
     999902    2    1    2    0    0 -0.11758878963E-01  0.14322935282E-01  0.15293166014E-01  0.10199029603E+01  0.10196199046E+01 0.  0.
     999903    2    3    3    0    0  0.11133869902E+00 -0.59835507010E-01  0.69502501044E-02  0.12820677185E+00  0.20299669255E-01 0.  0.
         14    1    1    2    0    0  0.11758878963E-01 -0.14322935282E-01 -0.15293166014E-01  0.24027039690E-01  0.00000000000E+00 0. -1.
     999901    1    3    3    0    0 -0.12309757799E+00  0.74158442292E-01  0.83429159094E-02  0.89169618846E+00  0.88000000000E+00 0.  1.
        -11    1    4    4    0    0  0.78612258011E-01 -0.37915707238E-01 -0.38372816189E-02  0.87364030448E-01  0.51100000000E-03 0. -1.
         11    1    4    4    0    0  0.32726441014E-01 -0.21919799772E-01  0.10787531723E-01  0.40842741401E-01  0.51100000000E-03 0.  1.
</event>
<event>
 8    1  0.1207611E+005  0.1043930E+01  0.7957747E-01            NaN
         13   -1    0    0    0    0  0.00000000000E+00  0.00000000000E+00  0.74505805969E-08  0.10566000000E+00  0.10566000000E+00 0.  1.
     999900   -1    0    0    0    0 -0.00000000000E+00 -0.00000000000E+00 -0.74505805969E-08  0.93827000000E+00  0.93827000000E+00 0.  1.
     999902    2    1    2    0    0 -0.88445503676E-02 -0.13484228288E-02  0.22304178723E-01  0.10198983396E+01  0.10196151736E+01 0.  0.
     999903    2    3    3    0    0  0.35446552303E-01 -0.10874151261E+00  0.61208792247E-01  0.13141167873E+00  0.21008056122E-01 0.  0.
         14    1    1    2    0    0  0.88445503676E-02  0.13484228288E-02 -0.22304178723E-01  0.24031660447E-01  0.00000000000E+00 0. -1.
     999901    1    3    3    0    0 -0.44291102670E-01  0.10739308979E+00 -0.38904613524E-01  0.88848666082E+00  0.88000000000E+00 0.  1.
        -11    1    4    4    0    0  0.97852993774E-03 -0.16339688039E-01  0.23070789812E-02  0.16538641434E-01  0.51100000000E-03 0.  1.
         11    1    4    4    0    0  0.34468022365E-01 -0.92401824576E-01  0.58901713266E-01  0.11487303729E+00  0.51100000000E-03 0. -1.
</event>
<event>
 8    1  0.1207611E+005  0.1043930E+01  0.7957747E-01            NaN
         13   -1    0    0    0    0  0.00000000000E+00  0.00000000000E+00  0.74505805969E-08  0.10566000000E+00  0.10566000000E+00 0.  1.
     999900   -1    0    0    0    0 -0.00000000000E+00 -0.00000000000E+00 -0.74505805969E-08  0.93827000000E+00  0.93827000000E+00 0. -1.
     999902    2    1    2    0    0 -0.11127249302E-01  0.10239330132E-01 -0.14212019699E-01  0.10231781070E+01  0.10229676425E+01 0.  0.
     999903    2    3    3    0    0  0.10354306751E+00  0.39216488994E-01 -0.71649669687E-01  0.13340957479E+00  0.20133048484E-01 0.  0.
         14    1    1    2    0    0  0.11127249302E-01 -0.10239330132E-01  0.14212019699E-01  0.20751892986E-01  0.00000000000E+00 0.  1.
     999901    1    3    3    0    0 -0.11467031681E+00 -0.28977158862E-01  0.57437649988E-01  0.88976853222E+00  0.88000000000E+00 0.  1.
        -11    1    4    4    0    0  0.60310206165E-01  0.29374418925E-01 -0.52142969213E-01  0.84966627650E-01  0.51100000000E-03 0.  1.
         11    1    4    4    0    0  0.43232861347E-01  0.98420700695E-02 -0.19506700474E-01  0.48442947143E-01  0.51100000000E-03 0. -1.
</event>
<event>
 8    1  0.1207611E+005  0.1043930E+01  0.7957747E-01            NaN
         13   -1    0    0    0    0  0.00000000000E+00  0.00000000000E+00  0.74505805969E-08  0.10566000000E+00  0.10566000000E+00 0. -1.
     999900   -1    0    0    0    0 -0.00000000000E+00 -0.00000000000E+00 -0.74505805969E-08  0.93827000000E+00  0.93827000000E+00 0.  1.
     999902    2    1    2    0    0 -0.76340116825E-02  0.18860710179E-01 -0.12409897543E-01  0.10200970380E+01  0.10198185901E+01 0.  0.
     999903    2    3    3    0    0  0.12007527475E+00  0.46460128726E-01 -0.59387468073E-02  0.13042672512E+00  0.19981159726E-01 0.  0.
         14    1    1    2    0    0  0.76340116825E-02 -0.18860710179E-01  0.12409897543E-01  0.23832962045E-01  0.00000000000E+00 0. -1.
     999901    1    3    3    0    0 -0.12770928644E+00 -0.27599418548E-01 -0.64711507357E-02  0.88967031283E+00  0.88000000000E+00 0. -1.
        -11    1    4    4    0    0  0.40480240385E-02 -0.17247081560E-02  0.11964730050E-02  0.45884404204E-02  0.51100000000E-03 0.  1.
         11    1    4    4    0    0  0.11602725071E+00  0.48184836882E-01 -0.71352198122E-02  0.12583828470E+00  0.51100000000E-03 0. -1.
</event>
<event>
 7    1  0.1525664E+005  0.1043930E+01  0.7957747E-01            NaN
         13   -1    0    0    0    0  0.00000000000E+00  0.00000000000E+00  0.74505805969E-08  0.10566000000E+00  0.10566000000E+00 0.  1.
     999900   -1    0    0    0    0 -0.00000000000E+00 -0.00000000000E+00 -0.74505805969E-08  0.93827000000E+00  0.93827000000E+00 0.  1.
     999903    2    1    2    0    0 -0.12346057676E-01  0.56233670034E-01 -0.82548858423E-01  0.10240790245E+00  0.18931816405E-01 0.  0.
         14    1    1    2    0    0 -0.21423824270E-01  0.35344885597E-02  0.54206462676E-01  0.58393607968E-01  0.00000000000E+00 0.  1.
     999901    1    1    2    0    0  0.33769881946E-01 -0.59768158594E-01  0.28342395747E-01  0.88312848958E+00  0.88000000000E+00 0. -1.
        -11    1    3    3    0    0 -0.14988682197E-01  0.24714744234E-01 -0.37089222125E-01  0.47025000749E-01  0.51100000000E-03 0. -1.
         11    1    3    3    0    0  0.26426245209E-02  0.31518925800E-01 -0.45459636298E-01  0.55382901705E-01  0.51100000000E-03 0.  1.
</event>
<event>
 8    1  0.1207611E+005  0.1043930E+01  0.7957747E-01            NaN
         13   -1    0    0    0    0  0.00000000000E+00  0.00000000000E+00  0.74505805969E-08  0.10566000000E+00  0.10566000000E+00 0.  1.
     999900   -1    0    0    0    0 -0.00000000000E+00 -0.00000000000E+00 -0.74505805969E-08  0.93827000000E+00  0.93827000000E+00 0. -1.
     999902    2    1    2    0    0 -0.58934034313E-02 -0.33624905131E-02  0.22984387072E-01  0.10199650131E+01  0.10196834349E+01 0.  0.
     999903    2    3    3    0    0 -0.53332047740E-01 -0.94772894123E-01 -0.67113771165E-01  0.12938993770E+00  0.20280259415E-01 0.  0.
         14    1    1    2    0    0  0.58934034313E-02  0.33624905131E-02 -0.22984387072E-01  0.23964986867E-01  0.00000000000E+00 0. -1.
     999901    1    3    3    0    0  0.47438644309E-01  0.91410403610E-01  0.90098158237E-01  0.89057507543E+00  0.88000000000E+00 0.  1.
        -11    1    4    4    0    0 -0.25127125573E-01 -0.64557264908E-01 -0.41222234992E-01  0.80613563813E-01  0.51100000000E-03 0. -1.
         11    1    4    4    0    0 -0.28204922168E-01 -0.30215629215E-01 -0.25891536173E-01  0.48776373888E-01  0.51100000000E-03 0.  1.
</event>
<event>
 8    1  0.1207611E+005  0.1043930E+01  0.7957747E-01            NaN
         13   -1    0    0    0    0  0.00000000000E+00  0.00000000000E+00  0.74505805969E-08  0.10566000000E+00  0.10566000000E+00 0. -1.
     999900   -1    0    0    0    0 -0.00000000000E+00 -0.00000000000E+00 -0.74505805969E-08  0.93827000000E+00  0.93827000000E+00 0. -1.
     999902    2    1    2    0    0 -0.11063748746E-01 -0.59282070867E-03  0.20338828163E-01  0.10207691299E+01  0.10205063403E+01 0.  0.
     999903    2    3    3    0    0 -0.74523734224E-01 -0.49341877864E-01 -0.92360459515E-01  0.12998028299E+00  0.19391018836E-01 0.  0.
         14    1    1    2    0    0  0.11063748746E-01  0.59282070867E-03 -0.20338828163E-01  0.23160870099E-01  0.00000000000E+00 0.  1.
     999901    1    3    3    0    0  0.63459985478E-01  0.48749057155E-01  0.11269928768E+00  0.89078884691E+00  0.88000000000E+00 0.  1.
        -11    1    4    4    0    0 -0.21574801753E-01 -0.85303159623E-02 -0.14530675027E-01  0.27379554394E-01  0.51100000000E-03 0.  1.
         11    1    4    4    0    0 -0.52948932471E-01 -0.40811561902E-01 -0.77829784488E-01  0.10260072860E+00  0.51100000000E-03 0. -1.
</event>
<event>
 8    1  0.1207611E+005  0.1043930E+01  0.7957747E-01            NaN
         13   -1    0    0    0    0  0.00000000000E+00  0.00000000000E+00  0.74505805969E-08  0.10566000000E+00  0.10566000000E+00 0. -1.
     999900   -1    0    0    0    0 -0.00000000000E+00 -0.00000000000E+00 -0.74505805969E-08  0.93827000000E+00  0.93827000000E+00 0. -1.
     999902    2    1    2    0    0 -0.17902730778E-01 -0.28005956160E-02 -0.16507361244E-01  0.10194178789E+01  0.10191231367E+01 0.  0.
     999903    2    3    3    0    0  0.95278846175E-02 -0.67813400406E-01  0.10636748574E+00  0.12808330005E+00  0.20046243275E-01 0.  0.
         14    1    1    2    0    0  0.17902730778E-01  0.28005956160E-02  0.16507361244E-01  0.24512121090E-01  0.00000000000E+00 0. -1.
     999901    1    3    3    0    0 -0.27430615395E-01  0.65012804790E-01 -0.12287484698E+00  0.89133457886E+00  0.88000000000E+00 0. -1.
        -11    1    4    4    0    0 -0.53794382454E-02 -0.21217057913E-01  0.25953208744E-01  0.33954853370E-01  0.51100000000E-03 0. -1.
         11    1    4    4    0    0  0.14907322863E-01 -0.46596342493E-01  0.80414276996E-01  0.94128446681E-01  0.51100000000E-03 0.  1.
</event>
<event>
 8    1  0.1207611E+005  0.1043930E+01  0.7957747E-01            NaN
         13   -1    0    0    0    0  0.00000000000E+00  0.00000000000E+00  0.74505805969E-08  0.10566000000E+00  0.10566000000E+00 0. -1.
     999900   -1    0    0    0    0 -0.00000000000E+00 -0.00000000000E+00 -0.74505805969E-08  0.93827000000E+00  0.93827000000E+00 0.  1.
     999902    2    1    2    0    0  0.20293270738E-01 -0.12472520724E-01  0.30811989794E-02  0.10199117903E+01  0.10196289450E+01 0.  0.
     999903    2    3    3    0    0  0.95449441735E-02  0.39802208219E-02 -0.12798051399E+00  0.12998853976E+00  0.20274624339E-01 0.  0.
         14    1    1    2    0    0 -0.20293270738E-01  0.12472520724E-01 -0.30811989794E-02  0.24018209709E-01  0.00000000000E+00 0. -1.
     999901    1    3    3    0    0  0.10748326565E-01 -0.16452741546E-01  0.13106171297E+00  0.88992325053E+00  0.88000000000E+00 0. -1.
        -11    1    4    4    0    0  0.10882292318E-01  0.10824911779E-01 -0.98495521402E-01  0.99685665260E-01  0.51100000000E-03 0. -1.
         11    1    4    4    0    0 -0.13373481440E-02 -0.68446909568E-02 -0.29484992584E-01  0.30302874501E-01  0.51100000000E-03 0.  1.
</event>
<event>
 8    1  0.1207611E+005  0.1043930E+01  0.7957747E-01            NaN
         13   -1    0    0    0    0  0.00000000000E+00  0.00000000000E+00  0.74505805969E-08  0.10566000000E+00  0.10566000000E+00 0.  1.
     999900   -1    0    0    0    0 -0.00000000000E+00 -0.00000000000E+00 -0.74505805969E-08  0.93827000000E+00  0.93827000000E+00 0. -1.
     999902    2    1    2    0    0 -0.89611130711E-02 -0.14416128323E-01  0.22901973505E-01  0.10154233921E+01  0.10150231714E+01 0.  0.
     999903    2    3    3    0    0 -0.87749585495E-01  0.32986259434E-01 -0.79992090510E-01  0.12466989188E+00  0.18861716023E-01 0.  0.
         14    1    1    2    0    0  0.89611130711E-02  0.14416128323E-01 -0.22901973505E-01  0.28506607896E-01  0.00000000000E+00 0. -1.
     999901    1    3    3    0    0  0.78788472424E-01 -0.47402387757E-01  0.10289406401E+00  0.89075350022E+00  0.88000000000E+00 0.  1.
        -11    1    4    4    0    0 -0.12375588085E-01  0.10001643852E-01 -0.75105215379E-02  0.17602758732E-01  0.51100000000E-03 0. -1.
         11    1    4    4    0    0 -0.75373997410E-01  0.22984615582E-01 -0.72481568972E-01  0.10706713315E+00  0.51100000000E-03 0.  1.
</event>
<event>
 8    1  0.1207611E+005  0.1043930E+01  0.7957747E-01            NaN
         13   -1    0    0    0    0  0.00000000000E+00  0.00000000000E+00  0.74505805969E-08  0.10566000000E+00  0.10566000000E+00 0. -1.
     999900   -1    0    0    0    0 -0.00000000000E+00 -0.00000000000E+00 -0.74505805969E-08  0.93827000000E+00  0.93827000000E+00 0.  1.
     999902    2    1    2    0    0 -0.13097364463E-02  0.17118643164E-01  0.18318664792E-01  0.10188234902E+01  0.10185140978E+01 0.  0.
     999903    2    3    3    0    0  0.30070564163E-01 -0.12025950394E+00  0.21250916235E-01  0.12760742402E+00  0.21574663547E-01 0.  0.
         14    1    1    2    0    0  0.13097364463E-02 -0.17118643164E-01 -0.18318664792E-01  0.25106509776E-01  0.00000000000E+00 0.  1.
     999901    1    3    3    0    0 -0.31380300609E-01  0.13737814710E+00 -0.29322514422E-02  0.89121606621E+00  0.88000000000E+00 0.  1.
        -11    1    4    4    0    0  0.74456811799E-02 -0.47354666773E-01 -0.14687998499E-02  0.47961663101E-01  0.51100000000E-03 0. -1.
         11    1    4    4    0    0  0.22624882983E-01 -0.72904837164E-01  0.22719716085E-01  0.79645760916E-01  0.51100000000E-03 0.  1.
</event>
<event>
 8    1  0.1207611E+005  0.1043930E+01  0.7957747E-01            NaN
         13   -1    0    0    0    0  0.00000000000E+00  0.00000000000E+00  0.74505805969E-08  0.10566000000E+00  0.10566000000E+00 0.  1.
     999900   -1    0    0    0    0 -0.00000000000E+00 -0.00000000000E+00 -0.74505805969E-08  0.93827000000E+00  0.93827000000E+00 0. -1.
     999902    2    1    2    0    0  0.46318562500E-02 -0.17719840147E-01 -0.16969527844E-01  0.10189617862E+01  0.10186558349E+01 0.  0.
     999903    2    3    3    0    0  0.11299797009E+00 -0.58919224450E-01 -0.23951833690E-01  0.13133046827E+00  0.20832313953E-01 0.  0.
         14    1    1    2    0    0 -0.46318562500E-02  0.17719840147E-01  0.16969527844E-01  0.24968213841E-01  0.00000000000E+00 0.  1.
     999901    1    3    3    0    0 -0.10836611384E+00  0.41199384303E-01  0.69823058461E-02  0.88763131789E+00  0.88000000000E+00 0.  1.
        -11    1    4    4    0    0  0.42365450543E-01 -0.17602314698E-01  0.64069201155E-03  0.45884033058E-01  0.51100000000E-03 0. -1.
         11    1    4    4    0    0  0.70632519551E-01 -0.41316909752E-01 -0.24592525702E-01  0.85446435215E-01  0.51100000000E-03 0.  1.
</event>
<event>
 8    1  0.1207611E+005  0.1043930E+01  0.7957747E-01            NaN
         13   -1    0    0    0    0  0.00000000000E+00  0.00000000000E+00  0.74505805969E-08  0.10566000000E+00  0.10566000000E+00 0.  1.
     999900   -1    0    0    0    0 -0.00000000000E+00 -0.00000000000E+00 -0.74505805969E-08  0.93827000000E+00  0.93827000000E+00 0. -1.
     999902    2    1    2    0    0  0.12114462647E-01 -0.17751748442E-01 -0.61978055623E-02  0.10215626673E+01  0.10213177692E+01 0.  0.
     999903    2    3    3    0    0 -0.37311179298E-01  0.12196680560E+00  0.43541547779E-03  0.12914563024E+00  0.20257799844E-01 0.  0.
         14    1    1    2    0    0 -0.12114462647E-01  0.17751748442E-01  0.61978055623E-02  0.22367332692E-01  0.00000000000E+00 0. -1.
     999901    1    3    3    0    0  0.49425641945E-01 -0.13971855404E+00 -0.66332210401E-02  0.89241703707E+00  0.88000000000E+00 0.  1.
        -11    1    4    4    0    0 -0.11967579559E-01  0.40805241878E-01 -0.93913407934E-02  0.43551683413E-01  0.51100000000E-03 0.  1.
         11    1    4    4    0    0 -0.25343599740E-01  0.81161563724E-01  0.98267562712E-02  0.85593946828E-01  0.51100000000E-03 0. -1.
</event>
<event>
 8    1  0.1207611E+005  0.1043930E+01  0.7957747E-01            NaN
         13   -1    0    0    0    0  0.00000000000E+00  0.00000000000E+00  0.74505805969E-08  0.10566000000E+00  0.10566000000E+00 0. -1.
     999900   -1    0    0    0    0 -0.00000000000E+00 -0.00000000000E+00 -0.74505805969E-08  0.93827000000E+00  0.93827000000E+00 0.  1.
     999902    2    1    2    0    0 -0.15240583643E-01 -0.68093955976E-02  0.15486248120E-01  0.10211601265E+01  0.10209062331E+01 0.  0.
     999903    2    3    3    0    0  0.65387826372E-01  0.20742342636E-01  0.11082110658E+00  0.13191956624E+00  0.20387292060E-01 0.  0.
         14    1    1    2    0    0  0.15240583643E-01  0.68093955976E-02 -0.15486248120E-01  0.22769873496E-01  0.00000000000E+00 0.  1.
     999901    1    3    3    0    0 -0.80628410015E-01 -0.27551738234E-01 -0.95334858461E-01  0.88924056026E+00  0.88000000000E+00 0.  1.
        -11    1    4    4    0    0  0.22966170262E-01  0.15463243353E-01  0.55300479240E-01  0.61846269061E-01  0.51100000000E-03 0. -1.
         11    1    4    4    0    0  0.42421656110E-01  0.52790992836E-02  0.55520627340E-01  0.70073297179E-01  0.51100000000E-03 0.  1.
</event>
<event>
 8    1  0.1207611E+005  0.1043930E+01  0.7957747E-01            NaN
         13   -1    0    0    0    0  0.00000000000E+00  0.00000000000E+00  0.74505805969E-08  0.10566000000E+00  0.10566000000E+00 0. -1.
     999900   -1    0    0    0    0 -0.00000000000E+00 -0.00000000000E+00 -0.74505805969E-08  0.93827000000E+00  0.93827000000E+00 0.  1.
     999902    2    1    2    0    0 -0.33269711109E-02 -0.23447994446E-01  0.37758130222E-02  0.10199480496E+01  0.10196660679E+01 0.  0.
     999903    2    3    3    0    0 -0.10093317528E+00  0.52717065485E-01 -0.57508411893E-01  0.12917094861E+00  0.20281066573E-01 0.  0.
         14    1    1    2    0    0  0.33269711109E-02  0.23447994446E-01 -0.37758130222E-02  0.23981950386E-01  0.00000000000E+00 0.  1.
     999901    1    3    3    0    0  0.97606204169E-01 -0.76165059931E-01  0.61284224915E-01  0.89077710100E+00  0.88000000000E+00 0. -1.
        -11    1    4    4    0    0 -0.81219018108E-02 -0.65430722641E-03 -0.71605981589E-02  0.10859497869E-01  0.51100000000E-03 0. -1.
         11    1    4    4    0    0 -0.92811273469E-01  0.53371372711E-01 -0.50347813734E-01  0.11831145074E+00  0.51100000000E-03 0.  1.
</event>
<event>
 8    1  0.1207611E+005  0.1043930E+01  0.7957747E-01            NaN
         13   -1    0    0    0    0  0.00000000000E+00  0.00000000000E+00  0.74505805969E-08  0.10566000000E+00  0.10566000000E+00 0. -1.
     999900   -1    0    0    0    0 -0.00000000000E+00 -0.00000000000E+00 -0.74505805969E-08  0.93827000000E+00  0.93827000000E+00 0.  1.
     999902    2    1    2    0    0 -0.21656035740E-01  0.12714406470E-01  0.10654416465E-01  0.10166507660E+01  0.10162847157E+01 0.  0.
     999903    2    3    3    0    0 -0.83892784317E-01  0.94042969572E-01 -0.24783895556E-01  0.13000336034E+00  0.20113498829E-01 0.  0.
         14    1    1    2    0    0  0.21656035740E-01 -0.12714406470E-01 -0.10654416465E-01  0.27279233971E-01  0.00000000000E+00 0. -1.
     999901    1    3    3    0    0  0.62236748578E-01 -0.81328563102E-01  0.35438312021E-01  0.88664740569E+00  0.88000000000E+00 0. -1.
        -11    1    4    4    0    0 -0.38432599692E-01  0.31819780521E-01 -0.16211720010E-01  0.52465647219E-01  0.51100000000E-03 0. -1.
         11    1    4    4    0    0 -0.45460184625E-01  0.62223189051E-01 -0.85721755462E-02  0.77537713124E-01  0.51100000000E-03 0.  1.
</event>
<event>
 8    1  0.1207611E+005  0.1043930E+01  0.7957747E-01            NaN
         13   -1    0    0    0    0  0.00000000000E+00  0.00000000000E+00  0.74505805969E-08  0.10566000000E+00  0.10566000000E+00 0.  1.
     999900   -1    0    0    0    0 -0.00000000000E+00 -0.00000000000E+00 -0.74505805969E-08  0.93827000000E+00  0.93827000000E+00 0.  1.
     999902    2    1    2    0    0 -0.13347056379E-01  0.72931206844E-02  0.17817623426E-01  0.10205034931E+01  0.10202345701E+01 0.  0.
     999903    2    3    3    0    0  0.10037281118E+00 -0.12883240697E-01 -0.76222565983E-01  0.12798859062E+00  0.18180226864E-01 0.  0.
         14    1    1    2    0    0  0.13347056379E-01 -0.72931206844E-02 -0.17817623426E-01  0.23426506949E-01  0.00000000000E+00 0. -1.
     999901    1    3    3    0    0 -0.11371986756E+00  0.20176361381E-01  0.94040189409E-01  0.89251490243E+00  0.88000000000E+00 0. -1.
        -11    1    4    4    0    0  0.50769419628E-01 -0.14777410260E-01 -0.34462700664E-01  0.63117704976E-01  0.51100000000E-03 0. -1.
         11    1    4    4    0    0  0.49603391552E-01  0.18941695636E-02 -0.41759865319E-01  0.64870885645E-01  0.51100000000E-03 0.  1.
</event>
<event>
 8    1  0.1207611E+005  0.1043930E+01  0.7957747E-01            NaN
         13   -1    0    0    0    0  0.00000000000E+00  0.00000000000E+00  0.74505805969E-08  0.10566000000E+00  0.10566000000E+00 0. -1.
     999900   -1    0    0    0    0 -0.00000000000E+00 -0.00000000000E+00 -0.74505805969E-08  0.93827000000E+00  0.93827000000E+00 0. -1.
     999902    2    1    2    0    0  0.37953920024E-04 -0.61584782259E-02  0.23400995447E-01  0.10197321719E+01  0.10194450292E+01 0.  0.
     999903    2    3    3    0    0  0.10918296108E+00 -0.53410834279E-01  0.46593893940E-01  0.13142854802E+00  0.18133837823E-01 0.  0.
         14    1    1    2    0    0 -0.37953920024E-04  0.61584782259E-02 -0.23400995447E-01  0.24197828052E-01  0.00000000000E+00 0.  1.
     999901    1    3    3    0    0 -0.10914500716E+00  0.47252356053E-01 -0.23192898493E-01  0.88830362393E+00  0.88000000000E+00 0. -1.
        -11    1    4    4    0    0  0.44696832461E-01 -0.31419239327E-01  0.23626338613E-01  0.59526804291E-01  0.51100000000E-03 0.  1.
         11    1    4    4    0    0  0.64486128618E-01 -0.21991594952E-01  0.22967555327E-01  0.71901743730E-01  0.51100000000E-03 0. -1.
</event>
<event>
 8    1  0.1207611E+005  0.1043930E+01  0.7957747E-01            NaN
         13   -1    0    0    0    0  0.00000000000E+00  0.00000000000E+00  0.74505805969E-08  0.10566000000E+00  0.10566000000E+00 0. -1.
     999900   -1    0    0    0    0 -0.00000000000E+00 -0.00000000000E+00 -0.74505805969E-08  0.93827000000E+00  0.93827000000E+00 0. -1.
     999902    2    1    2    0    0  0.17745994485E-01  0.13439331983E-01  0.79130786599E-02  0.10203047428E+01  0.10200311835E+01 0.  0.
     999903    2    3    3    0    0  0.18872957476E-01 -0.21898952583E-01  0.12679118432E+00  0.13160790561E+00  0.20220874145E-01 0.  0.
         14    1    1    2    0    0 -0.17745994485E-01 -0.13439331983E-01 -0.79130786599E-02  0.23625257211E-01  0.00000000000E+00 0.  1.
     999901    1    3    3    0    0 -0.11269629910E-02  0.35338284566E-01 -0.11887810566E+00  0.88869683718E+00  0.88000000000E+00 0. -1.
        -11    1    4    4    0    0  0.86182150847E-02 -0.13180028346E-01  0.30017786671E-01  0.33901554774E-01  0.51100000000E-03 0. -1.
         11    1    4    4    0    0  0.10254742392E-01 -0.87189242368E-02  0.96773397646E-01  0.97706350839E-01  0.51100000000E-03 0.  1.
</event>
<event>
 8    1  0.1207611E+005  0.1043930E+01  0.7957747E-01            NaN
         13   -1    0    0    0    0  0.00000000000E+00  0.00000000000E+00  0.74505805969E-08  0.10566000000E+00  0.10566000000E+00 0. -1.
     999900   -1    0    0    0    0 -0.00000000000E+00 -0.00000000000E+00 -0.74505805969E-08  0.93827000000E+00  0.93827000000E+00 0.  1.
     999902    2    1    2    0    0  0.11366912643E-01 -0.15735356424E-01  0.13447722080E-01  0.10203153991E+01  0.10200420895E+01 0.  0.
     999903    2    3    3    0    0 -0.11610575987E+00 -0.52553807795E-01 -0.15187459785E-01  0.12990827077E+00  0.20076097509E-01 0.  0.
         14    1    1    2    0    0 -0.11366912643E-01  0.15735356424E-01 -0.13447722080E-01  0.23614600864E-01  0.00000000000E+00 0. -1.
     999901    1    3    3    0    0  0.12747267251E+00  0.36818451371E-01  0.28635181865E-01  0.89040712836E+00  0.88000000000E+00 0.  1.
        -11    1    4    4    0    0 -0.34804075790E-01 -0.25676467444E-01 -0.23146126697E-02  0.43315392470E-01  0.51100000000E-03 0.  1.
         11    1    4    4    0    0 -0.81301684082E-01 -0.26877340351E-01 -0.12872847115E-01  0.86592878303E-01  0.51100000000E-03 0. -1.
</event>
<event>
 8    1  0.1207611E+005  0.1043930E+01  0.7957747E-01            NaN
         13   -1    0    0    0    0  0.00000000000E+00  0.00000000000E+00  0.74505805969E-08  0.10566000000E+00  0.10566000000E+00 0.  1.
     999900   -1    0    0    0    0 -0.00000000000E+00 -0.00000000000E+00 -0.74505805969E-08  0.93827000000E+00  0.93827000000E+00 0. -1.
     999902    2    1    2    0    0  0.80304503471E-02 -0.19594468258E-01 -0.11380137835E-01  0.10198896411E+01  0.10196062677E+01 0.  0.
     999903    2    3    3    0    0 -0.41652846794E-01  0.11845536604E+00 -0.12383406733E-01  0.12774212341E+00  0.19951640059E-01 0.  0.
         14    1    1    2    0    0 -0.80304503471E-02  0.19594468258E-01  0.11380137835E-01  0.24040358904E-01  0.00000000000E+00 0.  1.
     999901    1    3    3    0    0  0.49683297142E-01 -0.13804983430E+00  0.10032688988E-02  0.89214751769E+00  0.88000000000E+00 0. -1.
        -11    1    4    4    0    0 -0.25149559270E-01  0.95097893119E-01 -0.68415194052E-02  0.98606171794E-01  0.51100000000E-03 0. -1.
         11    1    4    4    0    0 -0.16503287524E-01  0.23357472922E-01 -0.55418873282E-02  0.29135951616E-01  0.51100000000E-03 0.  1.
</event>
<event>
 8    1  0.1207611E+005  0.1043930E+01  0.7957747E-01            NaN
         13   -1    0    0    0    0  0.00000000000E+00  0.00000000000E+00  0.74505805969E-08  0.10566000000E+00  0.10566000000E+00 0. -1.
     999900   -1    0    0    0    0 -0.00000000000E+00 -0.00000000000E+00 -0.74505805969E-08  0.93827000000E+00  0.93827000000E+00 0. -1.
     999902    2    1    2    0    0  0.20890293330E-01  0.62545822393E-02  0.80934284827E-02  0.10206699970E+01  0.10204049270E+01 0.  0.
     999903    2    3    3    0    0 -0.79360710313E-01 -0.15302705129E-01 -0.98024672667E-01  0.12838302985E+00  0.18468101606E-01 0.  0.
         14    1    1    2    0    0 -0.20890293330E-01 -0.62545822393E-02 -0.80934284827E-02  0.23260002988E-01  0.00000000000E+00 0. -1.
     999901    1    3    3    0    0  0.10025100364E+00  0.21557287369E-01  0.10611810115E+00  0.89228696716E+00  0.88000000000E+00 0.  1.
        -11    1    4    4    0    0 -0.63061697392E-01 -0.15401951724E-01 -0.66748300159E-01  0.93110657231E-01  0.51100000000E-03 0.  1.
         11    1    4    4    0    0 -0.16299012921E-01  0.99246594466E-04 -0.31276372508E-01  0.35272372622E-01  0.51100000000E-03 0. -1.
</event>
<event>
 8    1  0.1207611E+005  0.1043930E+01  0.7957747E-01            NaN
         13   -1    0    0    0    0  0.00000000000E+00  0.00000000000E+00  0.74505805969E-08  0.10566000000E+00  0.10566000000E+00 0. -1.
     999900   -1    0    0    0    0 -0.00000000000E+00 -0.00000000000E+00 -0.74505805969E-08  0.93827000000E+00  0.93827000000E+00 0.  1.
     999902    2    1    2    0    0 -0.13110725298E-01  0.20197959938E-02 -0.20160630436E-01  0.10197965851E+01  0.10195109874E+01 0.  0.
     999903    2    3    3    0    0 -0.91165898260E-01 -0.76322855097E-01 -0.54451734519E-01  0.13221218868E+00  0.19459502231E-01 0.  0.
         14    1    1    2    0    0  0.13110725298E-01 -0.20197959938E-02  0.20160630436E-01  0.24133414870E-01  0.00000000000E+00 0. -1.
     999901    1    3    3    0    0  0.78055172961E-01  0.78342651091E-01  0.34291104083E-01  0.88758439645E+00  0.88000000000E+00 0. -1.
        -11    1    4    4    0    0 -0.50640769055E-01 -0.53338701073E-01 -0.28497196827E-01  0.78878741564E-01  0.51100000000E-03 0.  1.
         11    1    4    4    0    0 -0.40525129204E-01 -0.22984154024E-01 -0.25954537692E-01  0.53333447114E-01  0.51100000000E-03 0. -1.
</event>
<event>
 8    1  0.1207611E+005  0.1043930E+01  0.7957747E-01            NaN
         13   -1    0    0    0    0  0.00000000000E+00  0.00000000000E+00  0.74505805969E-08  0.10566000000E+00  0.10566000000E+00 0. -1.
     999900   -1    0    0    0    0 -0.00000000000E+00 -0.00000000000E+00 -0.74505805969E-08  0.93827000000E+00  0.93827000000E+00 0. -1.
     999902    2    1    2    0    0 -0.14765257898E-01  0.10355241133E-01  0.16169561072E-01  0.10197081387E+01  0.10194204185E+01 0.  0.
     999903    2    3    3    0    0 -0.17687167040E-01  0.12137163832E+00 -0.41382983296E-01  0.13086311657E+00  0.19201393353E-01 0.  0.
         14    1    1    2    0    0  0.14765257898E-01 -0.10355241133E-01 -0.16169561072E-01  0.24221861303E-01  0.00000000000E+00 0.  1.
     999901    1    3    3    0    0  0.29219091417E-02 -0.11101639718E+00  0.57552544368E-01  0.88884502213E+00  0.88000000000E+00 0. -1.
        -11    1    4    4    0    0 -0.98054758153E-02  0.84611867411E-01 -0.37484990867E-01  0.93062888006E-01  0.51100000000E-03 0.  1.
         11    1    4    4    0    0 -0.78816912246E-02  0.36759770904E-01 -0.38979924284E-02  0.37800228563E-01  0.51100000000E-03 0. -1.
</event>
<event>
 8    1  0.1207611E+005  0.1043930E+01  0.7957747E-01            NaN
         13   -1    0    0    0    0  0.00000000000E+00  0.00000000000E+00  0.74505805969E-08  0.10566000000E+00  0.10566000000E+00 0.  1.
     999900   -1    0    0    0    0 -0.00000000000E+00 -0.00000000000E+00 -0.74505805969E-08  0.93827000000E+00  0.93827000000E+00 0.  1.
     999902    2    1    2    0    0 -0.58076706947E-02  0.19684076811E-01 -0.10940151730E-01  0.10206731980E+01  0.10204082018E+01 0.  0.
     999903    2    3    3    0    0  0.88724786722E-01  0.65061991275E-02  0.90871486914E-01  0.12967619929E+00  0.25374615718E-01 0.  0.
         14    1    1    2    0    0  0.58076706947E-02 -0.19684076811E-01  0.10940151730E-01  0.23256801987E-01  0.00000000000E+00 0.  1.
     999901    1    3    3    0    0 -0.94532457417E-01  0.13177877683E-01 -0.10181163864E+00  0.89099699872E+00  0.88000000000E+00 0.  1.
        -11    1    4    4    0    0  0.10462210947E-01 -0.28720897155E-02  0.23865033928E-01  0.26220368468E-01  0.51100000000E-03 0. -1.
         11    1    4    4    0    0  0.78262575775E-01  0.93782888430E-02  0.67006452987E-01  0.10345583082E+00  0.51100000000E-03 0.  1.
</event>
<event>
 8    1  0.1207611E+005  0.1043930E+01  0.7957747E-01            NaN
         13   -1    0    0    0    0  0.00000000000E+00  0.00000000000E+00  0.74505805969E-08  0.10566000000E+00  0.10566000000E+00 0. -1.
     999900   -1    0    0    0    0 -0.00000000000E+00 -0.00000000000E+00 -0.74505805969E-08  0.93827000000E+00  0.93827000000E+00 0.  1.
     999902    2    1    2    0    0 -0.47918719901E-02  0.19650843500E-01  0.28755800948E-02  0.10234999572E+01  0.10232960353E+01 0.  0.
     999903    2    3    3    0    0 -0.89536792913E-01 -0.94513868006E-01  0.10197573189E-01  0.13205792625E+00  0.19636620307E-01 0.  0.
         14    1    1    2    0    0  0.47918719901E-02 -0.19650843500E-01 -0.28755800948E-02  0.20430042788E-01  0.00000000000E+00 0. -1.
     999901    1    3    3    0    0  0.84744920923E-01  0.11416471151E+00 -0.73219930947E-02  0.89144203096E+00  0.88000000000E+00 0. -1.
        -11    1    4    4    0    0 -0.70578213138E-02 -0.88121863780E-02 -0.45887940682E-02  0.12197771209E-01  0.51100000000E-03 0. -1.
         11    1    4    4    0    0 -0.82478971599E-01 -0.85701681628E-01  0.14786367258E-01  0.11986015505E+00  0.51100000000E-03 0.  1.
</event>
<event>
 8    1  0.1207611E+005  0.1043930E+01  0.7957747E-01            NaN
         13   -1    0    0    0    0  0.00000000000E+00  0.00000000000E+00  0.74505805969E-08  0.10566000000E+00  0.10566000000E+00 0.  1.
     999900   -1    0    0    0    0 -0.00000000000E+00 -0.00000000000E+00 -0.74505805969E-08  0.93827000000E+00  0.93827000000E+00 0.  1.
     999902    2    1    2    0    0 -0.27864429322E-01  0.14079764431E-01 -0.72075643993E-02  0.10118891640E+01  0.10113817603E+01 0.  0.
     999903    2    3    3    0    0 -0.10723951109E+00 -0.43306088123E-01 -0.44846124104E-01  0.12565544715E+00  0.20059574879E-01 0.  0.
         14    1    1    2    0    0  0.27864429322E-01 -0.14079764431E-01  0.72075643993E-02  0.32040836013E-01  0.00000000000E+00 0.  1.
     999901    1    3    3    0    0  0.79375081768E-01  0.57385852554E-01  0.37638559705E-01  0.88623371684E+00  0.88000000000E+00 0. -1.
        -11    1    4    4    0    0 -0.77275158714E-01 -0.21189729938E-01 -0.31152108414E-01  0.85971912790E-01  0.51100000000E-03 0. -1.
         11    1    4    4    0    0 -0.29964352376E-01 -0.22116358186E-01 -0.13694015690E-01  0.39683534361E-01  0.51100000000E-03 0.  1.
</event>
<event>
 8    1  0.1207611E+005  0.1043930E+01  0.7957747E-01            NaN
         13   -1    0    0    0    0  0.00000000000E+00  0.00000000000E+00  0.74505805969E-08  0.10566000000E+00  0.10566000000E+00 0. -1.
     999900   -1    0    0    0    0 -0.00000000000E+00 -0.00000000000E+00 -0.74505805969E-08  0.93827000000E+00  0.93827000000E+00 0.  1.
     999902    2    1    2    0    0 -0.81338921606E-02 -0.21983748379E-01 -0.31749835430E-02  0.10202756999E+01  0.10200014597E+01 0.  0.
     999903    2    3    3    0    0 -0.81316904136E-02  0.11342075738E+00  0.55271444263E-01  0.12800311533E+00  0.19986805388E-01 0.  0.
         14    1    1    2    0    0  0.81338921606E-02  0.21983748379E-01  0.31749835430E-02  0.23654300137E-01  0.00000000000E+00 0.  1.
     999901    1    3    3    0    0 -0.22017469464E-05 -0.13540450576E+00 -0.58446427806E-01  0.89227258453E+00  0.88000000000E+00 0.  1.
        -11    1    4    4    0    0 -0.24234356862E-02  0.32240784364E-01  0.26085704083E-01  0.41545954020E-01  0.51100000000E-03 0.  1.
         11    1    4    4    0    0 -0.57082547275E-02  0.81179973017E-01  0.29185740180E-01  0.86457161311E-01  0.51100000000E-03 0. -1.
</event>
<event>
 8    1  0.1207611E+005  0.1043930E+01  0.7957747E-01            NaN
         13   -1    0    0    0    0  0.00000000000E+00  0.00000000000E+00  0.74505805969E-08  0.10566000000E+00  0.10566000000E+00 0. -1.
     999900   -1    0    0    0    0 -0.00000000000E+00 -0.00000000000E+00 -0.74505805969E-08  0.93827000000E+00  0.93827000000E+00 0. -1.
     999902    2    1    2    0    0 -0.11940584145E-01 -0.14814041442E-01 -0.11966868768E-01  0.10214524707E+01  0.10212051266E+01 0.  0.
     999903    2    3    3    0    0  0.72499909151E-01 -0.10832078279E+00 -0.13530593149E-01  0.13247769448E+00  0.19432801451E-01 0.  0.
         14    1    1    2    0    0  0.11940584145E-01  0.14814041442E-01  0.11966868768E-01  0.22477529261E-01  0.00000000000E+00 0. -1.
     999901    1    3    3    0    0 -0.84440493297E-01  0.93506741352E-01  0.15637243811E-02  0.88897477626E+00  0.88000000000E+00 0. -1.
        -11    1    4    4    0    0  0.20651004489E-01 -0.46454204892E-01 -0.89834331817E-02  0.51627708949E-01  0.51100000000E-03 0.  1.
         11    1    4    4    0    0  0.51848904662E-01 -0.61866577902E-01 -0.45471599675E-02  0.80849985533E-01  0.51100000000E-03 0. -1.
</event>
<event>
 8    1  0.1207611E+005  0.1043930E+01  0.7957747E-01            NaN
         13   -1    0    0    0    0  0.00000000000E+00  0.00000000000E+00  0.74505805969E-08  0.10566000000E+00  0.10566000000E+00 0. -1.
     999900   -1    0    0    0    0 -0.00000000000E+00 -0.00000000000E+00 -0.74505805969E-08  0.93827000000E+00  0.93827000000E+00 0. -1.
     999902    2    1    2    0    0  0.18219255295E-03 -0.12996823597E-01  0.19836395018E-01  0.10202143262E+01  0.10199386443E+01 0.  0.
     999903    2    3    3    0    0 -0.62522764946E-02  0.10217198804E+00  0.78975763616E-01  0.13071855750E+00  0.19286366578E-01 0.  0.
         14    1    1    2    0    0 -0.18219255295E-03  0.12996823597E-01 -0.19836395018E-01  0.23715673827E-01  0.00000000000E+00 0.  1.
     999901    1    3    3    0    0  0.64344690476E-02 -0.11516881164E+00 -0.59139368598E-01  0.88949576867E+00  0.88000000000E+00 0. -1.
        -11    1    4    4    0    0 -0.11153882202E-01  0.39752118063E-01  0.35938151564E-01  0.54739856024E-01  0.51100000000E-03 0.  1.
         11    1    4    4    0    0  0.49016057078E-02  0.62419869975E-01  0.43037612051E-01  0.75978701478E-01  0.51100000000E-03 0. -1.
</event>
<event>
 8    1  0.1207611E+005  0.1043930E+01  0.7957747E-01            NaN
         13   -1    0    0    0    0  0.00000000000E+00  0.00000000000E+00  0.74505805969E-08  0.10566000000E+00  0.10566000000E+00 0.  1.
     999900   -1    0    0    0    0 -0.00000000000E+00 -0.00000000000E+00 -0.74505805969E-08  0.93827000000E+00  0.93827000000E+00 0. -1.
     999902    2    1    2    0    0  0.34256175496E-02  0.20377735163E-02  0.22151920481E-01  0.10214223356E+01  0.10211743204E+01 0.  0.
     999903    2    3    3    0    0  0.40390165209E-01  0.32879878730E-03 -0.12090269894E+00  0.12910292948E+00  0.20460455358E-01 0.  0.
         14    1    1    2    0    0 -0.34256175496E-02 -0.20377735163E-02 -0.22151920481E-01  0.22507664417E-01  0.00000000000E+00 0. -1.
     999901    1    3    3    0    0 -0.36964547660E-01  0.17089747290E-02  0.14305461942E+00  0.89231940611E+00  0.88000000000E+00 0.  1.
        -11    1    4    4    0    0  0.18689187415E-01  0.69405356934E-02 -0.35301712894E-01  0.40545392046E-01  0.51100000000E-03 0. -1.
         11    1    4    4    0    0  0.21700977794E-01 -0.66117369061E-02 -0.85600986047E-01  0.88557537429E-01  0.51100000000E-03 0.  1.
</event>
<event>
 8    1  0.1207611E+005  0.1043930E+01  0.7957747E-01            NaN
         13   -1    0    0    0    0  0.00000000000E+00  0.00000000000E+00  0.74505805969E-08  0.10566000000E+00  0.10566000000E+00 0. -1.
     999900   -1    0    0    0    0 -0.00000000000E+00 -0.00000000000E+00 -0.74505805969E-08  0.93827000000E+00  0.93827000000E+00 0.  1.
     999902    2    1    2    0    0 -0.22670369605E-01  0.47653922436E-02  0.59223202702E-03  0.10207566239E+01  0.10204935472E+01 0.  0.
     999903    2    3    3    0    0  0.27850807539E-01 -0.70241098906E-01  0.10388956334E+00  0.13011151965E+00  0.20651554885E-01 0.  0.
         14    1    1    2    0    0  0.22670369605E-01 -0.47653922436E-02 -0.59223202702E-03  0.23173376104E-01  0.00000000000E+00 0.  1.
     999901    1    3    3    0    0 -0.50521177144E-01  0.75006491149E-01 -0.10329733131E+00  0.89064510424E+00  0.88000000000E+00 0.  1.
        -11    1    4    4    0    0  0.93440174010E-02 -0.50079976840E-01  0.66423957678E-01  0.83712113915E-01  0.51100000000E-03 0.  1.
         11    1    4    4    0    0  0.18506790138E-01 -0.20161122066E-01  0.37465605664E-01  0.46399405739E-01  0.51100000000E-03 0. -1.
</event>
<event>
 8    1  0.1207611E+005  0.1043930E+01  0.7957747E-01            NaN
         13   -1    0    0    0    0  0.00000000000E+00  0.00000000000E+00  0.74505805969E-08  0.10566000000E+00  0.10566000000E+00 0.  1.
     999900   -1    0    0    0    0 -0.00000000000E+00 -0.00000000000E+00 -0.74505805969E-08  0.93827000000E+00  0.93827000000E+00 0. -1.
     999902    2    1    2    0    0 -0.93773467603E-02 -0.21346772535E-01 -0.31581720834E-02  0.10204014348E+01  0.10201301362E+01 0.  0.
     999903    2    3    3    0    0 -0.37556955654E-02  0.24526948258E-01  0.12590630478E+00  0.12978724199E+00  0.19407579958E-01 0.  0.
         14    1    1    2    0    0  0.93773467603E-02  0.21346772535E-01  0.31581720834E-02  0.23528565209E-01  0.00000000000E+00 0.  1.
     999901    1    3    3    0    0 -0.56216511949E-02 -0.45873720793E-01 -0.12906447687E+00  0.89061419280E+00  0.88000000000E+00 0. -1.
        -11    1    4    4    0    0  0.18666539162E-02  0.26876534185E-02  0.20532113333E-02  0.38967519193E-02  0.51100000000E-03 0.  1.
         11    1    4    4    0    0 -0.56223494816E-02  0.21839294840E-01  0.12385309345E+00  0.12589049007E+00  0.51100000000E-03 0. -1.
</event>
<event>
 8    1  0.1207611E+005  0.1043930E+01  0.7957747E-01            NaN
         13   -1    0    0    0    0  0.00000000000E+00  0.00000000000E+00  0.74505805969E-08  0.10566000000E+00  0.10566000000E+00 0. -1.
     999900   -1    0    0    0    0 -0.00000000000E+00 -0.00000000000E+00 -0.74505805969E-08  0.93827000000E+00  0.93827000000E+00 0.  1.
     999902    2    1    2    0    0  0.16356554643E-01  0.84135167411E-02  0.14843127693E-01  0.10202943789E+01  0.10200205768E+01 0.  0.
     999903    2    3    3    0    0 -0.45399898407E-01 -0.24635601289E-02  0.12296337630E+00  0.13146247218E+00  0.97554997818E-02 0.  0.
         14    1    1    2    0    0 -0.16356554643E-01 -0.84135167411E-02 -0.14843127693E-01  0.23635621072E-01  0.00000000000E+00 0. -1.
     999901    1    3    3    0    0  0.61756453049E-01  0.10877076870E-01 -0.10812024861E+00  0.88883190675E+00  0.88000000000E+00 0.  1.
        -11    1    4    4    0    0 -0.19603726928E-01 -0.44098905946E-03  0.66850555967E-01  0.69668920868E-01  0.51100000000E-03 0.  1.
         11    1    4    4    0    0 -0.25796171478E-01 -0.20225710695E-02  0.56112820336E-01  0.61793551312E-01  0.51100000000E-03 0. -1.
</event>
<event>
 8    1  0.1210224E+005  0.1043930E+01  0.7957747E-01            NaN
         13   -1    0    0    0    0  0.00000000000E+00  0.00000000000E+00  0.74505805969E-08  0.10566000000E+00  0.10566000000E+00 0. -1.
     999900   -1    0    0    0    0 -0.00000000000E+00 -0.00000000000E+00 -0.74505805969E-08  0.93827000000E+00  0.93827000000E+00 0.  1.
     999902    2    1    2    0    0  0.29043172056E-01 -0.18492078016E-01 -0.89904651546E-02  0.10083450136E+01  0.10077169122E+01 0.  0.
     999903    2    3    3    0    0  0.75270253187E-01  0.22953505671E-01 -0.91588861688E-01  0.12229920523E+00  0.19393338496E-01 0.  0.
         14    1    1    2    0    0 -0.29043172056E-01  0.18492078016E-01  0.89904651546E-02  0.35584986387E-01  0.00000000000E+00 0. -1.
     999901    1    3    3    0    0 -0.46227081130E-01 -0.41445583687E-01  0.82598396534E-01  0.88604580838E+00  0.88000000000E+00 0. -1.
        -11    1    4    4    0    0  0.13526299705E-01  0.97606612423E-02 -0.28600138565E-01  0.33112842502E-01  0.51100000000E-03 0.  1.
         11    1    4    4    0    0  0.61743953481E-01  0.13192844429E-01 -0.62988723123E-01  0.89186362732E-01  0.51100000000E-03 0. -1.
</event>
<event>
 8    1  0.1207611E+005  0.1043930E+01  0.7957747E-01            NaN
         13   -1    0    0    0    0  0.00000000000E+00  0.00000000000E+00  0.74505805969E-08  0.10566000000E+00  0.10566000000E+00 0. -1.
     999900   -1    0    0    0    0 -0.00000000000E+00 -0.00000000000E+00 -0.74505805969E-08  0.93827000000E+00  0.93827000000E+00 0. -1.
     999902    2    1    2    0    0 -0.13819676434E-01 -0.13821214004E-01  0.14412271006E-01  0.10196457877E+01  0.10193565663E+01 0.  0.
     999903    2    3    3    0    0 -0.66422658256E-02 -0.34343056562E-01 -0.12163973651E+00  0.12892539944E+00  0.24535034004E-01 0.  0.
         14    1    1    2    0    0  0.13819676434E-01  0.13821214004E-01 -0.14412271006E-01  0.24284212337E-01  0.00000000000E+00 0.  1.
     999901    1    3    3    0    0 -0.71774106088E-02  0.20521842559E-01  0.13605200752E+00  0.89072038822E+00  0.88000000000E+00 0.  1.
        -11    1    4    4    0    0 -0.14695982630E-01 -0.30042827562E-01 -0.91119490682E-01  0.97064752080E-01  0.51100000000E-03 0. -1.
         11    1    4    4    0    0  0.80537168046E-02 -0.43002290004E-02 -0.30520245828E-01  0.31860647361E-01  0.51100000000E-03 0.  1.
</event>
<event>
 8    1  0.1207611E+005  0.1043930E+01  0.7957747E-01            NaN
         13   -1    0    0    0    0  0.00000000000E+00  0.00000000000E+00  0.74505805969E-08  0.10566000000E+00  0.10566000000E+00 0.  1.
     999900   -1    0    0    0    0 -0.00000000000E+00 -0.00000000000E+00 -0.74505805969E-08  0.93827000000E+00  0.93827000000E+00 0.  1.
     999902    2    1    2    0    0  0.23114177540E-01 -0.85307632937E-02  0.47980118282E-03  0.10192871646E+01  0.10189892319E+01 0.  0.
     999903    2    3    3    0    0  0.10622436751E-02 -0.13838402219E-01  0.12783263054E+00  0.12983047543E+00  0.17948291887E-01 0.  0.
         14    1    1    2    0    0 -0.23114177540E-01  0.85307632937E-02 -0.47980118282E-03  0.24642835366E-01  0.00000000000E+00 0.  1.
     999901    1    3    3    0    0  0.22051933865E-01  0.53076389249E-02 -0.12735282936E+00  0.88945668920E+00  0.88000000000E+00 0.  1.
        -11    1    4    4    0    0 -0.47631671372E-03 -0.14805645009E-01  0.54674781222E-01  0.56648272916E-01  0.51100000000E-03 0. -1.
         11    1    4    4    0    0  0.15385603888E-02  0.96724279035E-03  0.73157849322E-01  0.73182202517E-01  0.51100000000E-03 0.  1.
</event>
<event>
 8    1  0.1207611E+005  0.1043930E+01  0.7957747E-01            NaN
         13   -1    0    0    0    0  0.00000000000E+00  0.00000000000E+00  0.74505805969E-08  0.10566000000E+00  0.10566000000E+00 0.  1.
     999900   -1    0    0    0    0 -0.00000000000E+00 -0.00000000000E+00 -0.74505805969E-08  0.93827000000E+00  0.93827000000E+00 0.  1.
     999902    2    1    2    0    0 -0.39278721815E-03 -0.17865177667E-01  0.16836341621E-01  0.10193783961E+01  0.10190826920E+01 0.  0.
     999903    2    3    3    0    0  0.38856975100E-01  0.11010410101E+00  0.50056008621E-01  0.12863700467E+00  0.20226156317E-01 0.  0.
         14    1    1    2    0    0  0.39278721815E-03  0.17865177667E-01 -0.16836341621E-01  0.24551603900E-01  0.00000000000E+00 0. -1.
     999901    1    3    3    0    0 -0.39249762318E-01 -0.12796927867E+00 -0.33219667000E-01  0.89074139143E+00  0.88000000000E+00 0.  1.
        -11    1    4    4    0    0  0.13562044028E-02  0.28656125248E-01  0.14822503355E-01  0.32295209108E-01  0.51100000000E-03 0.  1.
         11    1    4    4    0    0  0.37500770697E-01  0.81447975760E-01  0.35233505266E-01  0.96341795564E-01  0.51100000000E-03 0. -1.
</event>
<event>
 8    1  0.1207611E+005  0.1043930E+01  0.7957747E-01            NaN
         13   -1    0    0    0    0  0.00000000000E+00  0.00000000000E+00  0.74505805969E-08  0.10566000000E+00  0.10566000000E+00 0. -1.
     999900   -1    0    0    0    0 -0.00000000000E+00 -0.00000000000E+00 -0.74505805969E-08  0.93827000000E+00  0.93827000000E+00 0.  1.
     999902    2    1    2    0    0  0.14950004591E-01  0.74276470377E-03  0.16000515505E-01  0.10220194812E+01  0.10217845904E+01 0.  0.
     999903    2    3    3    0    0  0.84841175183E-01  0.99528946346E-01 -0.88515023200E-02  0.13339070147E+00  0.24712223266E-01 0.  0.
         14    1    1    2    0    0 -0.14950004591E-01 -0.74276470377E-03 -0.16000515505E-01  0.21910518778E-01  0.00000000000E+00 0.  1.
     999901    1    3    3    0    0 -0.69891170592E-01 -0.98786181642E-01  0.24852017825E-01  0.88862877975E+00  0.88000000000E+00 0. -1.
        -11    1    4    4    0    0  0.71118481713E-01  0.77384589407E-01 -0.16139258539E-01  0.10633414271E+00  0.51100000000E-03 0. -1.
         11    1    4    4    0    0  0.13722693470E-01  0.22144356939E-01  0.72877562185E-02  0.27056558762E-01  0.51100000000E-03 0.  1.
</event>
<event>
 8    1  0.1207611E+005  0.1043930E+01  0.7957747E-01            NaN
         13   -1    0    0    0    0  0.00000000000E+00  0.00000000000E+00  0.74505805969E-08  0.10566000000E+00  0.10566000000E+00 0.  1.
     999900   -1    0    0    0    0 -0.00000000000E+00 -0.00000000000E+00 -0.74505805969E-08  0.93827000000E+00  0.93827000000E+00 0.  1.
     999902    2    1    2    0    0  0.60650080957E-02 -0.22013675984E-01  0.66903859182E-02  0.10201361454E+01  0.10198586214E+01 0.  0.
     999903    2    3    3    0    0  0.75474118576E-01  0.93405408846E-01  0.43151349350E-01  0.12914310860E+00  0.19874369682E-01 0.  0.
         14    1    1    2    0    0 -0.60650080957E-02  0.22013675984E-01 -0.66903859182E-02  0.23793854611E-01  0.00000000000E+00 0.  1.
     999901    1    3    3    0    0 -0.69409110480E-01 -0.11541908483E+00 -0.36460963432E-01  0.89099303679E+00  0.88000000000E+00 0.  1.
        -11    1    4    4    0    0  0.53721713211E-01  0.58444709818E-01  0.19852851946E-01  0.81830333174E-01  0.51100000000E-03 0.  1.
         11    1    4    4    0    0  0.21752405365E-01  0.34960699029E-01  0.23298497404E-01  0.47312775421E-01  0.51100000000E-03 0. -1.
</event>
<event>
 8    1  0.1207611E+005  0.1043930E+01  0.7957747E-01            NaN
         13   -1    0    0    0    0  0.00000000000E+00  0.00000000000E+00  0.74505805969E-08  0.10566000000E+00  0.10566000000E+00 0.  1.
     999900   -1    0    0    0    0 -0.00000000000E+00 -0.00000000000E+00 -0.74505805969E-08  0.93827000000E+00  0.93827000000E+00 0.  1.
     999902    2    1    2    0    0  0.13412597815E-01  0.12873763952E-01  0.13214963102E-01  0.10211206417E+01  0.10208658570E+01 0.  0.
     999903    2    3    3    0    0 -0.47982226450E-01  0.11798421296E+00 -0.27360628366E-01  0.13181534562E+00  0.20102556884E-01 0.  0.
         14    1    1    2    0    0 -0.13412597815E-01 -0.12873763952E-01 -0.13214963102E-01  0.22809358347E-01  0.00000000000E+00 0. -1.
     999901    1    3    3    0    0  0.61394824265E-01 -0.10511044900E+00  0.40575591467E-01  0.88930529604E+00  0.88000000000E+00 0. -1.
        -11    1    4    4    0    0 -0.24736056930E-01  0.39634419162E-01 -0.44309020194E-02  0.46932437700E-01  0.51100000000E-03 0. -1.
         11    1    4    4    0    0 -0.23246169520E-01  0.78349793794E-01 -0.22929726346E-01  0.84882907915E-01  0.51100000000E-03 0.  1.
</event>
<event>
 7    1  0.1207611E+005  0.1043930E+01  0.7957747E-01            NaN
         13   -1    0    0    0    0  0.00000000000E+00  0.00000000000E+00  0.74505805969E-08  0.10566000000E+00  0.10566000000E+00 0.  1.
     999900   -1    0    0    0    0 -0.00000000000E+00 -0.00000000000E+00 -0.74505805969E-08  0.93827000000E+00  0.93827000000E+00 0.  1.
     999902    2    1    2    0    0 -0.18825296855E-01 -0.90818845619E-02  0.91347489421E-02  0.10211195623E+01  0.10208647533E+01 0.  0.
         14    1    1    2    0    0  0.18825296855E-01  0.90818845619E-02 -0.91347489421E-02  0.22810437679E-01  0.00000000000E+00 0.  1.
     999901    1    3    3    0    0 -0.12417313558E+00 -0.68894606946E-01  0.34059142181E-01  0.89203444980E+00  0.88000000000E+00 0.  1.
        -11    1    3    3    0    0  0.38531878014E-01  0.42996607111E-02 -0.23506386082E-03  0.38775109046E-01  0.51100000000E-03 0. -1.
         11    1    3    3    0    0  0.66815960706E-01  0.55513061673E-01 -0.24689329378E-01  0.90310003474E-01  0.51100000000E-03 0.  1.
</event>
<event>
 8    1  0.1207611E+005  0.1043930E+01  0.7957747E-01            NaN
         13   -1    0    0    0    0  0.00000000000E+00  0.00000000000E+00  0.74505805969E-08  0.10566000000E+00  0.10566000000E+00 0.  1.
     999900   -1    0    0    0    0 -0.00000000000E+00 -0.00000000000E+00 -0.74505805969E-08  0.93827000000E+00  0.93827000000E+00 0.  1.
     999902    2    1    2    0    0 -0.18495393455E-01 -0.11953607240E-01 -0.99577767922E-02  0.10197613090E+01  0.10194748657E+01 0.  0.
     999903    2    3    3    0    0  0.66174396555E-01  0.18185905593E-02  0.10761269022E+00  0.12780757620E+00  0.19285419522E-01 0.  0.
         14    1    1    2    0    0  0.18495393455E-01  0.11953607240E-01  0.99577767922E-02  0.24168690982E-01  0.00000000000E+00 0.  1.
     999901    1    3    3    0    0 -0.84669790011E-01 -0.13772197800E-01 -0.11757046702E+00  0.89195373282E+00  0.88000000000E+00 0.  1.
        -11    1    4    4    0    0  0.36637299195E-01 -0.72745110569E-02  0.49834491679E-01  0.62281200095E-01  0.51100000000E-03 0. -1.
         11    1    4    4    0    0  0.29537097360E-01  0.90931016163E-02  0.57778198545E-01  0.65526376106E-01  0.51100000000E-03 0.  1.
</event>
<event>
 8    1  0.1207611E+005  0.1043930E+01  0.7957747E-01            NaN
         13   -1    0    0    0    0  0.00000000000E+00  0.00000000000E+00  0.74505805969E-08  0.10566000000E+00  0.10566000000E+00 0. -1.
     999900   -1    0    0    0    0 -0.00000000000E+00 -0.00000000000E+00 -0.74505805969E-08  0.93827000000E+00  0.93827000000E+00 0.  1.
     999902    2    1    2    0    0  0.87521854764E-02  0.19737733003E-01  0.89124902701E-02  0.10205716752E+01  0.10203043335E+01 0.  0.
     999903    2    3    3    0    0  0.10574059205E+00  0.23704963995E-01 -0.71673942187E-01  0.13157411444E+00  0.20774876119E-01 0.  0.
         14    1    1    2    0    0 -0.87521854764E-02 -0.19737733003E-01 -0.89124902701E-02  0.23358324802E-01  0.00000000000E+00 0. -1.
     999901    1    3    3    0    0 -0.96988406574E-01 -0.39672309921E-02  0.80586432457E-01  0.88899756075E+00  0.88000000000E+00 0.  1.
        -11    1    4    4    0    0  0.67338515181E-01  0.25063441702E-01 -0.48677984749E-01  0.86789740505E-01  0.51100000000E-03 0.  1.
         11    1    4    4    0    0  0.38402076870E-01 -0.13584777062E-02 -0.22995957438E-01  0.44784373939E-01  0.51100000000E-03 0. -1.
</event>
<event>
 8    1  0.1207611E+005  0.1043930E+01  0.7957747E-01            NaN
         13   -1    0    0    0    0  0.00000000000E+00  0.00000000000E+00  0.74505805969E-08  0.10566000000E+00  0.10566000000E+00 0. -1.
     999900   -1    0    0    0    0 -0.00000000000E+00 -0.00000000000E+00 -0.74505805969E-08  0.93827000000E+00  0.93827000000E+00 0. -1.
     999902    2    1    2    0    0  0.16836629484E-01 -0.11415007605E-01  0.11677355795E-01  0.10204750404E+01  0.10202054563E+01 0.  0.
     999903    2    3    3    0    0 -0.11574405648E-01 -0.82495741546E-01  0.10143325403E+00  0.13260355257E+00  0.18854253932E-01 0.  0.
         14    1    1    2    0    0 -0.16836629484E-01  0.11415007605E-01 -0.11677355795E-01  0.23454959590E-01  0.00000000000E+00 0. -1.
     999901    1    3    3    0    0  0.28411035132E-01  0.71080733941E-01 -0.89755898235E-01  0.88787148784E+00  0.88000000000E+00 0. -1.
        -11    1    4    4    0    0 -0.16565104538E-01 -0.69884944858E-01  0.86224304907E-01  0.11221942828E+00  0.51100000000E-03 0.  1.
         11    1    4    4    0    0  0.49906988898E-02 -0.12610796688E-01  0.15208949123E-01  0.20384124287E-01  0.51100000000E-03 0. -1.
</event>
<event>
 8    1  0.1207611E+005  0.1043930E+01  0.7957747E-01            NaN
         13   -1    0    0    0    0  0.00000000000E+00  0.00000000000E+00  0.74505805969E-08  0.10566000000E+00  0.10566000000E+00 0.  1.
     999900   -1    0    0    0    0 -0.00000000000E+00 -0.00000000000E+00 -0.74505805969E-08  0.93827000000E+00  0.93827000000E+00 0. -1.
     999902    2    1    2    0    0  0.17816533986E-01  0.30652209779E-03 -0.15797817511E-01  0.10201162670E+01  0.10198382737E+01 0.  0.
     999903    2    3    3    0    0  0.32891378227E-02 -0.87056955508E-01  0.92880657088E-01  0.12901894728E+00  0.20720530052E-01 0.  0.
         14    1    1    2    0    0 -0.17816533986E-01 -0.30652209779E-03  0.15797817511E-01  0.23813732953E-01  0.00000000000E+00 0.  1.
     999901    1    3    3    0    0  0.14527396163E-01  0.87363477606E-01 -0.10867847460E+00  0.89109731977E+00  0.88000000000E+00 0. -1.
        -11    1    4    4    0    0 -0.50987024652E-02 -0.20259995411E-01  0.13256761736E-01  0.24748071311E-01  0.51100000000E-03 0. -1.
         11    1    4    4    0    0  0.83878402879E-02 -0.66796960097E-01  0.79623895352E-01  0.10427087597E+00  0.51100000000E-03 0.  1.
</event>
<event>
 8    1  0.1207611E+005  0.1043930E+01  0.7957747E-01            NaN
         13   -1    0    0    0    0  0.00000000000E+00  0.00000000000E+00  0.74505805969E-08  0.10566000000E+00  0.10566000000E+00 0. -1.
     999900   -1    0    0    0    0 -0.00000000000E+00 -0.00000000000E+00 -0.74505805969E-08  0.93827000000E+00  0.93827000000E+00 0. -1.
     999902    2    1    2    0    0  0.14809347168E-01  0.12133820935E-01 -0.15139710475E-01  0.10195218619E+01  0.10192296452E+01 0.  0.
     999903    2    3    3    0    0 -0.10057852813E+00  0.71340429681E-01  0.31394685262E-01  0.12880011279E+00  0.19958596244E-01 0.  0.
         14    1    1    2    0    0 -0.14809347168E-01 -0.12133820935E-01  0.15139710475E-01  0.24408138137E-01  0.00000000000E+00 0. -1.
     999901    1    3    3    0    0  0.11538787530E+00 -0.59206608746E-01 -0.46534395737E-01  0.89072174907E+00  0.88000000000E+00 0. -1.
        -11    1    4    4    0    0 -0.49635291056E-01  0.26332349971E-01  0.21220657045E-01  0.60063567823E-01  0.51100000000E-03 0.  1.
         11    1    4    4    0    0 -0.50943237075E-01  0.45008079711E-01  0.10174028217E-01  0.68736544968E-01  0.51100000000E-03 0. -1.
</event>
<event>
 8    1  0.1207611E+005  0.1043930E+01  0.7957747E-01            NaN
         13   -1    0    0    0    0  0.00000000000E+00  0.00000000000E+00  0.74505805969E-08  0.10566000000E+00  0.10566000000E+00 0. -1.
     999900   -1    0    0    0    0 -0.00000000000E+00 -0.00000000000E+00 -0.74505805969E-08  0.93827000000E+00  0.93827000000E+00 0.  1.
     999902    2    1    2    0    0 -0.21053793520E-01  0.75908085344E-02  0.19029763239E-02  0.10214688354E+01  0.10212218553E+01 0.  0.
     999903    2    3    3    0    0  0.11084627524E+00  0.53903218136E-01  0.35970015558E-01  0.12978333559E+00  0.18905515562E-01 0.  0.
         14    1    1    2    0    0  0.21053793520E-01 -0.75908085344E-02 -0.19029763239E-02  0.22461164589E-01  0.00000000000E+00 0.  1.
     999901    1    3    3    0    0 -0.13190006876E+00 -0.46312409601E-01 -0.34067039234E-01  0.89168549982E+00  0.88000000000E+00 0.  1.
        -11    1    4    4    0    0  0.54178013794E-01  0.16145134644E-01  0.14198222324E-01  0.58290421079E-01  0.51100000000E-03 0.  1.
         11    1    4    4    0    0  0.56668261446E-01  0.37758083492E-01  0.21771793234E-01  0.71492914516E-01  0.51100000000E-03 0. -1.
</event>
<event>
 8    1  0.1207611E+005  0.1043930E+01  0.7957747E-01            NaN
         13   -1    0    0    0    0  0.00000000000E+00  0.00000000000E+00  0.74505805969E-08  0.10566000000E+00  0.10566000000E+00 0.  1.
     999900   -1    0    0    0    0 -0.00000000000E+00 -0.00000000000E+00 -0.74505805969E-08  0.93827000000E+00  0.93827000000E+00 0. -1.
     999902    2    1    2    0    0 -0.14766013975E-02 -0.21919057092E-01 -0.80350105550E-02  0.10205379755E+01  0.10202698528E+01 0.  0.
     999903    2    3    3    0    0 -0.76750900709E-01  0.66286859502E-01  0.76885706636E-01  0.12887770832E+00  0.20332321931E-01 0.  0.
         14    1    1    2    0    0  0.14766013975E-02  0.21919057092E-01  0.80350105550E-02  0.23392024498E-01  0.00000000000E+00 0.  1.
     999901    1    3    3    0    0  0.75274299311E-01 -0.88205916594E-01 -0.84920717191E-01  0.89166026718E+00  0.88000000000E+00 0. -1.
        -11    1    4    4    0    0 -0.71798298829E-01  0.54221899020E-01  0.63108671394E-01  0.10989984338E+00  0.51100000000E-03 0. -1.
         11    1    4    4    0    0 -0.49526018794E-02  0.12064960482E-01  0.13777035242E-01  0.18977864945E-01  0.51100000000E-03 0.  1.
</event>
<event>
 8    1  0.1207611E+005  0.1043930E+01  0.7957747E-01            NaN
         13   -1    0    0    0    0  0.00000000000E+00  0.00000000000E+00  0.74505805969E-08  0.10566000000E+00  0.10566000000E+00 0. -1.
     999900   -1    0    0    0    0 -0.00000000000E+00 -0.00000000000E+00 -0.74505805969E-08  0.93827000000E+00  0.93827000000E+00 0.  1.
     999902    2    1    2    0    0 -0.64307714903E-02 -0.30260163223E-02  0.21963930300E-01  0.10208448136E+01  0.10205837583E+01 0.  0.
     999903    2    3    3    0    0  0.88423472997E-01 -0.94347286895E-01 -0.71329040813E-02  0.13057321014E+00  0.16684237031E-01 0.  0.
         14    1    1    2    0    0  0.64307714903E-02  0.30260163223E-02 -0.21963930300E-01  0.23085186396E-01  0.00000000000E+00 0.  1.
     999901    1    3    3    0    0 -0.94854244488E-01  0.91321270572E-01  0.29096834381E-01  0.89027160346E+00  0.88000000000E+00 0. -1.
        -11    1    4    4    0    0  0.26565977381E-01 -0.17971730581E-01 -0.26315461583E-02  0.32185717492E-01  0.51100000000E-03 0. -1.
         11    1    4    4    0    0  0.61857495616E-01 -0.76375556314E-01 -0.45013579230E-02  0.98387492652E-01  0.51100000000E-03 0.  1.
</event>
<event>
 8    1  0.1207611E+005  0.1043930E+01  0.7957747E-01            NaN
         13   -1    0    0    0    0  0.00000000000E+00  0.00000000000E+00  0.74505805969E-08  0.10566000000E+00  0.10566000000E+00 0. -1.
     999900   -1    0    0    0    0 -0.00000000000E+00 -0.00000000000E+00 -0.74505805969E-08  0.93827000000E+00  0.93827000000E+00 0. -1.
     999902    2    1    2    0    0  0.11103428055E-01  0.47082399152E-02  0.19583369485E-01  0.10209308261E+01  0.10206717346E+01 0.  0.
     999903    2    3    3    0    0  0.11710979664E+00  0.40182939885E-01 -0.40578023739E-01  0.13182161027E+00  0.20024679672E-01 0.  0.
         14    1    1    2    0    0 -0.11103428055E-01 -0.47082399152E-02 -0.19583369485E-01  0.22999173856E-01  0.00000000000E+00 0.  1.
     999901    1    3    3    0    0 -0.10600636859E+00 -0.35474699970E-01  0.60161393224E-01  0.88910921587E+00  0.88000000000E+00 0.  1.
        -11    1    4    4    0    0  0.43373684538E-01  0.19836243300E-01 -0.67139419528E-02  0.48167324985E-01  0.51100000000E-03 0. -1.
         11    1    4    4    0    0  0.73736112105E-01  0.20346696585E-01 -0.33864081786E-01  0.83654285284E-01  0.51100000000E-03 0.  1.
</event>
<event>
 8    1  0.1207611E+005  0.1043930E+01  0.7957747E-01            NaN
         13   -1    0    0    0    0  0.00000000000E+00  0.00000000000E+00  0.74505805969E-08  0.10566000000E+00  0.10566000000E+00 0. -1.
     999900   -1    0    0    0    0 -0.00000000000E+00 -0.00000000000E+00 -0.74505805969E-08  0.93827000000E+00  0.93827000000E+00 0.  1.
     999902    2    1    2    0    0  0.46148487535E-02  0.17602575710E-01  0.15496327313E-01  0.10200284590E+01  0.10197483874E+01 0.  0.
     999903    2    3    3    0    0  0.12133073998E+00  0.37555350822E-01 -0.27017558780E-01  0.13108068609E+00  0.17906561463E-01 0.  0.
         14    1    1    2    0    0 -0.46148487535E-02 -0.17602575710E-01 -0.15496327313E-01  0.23901540972E-01  0.00000000000E+00 0.  1.
     999901    1    3    3    0    0 -0.11671589123E+00 -0.19952775112E-01  0.42513886093E-01  0.88894777294E+00  0.88000000000E+00 0. -1.
        -11    1    4    4    0    0  0.84237557527E-01  0.17538175775E-01 -0.16124475954E-01  0.87543209636E-01  0.51100000000E-03 0. -1.
         11    1    4    4    0    0  0.37093182455E-01  0.20017175047E-01 -0.10893082826E-01  0.43537476454E-01  0.51100000000E-03 0.  1.
</event>
<event>
 8    1  0.1207611E+005  0.1043930E+01  0.7957747E-01            NaN
         13   -1    0    0    0    0  0.00000000000E+00  0.00000000000E+00  0.74505805969E-08  0.10566000000E+00  0.10566000000E+00 0. -1.
     999900   -1    0    0    0    0 -0.00000000000E+00 -0.00000000000E+00 -0.74505805969E-08  0.93827000000E+00  0.93827000000E+00 0. -1.
     999902    2    1    2    0    0  0.77818041216E-02  0.17994602513E-01  0.83178319331E-02  0.10226333213E+01  0.10224115421E+01 0.  0.
     999903    2    3    3    0    0 -0.35602381728E-01  0.44288401534E-01  0.12011839859E+00  0.13411043576E+00  0.18115937832E-01 0.  0.
         14    1    1    2    0    0 -0.77818041216E-02 -0.17994602513E-01 -0.83178319331E-02  0.21296678686E-01  0.00000000000E+00 0. -1.
     999901    1    3    3    0    0  0.43384185849E-01 -0.26293799021E-01 -0.11180056666E+00  0.88852288555E+00  0.88000000000E+00 0. -1.
        -11    1    4    4    0    0 -0.18932062513E-01  0.36598906211E-01  0.85990491740E-01  0.95354751940E-01  0.51100000000E-03 0. -1.
         11    1    4    4    0    0 -0.16670319214E-01  0.76894953228E-02  0.34127906855E-01  0.38755683819E-01  0.51100000000E-03 0.  1.
</event>
<event>
 8    1  0.1207611E+005  0.1043930E+01  0.7957747E-01            NaN
         13   -1    0    0    0    0  0.00000000000E+00  0.00000000000E+00  0.74505805969E-08  0.10566000000E+00  0.10566000000E+00 0. -1.
     999900   -1    0    0    0    0 -0.00000000000E+00 -0.00000000000E+00 -0.74505805969E-08  0.93827000000E+00  0.93827000000E+00 0. -1.
     999902    2    1    2    0    0 -0.53990192138E-02 -0.11388808927E-01 -0.21479972461E-01  0.10190253098E+01  0.10187209325E+01 0.  0.
     999903    2    3    3    0    0 -0.59392429286E-01 -0.10857625171E+00 -0.32535041117E-01  0.13196110586E+00  0.32232614952E-01 0.  0.
         14    1    1    2    0    0  0.53990192138E-02  0.11388808927E-01  0.21479972461E-01  0.24904690204E-01  0.00000000000E+00 0. -1.
     999901    1    3    3    0    0  0.53993410072E-01  0.97187442784E-01  0.11055068656E-01  0.88706420394E+00  0.88000000000E+00 0.  1.
        -11    1    4    4    0    0 -0.12943051273E-01 -0.55675281024E-01 -0.99185023977E-02  0.58016353765E-01  0.51100000000E-03 0.  1.
         11    1    4    4    0    0 -0.46449378013E-01 -0.52900970686E-01 -0.22616538720E-01  0.73944752092E-01  0.51100000000E-03 0. -1.
</event>
<event>
 7    1  0.1494303E+005  0.1043930E+01  0.7957747E-01            NaN
         13   -1    0    0    0    0  0.00000000000E+00  0.00000000000E+00  0.74505805969E-08  0.10566000000E+00  0.10566000000E+00 0. -1.
     999900   -1    0    0    0    0 -0.00000000000E+00 -0.00000000000E+00 -0.74505805969E-08  0.93827000000E+00  0.93827000000E+00 0. -1.
     999903    2    1    2    0    0  0.24445563229E-01  0.94340364139E-01  0.19291921868E-01  0.10131564055E+00  0.19874378043E-01 0.  0.
         14    1    1    2    0    0  0.33358288478E-01  0.17646382313E-01  0.35684267159E-01  0.51937819954E-01  0.00000000000E+00 0. -1.
     999901    1    1    2    0    0 -0.57803851707E-01 -0.11198674645E+00 -0.54976189027E-01  0.89067653950E+00  0.88000000000E+00 0.  1.
        -11    1    3    3    0    0  0.24125978187E-01  0.59231300903E-01  0.16717946634E-01  0.66107190916E-01  0.51100000000E-03 0. -1.
         11    1    3    3    0    0  0.31958504220E-03  0.35109063237E-01  0.25739752338E-02  0.35208449632E-01  0.51100000000E-03 0.  1.
</event>
<event>
 8    1  0.1207611E+005  0.1043930E+01  0.7957747E-01            NaN
         13   -1    0    0    0    0  0.00000000000E+00  0.00000000000E+00  0.74505805969E-08  0.10566000000E+00  0.10566000000E+00 0.  1.
     999900   -1    0    0    0    0 -0.00000000000E+00 -0.00000000000E+00 -0.74505805969E-08  0.93827000000E+00  0.93827000000E+00 0.  1.
     999902    2    1    2    0    0  0.11967228068E-01 -0.14001830188E-01 -0.15175112445E-01  0.10200647568E+01  0.10197855452E+01 0.  0.
     999903    2    3    3    0    0  0.29192325507E-03  0.65542199373E-02  0.12690236932E+00  0.12835579374E+00  0.18109539720E-01 0.  0.
         14    1    1    2    0    0 -0.11967228068E-01  0.14001830188E-01  0.15175112445E-01  0.23865243220E-01  0.00000000000E+00 0.  1.
     999901    1    3    3    0    0  0.11675304813E-01 -0.20556050125E-01 -0.14207748177E+00  0.89170896304E+00  0.88000000000E+00 0.  1.
        -11    1    4    4    0    0  0.10192273824E-03  0.12604855048E-01  0.98942286957E-01  0.99743320720E-01  0.51100000000E-03 0.  1.
         11    1    4    4    0    0  0.19000051683E-03 -0.60506351106E-02  0.27960082366E-01  0.28612473021E-01  0.51100000000E-03 0. -1.
</event>
<event>
 8    1  0.1207611E+005  0.1043930E+01  0.7957747E-01            NaN
         13   -1    0    0    0    0  0.00000000000E+00  0.00000000000E+00  0.74505805969E-08  0.10566000000E+00  0.10566000000E+00 0. -1.
     999900   -1    0    0    0    0 -0.00000000000E+00 -0.00000000000E+00 -0.74505805969E-08  0.93827000000E+00  0.93827000000E+00 0.  1.
     999902    2    1    2    0    0  0.13389362321E-01  0.14660902204E-01  0.14371632684E-01  0.10194195756E+01  0.10191248747E+01 0.  0.
     999903    2    3    3    0    0  0.31200220262E-01 -0.13236617664E-01 -0.12205402250E+00  0.12829250407E+00  0.20325363485E-01 0.  0.
         14    1    1    2    0    0 -0.13389362321E-01 -0.14660902204E-01 -0.14371632684E-01  0.24510424370E-01  0.00000000000E+00 0.  1.
     999901    1    3    3    0    0 -0.17810857941E-01  0.27897519868E-01  0.13642565518E+00  0.89112707156E+00  0.88000000000E+00 0. -1.
        -11    1    4    4    0    0  0.12164364913E-01 -0.14652851281E-01 -0.44198706919E-01  0.48129664852E-01  0.51100000000E-03 0.  1.
         11    1    4    4    0    0  0.19035855349E-01  0.14162336169E-02 -0.77855315579E-01  0.80162839218E-01  0.51100000000E-03 0. -1.
</event>
<event>
 8    1  0.1207611E+005  0.1043930E+01  0.7957747E-01            NaN
         13   -1    0    0    0    0  0.00000000000E+00  0.00000000000E+00  0.74505805969E-08  0.10566000000E+00  0.10566000000E+00 0. -1.
     999900   -1    0    0    0    0 -0.00000000000E+00 -0.00000000000E+00 -0.74505805969E-08  0.93827000000E+00  0.93827000000E+00 0.  1.
     999902    2    1    2    0    0 -0.14492179282E-01  0.42819260333E-03  0.18636339204E-01  0.10203181439E+01  0.10200448985E+01 0.  0.
     999903    2    3    3    0    0 -0.39728829333E-01 -0.11823415805E+00 -0.32863607531E-01  0.13050362027E+00  0.19836385551E-01 0.  0.
         14    1    1    2    0    0  0.14492179282E-01 -0.42819260333E-03 -0.18636339204E-01  0.23611856094E-01  0.00000000000E+00 0.  1.
     999901    1    3    3    0    0  0.25236650052E-01  0.11866235066E+00  0.51499946735E-01  0.88981452364E+00  0.88000000000E+00 0. -1.
        -11    1    4    4    0    0 -0.19289005933E-01 -0.82435074340E-01 -0.26987246239E-01  0.88860451338E-01  0.51100000000E-03 0.  1.
         11    1    4    4    0    0 -0.20439823401E-01 -0.35799083712E-01 -0.58763612922E-02  0.41643168928E-01  0.51100000000E-03 0. -1.
</event>
<event>
 8    1  0.1207611E+005  0.1043930E+01  0.7957747E-01            NaN
         13   -1    0    0    0    0  0.00000000000E+00  0.00000000000E+00  0.74505805969E-08  0.10566000000E+00  0.10566000000E+00 0.  1.
     999900   -1    0    0    0    0 -0.00000000000E+00 -0.00000000000E+00 -0.74505805969E-08  0.93827000000E+00  0.93827000000E+00 0.  1.
     999902    2    1    2    0    0  0.15854367646E-01 -0.16014301429E-01 -0.80581484994E-02  0.10199977502E+01  0.10197169499E+01 0.  0.
     999903    2    3    3    0    0 -0.21922692901E-01  0.35360604220E-01  0.11973649112E+00  0.12848333239E+00  0.20980052477E-01 0.  0.
         14    1    1    2    0    0 -0.15854367646E-01  0.16014301429E-01  0.80581484994E-02  0.23932249809E-01  0.00000000000E+00 0.  1.
     999901    1    3    3    0    0  0.37777060547E-01 -0.51374905648E-01 -0.12779463962E+00  0.89151441780E+00  0.88000000000E+00 0.  1.
        -11    1    4    4    0    0 -0.18800847139E-01  0.13765760377E-01  0.45749689492E-01  0.51344553961E-01  0.51100000000E-03 0. -1.
         11    1    4    4    0    0 -0.31218457614E-02  0.21594843843E-01  0.73986801625E-01  0.77138778427E-01  0.51100000000E-03 0.  1.
</event>
<event>
 8    1  0.1207611E+005  0.1043930E+01  0.7957747E-01            NaN
         13   -1    0    0    0    0  0.00000000000E+00  0.00000000000E+00  0.74505805969E-08  0.10566000000E+00  0.10566000000E+00 0.  1.
     999900   -1    0    0    0    0 -0.00000000000E+00 -0.00000000000E+00 -0.74505805969E-08  0.93827000000E+00  0.93827000000E+00 0.  1.
     999902    2    1    2    0    0  0.15511144019E-01 -0.14681551548E-01  0.35392029735E-02  0.10222812240E+01  0.10220519710E+01 0.  0.
     999903    2    3    3    0    0 -0.97957455897E-01  0.64005183638E-01 -0.50947629075E-01  0.12984885103E+00  0.23931913977E-01 0.  0.
         14    1    1    2    0    0 -0.15511144019E-01  0.14681551548E-01 -0.35392029735E-02  0.21648776001E-01  0.00000000000E+00 0. -1.
     999901    1    3    3    0    0  0.11346859992E+00 -0.78686735186E-01  0.54486832048E-01  0.89243237297E+00  0.88000000000E+00 0.  1.
        -11    1    4    4    0    0 -0.45260856872E-01  0.18398059706E-01 -0.28821823922E-01  0.56727351612E-01  0.51100000000E-03 0.  1.
         11    1    4    4    0    0 -0.52696599025E-01  0.45607123932E-01 -0.22125805152E-01  0.73121499416E-01  0.51100000000E-03 0. -1.
</event>
<event>
 8    1  0.1207611E+005  0.1043930E+01  0.7957747E-01            NaN
         13   -1    0    0    0    0  0.00000000000E+00  0.00000000000E+00  0.74505805969E-08  0.10566000000E+00  0.10566000000E+00 0. -1.
     999900   -1    0    0    0    0 -0.00000000000E+00 -0.00000000000E+00 -0.74505805969E-08  0.93827000000E+00  0.93827000000E+00 0. -1.
     999902    2    1    2    0    0  0.14798806388E-01  0.20001711840E-01 -0.21091585640E-02  0.10189595836E+01  0.10186535776E+01 0.  0.
     999903    2    3    3    0    0 -0.72785615046E-01  0.35104594147E-01 -0.99399900486E-01  0.12914802127E+00  0.16394904495E-01 0.  0.
         14    1    1    2    0    0 -0.14798806388E-01 -0.20001711840E-01  0.21091585640E-02  0.24970416434E-01  0.00000000000E+00 0.  1.
     999901    1    3    3    0    0  0.87584421435E-01 -0.15102882308E-01  0.97290741922E-01  0.88981156230E+00  0.88000000000E+00 0. -1.
        -11    1    4    4    0    0 -0.33282336066E-01  0.98189689541E-02 -0.51542675533E-01  0.62137223686E-01  0.51100000000E-03 0. -1.
         11    1    4    4    0    0 -0.39503278981E-01  0.25285625193E-01 -0.47857224953E-01  0.67010797584E-01  0.51100000000E-03 0.  1.
</event>
<event>
 8    1  0.1207611E+005  0.1043930E+01  0.7957747E-01            NaN
         13   -1    0    0    0    0  0.00000000000E+00  0.00000000000E+00  0.74505805969E-08  0.10566000000E+00  0.10566000000E+00 0. -1.
     999900   -1    0    0    0    0 -0.00000000000E+00 -0.00000000000E+00 -0.74505805969E-08  0.93827000000E+00  0.93827000000E+00 0. -1.
     999902    2    1    2    0    0 -0.26841905888E-02  0.21307717418E-01 -0.90759581845E-02  0.10206148393E+01  0.10203484961E+01 0.  0.
     999903    2    3    3    0    0 -0.87587929133E-01 -0.83822320811E-01 -0.41393653335E-01  0.12971338395E+00  0.20354376513E-01 0.  0.
         14    1    1    2    0    0  0.26841905888E-02 -0.21307717418E-01  0.90759581845E-02  0.23315160683E-01  0.00000000000E+00 0. -1.
     999901    1    3    3    0    0  0.84903738544E-01  0.10513003823E+00  0.32317695151E-01  0.89090145537E+00  0.88000000000E+00 0.  1.
        -11    1    4    4    0    0 -0.44856239237E-01 -0.40481437279E-01 -0.31185075429E-01  0.67997051504E-01  0.51100000000E-03 0.  1.
         11    1    4    4    0    0 -0.42731689896E-01 -0.43340883532E-01 -0.10208577906E-01  0.61716332446E-01  0.51100000000E-03 0. -1.
</event>
<event>
 8    1  0.1207611E+005  0.1043930E+01  0.7957747E-01            NaN
         13   -1    0    0    0    0  0.00000000000E+00  0.00000000000E+00  0.74505805969E-08  0.10566000000E+00  0.10566000000E+00 0.  1.
     999900   -1    0    0    0    0 -0.00000000000E+00 -0.00000000000E+00 -0.74505805969E-08  0.93827000000E+00  0.93827000000E+00 0. -1.
     999902    2    1    2    0    0  0.23953058512E-02 -0.44916576707E-02  0.24914309881E-01  0.10185009749E+01  0.10181834808E+01 0.  0.
     999903    2    3    3    0    0  0.43761046635E-01  0.10062353052E+00 -0.60996245308E-01  0.12713070912E+00  0.20038741544E-01 0.  0.
         14    1    1    2    0    0 -0.23953058512E-02  0.44916576707E-02 -0.24914309881E-01  0.25429025062E-01  0.00000000000E+00 0. -1.
     999901    1    3    3    0    0 -0.41365740784E-01 -0.10511518819E+00  0.85910555189E-01  0.89137026582E+00  0.88000000000E+00 0. -1.
        -11    1    4    4    0    0  0.29381740795E-01  0.44276331382E-01 -0.24912921345E-01  0.58690672033E-01  0.51100000000E-03 0. -1.
         11    1    4    4    0    0  0.14379305840E-01  0.56347199134E-01 -0.36083323963E-01  0.68440037083E-01  0.51100000000E-03 0.  1.
</event>
<event>
 8    1  0.1207611E+005  0.1043930E+01  0.7957747E-01            NaN
         13   -1    0    0    0    0  0.00000000000E+00  0.00000000000E+00  0.74505805969E-08  0.10566000000E+00  0.10566000000E+00 0. -1.
     999900   -1    0    0    0    0 -0.00000000000E+00 -0.00000000000E+00 -0.74505805969E-08  0.93827000000E+00  0.93827000000E+00 0.  1.
     999902    2    1    2    0    0  0.77716800383E-02  0.15221114215E-01 -0.16220986703E-01  0.10203672808E+01  0.10200951847E+01 0.  0.
     999903    2    3    3    0    0 -0.40454885817E-01  0.12164491211E+00  0.27608647998E-01  0.13156310475E+00  0.10608046883E-01 0.  0.
         14    1    1    2    0    0 -0.77716800383E-02 -0.15221114215E-01  0.16220986703E-01  0.23562719244E-01  0.00000000000E+00 0. -1.
     999901    1    3    3    0    0  0.48226565856E-01 -0.10642379789E+00 -0.43829634701E-01  0.88880417601E+00  0.88000000000E+00 0.  1.
        -11    1    4    4    0    0 -0.37659188000E-01  0.11042385853E+00  0.27993227433E-01  0.11998135220E+00  0.51100000000E-03 0.  1.
         11    1    4    4    0    0 -0.27956978178E-02  0.11221053577E-01 -0.38457943495E-03  0.11581752545E-01  0.51100000000E-03 0. -1.
</event>
<event>
 8    1  0.1207611E+005  0.1043930E+01  0.7957747E-01            NaN
         13   -1    0    0    0    0  0.00000000000E+00  0.00000000000E+00  0.74505805969E-08  0.10566000000E+00  0.10566000000E+00 0.  1.
     999900   -1    0    0    0    0 -0.00000000000E+00 -0.00000000000E+00 -0.74505805969E-08  0.93827000000E+00  0.93827000000E+00 0. -1.
     999902    2    1    2    0    0  0.10512626560E-01 -0.16916246527E-01 -0.11886144984E-01  0.10207361397E+01  0.10204725923E+01 0.  0.
     999903    2    3    3    0    0  0.81510067385E-01 -0.45368518391E-04  0.10008028629E+00  0.13064527642E+00  0.20204737207E-01 0.  0.
         14    1    1    2    0    0 -0.10512626560E-01  0.16916246527E-01  0.11886144984E-01  0.23193860315E-01  0.00000000000E+00 0.  1.
     999901    1    3    3    0    0 -0.70997440825E-01 -0.16870878008E-01 -0.11196643127E+00  0.89009086326E+00  0.88000000000E+00 0. -1.
        -11    1    4    4    0    0  0.48688604635E-01 -0.58248063063E-02  0.46723128836E-01  0.67733451699E-01  0.51100000000E-03 0. -1.
         11    1    4    4    0    0  0.32821462750E-01  0.57794377880E-02  0.53357157450E-01  0.62911824725E-01  0.51100000000E-03 0.  1.
</event>
<event>
 8    1  0.1207611E+005  0.1043930E+01  0.7957747E-01            NaN
         13   -1    0    0    0    0  0.00000000000E+00  0.00000000000E+00  0.74505805969E-08  0.10566000000E+00  0.10566000000E+00 0. -1.
     999900   -1    0    0    0    0 -0.00000000000E+00 -0.00000000000E+00 -0.74505805969E-08  0.93827000000E+00  0.93827000000E+00 0.  1.
     999902    2    1    2    0    0 -0.16059536041E-01  0.13581558961E-01 -0.91110851673E-02  0.10210088457E+01  0.10207515289E+01 0.  0.
     999903    2    3    3    0    0  0.12363527807E+00  0.26345213536E-01 -0.21866219946E-01  0.12980727174E+00  0.19800100039E-01 0.  0.
         14    1    1    2    0    0  0.16059536041E-01 -0.13581558961E-01  0.91110851673E-02  0.22921154303E-01  0.00000000000E+00 0.  1.
     999901    1    3    3    0    0 -0.13969481411E+00 -0.12763654575E-01  0.12755134779E-01  0.89120157396E+00  0.88000000000E+00 0. -1.
        -11    1    4    4    0    0  0.83415937104E-01  0.12442566093E-01 -0.22333373229E-01  0.87247215971E-01  0.51100000000E-03 0.  1.
         11    1    4    4    0    0  0.40219340964E-01  0.13902647443E-01  0.46715328273E-03  0.42560055765E-01  0.51100000000E-03 0. -1.
</event>
<event>
 8    1  0.1207611E+005  0.1043930E+01  0.7957747E-01            NaN
         13   -1    0    0    0    0  0.00000000000E+00  0.00000000000E+00  0.74505805969E-08  0.10566000000E+00  0.10566000000E+00 0. -1.
     999900   -1    0    0    0    0 -0.00000000000E+00 -0.00000000000E+00 -0.74505805969E-08  0.93827000000E+00  0.93827000000E+00 0. -1.
     999902    2    1    2    0    0  0.17285907226E-01 -0.12008025952E-01 -0.10879800685E-01  0.10202368504E+01  0.10199616981E+01 0.  0.
     999903    2    3    3    0    0 -0.10840986836E+00 -0.63926510744E-01 -0.24163362682E-01  0.12969128160E+00  0.19916377469E-01 0.  0.
         14    1    1    2    0    0 -0.17285907226E-01  0.12008025952E-01  0.10879800685E-01  0.23693149618E-01  0.00000000000E+00 0. -1.
     999901    1    3    3    0    0  0.12569577559E+00  0.51918484792E-01  0.13283561996E-01  0.89054556879E+00  0.88000000000E+00 0. -1.
        -11    1    4    4    0    0 -0.68248081877E-01 -0.37606043450E-01 -0.53215995335E-02  0.78106310414E-01  0.51100000000E-03 0.  1.
         11    1    4    4    0    0 -0.40161786486E-01 -0.26320467294E-01 -0.18841763148E-01  0.51584971182E-01  0.51100000000E-03 0. -1.
</event>
<event>
 8    1  0.1207611E+005  0.1043930E+01  0.7957747E-01            NaN
         13   -1    0    0    0    0  0.00000000000E+00  0.00000000000E+00  0.74505805969E-08  0.10566000000E+00  0.10566000000E+00 0.  1.
     999900   -1    0    0    0    0 -0.00000000000E+00 -0.00000000000E+00 -0.74505805969E-08  0.93827000000E+00  0.93827000000E+00 0. -1.
     999902    2    1    2    0    0  0.22443691017E-01 -0.72235602812E-02 -0.55729792615E-02  0.10197028007E+01  0.10194149521E+01 0.  0.
     999903    2    3    3    0    0 -0.96159976048E-01 -0.16574875814E-01 -0.81289803190E-01  0.12847481953E+00  0.19397928967E-01 0.  0.
         14    1    1    2    0    0 -0.22443691017E-01  0.72235602812E-02  0.55729792615E-02  0.24227199331E-01  0.00000000000E+00 0.  1.
     999901    1    3    3    0    0  0.11860366706E+00  0.93513155328E-02  0.75716823928E-01  0.89122798114E+00  0.88000000000E+00 0.  1.
        -11    1    4    4    0    0 -0.39218614078E-01 -0.10709587082E-01 -0.45236199803E-01  0.60822445193E-01  0.51100000000E-03 0. -1.
         11    1    4    4    0    0 -0.56941361970E-01 -0.58652887323E-02 -0.36053603387E-01  0.67652374334E-01  0.51100000000E-03 0.  1.
</event>
<event>
 8    1  0.1207611E+005  0.1043930E+01  0.7957747E-01            NaN
         13   -1    0    0    0    0  0.00000000000E+00  0.00000000000E+00  0.74505805969E-08  0.10566000000E+00  0.10566000000E+00 0. -1.
     999900   -1    0    0    0    0 -0.00000000000E+00 -0.00000000000E+00 -0.74505805969E-08  0.93827000000E+00  0.93827000000E+00 0.  1.
     999902    2    1    2    0    0  0.29160178972E-03  0.51542532759E-03  0.23384778670E-01  0.10205377242E+01  0.10202695957E+01 0.  0.
     999903    2    3    3    0    0  0.93629917042E-01 -0.89006401359E-01  0.13944093603E-02  0.13081317416E+00  0.20529035764E-01 0.  0.
         14    1    1    2    0    0 -0.29160178972E-03 -0.51542532759E-03 -0.23384778670E-01  0.23392275826E-01  0.00000000000E+00 0.  1.
     999901    1    3    3    0    0 -0.93338315252E-01  0.89521826687E-01  0.21990369310E-01  0.88972455001E+00  0.88000000000E+00 0.  1.
        -11    1    4    4    0    0  0.81351585224E-02 -0.16951988699E-01 -0.22494634946E-02  0.18943915436E-01  0.51100000000E-03 0.  1.
         11    1    4    4    0    0  0.85494758520E-01 -0.72054412660E-01  0.36438728549E-02  0.11186925873E+00  0.51100000000E-03 0. -1.
</event>
<event>
 8    1  0.1207611E+005  0.1043930E+01  0.7957747E-01            NaN
         13   -1    0    0    0    0  0.00000000000E+00  0.00000000000E+00  0.74505805969E-08  0.10566000000E+00  0.10566000000E+00 0.  1.
     999900   -1    0    0    0    0 -0.00000000000E+00 -0.00000000000E+00 -0.74505805969E-08  0.93827000000E+00  0.93827000000E+00 0.  1.
     999902    2    1    2    0    0 -0.14066100723E-01  0.72967599016E-02  0.20115341320E-01  0.10183228750E+01  0.10180008609E+01 0.  0.
     999903    2    3    3    0    0  0.30133965618E-01  0.10101531017E+00 -0.69384005313E-01  0.12773489755E+00  0.19746267609E-01 0.  0.
         14    1    1    2    0    0  0.14066100723E-01 -0.72967599016E-02 -0.20115341320E-01  0.25607125005E-01  0.00000000000E+00 0. -1.
     999901    1    3    3    0    0 -0.44200066340E-01 -0.93718550272E-01  0.89499346633E-01  0.89058797745E+00  0.88000000000E+00 0. -1.
        -11    1    4    4    0    0  0.62060530177E-02  0.55150863693E-01 -0.34920998313E-01  0.65573394791E-01  0.51100000000E-03 0.  1.
         11    1    4    4    0    0  0.23927912600E-01  0.45864446480E-01 -0.34463007000E-01  0.62161502755E-01  0.51100000000E-03 0. -1.
</event>
<event>
 8    1  0.1207611E+005  0.1043930E+01  0.7957747E-01            NaN
         13   -1    0    0    0    0  0.00000000000E+00  0.00000000000E+00  0.74505805969E-08  0.10566000000E+00  0.10566000000E+00 0. -1.
     999900   -1    0    0    0    0 -0.00000000000E+00 -0.00000000000E+00 -0.74505805969E-08  0.93827000000E+00  0.93827000000E+00 0.  1.
     999902    2    1    2    0    0 -0.94982243496E-02 -0.67188412104E-02 -0.20478692471E-01  0.10203771671E+01  0.10201053020E+01 0.  0.
     999903    2    3    3    0    0 -0.10568866790E+00  0.19930140022E-02 -0.78781809545E-01  0.13317496279E+00  0.18839601140E-01 0.  0.
         14    1    1    2    0    0  0.94982243496E-02  0.67188412104E-02  0.20478692471E-01  0.23552832915E-01  0.00000000000E+00 0. -1.
     999901    1    3    3    0    0  0.96190443549E-01 -0.87118552126E-02  0.58303117075E-01  0.88720220430E+00  0.88000000000E+00 0. -1.
        -11    1    4    4    0    0 -0.10822591656E-01 -0.33820034304E-02 -0.32910427608E-02  0.11817720627E-01  0.51100000000E-03 0.  1.
         11    1    4    4    0    0 -0.94866076242E-01  0.53750174326E-02 -0.75490766785E-01  0.12135724216E+00  0.51100000000E-03 0. -1.
</event>
<event>
 8    1  0.1207611E+005  0.1043930E+01  0.7957747E-01            NaN
         13   -1    0    0    0    0  0.00000000000E+00  0.00000000000E+00  0.74505805969E-08  0.10566000000E+00  0.10566000000E+00 0.  1.
     999900   -1    0    0    0    0 -0.00000000000E+00 -0.00000000000E+00 -0.74505805969E-08  0.93827000000E+00  0.93827000000E+00 0.  1.
     999902    2    1    2    0    0 -0.36127382470E-02  0.21473773510E-01 -0.82007404229E-02  0.10206614167E+01  0.10203961488E+01 0.  0.
     999903    2    3    3    0    0  0.52258950703E-01  0.11192193223E+00  0.44185983637E-01  0.13271610085E+00  0.20090929075E-01 0.  0.
         14    1    1    2    0    0  0.36127382470E-02 -0.21473773510E-01  0.82007404229E-02  0.23268583324E-01  0.00000000000E+00 0.  1.
     999901    1    3    3    0    0 -0.55871688950E-01 -0.90448158723E-01 -0.52386724060E-01  0.88794531583E+00  0.88000000000E+00 0.  1.
        -11    1    4    4    0    0  0.13289709613E-01  0.30313464922E-01  0.21518058729E-01  0.39481774398E-01  0.51100000000E-03 0. -1.
         11    1    4    4    0    0  0.38969241090E-01  0.81608467311E-01  0.22667924909E-01  0.93234326451E-01  0.51100000000E-03 0.  1.
</event>
<event>
 8    1  0.1207611E+005  0.1043930E+01  0.7957747E-01            NaN
         13   -1    0    0    0    0  0.00000000000E+00  0.00000000000E+00  0.74505805969E-08  0.10566000000E+00  0.10566000000E+00 0. -1.
     999900   -1    0    0    0    0 -0.00000000000E+00 -0.00000000000E+00 -0.74505805969E-08  0.93827000000E+00  0.93827000000E+00 0. -1.
     999902    2    1    2    0    0  0.95685787051E-02 -0.19774275007E-01  0.21796286230E-03  0.10219612231E+01  0.10217250679E+01 0.  0.
     999903    2    3    3    0    0 -0.10991404015E+00 -0.34348214617E-01 -0.60692918490E-01  0.13168113718E+00  0.19884553445E-01 0.  0.
         14    1    1    2    0    0 -0.95685787051E-02  0.19774275007E-01 -0.21796286230E-03  0.21968776896E-01  0.00000000000E+00 0.  1.
     999901    1    3    3    0    0  0.11948261885E+00  0.14573939610E-01  0.60910881353E-01  0.89028008592E+00  0.88000000000E+00 0. -1.
        -11    1    4    4    0    0 -0.82413846608E-01 -0.25353601812E-01 -0.35269716310E-01  0.93161479417E-01  0.51100000000E-03 0. -1.
         11    1    4    4    0    0 -0.27500193539E-01 -0.89946128048E-02 -0.25423202180E-01  0.38519657764E-01  0.51100000000E-03 0.  1.
</event>
<event>
 8    1  0.1207611E+005  0.1043930E+01  0.7957747E-01            NaN
         13   -1    0    0    0    0  0.00000000000E+00  0.00000000000E+00  0.74505805969E-08  0.10566000000E+00  0.10566000000E+00 0.  1.
     999900   -1    0    0    0    0 -0.00000000000E+00 -0.00000000000E+00 -0.74505805969E-08  0.93827000000E+00  0.93827000000E+00 0.  1.
     999902    2    1    2    0    0  0.27320576032E-01 -0.11453149188E-01 -0.86042236191E-02  0.10130816424E+01  0.10126118669E+01 0.  0.
     999903    2    3    3    0    0 -0.11254535711E+00 -0.91869896469E-02  0.41660358293E-01  0.12061643698E+00  0.78664623468E-02 0.  0.
         14    1    1    2    0    0 -0.27320576032E-01  0.11453149188E-01  0.86042236191E-02  0.30848357576E-01  0.00000000000E+00 0. -1.
     999901    1    3    3    0    0  0.13986593315E+00 -0.22661595415E-02 -0.50264581912E-01  0.89246520544E+00  0.88000000000E+00 0. -1.
        -11    1    4    4    0    0 -0.48828930121E-01 -0.67673199944E-02  0.15297924720E-01  0.51617329051E-01  0.51100000000E-03 0. -1.
         11    1    4    4    0    0 -0.63716426993E-01 -0.24196696525E-02  0.26362433573E-01  0.68999107928E-01  0.51100000000E-03 0.  1.
</event>
<event>
 8    1  0.1207611E+005  0.1043930E+01  0.7957747E-01            NaN
         13   -1    0    0    0    0  0.00000000000E+00  0.00000000000E+00  0.74505805969E-08  0.10566000000E+00  0.10566000000E+00 0.  1.
     999900   -1    0    0    0    0 -0.00000000000E+00 -0.00000000000E+00 -0.74505805969E-08  0.93827000000E+00  0.93827000000E+00 0.  1.
     999902    2    1    2    0    0  0.13967705264E-01  0.11284571746E-01  0.14983994580E-01  0.10205428573E+01  0.10202748478E+01 0.  0.
     999903    2    3    3    0    0  0.60387731108E-01 -0.98714171684E-01  0.59004008601E-01  0.13139028098E+00  0.19767831065E-01 0.  0.
         14    1    1    2    0    0 -0.13967705264E-01 -0.11284571746E-01 -0.14983994580E-01  0.23387142694E-01  0.00000000000E+00 0. -1.
     999901    1    3    3    0    0 -0.46420025844E-01  0.10999874343E+00 -0.44020014021E-01  0.88915257633E+00  0.88000000000E+00 0.  1.
        -11    1    4    4    0    0  0.30380817587E-01 -0.67862981669E-01  0.37072911003E-01  0.83084536524E-01  0.51100000000E-03 0.  1.
         11    1    4    4    0    0  0.30006913521E-01 -0.30851190015E-01  0.21931097598E-01  0.48305744454E-01  0.51100000000E-03 0. -1.
</event>
<event>
 8    1  0.1207611E+005  0.1043930E+01  0.7957747E-01            NaN
         13   -1    0    0    0    0  0.00000000000E+00  0.00000000000E+00  0.74505805969E-08  0.10566000000E+00  0.10566000000E+00 0.  1.
     999900   -1    0    0    0    0 -0.00000000000E+00 -0.00000000000E+00 -0.74505805969E-08  0.93827000000E+00  0.93827000000E+00 0.  1.
     999902    2    1    2    0    0 -0.13082399194E-02 -0.11113778542E-01  0.20502742831E-01  0.10205721313E+01  0.10203048002E+01 0.  0.
     999903    2    3    3    0    0 -0.22433298351E-01  0.12574886394E+00  0.48527460004E-02  0.12960491903E+00  0.21397575412E-01 0.  0.
         14    1    1    2    0    0  0.13082399194E-02  0.11113778542E-01 -0.20502742831E-01  0.23357868669E-01  0.00000000000E+00 0. -1.
     999901    1    3    3    0    0  0.21125058431E-01 -0.13686264249E+00  0.15649996831E-01  0.89096721231E+00  0.88000000000E+00 0. -1.
        -11    1    4    4    0    0 -0.12553732234E-01  0.10984996700E+00  0.14671150311E-02  0.11057587889E+00  0.51100000000E-03 0. -1.
         11    1    4    4    0    0 -0.98795661163E-02  0.15898896940E-01  0.33856309693E-02  0.19029040139E-01  0.51100000000E-03 0.  1.
</event>
<event>
 8    1  0.1207611E+005  0.1043930E+01  0.7957747E-01            NaN
         13   -1    0    0    0    0  0.00000000000E+00  0.00000000000E+00  0.74505805969E-08  0.10566000000E+00  0.10566000000E+00 0. -1.
     999900   -1    0    0    0    0 -0.00000000000E+00 -0.00000000000E+00 -0.74505805969E-08  0.93827000000E+00  0.93827000000E+00 0. -1.
     999902    2    1    2    0    0 -0.71318035932E-02 -0.18925241539E-01 -0.63225081110E-02  0.10227403445E+01  0.10225208119E+01 0.  0.
     999903    2    3    3    0    0  0.12579250981E+00 -0.36095511873E-01  0.40189845418E-02  0.13253214544E+00  0.20542050441E-01 0.  0.
         14    1    1    2    0    0  0.71318035932E-02  0.18925241539E-01  0.63225081110E-02  0.21189655463E-01  0.00000000000E+00 0.  1.
     999901    1    3    3    0    0 -0.13292431340E+00  0.17170270334E-01 -0.10341492653E-01  0.89020819910E+00  0.88000000000E+00 0. -1.
        -11    1    4    4    0    0  0.31076059047E-01 -0.12197628111E-03  0.27913861114E-02  0.31205596958E-01  0.51100000000E-03 0. -1.
         11    1    4    4    0    0  0.94716450760E-01 -0.35973535592E-01  0.12275984304E-02  0.10132654848E+00  0.51100000000E-03 0.  1.
</event>
<event>
 8    1  0.1207611E+005  0.1043930E+01  0.7957747E-01            NaN
         13   -1    0    0    0    0  0.00000000000E+00  0.00000000000E+00  0.74505805969E-08  0.10566000000E+00  0.10566000000E+00 0. -1.
     999900   -1    0    0    0    0 -0.00000000000E+00 -0.00000000000E+00 -0.74505805969E-08  0.93827000000E+00  0.93827000000E+00 0.  1.
     999902    2    1    2    0    0 -0.45530317520E-02 -0.19475452113E-01  0.12615394285E-01  0.10202831925E+01  0.10200091281E+01 0.  0.
     999903    2    3    3    0    0 -0.20795965141E-01  0.91009029788E-01 -0.84959565481E-01  0.12787547938E+00  0.20466919403E-01 0.  0.
         14    1    1    2    0    0  0.45530317520E-02  0.19475452113E-01 -0.12615394285E-01  0.23646807525E-01  0.00000000000E+00 0.  1.
     999901    1    3    3    0    0  0.16242933389E-01 -0.11048448190E+00  0.97574959766E-01  0.89240771310E+00  0.88000000000E+00 0.  1.
        -11    1    4    4    0    0 -0.11344624784E-01  0.16675622087E-01 -0.13105589713E-01  0.24058148021E-01  0.51100000000E-03 0. -1.
         11    1    4    4    0    0 -0.94513403570E-02  0.74333407701E-01 -0.71853975768E-01  0.10381733136E+00  0.51100000000E-03 0.  1.
</event>
<event>
 8    1  0.1207611E+005  0.1043930E+01  0.7957747E-01            NaN
         13   -1    0    0    0    0  0.00000000000E+00  0.00000000000E+00  0.74505805969E-08  0.10566000000E+00  0.10566000000E+00 0.  1.
     999900   -1    0    0    0    0 -0.00000000000E+00 -0.00000000000E+00 -0.74505805969E-08  0.93827000000E+00  0.93827000000E+00 0.  1.
     999902    2    1    2    0    0  0.43736508993E-02 -0.23970238238E-01 -0.64147513950E-03  0.10195555742E+01  0.10192641739E+01 0.  0.
     999903    2    3    3    0    0  0.49530787422E-01 -0.10614234233E+00 -0.58908863910E-01  0.13265844923E+00  0.20211733360E-01 0.  0.
         14    1    1    2    0    0 -0.43736508993E-02  0.23970238238E-01  0.64147513950E-03  0.24374425813E-01  0.00000000000E+00 0. -1.
     999901    1    3    3    0    0 -0.45157136523E-01  0.82172104094E-01  0.58267388770E-01  0.88689712496E+00  0.88000000000E+00 0. -1.
        -11    1    4    4    0    0  0.20078853123E-01 -0.48254870361E-01 -0.37279854338E-01  0.64200790624E-01  0.51100000000E-03 0.  1.
         11    1    4    4    0    0  0.29451934300E-01 -0.57887471971E-01 -0.21629009572E-01  0.68457658602E-01  0.51100000000E-03 0. -1.
</event>
<event>
 8    1  0.1207611E+005  0.1043930E+01  0.7957747E-01            NaN
         13   -1    0    0    0    0  0.00000000000E+00  0.00000000000E+00  0.74505805969E-08  0.10566000000E+00  0.10566000000E+00 0. -1.
     999900   -1    0    0    0    0 -0.00000000000E+00 -0.00000000000E+00 -0.74505805969E-08  0.93827000000E+00  0.93827000000E+00 0.  1.
     999902    2    1    2    0    0  0.21444631781E-01  0.81176473029E-02 -0.70402565003E-02  0.10199438865E+01  0.10196618057E+01 0.  0.
     999903    2    3    3    0    0 -0.50293206910E-01  0.19272318646E-01 -0.11687685767E+00  0.13014906567E+00  0.19435804831E-01 0.  0.
         14    1    1    2    0    0 -0.21444631781E-01 -0.81176473029E-02  0.70402565003E-02  0.23986113515E-01  0.00000000000E+00 0. -1.
     999901    1    3    3    0    0  0.71737838691E-01 -0.11154671343E-01  0.10983660117E+00  0.88979482081E+00  0.88000000000E+00 0. -1.
        -11    1    4    4    0    0 -0.15840938654E-01  0.10262418618E-01 -0.61282652658E-01  0.64125480202E-01  0.51100000000E-03 0.  1.
         11    1    4    4    0    0 -0.34452268256E-01  0.90099000284E-02 -0.55594205010E-01  0.66023585469E-01  0.51100000000E-03 0. -1.
</event>
<event>
 8    1  0.1207611E+005  0.1043930E+01  0.7957747E-01            NaN
         13   -1    0    0    0    0  0.00000000000E+00  0.00000000000E+00  0.74505805969E-08  0.10566000000E+00  0.10566000000E+00 0.  1.
     999900   -1    0    0    0    0 -0.00000000000E+00 -0.00000000000E+00 -0.74505805969E-08  0.93827000000E+00  0.93827000000E+00 0. -1.
     999902    2    1    2    0    0 -0.16499702546E-01 -0.21305950026E-02  0.63521729745E-02  0.10261218636E+01  0.10259673237E+01 0.  0.
     999903    2    3    3    0    0  0.17968964183E-01  0.12765651727E-01  0.13294126141E+00  0.13627087360E+00  0.20261452786E-01 0.  0.
         14    1    1    2    0    0  0.16499702546E-01  0.21305950026E-02 -0.63521729745E-02  0.17808136361E-01  0.00000000000E+00 0. -1.
     999901    1    3    3    0    0 -0.34468666729E-01 -0.14896246730E-01 -0.12658908844E+00  0.88985099003E+00  0.88000000000E+00 0. -1.
        -11    1    4    4    0    0  0.97029194843E-02  0.17043980608E-02  0.18208395037E-01  0.20708896400E-01  0.51100000000E-03 0. -1.
         11    1    4    4    0    0  0.82660446989E-02  0.11061253666E-01  0.11473286638E+00  0.11556197720E+00  0.51100000000E-03 0.  1.
</event>
<event>
 8    1  0.1207611E+005  0.1043930E+01  0.7957747E-01            NaN
         13   -1    0    0    0    0  0.00000000000E+00  0.00000000000E+00  0.74505805969E-08  0.10566000000E+00  0.10566000000E+00 0. -1.
     999900   -1    0    0    0    0 -0.00000000000E+00 -0.00000000000E+00 -0.74505805969E-08  0.93827000000E+00  0.93827000000E+00 0.  1.
     999902    2    1    2    0    0 -0.53022255345E-02  0.21807292911E-01  0.74047127427E-02  0.10202973660E+01  0.10200236339E+01 0.  0.
     999903    2    3    3    0    0  0.33126510687E-01 -0.83006486391E-01 -0.89499378183E-01  0.12796721467E+00  0.19442912414E-01 0.  0.
         14    1    1    2    0    0  0.53022255345E-02 -0.21807292911E-01 -0.74047127427E-02  0.23632634016E-01  0.00000000000E+00 0.  1.
     999901    1    3    3    0    0 -0.38428736222E-01  0.10481377930E+00  0.96904090926E-01  0.89233015131E+00  0.88000000000E+00 0. -1.
        -11    1    4    4    0    0  0.76722715292E-02 -0.43710075827E-01 -0.48366168749E-01  0.65642835707E-01  0.51100000000E-03 0. -1.
         11    1    4    4    0    0  0.25454239158E-01 -0.39296410564E-01 -0.41133209434E-01  0.62324378967E-01  0.51100000000E-03 0.  1.
</event>
<event>
 8    1  0.1207611E+005  0.1043930E+01  0.7957747E-01            NaN
         13   -1    0    0    0    0  0.00000000000E+00  0.00000000000E+00  0.74505805969E-08  0.10566000000E+00  0.10566000000E+00 0. -1.
     999900   -1    0    0    0    0 -0.00000000000E+00 -0.00000000000E+00 -0.74505805969E-08  0.93827000000E+00  0.93827000000E+00 0. -1.
     999902    2    1    2    0    0 -0.20012503966E-01  0.10714397383E-01 -0.51089570980E-02  0.10206619947E+01  0.10203967402E+01 0.  0.
     999903    2    3    3    0    0  0.46864920556E-01  0.11588345998E+00 -0.35387435311E-01  0.13136457099E+00  0.19470050298E-01 0.  0.
         14    1    1    2    0    0  0.20012503966E-01 -0.10714397383E-01  0.51089570980E-02  0.23268005262E-01  0.00000000000E+00 0. -1.
     999901    1    3    3    0    0 -0.66877424522E-01 -0.10516906260E+00  0.30278478213E-01  0.88929742375E+00  0.88000000000E+00 0.  1.
        -11    1    4    4    0    0  0.20645623324E-01  0.74795784911E-01 -0.18403620288E-01  0.79747135144E-01  0.51100000000E-03 0.  1.
         11    1    4    4    0    0  0.26219297232E-01  0.41087675067E-01 -0.16983815023E-01  0.51617435848E-01  0.51100000000E-03 0. -1.
</event>
<event>
 8    1  0.1207611E+005  0.1043930E+01  0.7957747E-01            NaN
         13   -1    0    0    0    0  0.00000000000E+00  0.00000000000E+00  0.74505805969E-08  0.10566000000E+00  0.10566000000E+00 0. -1.
     999900   -1    0    0    0    0 -0.00000000000E+00 -0.00000000000E+00 -0.74505805969E-08  0.93827000000E+00  0.93827000000E+00 0.  1.
     999902    2    1    2    0    0 -0.54689883339E-02  0.24023022395E-01  0.34511300240E-02  0.10190517819E+01  0.10187480593E+01 0.  0.
     999903    2    3    3    0    0 -0.73610943400E-01 -0.79574866717E-01  0.65544738942E-01  0.12819182378E+00  0.19654528259E-01 0.  0.
         14    1    1    2    0    0  0.54689883339E-02 -0.24023022395E-01 -0.34511300240E-02  0.24878218120E-01  0.00000000000E+00 0. -1.
     999901    1    3    3    0    0  0.68141955066E-01  0.10359788911E+00 -0.62093608918E-01  0.89085995810E+00  0.88000000000E+00 0.  1.
        -11    1    4    4    0    0 -0.29654362309E-01 -0.46136880811E-01  0.30083238514E-01  0.62556017580E-01  0.51100000000E-03 0. -1.
         11    1    4    4    0    0 -0.43956581091E-01 -0.33437985906E-01  0.35461500427E-01  0.65635806205E-01  0.51100000000E-03 0.  1.
</event>
<event>
 8    1  0.1207611E+005  0.1043930E+01  0.7957747E-01            NaN
         13   -1    0    0    0    0  0.00000000000E+00  0.00000000000E+00  0.74505805969E-08  0.10566000000E+00  0.10566000000E+00 0. -1.
     999900   -1    0    0    0    0 -0.00000000000E+00 -0.00000000000E+00 -0.74505805969E-08  0.93827000000E+00  0.93827000000E+00 0. -1.
     999902    2    1    2    0    0 -0.42988459054E-04  0.21784998591E-01 -0.91664055768E-02  0.10202950470E+01  0.10200212605E+01 0.  0.
     999903    2    3    3    0    0  0.11289579440E+00 -0.18892498731E-02  0.61379262680E-01  0.12996233952E+00  0.19333032581E-01 0.  0.
         14    1    1    2    0    0  0.42988459054E-04 -0.21784998591E-01  0.91664055768E-02  0.23634952989E-01  0.00000000000E+00 0.  1.
     999901    1    3    3    0    0 -0.11293878286E+00  0.23674248464E-01 -0.70545668257E-01  0.89033270749E+00  0.88000000000E+00 0. -1.
        -11    1    4    4    0    0  0.81184235440E-01 -0.16218037620E-02  0.33888594415E-01  0.87989819206E-01  0.51100000000E-03 0.  1.
         11    1    4    4    0    0  0.31711558959E-01 -0.26744611111E-03  0.27490668265E-01  0.41972520316E-01  0.51100000000E-03 0. -1.
</event>
<event>
 8    1  0.1207611E+005  0.1043930E+01  0.7957747E-01            NaN
         13   -1    0    0    0    0  0.00000000000E+00  0.00000000000E+00  0.74505805969E-08  0.10566000000E+00  0.10566000000E+00 0. -1.
     999900   -1    0    0    0    0 -0.00000000000E+00 -0.00000000000E+00 -0.74505805969E-08  0.93827000000E+00  0.93827000000E+00 0.  1.
     999902    2    1    2    0    0  0.68287328172E-02  0.10851618531E-01 -0.19883989276E-01  0.10202707049E+01  0.10199963475E+01 0.  0.
     999903    2    3    3    0    0 -0.10641377505E+00 -0.59273147632E-01  0.35909370259E-01  0.12850041640E+00  0.19638650472E-01 0.  0.
         14    1    1    2    0    0 -0.68287328172E-02 -0.10851618531E-01  0.19883989276E-01  0.23659295132E-01  0.00000000000E+00 0. -1.
     999901    1    3    3    0    0  0.11324250787E+00  0.70124766163E-01 -0.55793359535E-01  0.89177028846E+00  0.88000000000E+00 0.  1.
        -11    1    4    4    0    0 -0.76176816457E-01 -0.50537902208E-01  0.31619729933E-01  0.96731873584E-01  0.51100000000E-03 0. -1.
         11    1    4    4    0    0 -0.30236958596E-01 -0.87352454240E-02  0.42896403265E-02  0.31768542820E-01  0.51100000000E-03 0.  1.
</event>
<event>
 8    1  0.1207611E+005  0.1043930E+01  0.7957747E-01            NaN
         13   -1    0    0    0    0  0.00000000000E+00  0.00000000000E+00  0.74505805969E-08  0.10566000000E+00  0.10566000000E+00 0.  1.
     999900   -1    0    0    0    0 -0.00000000000E+00 -0.00000000000E+00 -0.74505805969E-08  0.93827000000E+00  0.93827000000E+00 0.  1.
     999902    2    1    2    0    0  0.89413856156E-02 -0.19775776947E-01  0.99424416781E-02  0.10200578012E+01  0.10197784249E+01 0.  0.
     999903    2    3    3    0    0 -0.54051462140E-01 -0.82823078172E-01 -0.82948879441E-01  0.13069181430E+00  0.20459982567E-01 0.  0.
         14    1    1    2    0    0 -0.89413856156E-02  0.19775776947E-01 -0.99424416781E-02  0.23872198833E-01  0.00000000000E+00 0. -1.
     999901    1    3    3    0    0  0.62992847756E-01  0.63047301224E-01  0.92891321119E-01  0.88936598687E+00  0.88000000000E+00 0. -1.
        -11    1    4    4    0    0 -0.49045898928E-02 -0.15068024588E-01 -0.58753650334E-02  0.16908027747E-01  0.51100000000E-03 0.  1.
         11    1    4    4    0    0 -0.49146872247E-01 -0.67755053584E-01 -0.77073514408E-01  0.11378378655E+00  0.51100000000E-03 0. -1.
</event>
<event>
 8    1  0.1207611E+005  0.1043930E+01  0.7957747E-01            NaN
         13   -1    0    0    0    0  0.00000000000E+00  0.00000000000E+00  0.74505805969E-08  0.10566000000E+00  0.10566000000E+00 0.  1.
     999900   -1    0    0    0    0 -0.00000000000E+00 -0.00000000000E+00 -0.74505805969E-08  0.93827000000E+00  0.93827000000E+00 0.  1.
     999902    2    1    2    0    0  0.84179115756E-02 -0.14566580029E-01 -0.18321981161E-01  0.10190554853E+01  0.10187518543E+01 0.  0.
     999903    2    3    3    0    0  0.96397368575E-01 -0.11786459160E-01  0.82729952935E-01  0.12890965042E+00  0.18495393251E-01 0.  0.
         14    1    1    2    0    0 -0.84179115756E-02  0.14566580029E-01  0.18321981161E-01  0.24874514723E-01  0.00000000000E+00 0. -1.
     999901    1    3    3    0    0 -0.87979456999E-01 -0.27801208695E-02 -0.10105193410E+00  0.89014583486E+00  0.88000000000E+00 0.  1.
        -11    1    4    4    0    0  0.19725731989E-01 -0.58665299143E-02  0.93298373641E-02  0.22601496897E-01  0.51100000000E-03 0. -1.
         11    1    4    4    0    0  0.76671636586E-01 -0.59199292455E-02  0.73400115571E-01  0.10630815352E+00  0.51100000000E-03 0.  1.
</event>
<event>
 8    1  0.1207611E+005  0.1043930E+01  0.7957747E-01            NaN
         13   -1    0    0    0    0  0.00000000000E+00  0.00000000000E+00  0.74505805969E-08  0.10566000000E+00  0.10566000000E+00 0.  1.
     999900   -1    0    0    0    0 -0.00000000000E+00 -0.00000000000E+00 -0.74505805969E-08  0.93827000000E+00  0.93827000000E+00 0.  1.
     999902    2    1    2    0    0 -0.23659120548E-01  0.42758903409E-02  0.16170719962E-02  0.10198332752E+01  0.10195485555E+01 0.  0.
     999903    2    3    3    0    0  0.49185025533E-01  0.58711366894E-02 -0.11768371367E+00  0.12879932980E+00  0.16916675541E-01 0.  0.
         14    1    1    2    0    0  0.23659120548E-01 -0.42758903409E-02 -0.16170719962E-02  0.24096724781E-01  0.00000000000E+00 0. -1.
     999901    1    3    3    0    0 -0.72844146081E-01 -0.15952463485E-02  0.11930078566E+00  0.89103394542E+00  0.88000000000E+00 0. -1.
        -11    1    4    4    0    0  0.38613739242E-01 -0.26839890780E-02 -0.85336400070E-01  0.93705853358E-01  0.51100000000E-03 0. -1.
         11    1    4    4    0    0  0.10571286292E-01  0.85551257674E-02 -0.32347313598E-01  0.35093476442E-01  0.51100000000E-03 0.  1.
</event>
<event>
 8    1  0.1207611E+005  0.1043930E+01  0.7957747E-01            NaN
         13   -1    0    0    0    0  0.00000000000E+00  0.00000000000E+00  0.74505805969E-08  0.10566000000E+00  0.10566000000E+00 0. -1.
     999900   -1    0    0    0    0 -0.00000000000E+00 -0.00000000000E+00 -0.74505805969E-08  0.93827000000E+00  0.93827000000E+00 0.  1.
     999902    2    1    2    0    0  0.22138496544E-01  0.17033233696E-02  0.79764215389E-02  0.10203368306E+01  0.10200640227E+01 0.  0.
     999903    2    3    3    0    0  0.17814186707E-01  0.72571454720E-01  0.10726044800E+00  0.13191220829E+00  0.17665381468E-01 0.  0.
         14    1    1    2    0    0 -0.22138496544E-01 -0.17033233696E-02 -0.79764215389E-02  0.23593169357E-01  0.00000000000E+00 0.  1.
     999901    1    3    3    0    0  0.43243098370E-02 -0.70868131351E-01 -0.99284026460E-01  0.88842462236E+00  0.88000000000E+00 0.  1.
        -11    1    4    4    0    0  0.87370823857E-02  0.92642914906E-02  0.15598032218E-01  0.20142577678E-01  0.51100000000E-03 0. -1.
         11    1    4    4    0    0  0.90771043212E-02  0.63307163230E-01  0.91662415781E-01  0.11176963061E+00  0.51100000000E-03 0.  1.
</event>
<event>
 8    1  0.1207611E+005  0.1043930E+01  0.7957747E-01            NaN
         13   -1    0    0    0    0  0.00000000000E+00  0.00000000000E+00  0.74505805969E-08  0.10566000000E+00  0.10566000000E+00 0.  1.
     999900   -1    0    0    0    0 -0.00000000000E+00 -0.00000000000E+00 -0.74505805969E-08  0.93827000000E+00  0.93827000000E+00 0.  1.
     999902    2    1    2    0    0 -0.12141680388E-01 -0.14773160663E-01 -0.14041661954E-01  0.10202058573E+01  0.10199299761E+01 0.  0.
     999903    2    3    3    0    0 -0.50213938892E-02  0.58757335865E-01 -0.11522602385E+00  0.13133257748E+00  0.22216444812E-01 0.  0.
         14    1    1    2    0    0  0.12141680388E-01  0.14773160663E-01  0.14041661954E-01  0.23724142746E-01  0.00000000000E+00 0.  1.
     999901    1    3    3    0    0 -0.71202864993E-02 -0.73530496527E-01  0.10118436190E+00  0.88887327977E+00  0.88000000000E+00 0. -1.
        -11    1    4    4    0    0 -0.31956229160E-02  0.24290402075E-01 -0.71750019924E-01  0.75819272740E-01  0.51100000000E-03 0.  1.
         11    1    4    4    0    0 -0.18257709732E-02  0.34466933790E-01 -0.43476003931E-01  0.55513304741E-01  0.51100000000E-03 0. -1.
</event>
<event>
 8    1  0.1207611E+005  0.1043930E+01  0.7957747E-01            NaN
         13   -1    0    0    0    0  0.00000000000E+00  0.00000000000E+00  0.74505805969E-08  0.10566000000E+00  0.10566000000E+00 0. -1.
     999900   -1    0    0    0    0 -0.00000000000E+00 -0.00000000000E+00 -0.74505805969E-08  0.93827000000E+00  0.93827000000E+00 0. -1.
     999902    2    1    2    0    0  0.21047048679E-01 -0.65176851671E-02  0.22343585621E-02  0.10217838754E+01  0.10215438498E+01 0.  0.
     999903    2    3    3    0    0  0.76130998158E-01  0.26262207500E-01 -0.10379770711E+00  0.13310420203E+00  0.21380649529E-01 0.  0.
         14    1    1    2    0    0 -0.21047048679E-01  0.65176851671E-02 -0.22343585621E-02  0.22146124632E-01  0.00000000000E+00 0.  1.
     999901    1    3    3    0    0 -0.55083949479E-01 -0.32779892668E-01  0.10603206567E+00  0.88867967334E+00  0.88000000000E+00 0.  1.
        -11    1    4    4    0    0  0.44245041797E-01  0.94681042323E-02 -0.72011779534E-01  0.85048375846E-01  0.51100000000E-03 0. -1.
         11    1    4    4    0    0  0.31885956361E-01  0.16794103268E-01 -0.31785927572E-01  0.48055826185E-01  0.51100000000E-03 0.  1.
</event>
<event>
 8    1  0.1207611E+005  0.1043930E+01  0.7957747E-01            NaN
         13   -1    0    0    0    0  0.00000000000E+00  0.00000000000E+00  0.74505805969E-08  0.10566000000E+00  0.10566000000E+00 0. -1.
     999900   -1    0    0    0    0 -0.00000000000E+00 -0.00000000000E+00 -0.74505805969E-08  0.93827000000E+00  0.93827000000E+00 0.  1.
     999902    2    1    2    0    0  0.21551107062E-01  0.19446238503E-02 -0.39311290407E-02  0.10219371477E+01  0.10217004690E+01 0.  0.
     999903    2    3    3    0    0  0.11907580869E+00  0.50546178982E-01 -0.32470873895E-01  0.13475751783E+00  0.19268277951E-01 0.  0.
         14    1    1    2    0    0 -0.21551107062E-01 -0.19446238503E-02  0.39311290407E-02  0.21992852317E-01  0.00000000000E+00 0. -1.
     999901    1    3    3    0    0 -0.97524701629E-01 -0.48601555132E-01  0.28539744854E-01  0.88717962985E+00  0.88000000000E+00 0.  1.
        -11    1    4    4    0    0  0.49130871515E-01  0.17929057658E-01 -0.22504960396E-01  0.56938809328E-01  0.51100000000E-03 0. -1.
         11    1    4    4    0    0  0.69944937176E-01  0.32617121325E-01 -0.99659134988E-02  0.77818708502E-01  0.51100000000E-03 0.  1.
</event>
<event>
 8    1  0.1207611E+005  0.1043930E+01  0.7957747E-01            NaN
         13   -1    0    0    0    0  0.00000000000E+00  0.00000000000E+00  0.74505805969E-08  0.10566000000E+00  0.10566000000E+00 0.  1.
     999900   -1    0    0    0    0 -0.00000000000E+00 -0.00000000000E+00 -0.74505805969E-08  0.93827000000E+00  0.93827000000E+00 0. -1.
     999902    2    1    2    0    0 -0.81576890544E-02 -0.11269800979E-03 -0.24039040547E-01  0.10185442547E+01  0.10182278541E+01 0.  0.
     999903    2    3    3    0    0  0.56007992598E-01 -0.52331334012E-01 -0.10468950796E+00  0.13099227399E+00  0.17989413984E-01 0.  0.
         14    1    1    2    0    0  0.81576890544E-02  0.11269800979E-03  0.24039040547E-01  0.25385745251E-01  0.00000000000E+00 0.  1.
     999901    1    3    3    0    0 -0.64165681653E-01  0.52218636002E-01  0.80650467410E-01  0.88755198075E+00  0.88000000000E+00 0.  1.
        -11    1    4    4    0    0  0.10582346800E-01 -0.21081956011E-01 -0.31700237244E-01  0.39517098772E-01  0.51100000000E-03 0.  1.
         11    1    4    4    0    0  0.45425645798E-01 -0.31249378001E-01 -0.72989270714E-01  0.91475175222E-01  0.51100000000E-03 0. -1.
</event>
<event>
 8    1  0.1207611E+005  0.1043930E+01  0.7957747E-01            NaN
         13   -1    0    0    0    0  0.00000000000E+00  0.00000000000E+00  0.74505805969E-08  0.10566000000E+00  0.10566000000E+00 0.  1.
     999900   -1    0    0    0    0 -0.00000000000E+00 -0.00000000000E+00 -0.74505805969E-08  0.93827000000E+00  0.93827000000E+00 0.  1.
     999902    2    1    2    0    0  0.16154396871E-01 -0.10082831287E-01  0.13959061926E-01  0.10203189129E+01  0.10200456855E+01 0.  0.
     999903    2    3    3    0    0  0.86653047648E-01  0.12041715055E-01 -0.94938719753E-01  0.13053338695E+00  0.19283439296E-01 0.  0.
         14    1    1    2    0    0 -0.16154396871E-01  0.10082831287E-01 -0.13959061926E-01  0.23611087117E-01  0.00000000000E+00 0.  1.
     999901    1    3    3    0    0 -0.70498650777E-01 -0.22124546342E-01  0.10889778168E+00  0.88978552594E+00  0.88000000000E+00 0.  1.
        -11    1    4    4    0    0  0.70564684469E-01  0.14810266865E-01 -0.84796184821E-01  0.11130755940E+00  0.51100000000E-03 0.  1.
         11    1    4    4    0    0  0.16088363179E-01 -0.27685518103E-02 -0.10142534933E-01  0.19225827544E-01  0.51100000000E-03 0. -1.
</event>
<event>
 8    1  0.1207611E+005  0.1043930E+01  0.7957747E-01            NaN
         13   -1    0    0    0    0  0.00000000000E+00  0.00000000000E+00  0.74505805969E-08  0.10566000000E+00  0.10566000000E+00 0.  1.
     999900   -1    0    0    0    0 -0.00000000000E+00 -0.00000000000E+00 -0.74505805969E-08  0.93827000000E+00  0.93827000000E+00 0. -1.
     999902    2    1    2    0    0  0.14984536192E-01  0.11977262481E-01 -0.13547931910E-01  0.10204451623E+01  0.10201748829E+01 0.  0.
     999903    2    3    3    0    0  0.83878409653E-01  0.60477865509E-01  0.79046261975E-01  0.13158501639E+00  0.19316966215E-01 0.  0.
         14    1    1    2    0    0 -0.14984536192E-01 -0.11977262481E-01  0.13547931910E-01  0.23484837672E-01  0.00000000000E+00 0.  1.
     999901    1    3    3    0    0 -0.68893873461E-01 -0.48500603028E-01 -0.92594193885E-01  0.88886014594E+00  0.88000000000E+00 0.  1.
        -11    1    4    4    0    0  0.49934643888E-01  0.24132117448E-01  0.41554643377E-01  0.69302794027E-01  0.51100000000E-03 0.  1.
         11    1    4    4    0    0  0.33943765765E-01  0.36345748061E-01  0.37491618598E-01  0.62282222363E-01  0.51100000000E-03 0. -1.
</event>
<event>
 8    1  0.1207611E+005  0.1043930E+01  0.7957747E-01            NaN
         13   -1    0    0    0    0  0.00000000000E+00  0.00000000000E+00  0.74505805969E-08  0.10566000000E+00  0.10566000000E+00 0. -1.
     999900   -1    0    0    0    0 -0.00000000000E+00 -0.00000000000E+00 -0.74505805969E-08  0.93827000000E+00  0.93827000000E+00 0. -1.
     999902    2    1    2    0    0  0.13507139150E-01 -0.14847306989E-01 -0.80670431845E-02  0.10222975587E+01  0.10220686552E+01 0.  0.
     999903    2    3    3    0    0 -0.53060324881E-01 -0.58876776750E-01 -0.10551019143E+00  0.13332906168E+00  0.19035894384E-01 0.  0.
         14    1    1    2    0    0 -0.13507139150E-01  0.14847306989E-01  0.80670431845E-02  0.21632441346E-01  0.00000000000E+00 0.  1.
     999901    1    3    3    0    0  0.66567464031E-01  0.44029469761E-01  0.97443148248E-01  0.88896849698E+00  0.88000000000E+00 0.  1.
        -11    1    4    4    0    0 -0.23914010675E-01 -0.28999366477E-01 -0.34850770301E-01  0.51260905906E-01  0.51100000000E-03 0.  1.
         11    1    4    4    0    0 -0.29146314206E-01 -0.29877410272E-01 -0.70659421131E-01  0.82068155773E-01  0.51100000000E-03 0. -1.
</event>
<event>
 8    1  0.1207611E+005  0.1043930E+01  0.7957747E-01            NaN
         13   -1    0    0    0    0  0.00000000000E+00  0.00000000000E+00  0.74505805969E-08  0.10566000000E+00  0.10566000000E+00 0. -1.
     999900   -1    0    0    0    0 -0.00000000000E+00 -0.00000000000E+00 -0.74505805969E-08  0.93827000000E+00  0.93827000000E+00 0.  1.
     999902    2    1    2    0    0 -0.10164022722E-03 -0.17324206567E-01  0.16140710781E-01  0.10202517186E+01  0.10199769156E+01 0.  0.
     999903    2    3    3    0    0  0.81731851014E-01  0.91908618638E-01  0.35024219620E-01  0.12953003522E+00  0.20592338744E-01 0.  0.
         14    1    1    2    0    0  0.10164022722E-03  0.17324206567E-01 -0.16140710781E-01  0.23678281366E-01  0.00000000000E+00 0.  1.
     999901    1    3    3    0    0 -0.81833491242E-01 -0.10923282520E+00 -0.18883508839E-01  0.89072168341E+00  0.88000000000E+00 0. -1.
        -11    1    4    4    0    0  0.54715829489E-01  0.74952093919E-01  0.25609153404E-01  0.96269040915E-01  0.51100000000E-03 0.  1.
         11    1    4    4    0    0  0.27016021525E-01  0.16956524719E-01  0.94150662160E-02  0.33260994309E-01  0.51100000000E-03 0. -1.
</event>
<event>
 8    1  0.1207611E+005  0.1043930E+01  0.7957747E-01            NaN
         13   -1    0    0    0    0  0.00000000000E+00  0.00000000000E+00  0.74505805969E-08  0.10566000000E+00  0.10566000000E+00 0.  1.
     999900   -1    0    0    0    0 -0.00000000000E+00 -0.00000000000E+00 -0.74505805969E-08  0.93827000000E+00  0.93827000000E+00 0. -1.
     999902    2    1    2    0    0  0.84332772667E-02 -0.96584228388E-02 -0.19366543760E-01  0.10207035428E+01  0.10204392456E+01 0.  0.
     999903    2    3    3    0    0 -0.10742688540E+00 -0.67074790207E-01 -0.29585145399E-01  0.13119545606E+00  0.17245395767E-01 0.  0.
         14    1    1    2    0    0 -0.84332772667E-02  0.96584228388E-02  0.19366543760E-01  0.23226457207E-01  0.00000000000E+00 0.  1.
     999901    1    3    3    0    0  0.11586016267E+00  0.57416367368E-01  0.10218601639E-01  0.88950808673E+00  0.88000000000E+00 0.  1.
        -11    1    4    4    0    0 -0.79685561256E-01 -0.43710918747E-01 -0.27077630783E-01  0.94836133937E-01  0.51100000000E-03 0. -1.
         11    1    4    4    0    0 -0.27741324147E-01 -0.23363871460E-01 -0.25075146159E-02  0.36359322127E-01  0.51100000000E-03 0.  1.
</event>
<event>
 8    1  0.1207611E+005  0.1043930E+01  0.7957747E-01            NaN
         13   -1    0    0    0    0  0.00000000000E+00  0.00000000000E+00  0.74505805969E-08  0.10566000000E+00  0.10566000000E+00 0.  1.
     999900   -1    0    0    0    0 -0.00000000000E+00 -0.00000000000E+00 -0.74505805969E-08  0.93827000000E+00  0.93827000000E+00 0.  1.
     999902    2    1    2    0    0  0.22081021279E-01  0.43987205584E-02  0.48290268218E-02  0.10209030648E+01  0.10206433403E+01 0.  0.
     999903    2    3    3    0    0  0.12453764486E+00 -0.39794109337E-01  0.19593414721E-01  0.13373433619E+00  0.20193430856E-01 0.  0.
         14    1    1    2    0    0 -0.22081021279E-01 -0.43987205584E-02 -0.48290268218E-02  0.23026935170E-01  0.00000000000E+00 0. -1.
     999901    1    3    3    0    0 -0.10245662358E+00  0.44192829895E-01 -0.14764387899E-01  0.88716872864E+00  0.88000000000E+00 0. -1.
        -11    1    4    4    0    0  0.85252734959E-01 -0.17758462837E-01  0.16034403252E-01  0.88548037973E-01  0.51100000000E-03 0. -1.
         11    1    4    4    0    0  0.39284909903E-01 -0.22035646500E-01  0.35590114691E-02  0.45186298215E-01  0.51100000000E-03 0.  1.
</event>
<event>
 8    1  0.1207611E+005  0.1043930E+01  0.7957747E-01            NaN
         13   -1    0    0    0    0  0.00000000000E+00  0.00000000000E+00  0.74505805969E-08  0.10566000000E+00  0.10566000000E+00 0. -1.
     999900   -1    0    0    0    0 -0.00000000000E+00 -0.00000000000E+00 -0.74505805969E-08  0.93827000000E+00  0.93827000000E+00 0. -1.
     999902    2    1    2    0    0  0.56895101109E-02  0.16258176536E-01  0.13082912371E-01  0.10222998954E+01  0.10220710419E+01 0.  0.
     999903    2    3    3    0    0  0.12436521637E-01  0.48275350483E-01 -0.12067178756E+00  0.13159178307E+00  0.16417689320E-01 0.  0.
         14    1    1    2    0    0 -0.56895101109E-02 -0.16258176536E-01 -0.13082912371E-01  0.21630104616E-01  0.00000000000E+00 0.  1.
     999901    1    3    3    0    0 -0.67470115261E-02 -0.32017173946E-01  0.13375469993E+00  0.89070811232E+00  0.88000000000E+00 0.  1.
        -11    1    4    4    0    0  0.87133779636E-03  0.34400199351E-01 -0.79252474549E-01  0.86402249902E-01  0.51100000000E-03 0. -1.
         11    1    4    4    0    0  0.11565183841E-01  0.13875151131E-01 -0.41419313014E-01  0.45189533166E-01  0.51100000000E-03 0.  1.
</event>
<event>
 8    1  0.1207611E+005  0.1043930E+01  0.7957747E-01            NaN
         13   -1    0    0    0    0  0.00000000000E+00  0.00000000000E+00  0.74505805969E-08  0.10566000000E+00  0.10566000000E+00 0. -1.
     999900   -1    0    0    0    0 -0.00000000000E+00 -0.00000000000E+00 -0.74505805969E-08  0.93827000000E+00  0.93827000000E+00 0. -1.
     999902    2    1    2    0    0 -0.34878687088E-04 -0.23885331261E-01  0.75890808456E-03  0.10200325899E+01  0.10197526162E+01 0.  0.
     999903    2    3    3    0    0  0.12904474984E+00 -0.93313298998E-02 -0.45946033816E-03  0.13049627597E+00  0.17013105506E-01 0.  0.
         14    1    1    2    0    0  0.34878687088E-04  0.23885331261E-01 -0.75890808456E-03  0.23897410058E-01  0.00000000000E+00 0.  1.
     999901    1    3    3    0    0 -0.12907962853E+00 -0.14554001361E-01  0.12183684227E-02  0.88953631397E+00  0.88000000000E+00 0.  1.
        -11    1    4    4    0    0  0.80454291635E-01  0.11821816465E-02 -0.46757453307E-02  0.80600336918E-01  0.51100000000E-03 0.  1.
         11    1    4    4    0    0  0.48590458205E-01 -0.10513511546E-01  0.42162849926E-02  0.49895939050E-01  0.51100000000E-03 0. -1.
</event>
<event>
 8    1  0.1207611E+005  0.1043930E+01  0.7957747E-01            NaN
         13   -1    0    0    0    0  0.00000000000E+00  0.00000000000E+00  0.74505805969E-08  0.10566000000E+00  0.10566000000E+00 0.  1.
     999900   -1    0    0    0    0 -0.00000000000E+00 -0.00000000000E+00 -0.74505805969E-08  0.93827000000E+00  0.93827000000E+00 0.  1.
     999902    2    1    2    0    0 -0.72390050657E-02  0.10961377675E-01  0.12914822173E-01  0.10255086095E+01  0.10253431429E+01 0.  0.
     999903    2    3    3    0    0  0.12398468404E+00 -0.42668817630E-01 -0.16691241560E-01  0.13367209232E+00  0.19919860587E-01 0.  0.
         14    1    1    2    0    0  0.72390050657E-02 -0.10961377675E-01 -0.12914822173E-01  0.18421390465E-01  0.00000000000E+00 0. -1.
     999901    1    3    3    0    0 -0.13122368911E+00  0.53630195306E-01  0.29606063733E-01  0.89183651722E+00  0.88000000000E+00 0. -1.
        -11    1    4    4    0    0  0.84639823651E-01 -0.20880107958E-01 -0.16315994175E-01  0.88692454262E-01  0.51100000000E-03 0. -1.
         11    1    4    4    0    0  0.39344860388E-01 -0.21788709673E-01 -0.37524738470E-03  0.44979638057E-01  0.51100000000E-03 0.  1.
</event>
<event>
 8    1  0.1207611E+005  0.1043930E+01  0.7957747E-01            NaN
         13   -1    0    0    0    0  0.00000000000E+00  0.00000000000E+00  0.74505805969E-08  0.10566000000E+00  0.10566000000E+00 0.  1.
     999900   -1    0    0    0    0 -0.00000000000E+00 -0.00000000000E+00 -0.74505805969E-08  0.93827000000E+00  0.93827000000E+00 0. -1.
     999902    2    1    2    0    0 -0.16051915772E-01  0.18054127030E-01 -0.29364336224E-02  0.10195940565E+01  0.10193035867E+01 0.  0.
     999903    2    3    3    0    0  0.34230742166E-01  0.82203510878E-01 -0.94435105020E-01  0.13110348481E+00  0.18465474819E-01 0.  0.
         14    1    1    2    0    0  0.16051915772E-01 -0.18054127030E-01  0.29364336224E-02  0.24335943483E-01  0.00000000000E+00 0. -1.
     999901    1    3    3    0    0 -0.50282657938E-01 -0.64149383848E-01  0.91498671398E-01  0.88849057170E+00  0.88000000000E+00 0.  1.
        -11    1    4    4    0    0  0.31507034597E-01  0.57882425767E-01 -0.62140410071E-01  0.90580130970E-01  0.51100000000E-03 0.  1.
         11    1    4    4    0    0  0.27237075693E-02  0.24321085112E-01 -0.32294694950E-01  0.40523353845E-01  0.51100000000E-03 0. -1.
</event>
<event>
 8    1  0.1207611E+005  0.1043930E+01  0.7957747E-01            NaN
         13   -1    0    0    0    0  0.00000000000E+00  0.00000000000E+00  0.74505805969E-08  0.10566000000E+00  0.10566000000E+00 0.  1.
     999900   -1    0    0    0    0 -0.00000000000E+00 -0.00000000000E+00 -0.74505805969E-08  0.93827000000E+00  0.93827000000E+00 0.  1.
     999902    2    1    2    0    0  0.55347626874E-02  0.87801269396E-02  0.21434190425E-01  0.10201151150E+01  0.10198370944E+01 0.  0.
     999903    2    3    3    0    0 -0.36322312972E-02  0.13000706817E+00  0.15287479698E-02  0.13153409357E+00  0.19592085715E-01 0.  0.
         14    1    1    2    0    0 -0.55347626874E-02 -0.87801269396E-02 -0.21434190425E-01  0.23814884972E-01  0.00000000000E+00 0. -1.
     999901    1    3    3    0    0  0.91669939846E-02 -0.12122694123E+00  0.19905442455E-01  0.88858102146E+00  0.88000000000E+00 0. -1.
        -11    1    4    4    0    0 -0.84094162220E-02  0.10818972883E+00 -0.37378537150E-02  0.10858162081E+00  0.51100000000E-03 0. -1.
         11    1    4    4    0    0  0.47771849248E-02  0.21817339339E-01  0.52666016848E-02  0.22952472763E-01  0.51100000000E-03 0.  1.
</event>
<event>
 8    1  0.1207611E+005  0.1043930E+01  0.7957747E-01            NaN
         13   -1    0    0    0    0  0.00000000000E+00  0.00000000000E+00  0.74505805969E-08  0.10566000000E+00  0.10566000000E+00 0. -1.
     999900   -1    0    0    0    0 -0.00000000000E+00 -0.00000000000E+00 -0.74505805969E-08  0.93827000000E+00  0.93827000000E+00 0. -1.
     999902    2    1    2    0    0  0.19783948024E-01 -0.88124616087E-02  0.10457084909E-01  0.10198797463E+01  0.10195961368E+01 0.  0.
     999903    2    3    3    0    0 -0.39064549840E-02  0.10521077993E+00  0.73635209400E-01  0.12996176679E+00  0.19579278841E-01 0.  0.
         14    1    1    2    0    0 -0.19783948024E-01  0.88124616087E-02 -0.10457084909E-01  0.24050253716E-01  0.00000000000E+00 0.  1.
     999901    1    3    3    0    0  0.23690403008E-01 -0.11402324154E+00 -0.63178124491E-01  0.88991797949E+00  0.88000000000E+00 0. -1.
        -11    1    4    4    0    0  0.52126535595E-02  0.78216531282E-01  0.57444423295E-01  0.97186009341E-01  0.51100000000E-03 0.  1.
         11    1    4    4    0    0 -0.91191085435E-02  0.26994248651E-01  0.16190786105E-01  0.32775757452E-01  0.51100000000E-03 0. -1.
</event>
<event>
 8    1  0.1207611E+005  0.1043930E+01  0.7957747E-01            NaN
         13   -1    0    0    0    0  0.00000000000E+00  0.00000000000E+00  0.74505805969E-08  0.10566000000E+00  0.10566000000E+00 0.  1.
     999900   -1    0    0    0    0 -0.00000000000E+00 -0.00000000000E+00 -0.74505805969E-08  0.93827000000E+00  0.93827000000E+00 0. -1.
     999902    2    1    2    0    0 -0.16273942954E-01 -0.14462467668E-01  0.77835256819E-02  0.10208088525E+01  0.10205469739E+01 0.  0.
     999903    2    3    3    0    0  0.61035911249E-01 -0.92391034613E-01  0.68185437949E-01  0.13193424597E+00  0.22268937390E-01 0.  0.
         14    1    1    2    0    0  0.16273942954E-01  0.14462467668E-01 -0.77835256819E-02  0.23121147514E-01  0.00000000000E+00 0. -1.
     999901    1    3    3    0    0 -0.77309854203E-01  0.77928566945E-01 -0.60401912268E-01  0.88887460652E+00  0.88000000000E+00 0.  1.
        -11    1    4    4    0    0  0.21239874305E-01 -0.36620555026E-01  0.14032733099E-01  0.44602421797E-01  0.51100000000E-03 0.  1.
         11    1    4    4    0    0  0.39796036943E-01 -0.55770479587E-01  0.54152704851E-01  0.87331824173E-01  0.51100000000E-03 0. -1.
</event>
<event>
 8    1  0.1207611E+005  0.1043930E+01  0.7957747E-01            NaN
         13   -1    0    0    0    0  0.00000000000E+00  0.00000000000E+00  0.74505805969E-08  0.10566000000E+00  0.10566000000E+00 0.  1.
     999900   -1    0    0    0    0 -0.00000000000E+00 -0.00000000000E+00 -0.74505805969E-08  0.93827000000E+00  0.93827000000E+00 0.  1.
     999902    2    1    2    0    0  0.22325683446E-02  0.22946632371E-01 -0.74345354335E-03  0.10208630318E+01  0.10206023930E+01 0.  0.
     999903    2    3    3    0    0  0.73995170868E-01  0.10517994634E+00  0.29921747263E-01  0.13359050119E+00  0.20322515192E-01 0.  0.
         14    1    1    2    0    0 -0.22325683446E-02 -0.22946632371E-01  0.74345354335E-03  0.23066968196E-01  0.00000000000E+00 0.  1.
     999901    1    3    3    0    0 -0.71762602524E-01 -0.82233313971E-01 -0.30665200806E-01  0.88727253062E+00  0.88000000000E+00 0.  1.
        -11    1    4    4    0    0  0.59722105777E-01  0.73701457576E-01  0.28264847405E-01  0.98983824371E-01  0.51100000000E-03 0.  1.
         11    1    4    4    0    0  0.14273065091E-01  0.31478488766E-01  0.16568998583E-02  0.34606676816E-01  0.51100000000E-03 0. -1.
</event>
<event>
 8    1  0.1241161E+005  0.1043930E+01  0.7957747E-01            NaN
         13   -1    0    0    0    0  0.00000000000E+00  0.00000000000E+00  0.74505805969E-08  0.10566000000E+00  0.10566000000E+00 0. -1.
     999900   -1    0    0    0    0 -0.00000000000E+00 -0.00000000000E+00 -0.74505805969E-08  0.93827000000E+00  0.93827000000E+00 0. -1.
     999902    2    1    2    0    0  0.63964605505E-02  0.27849228732E-01 -0.34998063946E-02  0.10151421051E+01  0.10147338324E+01 0.  0.
     999903    2    3    3    0    0  0.49408800766E-01  0.36465231592E-01  0.10911739393E+00  0.12688148414E+00  0.20527119936E-01 0.  0.
         14    1    1    2    0    0 -0.63964605505E-02 -0.27849228732E-01  0.34998063946E-02  0.28787894910E-01  0.00000000000E+00 0. -1.
     999901    1    3    3    0    0 -0.43012340216E-01 -0.86160028594E-02 -0.11261720032E+00  0.88826062095E+00  0.88000000000E+00 0. -1.
        -11    1    4    4    0    0  0.12601363495E-01  0.18275825592E-01  0.51951354566E-01  0.56497827615E-01  0.51100000000E-03 0.  1.
         11    1    4    4    0    0  0.36807437271E-01  0.18189406000E-01  0.57166039361E-01  0.70383656528E-01  0.51100000000E-03 0. -1.
</event>
<event>
 8    1  0.1207611E+005  0.1043930E+01  0.7957747E-01            NaN
         13   -1    0    0    0    0  0.00000000000E+00  0.00000000000E+00  0.74505805969E-08  0.10566000000E+00  0.10566000000E+00 0.  1.
     999900   -1    0    0    0    0 -0.00000000000E+00 -0.00000000000E+00 -0.74505805969E-08  0.93827000000E+00  0.93827000000E+00 0. -1.
     999902    2    1    2    0    0 -0.11871246892E-01 -0.17288911131E-01 -0.11581454860E-01  0.10199724741E+01  0.10196910732E+01 0.  0.
     999903    2    3    3    0    0  0.49094937155E-01 -0.21160426097E-01  0.11537837428E+00  0.12876505579E+00  0.20253243081E-01 0.  0.
         14    1    1    2    0    0  0.11871246892E-01  0.17288911131E-01  0.11581454860E-01  0.23957525906E-01  0.00000000000E+00 0. -1.
     999901    1    3    3    0    0 -0.60966184047E-01  0.38715149667E-02 -0.12695982914E+00  0.89120741830E+00  0.88000000000E+00 0. -1.
        -11    1    4    4    0    0  0.20502899831E-01  0.15735744072E-02  0.38606633062E-01  0.43744465653E-01  0.51100000000E-03 0. -1.
         11    1    4    4    0    0  0.28592037324E-01 -0.22734000505E-01  0.76771741214E-01  0.85020590137E-01  0.51100000000E-03 0.  1.
</event>
<event>
 8    1  0.1207611E+005  0.1043930E+01  0.7957747E-01            NaN
         13   -1    0    0    0    0  0.00000000000E+00  0.00000000000E+00  0.74505805969E-08  0.10566000000E+00  0.10566000000E+00 0.  1.
     999900   -1    0    0    0    0 -0.00000000000E+00 -0.00000000000E+00 -0.74505805969E-08  0.93827000000E+00  0.93827000000E+00 0.  1.
     999902    2    1    2    0    0  0.52053403522E-02  0.16921022179E-01  0.16477488238E-01  0.10197447942E+01  0.10194579546E+01 0.  0.
     999903    2    3    3    0    0  0.55684164308E-01  0.10361326574E+00  0.58723362634E-01  0.13303832043E+00  0.20355009039E-01 0.  0.
         14    1    1    2    0    0 -0.52053403522E-02 -0.16921022179E-01 -0.16477488238E-01  0.24185205775E-01  0.00000000000E+00 0. -1.
     999901    1    3    3    0    0 -0.50478823956E-01 -0.86692243559E-01 -0.42245874396E-01  0.88670647379E+00  0.88000000000E+00 0. -1.
        -11    1    4    4    0    0  0.34937749204E-01  0.51199889341E-01  0.39388371289E-01  0.73442357682E-01  0.51100000000E-03 0. -1.
         11    1    4    4    0    0  0.20746415104E-01  0.52413376396E-01  0.19334991345E-01  0.59595962751E-01  0.51100000000E-03 0.  1.
</event>
<event>
 8    1  0.1207611E+005  0.1043930E+01  0.7957747E-01            NaN
         13   -1    0    0    0    0  0.00000000000E+00  0.00000000000E+00  0.74505805969E-08  0.10566000000E+00  0.10566000000E+00 0. -1.
     999900   -1    0    0    0    0 -0.00000000000E+00 -0.00000000000E+00 -0.74505805969E-08  0.93827000000E+00  0.93827000000E+00 0. -1.
     999902    2    1    2    0    0  0.12022859645E-01  0.59845272861E-02 -0.19254411084E-01  0.10204545646E+01  0.10201845041E+01 0.  0.
     999903    2    3    3    0    0  0.63565443392E-01  0.87575409603E-01  0.69156281581E-01  0.13077475670E+00  0.24686590421E-01 0.  0.
         14    1    1    2    0    0 -0.12022859645E-01 -0.59845272861E-02  0.19254411084E-01  0.23475435397E-01  0.00000000000E+00 0. -1.
     999901    1    3    3    0    0 -0.51542583747E-01 -0.81590882317E-01 -0.88410692665E-01  0.88967980791E+00  0.88000000000E+00 0. -1.
        -11    1    4    4    0    0  0.48801332453E-01  0.46863429813E-01  0.43449527966E-01  0.80410656660E-01  0.51100000000E-03 0. -1.
         11    1    4    4    0    0  0.14764110939E-01  0.40711979790E-01  0.25706753615E-01  0.50364100038E-01  0.51100000000E-03 0.  1.
</event>
<event>
 8    1  0.1207611E+005  0.1043930E+01  0.7957747E-01            NaN
         13   -1    0    0    0    0  0.00000000000E+00  0.00000000000E+00  0.74505805969E-08  0.10566000000E+00  0.10566000000E+00 0.  1.
     999900   -1    0    0    0    0 -0.00000000000E+00 -0.00000000000E+00 -0.74505805969E-08  0.93827000000E+00  0.93827000000E+00 0.  1.
     999902    2    1    2    0    0 -0.19695563034E-01 -0.13357765683E-01  0.34112410037E-02  0.10198887506E+01  0.10196053560E+01 0.  0.
     999903    2    3    3    0    0  0.56924803374E-01 -0.94450833566E-01  0.67030356761E-01  0.13056644790E+00  0.19827642020E-01 0.  0.
         14    1    1    2    0    0  0.19695563034E-01  0.13357765683E-01 -0.34112410037E-02  0.24041249394E-01  0.00000000000E+00 0.  1.
     999901    1    3    3    0    0 -0.76620366408E-01  0.81093067884E-01 -0.63619115758E-01  0.88932230271E+00  0.88000000000E+00 0.  1.
        -11    1    4    4    0    0  0.27279960819E-01 -0.41770574027E-01  0.41696713296E-01  0.65021951197E-01  0.51100000000E-03 0.  1.
         11    1    4    4    0    0  0.29644842555E-01 -0.52680259539E-01  0.25333643465E-01  0.65544496699E-01  0.51100000000E-03 0. -1.
</event>
<event>
 8    1  0.1207611E+005  0.1043930E+01  0.7957747E-01            NaN
         13   -1    0    0    0    0  0.00000000000E+00  0.00000000000E+00  0.74505805969E-08  0.10566000000E+00  0.10566000000E+00 0. -1.
     999900   -1    0    0    0    0 -0.00000000000E+00 -0.00000000000E+00 -0.74505805969E-08  0.93827000000E+00  0.93827000000E+00 0.  1.
     999902    2    1    2    0    0  0.25833227631E-02  0.17908539307E-02  0.23856673727E-01  0.10198671324E+01  0.10195832218E+01 0.  0.
     999903    2    3    3    0    0 -0.58889715290E-01 -0.14177523351E-01 -0.11028941109E+00  0.12743837026E+00  0.20193644558E-01 0.  0.
         14    1    1    2    0    0 -0.25833227631E-02 -0.17908539307E-02 -0.23856673727E-01  0.24062867568E-01  0.00000000000E+00 0.  1.
     999901    1    3    3    0    0  0.61473038053E-01  0.15968377282E-01  0.13414608482E+00  0.89242876217E+00  0.88000000000E+00 0. -1.
        -11    1    4    4    0    0 -0.26000906289E-01 -0.13458931836E-01 -0.37660251300E-01  0.47704775683E-01  0.51100000000E-03 0. -1.
         11    1    4    4    0    0 -0.32888809001E-01 -0.71859151549E-03 -0.72629159790E-01  0.79733594577E-01  0.51100000000E-03 0.  1.
</event>
<event>
 8    1  0.1207611E+005  0.1043930E+01  0.7957747E-01            NaN
         13   -1    0    0    0    0  0.00000000000E+00  0.00000000000E+00  0.74505805969E-08  0.10566000000E+00  0.10566000000E+00 0. -1.
     999900   -1    0    0    0    0 -0.00000000000E+00 -0.00000000000E+00 -0.74505805969E-08  0.93827000000E+00  0.93827000000E+00 0.  1.
     999902    2    1    2    0    0  0.20903058599E-01  0.14125564063E-01 -0.86033259886E-02  0.10172750448E+01  0.10169257741E+01 0.  0.
     999903    2    3    3    0    0 -0.70720275552E-01  0.62160043115E-01 -0.84342371913E-01  0.12798400716E+00  0.20026034429E-01 0.  0.
         14    1    1    2    0    0 -0.20903058599E-01 -0.14125564063E-01  0.86033259886E-02  0.26654955204E-01  0.00000000000E+00 0. -1.
     999901    1    3    3    0    0  0.91623334151E-01 -0.48034479053E-01  0.75739045925E-01  0.88929103763E+00  0.88000000000E+00 0.  1.
        -11    1    4    4    0    0 -0.24977764013E-01  0.15251854870E-01 -0.36852228513E-01  0.47062252809E-01  0.51100000000E-03 0. -1.
         11    1    4    4    0    0 -0.45742511539E-01  0.46908188245E-01 -0.47490143400E-01  0.80921754352E-01  0.51100000000E-03 0.  1.
</event>
<event>
 8    1  0.1207611E+005  0.1043930E+01  0.7957747E-01            NaN
         13   -1    0    0    0    0  0.00000000000E+00  0.00000000000E+00  0.74505805969E-08  0.10566000000E+00  0.10566000000E+00 0.  1.
     999900   -1    0    0    0    0 -0.00000000000E+00 -0.00000000000E+00 -0.74505805969E-08  0.93827000000E+00  0.93827000000E+00 0. -1.
     999902    2    1    2    0    0  0.12125499160E-01 -0.22866836167E-01 -0.15519553386E-02  0.10180007021E+01  0.10176704284E+01 0.  0.
     999903    2    3    3    0    0 -0.26222790729E-01  0.60441102171E-01 -0.10806263246E+00  0.12684677133E+00  0.84740354410E-02 0.  0.
         14    1    1    2    0    0 -0.12125499160E-01  0.22866836167E-01  0.15519553386E-02  0.25929297938E-01  0.00000000000E+00 0. -1.
     999901    1    3    3    0    0  0.38348289890E-01 -0.83307938337E-01  0.10651067712E+00  0.89115393074E+00  0.88000000000E+00 0.  1.
        -11    1    4    4    0    0 -0.11357459676E-01  0.16563936134E-01 -0.33549815308E-01  0.39105077660E-01  0.51100000000E-03 0.  1.
         11    1    4    4    0    0 -0.14865331053E-01  0.43877166036E-01 -0.74512817150E-01  0.87741693666E-01  0.51100000000E-03 0. -1.
</event>
<event>
 8    1  0.1207611E+005  0.1043930E+01  0.7957747E-01            NaN
         13   -1    0    0    0    0  0.00000000000E+00  0.00000000000E+00  0.74505805969E-08  0.10566000000E+00  0.10566000000E+00 0.  1.
     999900   -1    0    0    0    0 -0.00000000000E+00 -0.00000000000E+00 -0.74505805969E-08  0.93827000000E+00  0.93827000000E+00 0. -1.
     999902    2    1    2    0    0  0.15063383499E-01  0.13910838449E-01  0.79087662902E-02  0.10219535232E+01  0.10217172006E+01 0.  0.
     999903    2    3    3    0    0  0.73908342382E-01 -0.60332848671E-01  0.90293502584E-01  0.13304289830E+00  0.21095034420E-01 0.  0.
         14    1    1    2    0    0 -0.15063383499E-01 -0.13910838449E-01 -0.79087662902E-02  0.21976476811E-01  0.00000000000E+00 0. -1.
     999901    1    3    3    0    0 -0.58844958883E-01  0.74243687120E-01 -0.82384736294E-01  0.88891062489E+00  0.88000000000E+00 0. -1.
        -11    1    4    4    0    0  0.41007173771E-01 -0.30883441399E-01  0.62430839306E-01  0.80828497888E-01  0.51100000000E-03 0. -1.
         11    1    4    4    0    0  0.32901168610E-01 -0.29449407272E-01  0.27862663278E-01  0.52214400413E-01  0.51100000000E-03 0.  1.
</event>
<event>
 8    1  0.1207611E+005  0.1043930E+01  0.7957747E-01            NaN
         13   -1    0    0    0    0  0.00000000000E+00  0.00000000000E+00  0.74505805969E-08  0.10566000000E+00  0.10566000000E+00 0.  1.
     999900   -1    0    0    0    0 -0.00000000000E+00 -0.00000000000E+00 -0.74505805969E-08  0.93827000000E+00  0.93827000000E+00 0. -1.
     999902    2    1    2    0    0 -0.17164603527E-01 -0.71876745724E-03 -0.16837601904E-01  0.10198749573E+01  0.10195912335E+01 0.  0.
     999903    2    3    3    0    0 -0.44955536305E-01  0.93932010889E-01  0.74623359882E-01  0.12965239339E+00  0.19921705675E-01 0.  0.
         14    1    1    2    0    0  0.17164603527E-01  0.71876745724E-03  0.16837601904E-01  0.24055042689E-01  0.00000000000E+00 0. -1.
     999901    1    3    3    0    0  0.27790932778E-01 -0.94650778347E-01 -0.91460961786E-01  0.89022256392E+00  0.88000000000E+00 0. -1.
        -11    1    4    4    0    0 -0.13715903695E-01  0.29464672314E-01  0.35078817238E-01  0.47823398756E-01  0.51100000000E-03 0.  1.
         11    1    4    4    0    0 -0.31239632609E-01  0.64467338576E-01  0.39544542644E-01  0.81828994632E-01  0.51100000000E-03 0. -1.
</event>
<event>
 8    1  0.1207611E+005  0.1043930E+01  0.7957747E-01            NaN
         13   -1    0    0    0    0  0.00000000000E+00  0.00000000000E+00  0.74505805969E-08  0.10566000000E+00  0.10566000000E+00 0.  1.
     999900   -1    0    0    0    0 -0.00000000000E+00 -0.00000000000E+00 -0.74505805969E-08  0.93827000000E+00  0.93827000000E+00 0.  1.
     999902    2    1    2    0    0  0.53821930264E-02  0.24097482837E-01 -0.64289622384E-02  0.10184155289E+01  0.10180958704E+01 0.  0.
     999903    2    3    3    0    0  0.62472266181E-02 -0.10003624728E+00  0.73868690826E-01  0.12608283066E+00  0.19849888984E-01 0.  0.
         14    1    1    2    0    0 -0.53821930264E-02 -0.24097482837E-01  0.64289622384E-02  0.25514471115E-01  0.00000000000E+00 0. -1.
     999901    1    3    3    0    0 -0.86503359168E-03  0.12413373011E+00 -0.80297653065E-01  0.89233269823E+00  0.88000000000E+00 0. -1.
        -11    1    4    4    0    0 -0.47351770058E-02 -0.68159919331E-01  0.46406636567E-01  0.82595602443E-01  0.51100000000E-03 0. -1.
         11    1    4    4    0    0  0.10982403624E-01 -0.31876327947E-01  0.27462054259E-01  0.43487228216E-01  0.51100000000E-03 0.  1.
</event>
<event>
 8    1  0.1207611E+005  0.1043930E+01  0.7957747E-01            NaN
         13   -1    0    0    0    0  0.00000000000E+00  0.00000000000E+00  0.74505805969E-08  0.10566000000E+00  0.10566000000E+00 0.  1.
     999900   -1    0    0    0    0 -0.00000000000E+00 -0.00000000000E+00 -0.74505805969E-08  0.93827000000E+00  0.93827000000E+00 0. -1.
     999902    2    1    2    0    0 -0.59099527278E-02  0.23218100340E-01  0.10171501330E-02  0.10199499600E+01  0.10196680237E+01 0.  0.
     999903    2    3    3    0    0 -0.12483398730E+00 -0.12542178108E-01  0.31068915446E-01  0.13072286182E+00  0.19553988820E-01 0.  0.
         14    1    1    2    0    0  0.59099527278E-02 -0.23218100340E-01 -0.10171501330E-02  0.23980040013E-01  0.00000000000E+00 0. -1.
     999901    1    3    3    0    0  0.11892403457E+00  0.35760278448E-01 -0.30051765312E-01  0.88922709817E+00  0.88000000000E+00 0.  1.
        -11    1    4    4    0    0 -0.51933649608E-01  0.42805017977E-02  0.11009465227E-01  0.53262520621E-01  0.51100000000E-03 0. -1.
         11    1    4    4    0    0 -0.72900337692E-01 -0.16822679906E-01  0.20059450219E-01  0.77460341201E-01  0.51100000000E-03 0.  1.
</event>
<event>
 8    1  0.1207611E+005  0.1043930E+01  0.7957747E-01            NaN
         13   -1    0    0    0    0  0.00000000000E+00  0.00000000000E+00  0.74505805969E-08  0.10566000000E+00  0.10566000000E+00 0.  1.
     999900   -1    0    0    0    0 -0.00000000000E+00 -0.00000000000E+00 -0.74505805969E-08  0.93827000000E+00  0.93827000000E+00 0. -1.
     999902    2    1    2    0    0  0.19415451159E-01  0.25908210856E-02 -0.13636365219E-01  0.10200632333E+01  0.10197839856E+01 0.  0.
     999903    2    3    3    0    0  0.73817998138E-01 -0.82172957037E-01 -0.70262045305E-01  0.13250985299E+00  0.20508886192E-01 0.  0.
         14    1    1    2    0    0 -0.19415451159E-01 -0.25908210856E-02  0.13636365219E-01  0.23866766726E-01  0.00000000000E+00 0.  1.
     999901    1    3    3    0    0 -0.54402546979E-01  0.84763778123E-01  0.56625680086E-01  0.88755338028E+00  0.88000000000E+00 0.  1.
        -11    1    4    4    0    0  0.31443703198E-01 -0.31189095903E-01 -0.39814771930E-01  0.59556220153E-01  0.51100000000E-03 0.  1.
         11    1    4    4    0    0  0.42374294940E-01 -0.50983861134E-01 -0.30447273375E-01  0.72953632842E-01  0.51100000000E-03 0. -1.
</event>
<event>
 8    1  0.1207611E+005  0.1043930E+01  0.7957747E-01            NaN
         13   -1    0    0    0    0  0.00000000000E+00  0.00000000000E+00  0.74505805969E-08  0.10566000000E+00  0.10566000000E+00 0. -1.
     999900   -1    0    0    0    0 -0.00000000000E+00 -0.00000000000E+00 -0.74505805969E-08  0.93827000000E+00  0.93827000000E+00 0. -1.
     999902    2    1    2    0    0 -0.16894612141E-01 -0.12512423252E-01  0.10872562033E-01  0.10202614289E+01  0.10199868538E+01 0.  0.
     999903    2    3    3    0    0  0.38923136452E-01  0.80717897875E-01 -0.88997805530E-01  0.12797133917E+00  0.20631642446E-01 0.  0.
         14    1    1    2    0    0  0.16894612141E-01  0.12512423252E-01 -0.10872562033E-01  0.23668571148E-01  0.00000000000E+00 0. -1.
     999901    1    3    3    0    0 -0.55817748594E-01 -0.93230321127E-01  0.99870367563E-01  0.89229008969E+00  0.88000000000E+00 0.  1.
        -11    1    4    4    0    0  0.37242463275E-01  0.72046923974E-01 -0.86921492706E-01  0.11888383969E+00  0.51100000000E-03 0.  1.
         11    1    4    4    0    0  0.16806731773E-02  0.86709739004E-02 -0.20763128238E-02  0.90874994719E-02  0.51100000000E-03 0. -1.
</event>
<event>
 8    1  0.1207611E+005  0.1043930E+01  0.7957747E-01            NaN
         13   -1    0    0    0    0  0.00000000000E+00  0.00000000000E+00  0.74505805969E-08  0.10566000000E+00  0.10566000000E+00 0.  1.
     999900   -1    0    0    0    0 -0.00000000000E+00 -0.00000000000E+00 -0.74505805969E-08  0.93827000000E+00  0.93827000000E+00 0.  1.
     999902    2    1    2    0    0 -0.14814669907E-01 -0.17734673827E-01 -0.49351439285E-02  0.10203005957E+01  0.10200269393E+01 0.  0.
     999903    2    3    3    0    0 -0.11560443762E+00  0.45723300022E-01 -0.38477211668E-01  0.13164399050E+00  0.19865504148E-01 0.  0.
         14    1    1    2    0    0  0.14814669907E-01  0.17734673827E-01  0.49351439285E-02  0.23629404262E-01  0.00000000000E+00 0.  1.
     999901    1    3    3    0    0  0.10078976771E+00 -0.63457973849E-01  0.33542067739E-01  0.88865660524E+00  0.88000000000E+00 0.  1.
        -11    1    4    4    0    0 -0.32510905883E-01  0.15481639760E-01 -0.22468873676E-02  0.36082541413E-01  0.51100000000E-03 0. -1.
         11    1    4    4    0    0 -0.83093531738E-01  0.30241660262E-01 -0.36230324300E-01  0.95561449089E-01  0.51100000000E-03 0.  1.
</event>
<event>
 8    1  0.1207611E+005  0.1043930E+01  0.7957747E-01            NaN
         13   -1    0    0    0    0  0.00000000000E+00  0.00000000000E+00  0.74505805969E-08  0.10566000000E+00  0.10566000000E+00 0.  1.
     999900   -1    0    0    0    0 -0.00000000000E+00 -0.00000000000E+00 -0.74505805969E-08  0.93827000000E+00  0.93827000000E+00 0. -1.
     999902    2    1    2    0    0 -0.11960736946E-01  0.19975466395E-01  0.12888548205E-01  0.10173181011E+01  0.10169699729E+01 0.  0.
     999903    2    3    3    0    0 -0.18703449985E-01  0.12291258822E+00 -0.32463793238E-01  0.13013246662E+00  0.20572739571E-01 0.  0.
         14    1    1    2    0    0  0.11960736946E-01 -0.19975466395E-01 -0.12888548205E-01  0.26611898858E-01  0.00000000000E+00 0. -1.
     999901    1    3    3    0    0  0.67427130396E-02 -0.10293712182E+00  0.45352341443E-01  0.88718563452E+00  0.88000000000E+00 0.  1.
        -11    1    4    4    0    0  0.16926372347E-02  0.46532525923E-02  0.18599813455E-02  0.53139845786E-02  0.51100000000E-03 0.  1.
         11    1    4    4    0    0 -0.20396087220E-01  0.11825933563E+00 -0.34323774584E-01  0.12481848204E+00  0.51100000000E-03 0. -1.
</event>
<event>
 8    1  0.1207611E+005  0.1043930E+01  0.7957747E-01            NaN
         13   -1    0    0    0    0  0.00000000000E+00  0.00000000000E+00  0.74505805969E-08  0.10566000000E+00  0.10566000000E+00 0.  1.
     999900   -1    0    0    0    0 -0.00000000000E+00 -0.00000000000E+00 -0.74505805969E-08  0.93827000000E+00  0.93827000000E+00 0.  1.
     999902    2    1    2    0    0 -0.19336170387E-01  0.19186281523E-02  0.19461330819E-01  0.10164288725E+01  0.10160567606E+01 0.  0.
     999903    2    3    3    0    0  0.41122811074E-01  0.14709648267E-01 -0.11419248195E+00  0.12419446362E+00  0.21837639924E-01 0.  0.
         14    1    1    2    0    0  0.19336170387E-01 -0.19186281523E-02 -0.19461330819E-01  0.27501127549E-01  0.00000000000E+00 0. -1.
     999901    1    3    3    0    0 -0.60458981462E-01 -0.12791020115E-01  0.13365381277E+00  0.89223440883E+00  0.88000000000E+00 0. -1.
        -11    1    4    4    0    0  0.11423953835E-01 -0.12752985932E-02 -0.12205481272E-01  0.16774027597E-01  0.51100000000E-03 0.  1.
         11    1    4    4    0    0  0.29698857239E-01  0.15984946860E-01 -0.10198700068E+00  0.10742043602E+00  0.51100000000E-03 0. -1.
</event>
<event>
 8    1  0.1207611E+005  0.1043930E+01  0.7957747E-01            NaN
         13   -1    0    0    0    0  0.00000000000E+00  0.00000000000E+00  0.74505805969E-08  0.10566000000E+00  0.10566000000E+00 0.  1.
     999900   -1    0    0    0    0 -0.00000000000E+00 -0.00000000000E+00 -0.74505805969E-08  0.93827000000E+00  0.93827000000E+00 0. -1.
     999902    2    1    2    0    0  0.47446263978E-03  0.23125745702E-01 -0.38329159728E-02  0.10204839668E+01  0.10202145902E+01 0.  0.
     999903    2    3    3    0    0  0.56914700226E-01  0.48795676662E-01 -0.10700543862E+00  0.13228972270E+00  0.20738989266E-01 0.  0.
         14    1    1    2    0    0 -0.47446263978E-03 -0.23125745702E-01  0.38329159728E-02  0.23446033224E-01  0.00000000000E+00 0. -1.
     999901    1    3    3    0    0 -0.56440237586E-01 -0.25669930959E-01  0.10317252265E+00  0.88819424407E+00  0.88000000000E+00 0.  1.
        -11    1    4    4    0    0  0.19693543432E-01  0.23817255628E-01 -0.29349090876E-01  0.42623087345E-01  0.51100000000E-03 0. -1.
         11    1    4    4    0    0  0.37221156794E-01  0.24978421034E-01 -0.77656347745E-01  0.89666635359E-01  0.51100000000E-03 0.  1.
</event>
<event>
 8    1  0.1207611E+005  0.1043930E+01  0.7957747E-01            NaN
         13   -1    0    0    0    0  0.00000000000E+00  0.00000000000E+00  0.74505805969E-08  0.10566000000E+00  0.10566000000E+00 0. -1.
     999900   -1    0    0    0    0 -0.00000000000E+00 -0.00000000000E+00 -0.74505805969E-08  0.93827000000E+00  0.93827000000E+00 0. -1.
     999902    2    1    2    0    0  0.90631901606E-02  0.15239832817E-01  0.18383703788E-01  0.10183887689E+01  0.10180684310E+01 0.  0.
     999903    2    3    3    0    0 -0.21856814941E-01 -0.12321559258E+00  0.75283621566E-02  0.12696081895E+00  0.20064164519E-01 0.  0.
         14    1    1    2    0    0 -0.90631901606E-02 -0.15239832817E-01 -0.18383703788E-01  0.25541231082E-01  0.00000000000E+00 0. -1.
     999901    1    3    3    0    0  0.30920005101E-01  0.13845542540E+00  0.10855341632E-01  0.89142794997E+00  0.88000000000E+00 0. -1.
        -11    1    4    4    0    0 -0.16350857460E-01 -0.66214700292E-01  0.12993401941E-01  0.69432173302E-01  0.51100000000E-03 0.  1.
         11    1    4    4    0    0 -0.55059574807E-02 -0.57000892289E-01 -0.54650397840E-02  0.57528645651E-01  0.51100000000E-03 0. -1.
</event>
<event>
 8    1  0.1207611E+005  0.1043930E+01  0.7957747E-01            NaN
         13   -1    0    0    0    0  0.00000000000E+00  0.00000000000E+00  0.74505805969E-08  0.10566000000E+00  0.10566000000E+00 0. -1.
     999900   -1    0    0    0    0 -0.00000000000E+00 -0.00000000000E+00 -0.74505805969E-08  0.93827000000E+00  0.93827000000E+00 0. -1.
     999902    2    1    2    0    0 -0.15231636161E-01  0.17839278290E-01 -0.25609190811E-02  0.10203333711E+01  0.10200604821E+01 0.  0.
     999903    2    3    3    0    0 -0.64962714194E-01  0.45674156103E-01  0.10368181205E+00  0.13211297136E+00  0.19940819481E-01 0.  0.
         14    1    1    2    0    0  0.15231636161E-01 -0.17839278290E-01  0.25609190811E-02  0.23596628924E-01  0.00000000000E+00 0. -1.
     999901    1    3    3    0    0  0.49731078033E-01 -0.27834877813E-01 -0.10624273113E+00  0.88822039971E+00  0.88000000000E+00 0. -1.
        -11    1    4    4    0    0 -0.31155207696E-01  0.32130607920E-01  0.48521031755E-01  0.66011927525E-01  0.51100000000E-03 0. -1.
         11    1    4    4    0    0 -0.33807506497E-01  0.13543548183E-01  0.55160780295E-01  0.66101043840E-01  0.51100000000E-03 0.  1.
</event>
<event>
 8    1  0.1415101E+005  0.1043930E+01  0.7957747E-01            NaN
         13   -1    0    0    0    0  0.00000000000E+00  0.00000000000E+00  0.74505805969E-08  0.10566000000E+00  0.10566000000E+00 0.  1.
     999900   -1    0    0    0    0 -0.00000000000E+00 -0.00000000000E+00 -0.74505805969E-08  0.93827000000E+00  0.93827000000E+00 0.  1.
     999902    2    1    2    0    0 -0.58619933467E-02 -0.70838422567E-02 -0.22082313006E-01  0.10200098759E+01  0.10197293635E+01 0.  0.
     999903    2    3    3    0    0  0.29720181671E-01  0.11230312676E+00  0.50510147610E-01  0.12827616856E+00  0.20204428479E-01 0.  0.
         14    1    1    2    0    0  0.58619933467E-02  0.70838422567E-02  0.22082313006E-01  0.23920124055E-01  0.00000000000E+00 0. -1.
     999901    1    3    3    0    0 -0.35582175018E-01 -0.11938696902E+00 -0.72592460616E-01  0.89173370739E+00  0.88000000000E+00 0. -1.
        -11    1    4    4    0    0  0.85088788495E-02  0.64492941737E-01  0.34138000384E-01  0.73467031683E-01  0.51100000000E-03 0. -1.
         11    1    4    4    0    0  0.21211302822E-01  0.47810185023E-01  0.16372147225E-01  0.54809136876E-01  0.51100000000E-03 0.  1.
</event>
<event>
 8    1  0.1207611E+005  0.1043930E+01  0.7957747E-01            NaN
         13   -1    0    0    0    0  0.00000000000E+00  0.00000000000E+00  0.74505805969E-08  0.10566000000E+00  0.10566000000E+00 0.  1.
     999900   -1    0    0    0    0 -0.00000000000E+00 -0.00000000000E+00 -0.74505805969E-08  0.93827000000E+00  0.93827000000E+00 0.  1.
     999902    2    1    2    0    0 -0.16772282917E-01  0.16965197488E-01 -0.71022625320E-02  0.10190388463E+01  0.10187348039E+01 0.  0.
     999903    2    3    3    0    0  0.31949264845E-03 -0.92848603486E-01 -0.86583601156E-01  0.12849492100E+00  0.19830771267E-01 0.  0.
         14    1    1    2    0    0  0.16772282917E-01 -0.16965197488E-01  0.71022625320E-02  0.24891153712E-01  0.00000000000E+00 0.  1.
     999901    1    3    3    0    0 -0.17091775565E-01  0.10981380097E+00  0.79481338624E-01  0.89054392529E+00  0.88000000000E+00 0. -1.
        -11    1    4    4    0    0  0.47188278155E-02 -0.59438945986E-01 -0.66257542792E-01  0.89137975823E-01  0.51100000000E-03 0. -1.
         11    1    4    4    0    0 -0.43993351671E-02 -0.33409657500E-01 -0.20326058364E-01  0.39356945179E-01  0.51100000000E-03 0.  1.
</event>
<event>
 7    1  0.1207611E+005  0.1043930E+01  0.7957747E-01            NaN
         13   -1    0    0    0    0  0.00000000000E+00  0.00000000000E+00  0.74505805969E-08  0.10566000000E+00  0.10566000000E+00 0. -1.
     999900   -1    0    0    0    0 -0.00000000000E+00 -0.00000000000E+00 -0.74505805969E-08  0.93827000000E+00  0.93827000000E+00 0. -1.
     999903    2    1    2    0    0  0.43632395467E-01 -0.99400480311E-01  0.22739758239E-01  0.11272921724E+00  0.20162797305E-01 0.  0.
         14    1    1    2    0    0 -0.58051476118E-02  0.16270143798E-01  0.40687955574E-01  0.44203247017E-01  0.00000000000E+00 0. -1.
     999901    1    1    2    0    0 -0.37827247855E-01  0.83130336513E-01 -0.63427713813E-01  0.88699753574E+00  0.88000000000E+00 0.  1.
        -11    1    3    3    0    0  0.34948908400E-01 -0.65308056837E-01  0.77252154613E-02  0.74474885438E-01  0.51100000000E-03 0.  1.
         11    1    3    3    0    0  0.86834870677E-02 -0.34092423474E-01  0.15014542778E-01  0.38254331805E-01  0.51100000000E-03 0. -1.
</event>
<event>
 8    1  0.1207611E+005  0.1043930E+01  0.7957747E-01            NaN
         13   -1    0    0    0    0  0.00000000000E+00  0.00000000000E+00  0.74505805969E-08  0.10566000000E+00  0.10566000000E+00 0.  1.
     999900   -1    0    0    0    0 -0.00000000000E+00 -0.00000000000E+00 -0.74505805969E-08  0.93827000000E+00  0.93827000000E+00 0. -1.
     999902    2    1    2    0    0  0.67094419010E-02  0.20205921357E-01 -0.10058757712E-01  0.10203827183E+01  0.10201109829E+01 0.  0.
     999903    2    3    3    0    0  0.74567664445E-01 -0.90852853330E-02  0.10413916905E+00  0.12993121506E+00  0.19856362361E-01 0.  0.
         14    1    1    2    0    0 -0.67094419010E-02 -0.20205921357E-01  0.10058757712E-01  0.23547281695E-01  0.00000000000E+00 0.  1.
     999901    1    3    3    0    0 -0.67858222544E-01  0.29291206690E-01 -0.11419792676E+00  0.89045150325E+00  0.88000000000E+00 0. -1.
        -11    1    4    4    0    0  0.26884877414E-01 -0.92768457464E-02  0.26853640266E-01  0.39118226150E-01  0.51100000000E-03 0.  1.
         11    1    4    4    0    0  0.47682787031E-01  0.19156041336E-03  0.77285528783E-01  0.90812988910E-01  0.51100000000E-03 0. -1.
</event>
<event>
 8    1  0.1207611E+005  0.1043930E+01  0.7957747E-01            NaN
         13   -1    0    0    0    0  0.00000000000E+00  0.00000000000E+00  0.74505805969E-08  0.10566000000E+00  0.10566000000E+00 0.  1.
     999900   -1    0    0    0    0 -0.00000000000E+00 -0.00000000000E+00 -0.74505805969E-08  0.93827000000E+00  0.93827000000E+00 0. -1.
     999902    2    1    2    0    0  0.59834956255E-02  0.22409137016E-01 -0.51732412602E-02  0.10201658660E+01  0.10198890430E+01 0.  0.
     999903    2    3    3    0    0 -0.56527983555E-01  0.11663965519E+00  0.18852676936E-01  0.13260498335E+00  0.20698697877E-01 0.  0.
         14    1    1    2    0    0 -0.59834956255E-02 -0.22409137016E-01  0.51732412602E-02  0.23764134044E-01  0.00000000000E+00 0.  1.
     999901    1    3    3    0    0  0.62511479180E-01 -0.94230518176E-01 -0.24025918196E-01  0.88756088260E+00  0.88000000000E+00 0. -1.
        -11    1    4    4    0    0 -0.34408762432E-01  0.80436569791E-01  0.37513195878E-02  0.87569048250E-01  0.51100000000E-03 0.  1.
         11    1    4    4    0    0 -0.22119221123E-01  0.36203085401E-01  0.15101357348E-01  0.45035935101E-01  0.51100000000E-03 0. -1.
</event>
<event>
 8    1  0.1207611E+005  0.1043930E+01  0.7957747E-01            NaN
         13   -1    0    0    0    0  0.00000000000E+00  0.00000000000E+00  0.74505805969E-08  0.10566000000E+00  0.10566000000E+00 0.  1.
     999900   -1    0    0    0    0 -0.00000000000E+00 -0.00000000000E+00 -0.74505805969E-08  0.93827000000E+00  0.93827000000E+00 0.  1.
     999902    2    1    2    0    0 -0.79982097749E-02  0.99443789012E-02 -0.21336652404E-01  0.10190680860E+01  0.10187647664E+01 0.  0.
     999903    2    3    3    0    0 -0.81824267142E-02  0.61969853231E-01  0.10976724444E+00  0.12783584036E+00  0.19645338218E-01 0.  0.
         14    1    1    2    0    0  0.79982097749E-02 -0.99443789012E-02  0.21336652404E-01  0.24861913988E-01  0.00000000000E+00 0.  1.
     999901    1    3    3    0    0  0.18421693931E-03 -0.52025474329E-01 -0.13110389684E+00  0.89123224565E+00  0.88000000000E+00 0.  1.
        -11    1    4    4    0    0 -0.52171483292E-02  0.72724595532E-02  0.28118511210E-01  0.29513032686E-01  0.51100000000E-03 0. -1.
         11    1    4    4    0    0 -0.29652783850E-02  0.54697393677E-01  0.81648733228E-01  0.98322807678E-01  0.51100000000E-03 0.  1.
</event>
<event>
 8    1  0.1207611E+005  0.1043930E+01  0.7957747E-01            NaN
         13   -1    0    0    0    0  0.00000000000E+00  0.00000000000E+00  0.74505805969E-08  0.10566000000E+00  0.10566000000E+00 0. -1.
     999900   -1    0    0    0    0 -0.00000000000E+00 -0.00000000000E+00 -0.74505805969E-08  0.93827000000E+00  0.93827000000E+00 0.  1.
     999902    2    1    2    0    0  0.15758941223E-01  0.11467293424E-01 -0.12997637761E-01  0.10205039112E+01  0.10202349980E+01 0.  0.
     999903    2    3    3    0    0 -0.40095808433E-01  0.87887224776E-01 -0.88038267024E-01  0.13225233933E+00  0.20201650072E-01 0.  0.
         14    1    1    2    0    0 -0.15758941223E-01 -0.11467293424E-01  0.12997637761E-01  0.23426088754E-01  0.00000000000E+00 0. -1.
     999901    1    3    3    0    0  0.55854749656E-01 -0.76419931352E-01  0.75040629263E-01  0.88825157191E+00  0.88000000000E+00 0. -1.
        -11    1    4    4    0    0 -0.33055549371E-01  0.58764446526E-01 -0.50611217431E-01  0.84307093240E-01  0.51100000000E-03 0. -1.
         11    1    4    4    0    0 -0.70402590623E-02  0.29122778250E-01 -0.37427049592E-01  0.47945246092E-01  0.51100000000E-03 0.  1.
</event>
<event>
 8    1  0.1207611E+005  0.1043930E+01  0.7957747E-01            NaN
         13   -1    0    0    0    0  0.00000000000E+00  0.00000000000E+00  0.74505805969E-08  0.10566000000E+00  0.10566000000E+00 0.  1.
     999900   -1    0    0    0    0 -0.00000000000E+00 -0.00000000000E+00 -0.74505805969E-08  0.93827000000E+00  0.93827000000E+00 0. -1.
     999902    2    1    2    0    0  0.61260254528E-02  0.22746229395E-01  0.46142537625E-02  0.10199256155E+01  0.10196430996E+01 0.  0.
     999903    2    3    3    0    0 -0.97401231727E-01  0.85138732433E-01  0.13474979711E-01  0.13161866970E+00  0.20156771395E-01 0.  0.
         14    1    1    2    0    0 -0.61260254528E-02 -0.22746229395E-01 -0.46142537625E-02  0.24004384543E-01  0.00000000000E+00 0.  1.
     999901    1    3    3    0    0  0.10352725718E+00 -0.62392503038E-01 -0.88607259489E-02  0.88830694576E+00  0.88000000000E+00 0.  1.
        -11    1    4    4    0    0 -0.45436332478E-01  0.50450055090E-01  0.13031702083E-01  0.69135770393E-01  0.51100000000E-03 0. -1.
         11    1    4    4    0    0 -0.51964899249E-01  0.34688677343E-01  0.44327762891E-03  0.62482899307E-01  0.51100000000E-03 0.  1.
</event>
<event>
 8    1  0.1207611E+005  0.1043930E+01  0.7957747E-01            NaN
         13   -1    0    0    0    0  0.00000000000E+00  0.00000000000E+00  0.74505805969E-08  0.10566000000E+00  0.10566000000E+00 0.  1.
     999900   -1    0    0    0    0 -0.00000000000E+00 -0.00000000000E+00 -0.74505805969E-08  0.93827000000E+00  0.93827000000E+00 0.  1.
     999902    2    1    2    0    0 -0.35494551188E-02  0.34995772580E-02 -0.22727879221E-01  0.10206619497E+01  0.10203966941E+01 0.  0.
     999903    2    3    3    0    0 -0.26252346677E-01  0.97607736766E-01 -0.84442990866E-01  0.13320461436E+00  0.19909660940E-01 0.  0.
         14    1    1    2    0    0  0.35494551188E-02 -0.34995772580E-02  0.22727879221E-01  0.23268050338E-01  0.00000000000E+00 0.  1.
     999901    1    3    3    0    0  0.22702891558E-01 -0.94108159508E-01  0.61715111644E-01  0.88745733530E+00  0.88000000000E+00 0. -1.
        -11    1    4    4    0    0 -0.16401657234E-01  0.52954571420E-01 -0.58639349867E-01  0.80697183768E-01  0.51100000000E-03 0. -1.
         11    1    4    4    0    0 -0.98506894425E-02  0.44653165346E-01 -0.25803640999E-01  0.52507430595E-01  0.51100000000E-03 0.  1.
</event>
<event>
 8    1  0.1207611E+005  0.1043930E+01  0.7957747E-01            NaN
         13   -1    0    0    0    0  0.00000000000E+00  0.00000000000E+00  0.74505805969E-08  0.10566000000E+00  0.10566000000E+00 0.  1.
     999900   -1    0    0    0    0 -0.00000000000E+00 -0.00000000000E+00 -0.74505805969E-08  0.93827000000E+00  0.93827000000E+00 0. -1.
     999902    2    1    2    0    0  0.21100141692E-01  0.76013140912E-02 -0.93573483122E-02  0.10196286436E+01  0.10193390088E+01 0.  0.
     999903    2    3    3    0    0  0.79428019526E-01  0.12952069138E-01 -0.10351242638E+00  0.13266982233E+00  0.20245813408E-01 0.  0.
         14    1    1    2    0    0 -0.21100141692E-01 -0.76013140912E-02  0.93573483122E-02  0.24301356397E-01  0.00000000000E+00 0.  1.
     999901    1    3    3    0    0 -0.58327877835E-01 -0.53507550471E-02  0.94155078067E-01  0.88695882128E+00  0.88000000000E+00 0.  1.
        -11    1    4    4    0    0  0.22352630653E-02 -0.18464044962E-02 -0.33319932468E-03  0.29627273457E-02  0.51100000000E-03 0.  1.
         11    1    4    4    0    0  0.77192756461E-01  0.14798473634E-01 -0.10317922705E+00  0.12970709498E+00  0.51100000000E-03 0. -1.
</event>
<event>
 8    1  0.1207611E+005  0.1043930E+01  0.7957747E-01            NaN
         13   -1    0    0    0    0  0.00000000000E+00  0.00000000000E+00  0.74505805969E-08  0.10566000000E+00  0.10566000000E+00 0.  1.
     999900   -1    0    0    0    0 -0.00000000000E+00 -0.00000000000E+00 -0.74505805969E-08  0.93827000000E+00  0.93827000000E+00 0.  1.
     999902    2    1    2    0    0 -0.71432748450E-02 -0.70230905587E-02 -0.21586536344E-01  0.10201323378E+01  0.10198547239E+01 0.  0.
     999903    2    3    3    0    0 -0.51853238278E-01  0.14650694479E-02  0.11571418578E+00  0.12832377199E+00  0.19654844712E-01 0.  0.
         14    1    1    2    0    0  0.71432748450E-02  0.70230905587E-02  0.21586536344E-01  0.23797662235E-01  0.00000000000E+00 0.  1.
     999901    1    3    3    0    0  0.44709963432E-01 -0.84881600066E-02 -0.13730072212E+00  0.89180856577E+00  0.88000000000E+00 0.  1.
        -11    1    4    4    0    0 -0.35905339546E-01 -0.68981903026E-02  0.87694672799E-01  0.95012605457E-01  0.51100000000E-03 0. -1.
         11    1    4    4    0    0 -0.15947898731E-01  0.83632597506E-02  0.28019512976E-01  0.33311166537E-01  0.51100000000E-03 0.  1.
</event>
<event>
 8    1  0.1207611E+005  0.1043930E+01  0.7957747E-01            NaN
         13   -1    0    0    0    0  0.00000000000E+00  0.00000000000E+00  0.74505805969E-08  0.10566000000E+00  0.10566000000E+00 0. -1.
     999900   -1    0    0    0    0 -0.00000000000E+00 -0.00000000000E+00 -0.74505805969E-08  0.93827000000E+00  0.93827000000E+00 0.  1.
     999902    2    1    2    0    0  0.11943839781E-01 -0.73118166493E-02 -0.93390568496E-02  0.10270974139E+01  0.10269594742E+01 0.  0.
     999903    2    3    3    0    0  0.10260334693E+00 -0.58857582237E-01  0.68155544047E-01  0.13755734998E+00  0.16887408293E-01 0.  0.
         14    1    1    2    0    0 -0.11943839781E-01  0.73118166493E-02  0.93390568496E-02  0.16832586084E-01  0.00000000000E+00 0.  1.
     999901    1    3    3    0    0 -0.90659507154E-01  0.51545765588E-01 -0.77494600897E-01  0.88954006394E+00  0.88000000000E+00 0.  1.
        -11    1    4    4    0    0  0.40536955457E-01 -0.21454909629E-01  0.17278368779E-01  0.49013886335E-01  0.51100000000E-03 0. -1.
         11    1    4    4    0    0  0.62066391477E-01 -0.37402672608E-01  0.50877175268E-01  0.88543463641E-01  0.51100000000E-03 0.  1.
</event>
<event>
 8    1  0.1207611E+005  0.1043930E+01  0.7957747E-01            NaN
         13   -1    0    0    0    0  0.00000000000E+00  0.00000000000E+00  0.74505805969E-08  0.10566000000E+00  0.10566000000E+00 0. -1.
     999900   -1    0    0    0    0 -0.00000000000E+00 -0.00000000000E+00 -0.74505805969E-08  0.93827000000E+00  0.93827000000E+00 0. -1.
     999902    2    1    2    0    0 -0.54523234195E-02 -0.22490537279E-01 -0.46709198159E-02  0.10203213238E+01  0.10200481529E+01 0.  0.
     999903    2    3    3    0    0  0.72511905995E-01 -0.70932118048E-01  0.82045209391E-01  0.13130799724E+00  0.14867140748E-01 0.  0.
         14    1    1    2    0    0  0.54523234195E-02  0.22490537279E-01  0.46709198159E-02  0.23608676153E-01  0.00000000000E+00 0. -1.
     999901    1    3    3    0    0 -0.77964229414E-01  0.48441580769E-01 -0.86716129207E-01  0.88901332660E+00  0.88000000000E+00 0. -1.
        -11    1    4    4    0    0  0.40596232014E-01 -0.48750228338E-01  0.54889384822E-01  0.83891265957E-01  0.51100000000E-03 0. -1.
         11    1    4    4    0    0  0.31915673981E-01 -0.22181889710E-01  0.27155824569E-01  0.47416731285E-01  0.51100000000E-03 0.  1.
</event>
<event>
 8    1  0.1207611E+005  0.1043930E+01  0.7957747E-01            NaN
         13   -1    0    0    0    0  0.00000000000E+00  0.00000000000E+00  0.74505805969E-08  0.10566000000E+00  0.10566000000E+00 0.  1.
     999900   -1    0    0    0    0 -0.00000000000E+00 -0.00000000000E+00 -0.74505805969E-08  0.93827000000E+00  0.93827000000E+00 0. -1.
     999902    2    1    2    0    0 -0.24398018695E-01  0.48351520818E-02  0.76927708120E-02  0.10178950094E+01  0.10175620028E+01 0.  0.
     999903    2    3    3    0    0 -0.59375103663E-02 -0.12519959896E+00 -0.14903251176E-01  0.12786107352E+00  0.20399843502E-01 0.  0.
         14    1    1    2    0    0  0.24398018695E-01 -0.48351520818E-02 -0.76927708120E-02  0.26034990583E-01  0.00000000000E+00 0. -1.
     999901    1    3    3    0    0 -0.18460508328E-01  0.13003475105E+00  0.22596021988E-01  0.89003393590E+00  0.88000000000E+00 0.  1.
        -11    1    4    4    0    0 -0.82466191831E-02 -0.37230878596E-01 -0.11346143481E-01  0.39788706210E-01  0.51100000000E-03 0. -1.
         11    1    4    4    0    0  0.23091088168E-02 -0.87968720367E-01 -0.35571076951E-02  0.88072367305E-01  0.51100000000E-03 0.  1.
</event>
<event>
 8    1  0.1207611E+005  0.1043930E+01  0.7957747E-01            NaN
         13   -1    0    0    0    0  0.00000000000E+00  0.00000000000E+00  0.74505805969E-08  0.10566000000E+00  0.10566000000E+00 0. -1.
     999900   -1    0    0    0    0 -0.00000000000E+00 -0.00000000000E+00 -0.74505805969E-08  0.93827000000E+00  0.93827000000E+00 0. -1.
     999902    2    1    2    0    0  0.17630760014E-01 -0.14067090209E-01 -0.79096542784E-02  0.10200283399E+01  0.10197482654E+01 0.  0.
     999903    2    3    3    0    0 -0.44961059312E-01  0.94639609193E-01 -0.72475038116E-01  0.12879123836E+00  0.18878544577E-01 0.  0.
         14    1    1    2    0    0 -0.17630760014E-01  0.14067090209E-01  0.79096542784E-02  0.23901660119E-01  0.00000000000E+00 0. -1.
     999901    1    3    3    0    0  0.62591819325E-01 -0.10870669940E+00  0.64565383838E-01  0.89123710152E+00  0.88000000000E+00 0. -1.
        -11    1    4    4    0    0 -0.31321474467E-01  0.60723395714E-01 -0.36351231549E-01  0.77395340338E-01  0.51100000000E-03 0.  1.
         11    1    4    4    0    0 -0.13639584845E-01  0.33916213479E-01 -0.36123806567E-01  0.51395898021E-01  0.51100000000E-03 0. -1.
</event>
<event>
 8    1  0.1207611E+005  0.1043930E+01  0.7957747E-01            NaN
         13   -1    0    0    0    0  0.00000000000E+00  0.00000000000E+00  0.74505805969E-08  0.10566000000E+00  0.10566000000E+00 0.  1.
     999900   -1    0    0    0    0 -0.00000000000E+00 -0.00000000000E+00 -0.74505805969E-08  0.93827000000E+00  0.93827000000E+00 0.  1.
     999902    2    1    2    0    0  0.11483320295E-01 -0.17617805296E-01  0.15163986944E-01  0.10180031759E+01  0.10176729661E+01 0.  0.
     999903    2    3    3    0    0 -0.63911136272E-01 -0.51867822195E-01  0.98914393566E-01  0.13015661350E+00  0.19539254448E-01 0.  0.
         14    1    1    2    0    0 -0.11483320295E-01  0.17617805296E-01 -0.15163986944E-01  0.25926824111E-01  0.00000000000E+00 0. -1.
     999901    1    3    3    0    0  0.75394456566E-01  0.34250016899E-01 -0.83750406622E-01  0.88784656239E+00  0.88000000000E+00 0.  1.
        -11    1    4    4    0    0 -0.20621637909E-01 -0.26987779295E-01  0.32018560187E-01  0.46680204571E-01  0.51100000000E-03 0. -1.
         11    1    4    4    0    0 -0.43289498363E-01 -0.24880042900E-01  0.66895833379E-01  0.83476408929E-01  0.51100000000E-03 0.  1.
</event>
<event>
 8    1  0.1207611E+005  0.1043930E+01  0.7957747E-01            NaN
         13   -1    0    0    0    0  0.00000000000E+00  0.00000000000E+00  0.74505805969E-08  0.10566000000E+00  0.10566000000E+00 0. -1.
     999900   -1    0    0    0    0 -0.00000000000E+00 -0.00000000000E+00 -0.74505805969E-08  0.93827000000E+00  0.93827000000E+00 0. -1.
     999902    2    1    2    0    0 -0.12487847457E-01  0.17445977108E-01  0.58145637714E-02  0.10217012438E+01  0.10214594040E+01 0.  0.
     999903    2    3    3    0    0 -0.36724000906E-01 -0.12337600364E+00 -0.10537944998E-02  0.13014900429E+00  0.19166698123E-01 0.  0.
         14    1    1    2    0    0  0.12487847457E-01 -0.17445977108E-01 -0.58145637714E-02  0.22228756223E-01  0.00000000000E+00 0. -1.
     999901    1    3    3    0    0  0.24236153449E-01  0.14082198075E+00  0.68683582712E-02  0.89155223949E+00  0.88000000000E+00 0. -1.
        -11    1    4    4    0    0 -0.15673322657E-01 -0.56323060876E-01 -0.99523293909E-02  0.59306409526E-01  0.51100000000E-03 0. -1.
         11    1    4    4    0    0 -0.21050678249E-01 -0.67052942765E-01  0.88985348911E-02  0.70842594760E-01  0.51100000000E-03 0.  1.
</event>
<event>
 8    1  0.1207611E+005  0.1043930E+01  0.7957747E-01            NaN
         13   -1    0    0    0    0  0.00000000000E+00  0.00000000000E+00  0.74505805969E-08  0.10566000000E+00  0.10566000000E+00 0.  1.
     999900   -1    0    0    0    0 -0.00000000000E+00 -0.00000000000E+00 -0.74505805969E-08  0.93827000000E+00  0.93827000000E+00 0. -1.
     999902    2    1    2    0    0 -0.15281308421E-03  0.45219306583E-02  0.22677758545E-01  0.10208052959E+01  0.10205433357E+01 0.  0.
     999903    2    3    3    0    0  0.63976900844E-01  0.63310963583E-01 -0.90986251528E-01  0.12924022377E+00  0.17978195697E-01 0.  0.
         14    1    1    2    0    0  0.15281308421E-03 -0.45219306583E-02 -0.22677758545E-01  0.23124704136E-01  0.00000000000E+00 0. -1.
     999901    1    3    3    0    0 -0.64129713928E-01 -0.58789032925E-01  0.11366401007E+00  0.89156507210E+00  0.88000000000E+00 0.  1.
        -11    1    4    4    0    0  0.24593743781E-01  0.21715605755E-01 -0.45477917403E-01  0.56079602877E-01  0.51100000000E-03 0.  1.
         11    1    4    4    0    0  0.39383157063E-01  0.41595357827E-01 -0.45508334125E-01  0.73160620889E-01  0.51100000000E-03 0. -1.
</event>
<event>
 8    1  0.1207611E+005  0.1043930E+01  0.7957747E-01            NaN
         13   -1    0    0    0    0  0.00000000000E+00  0.00000000000E+00  0.74505805969E-08  0.10566000000E+00  0.10566000000E+00 0. -1.
     999900   -1    0    0    0    0 -0.00000000000E+00 -0.00000000000E+00 -0.74505805969E-08  0.93827000000E+00  0.93827000000E+00 0. -1.
     999902    2    1    2    0    0  0.16557276679E-01 -0.12132702185E-01 -0.44413349968E-02  0.10229283017E+01  0.10227126865E+01 0.  0.
     999903    2    3    3    0    0 -0.27194150771E-01  0.66755016802E-01 -0.10902218060E+00  0.13215638206E+00  0.19588755762E-01 0.  0.
         14    1    1    2    0    0 -0.16557276679E-01  0.12132702185E-01  0.44413349968E-02  0.21001698262E-01  0.00000000000E+00 0.  1.
     999901    1    3    3    0    0  0.43751427449E-01 -0.78887718988E-01  0.10458084561E+00  0.89077191967E+00  0.88000000000E+00 0.  1.
        -11    1    4    4    0    0 -0.14940532828E-01  0.15992259577E-01 -0.40066169657E-01  0.45656663912E-01  0.51100000000E-03 0.  1.
         11    1    4    4    0    0 -0.12253617943E-01  0.50762757225E-01 -0.68956010947E-01  0.86499718153E-01  0.51100000000E-03 0. -1.
</event>
<event>
 8    1  0.1207611E+005  0.1043930E+01  0.7957747E-01            NaN
         13   -1    0    0    0    0  0.00000000000E+00  0.00000000000E+00  0.74505805969E-08  0.10566000000E+00  0.10566000000E+00 0.  1.
     999900   -1    0    0    0    0 -0.00000000000E+00 -0.00000000000E+00 -0.74505805969E-08  0.93827000000E+00  0.93827000000E+00 0. -1.
     999902    2    1    2    0    0 -0.14420174419E-01  0.18293432247E-01 -0.17724259115E-01  0.10146598709E+01  0.10142376020E+01 0.  0.
     999903    2    3    3    0    0 -0.88244927650E-02 -0.72286138764E-01  0.96610516153E-01  0.12263497714E+00  0.20064602074E-01 0.  0.
         14    1    1    2    0    0  0.14420174419E-01 -0.18293432247E-01  0.17724259115E-01  0.29270129054E-01  0.00000000000E+00 0.  1.
     999901    1    3    3    0    0 -0.55956816544E-02  0.90579571011E-01 -0.11433477527E+00  0.89202489381E+00  0.88000000000E+00 0. -1.
        -11    1    4    4    0    0 -0.14812521431E-01 -0.47705965617E-01  0.68970009001E-01  0.85160984078E-01  0.51100000000E-03 0. -1.
         11    1    4    4    0    0  0.59880286657E-02 -0.24580173147E-01  0.27640507151E-01  0.37473993059E-01  0.51100000000E-03 0.  1.
</event>
<event>
 8    1  0.1207611E+005  0.1043930E+01  0.7957747E-01            NaN
         13   -1    0    0    0    0  0.00000000000E+00  0.00000000000E+00  0.74505805969E-08  0.10566000000E+00  0.10566000000E+00 0.  1.
     999900   -1    0    0    0    0 -0.00000000000E+00 -0.00000000000E+00 -0.74505805969E-08  0.93827000000E+00  0.93827000000E+00 0. -1.
     999902    2    1    2    0    0  0.92716197946E-02  0.20670476247E-01  0.36909163317E-02  0.10209766912E+01  0.10207186437E+01 0.  0.
     999903    2    3    3    0    0  0.23862572774E-01  0.12574029168E+00  0.36242767833E-01  0.13400871823E+00  0.16271294036E-01 0.  0.
         14    1    1    2    0    0 -0.92716197946E-02 -0.20670476247E-01 -0.36909163317E-02  0.22953308808E-01  0.00000000000E+00 0.  1.
     999901    1    3    3    0    0 -0.14590952979E-01 -0.10506981544E+00 -0.32551851502E-01  0.88696797296E+00  0.88000000000E+00 0.  1.
        -11    1    4    4    0    0  0.12755475135E-01  0.61195579319E-01  0.26056420839E-01  0.67725912781E-01  0.51100000000E-03 0.  1.
         11    1    4    4    0    0  0.11107097638E-01  0.64544712363E-01  0.10186346994E-01  0.66282805448E-01  0.51100000000E-03 0. -1.
</event>
<event>
 8    1  0.1207611E+005  0.1043930E+01  0.7957747E-01            NaN
         13   -1    0    0    0    0  0.00000000000E+00  0.00000000000E+00  0.74505805969E-08  0.10566000000E+00  0.10566000000E+00 0.  1.
     999900   -1    0    0    0    0 -0.00000000000E+00 -0.00000000000E+00 -0.74505805969E-08  0.93827000000E+00  0.93827000000E+00 0. -1.
     999902    2    1    2    0    0 -0.15920859059E-01 -0.10924174857E-01  0.13172810190E-01  0.10205562053E+01  0.10202885052E+01 0.  0.
     999903    2    3    3    0    0  0.11523000865E+00  0.38425453608E-01 -0.36037457039E-01  0.12811148079E+00  0.18957394920E-01 0.  0.
         14    1    1    2    0    0  0.15920859059E-01  0.10924174857E-01 -0.13172810190E-01  0.23373794681E-01  0.00000000000E+00 0. -1.
     999901    1    3    3    0    0 -0.13115086771E+00 -0.49349628465E-01  0.49210267229E-01  0.89244472452E+00  0.88000000000E+00 0. -1.
        -11    1    4    4    0    0  0.45953219109E-01  0.21464888882E-01 -0.22614502414E-01  0.55534823684E-01  0.51100000000E-03 0. -1.
         11    1    4    4    0    0  0.69276789544E-01  0.16960564726E-01 -0.13422954625E-01  0.72576657110E-01  0.51100000000E-03 0.  1.
</event>
<event>
 8    1  0.1207611E+005  0.1043930E+01  0.7957747E-01            NaN
         13   -1    0    0    0    0  0.00000000000E+00  0.00000000000E+00  0.74505805969E-08  0.10566000000E+00  0.10566000000E+00 0.  1.
     999900   -1    0    0    0    0 -0.00000000000E+00 -0.00000000000E+00 -0.74505805969E-08  0.93827000000E+00  0.93827000000E+00 0. -1.
     999902    2    1    2    0    0 -0.11849820896E-01  0.67198817382E-02 -0.20462581447E-01  0.10193476424E+01  0.10190511880E+01 0.  0.
     999903    2    3    3    0    0  0.62856529848E-02 -0.37203336012E-01 -0.12484074963E+00  0.13190584348E+00  0.19757052737E-01 0.  0.
         14    1    1    2    0    0  0.11849820896E-01 -0.67198817382E-02  0.20462581447E-01  0.24582357603E-01  0.00000000000E+00 0.  1.
     999901    1    3    3    0    0 -0.18135473881E-01  0.43923217750E-01  0.10437816818E+00  0.88744179892E+00  0.88000000000E+00 0.  1.
        -11    1    4    4    0    0  0.64128724203E-02 -0.16432945913E-01 -0.29910250812E-01  0.34728243098E-01  0.51100000000E-03 0. -1.
         11    1    4    4    0    0 -0.12721943550E-03 -0.20770390099E-01 -0.94930498817E-01  0.97177600383E-01  0.51100000000E-03 0.  1.
</event>
<event>
 8    1  0.1207611E+005  0.1043930E+01  0.7957747E-01            NaN
         13   -1    0    0    0    0  0.00000000000E+00  0.00000000000E+00  0.74505805969E-08  0.10566000000E+00  0.10566000000E+00 0.  1.
     999900   -1    0    0    0    0 -0.00000000000E+00 -0.00000000000E+00 -0.74505805969E-08  0.93827000000E+00  0.93827000000E+00 0. -1.
     999902    2    1    2    0    0 -0.24473081185E-01 -0.19209347871E-02  0.44684916334E-02  0.10189782644E+01  0.10186727218E+01 0.  0.
     999903    2    3    3    0    0  0.60183082767E-01  0.99643169185E-01  0.49348431236E-01  0.12796976706E+00  0.19754214731E-01 0.  0.
         14    1    1    2    0    0  0.24473081185E-01  0.19209347871E-02 -0.44684916334E-02  0.24951735623E-01  0.00000000000E+00 0.  1.
     999901    1    3    3    0    0 -0.84656163952E-01 -0.10156410397E+00 -0.44879939603E-01  0.89100849732E+00  0.88000000000E+00 0. -1.
        -11    1    4    4    0    0  0.12305697977E-01  0.32368856293E-01  0.76606371714E-02  0.35469980875E-01  0.51100000000E-03 0. -1.
         11    1    4    4    0    0  0.47877384790E-01  0.67274312891E-01  0.41687794065E-01  0.92499786186E-01  0.51100000000E-03 0.  1.
</event>
<event>
 8    1  0.1207611E+005  0.1043930E+01  0.7957747E-01            NaN
         13   -1    0    0    0    0  0.00000000000E+00  0.00000000000E+00  0.74505805969E-08  0.10566000000E+00  0.10566000000E+00 0.  1.
     999900   -1    0    0    0    0 -0.00000000000E+00 -0.00000000000E+00 -0.74505805969E-08  0.93827000000E+00  0.93827000000E+00 0. -1.
     999902    2    1    2    0    0  0.92285151828E-02  0.45540809292E-02  0.23949033272E-01  0.10178635208E+01  0.10175296976E+01 0.  0.
     999903    2    3    3    0    0 -0.11507274429E-01  0.37966670457E-01 -0.11757548560E+00  0.12568889460E+00  0.19995449031E-01 0.  0.
         14    1    1    2    0    0 -0.92285151828E-02 -0.45540809292E-02 -0.23949033272E-01  0.26066479245E-01  0.00000000000E+00 0. -1.
     999901    1    3    3    0    0  0.20735789612E-01 -0.33412589528E-01  0.14152451887E+00  0.89217462615E+00  0.88000000000E+00 0.  1.
        -11    1    4    4    0    0 -0.15214546936E-01  0.18339178987E-01 -0.74164900073E-01  0.77900586957E-01  0.51100000000E-03 0.  1.
         11    1    4    4    0    0  0.37072725070E-02  0.19627491469E-01 -0.43410585526E-01  0.47788307645E-01  0.51100000000E-03 0. -1.
</event>
<event>
 8    1  0.1207611E+005  0.1043930E+01  0.7957747E-01            NaN
         13   -1    0    0    0    0  0.00000000000E+00  0.00000000000E+00  0.74505805969E-08  0.10566000000E+00  0.10566000000E+00 0.  1.
     999900   -1    0    0    0    0 -0.00000000000E+00 -0.00000000000E+00 -0.74505805969E-08  0.93827000000E+00  0.93827000000E+00 0. -1.
     999902    2    1    2    0    0 -0.19296760338E-01  0.56620804646E-02  0.12441123359E-01  0.10202824702E+01  0.10200083889E+01 0.  0.
     999903    2    3    3    0    0 -0.12809666360E+00  0.29479906575E-01  0.27418126296E-02  0.13320931403E+00  0.21433237982E-01 0.  0.
         14    1    1    2    0    0  0.19296760338E-01 -0.56620804646E-02 -0.12441123359E-01  0.23647529790E-01  0.00000000000E+00 0. -1.
     999901    1    3    3    0    0  0.10879990326E+00 -0.23817826110E-01  0.96993107295E-02  0.88707315618E+00  0.88000000000E+00 0.  1.
        -11    1    4    4    0    0 -0.11210702726E+00  0.26934715035E-01 -0.46749185011E-02  0.11539315586E+00  0.51100000000E-03 0.  1.
         11    1    4    4    0    0 -0.15989636338E-01  0.25451915394E-02  0.74167311306E-02  0.17816158168E-01  0.51100000000E-03 0. -1.
</event>
<event>
 8    1  0.1207611E+005  0.1043930E+01  0.7957747E-01            NaN
         13   -1    0    0    0    0  0.00000000000E+00  0.00000000000E+00  0.74505805969E-08  0.10566000000E+00  0.10566000000E+00 0.  1.
     999900   -1    0    0    0    0 -0.00000000000E+00 -0.00000000000E+00 -0.74505805969E-08  0.93827000000E+00  0.93827000000E+00 0. -1.
     999902    2    1    2    0    0  0.22958693699E-01  0.44110345696E-02 -0.32581088914E-02  0.10203254641E+01  0.10200523901E+01 0.  0.
     999903    2    3    3    0    0  0.12138088845E+00 -0.30835212559E-01 -0.41348510357E-01  0.13331920422E+00  0.19498217630E-01 0.  0.
         14    1    1    2    0    0 -0.22958693699E-01 -0.44110345696E-02  0.32581088914E-02  0.23604535918E-01  0.00000000000E+00 0.  1.
     999901    1    3    3    0    0 -0.98422194747E-01  0.35246247129E-01  0.38090401466E-01  0.88700625986E+00  0.88000000000E+00 0.  1.
        -11    1    4    4    0    0  0.59489973063E-01 -0.24440772231E-01 -0.24810610697E-01  0.68936461806E-01  0.51100000000E-03 0. -1.
         11    1    4    4    0    0  0.61890915384E-01 -0.63944403280E-02 -0.16537899660E-01  0.64382742411E-01  0.51100000000E-03 0.  1.
</event>
<event>
 8    1  0.1207611E+005  0.1043930E+01  0.7957747E-01            NaN
         13   -1    0    0    0    0  0.00000000000E+00  0.00000000000E+00  0.74505805969E-08  0.10566000000E+00  0.10566000000E+00 0.  1.
     999900   -1    0    0    0    0 -0.00000000000E+00 -0.00000000000E+00 -0.74505805969E-08  0.93827000000E+00  0.93827000000E+00 0. -1.
     999902    2    1    2    0    0  0.16794230102E-01  0.16510028213E-01 -0.69135029364E-03  0.10203693302E+01  0.10200972821E+01 0.  0.
     999903    2    3    3    0    0 -0.11487161445E+00  0.26015330191E-01  0.48861614404E-01  0.12914447546E+00  0.20458567139E-01 0.  0.
         14    1    1    2    0    0 -0.16794230102E-01 -0.16510028213E-01  0.69135029364E-03  0.23560669803E-01  0.00000000000E+00 0.  1.
     999901    1    3    3    0    0  0.13166584455E+00 -0.95053019781E-02 -0.49552964698E-01  0.89122485473E+00  0.88000000000E+00 0.  1.
        -11    1    4    4    0    0 -0.83364972445E-01  0.24892212687E-01  0.43091526591E-01  0.97090069874E-01  0.51100000000E-03 0. -1.
         11    1    4    4    0    0 -0.31506642003E-01  0.11231175038E-02  0.57700878137E-02  0.32054405589E-01  0.51100000000E-03 0.  1.
</event>
<event>
 8    1  0.1207611E+005  0.1043930E+01  0.7957747E-01            NaN
         13   -1    0    0    0    0  0.00000000000E+00  0.00000000000E+00  0.74505805969E-08  0.10566000000E+00  0.10566000000E+00 0. -1.
     999900   -1    0    0    0    0 -0.00000000000E+00 -0.00000000000E+00 -0.74505805969E-08  0.93827000000E+00  0.93827000000E+00 0.  1.
     999902    2    1    2    0    0 -0.18574348256E-01 -0.56087357419E-02 -0.12938720802E-01  0.10206088760E+01  0.10203423949E+01 0.  0.
     999903    2    3    3    0    0  0.53533123385E-01  0.52943004135E-01 -0.10426073967E+00  0.13102048529E+00  0.25046132299E-01 0.  0.
         14    1    1    2    0    0  0.18574348256E-01  0.56087357419E-02  0.12938720802E-01  0.23321124024E-01  0.00000000000E+00 0. -1.
     999901    1    3    3    0    0 -0.72107471641E-01 -0.58551739877E-01  0.91322018869E-01  0.88958839068E+00  0.88000000000E+00 0. -1.
        -11    1    4    4    0    0  0.11822008065E-01  0.28781019797E-01 -0.42430418406E-01  0.52618518626E-01  0.51100000000E-03 0. -1.
         11    1    4    4    0    0  0.41711115320E-01  0.24161984338E-01 -0.61830321266E-01  0.78401966667E-01  0.51100000000E-03 0.  1.
</event>
<event>
 8    1  0.1207611E+005  0.1043930E+01  0.7957747E-01            NaN
         13   -1    0    0    0    0  0.00000000000E+00  0.00000000000E+00  0.74505805969E-08  0.10566000000E+00  0.10566000000E+00 0.  1.
     999900   -1    0    0    0    0 -0.00000000000E+00 -0.00000000000E+00 -0.74505805969E-08  0.93827000000E+00  0.93827000000E+00 0. -1.
     999902    2    1    2    0    0  0.19631780034E-01  0.74214907213E-02  0.11133801550E-01  0.10201719098E+01  0.10198952293E+01 0.  0.
     999903    2    3    3    0    0  0.11399162026E+00  0.75458523141E-02 -0.63046869324E-01  0.13202408044E+00  0.20110213971E-01 0.  0.
         14    1    1    2    0    0 -0.19631780034E-01 -0.74214907213E-02 -0.11133801550E-01  0.23758090176E-01  0.00000000000E+00 0. -1.
     999901    1    3    3    0    0 -0.94359840231E-01 -0.12436159283E-03  0.74180670874E-01  0.88814782939E+00  0.88000000000E+00 0.  1.
        -11    1    4    4    0    0  0.45349977153E-01 -0.59003238763E-02 -0.20210637166E-01  0.50001652226E-01  0.51100000000E-03 0.  1.
         11    1    4    4    0    0  0.68641643112E-01  0.13446176190E-01 -0.42836232158E-01  0.82022428211E-01  0.51100000000E-03 0. -1.
</event>
<event>
 8    1  0.1207611E+005  0.1043930E+01  0.7957747E-01            NaN
         13   -1    0    0    0    0  0.00000000000E+00  0.00000000000E+00  0.74505805969E-08  0.10566000000E+00  0.10566000000E+00 0.  1.
     999900   -1    0    0    0    0 -0.00000000000E+00 -0.00000000000E+00 -0.74505805969E-08  0.93827000000E+00  0.93827000000E+00 0. -1.
     999902    2    1    2    0    0 -0.80550775347E-02  0.13275152737E-01  0.15174315042E-01  0.10222188556E+01  0.10219882656E+01 0.  0.
     999903    2    3    3    0    0 -0.67901465777E-01 -0.56419698291E-01 -0.94282886929E-01  0.13069216418E+00  0.19934583030E-01 0.  0.
         14    1    1    2    0    0  0.80550775347E-02 -0.13275152737E-01 -0.15174315042E-01  0.21711144403E-01  0.00000000000E+00 0. -1.
     999901    1    3    3    0    0  0.59846388242E-01  0.69694851028E-01  0.10945720197E+00  0.89152669142E+00  0.88000000000E+00 0.  1.
        -11    1    4    4    0    0 -0.63376062514E-01 -0.54818486637E-01 -0.80943925932E-01  0.11650653219E+00  0.51100000000E-03 0. -1.
         11    1    4    4    0    0 -0.45254032631E-02 -0.16012116539E-02 -0.13338960997E-01  0.14185631989E-01  0.51100000000E-03 0.  1.
</event>
<event>
 8    1  0.1207611E+005  0.1043930E+01  0.7957747E-01            NaN
         13   -1    0    0    0    0  0.00000000000E+00  0.00000000000E+00  0.74505805969E-08  0.10566000000E+00  0.10566000000E+00 0. -1.
     999900   -1    0    0    0    0 -0.00000000000E+00 -0.00000000000E+00 -0.74505805969E-08  0.93827000000E+00  0.93827000000E+00 0.  1.
     999902    2    1    2    0    0 -0.15964925744E-01  0.16628338456E-01 -0.51415364892E-02  0.10203118737E+01  0.10200384815E+01 0.  0.
     999903    2    3    3    0    0 -0.74202655749E-02  0.10026993212E+00 -0.84307738759E-01  0.13276682412E+00  0.20251299789E-01 0.  0.
         14    1    1    2    0    0  0.15964925744E-01 -0.16628338456E-01  0.51415364892E-02  0.23618126329E-01  0.00000000000E+00 0.  1.
     999901    1    3    3    0    0 -0.85446601691E-02 -0.83641593661E-01  0.79166202270E-01  0.88754504955E+00  0.88000000000E+00 0. -1.
        -11    1    4    4    0    0 -0.89586294028E-02  0.19832391878E-01 -0.13674775348E-01  0.25706835865E-01  0.51100000000E-03 0. -1.
         11    1    4    4    0    0  0.15383638279E-02  0.80437540239E-01 -0.70632963411E-01  0.10705998825E+00  0.51100000000E-03 0.  1.
</event>
<event>
 8    1  0.1207611E+005  0.1043930E+01  0.7957747E-01            NaN
         13   -1    0    0    0    0  0.00000000000E+00  0.00000000000E+00  0.74505805969E-08  0.10566000000E+00  0.10566000000E+00 0. -1.
     999900   -1    0    0    0    0 -0.00000000000E+00 -0.00000000000E+00 -0.74505805969E-08  0.93827000000E+00  0.93827000000E+00 0. -1.
     999902    2    1    2    0    0  0.22529212157E-01 -0.19582144319E-01 -0.10214259585E-01  0.10123807231E+01  0.10118890115E+01 0.  0.
     999903    2    3    3    0    0  0.40434968587E-01 -0.74110315341E-01 -0.92318593960E-01  0.12669733760E+00  0.20054102840E-01 0.  0.
         14    1    1    2    0    0 -0.22529212157E-01  0.19582144319E-01  0.10214259585E-01  0.31549276940E-01  0.00000000000E+00 0.  1.
     999901    1    3    3    0    0 -0.17905756430E-01  0.54528171023E-01  0.82104334375E-01  0.88568338546E+00  0.88000000000E+00 0.  1.
        -11    1    4    4    0    0  0.26644100452E-01 -0.39924047403E-01 -0.38860365058E-01  0.61759426353E-01  0.51100000000E-03 0. -1.
         11    1    4    4    0    0  0.13790868135E-01 -0.34186267938E-01 -0.53458228902E-01  0.64937911252E-01  0.51100000000E-03 0.  1.
</event>
<event>
 8    1  0.1207611E+005  0.1043930E+01  0.7957747E-01            NaN
         13   -1    0    0    0    0  0.00000000000E+00  0.00000000000E+00  0.74505805969E-08  0.10566000000E+00  0.10566000000E+00 0.  1.
     999900   -1    0    0    0    0 -0.00000000000E+00 -0.00000000000E+00 -0.74505805969E-08  0.93827000000E+00  0.93827000000E+00 0. -1.
     999902    2    1    2    0    0  0.18485257937E-01 -0.97079655716E-02  0.12678464710E-01  0.10195027033E+01  0.10192100221E+01 0.  0.
     999903    2    3    3    0    0 -0.11148504564E+00 -0.58740413867E-01 -0.12362855440E-01  0.12825440540E+00  0.20420594686E-01 0.  0.
         14    1    1    2    0    0 -0.18485257937E-01  0.97079655716E-02 -0.12678464710E-01  0.24427296697E-01  0.00000000000E+00 0. -1.
     999901    1    3    3    0    0  0.12997030358E+00  0.49032448295E-01  0.25041320150E-01  0.89124829790E+00  0.88000000000E+00 0.  1.
        -11    1    4    4    0    0 -0.80132283987E-01 -0.52064655093E-01 -0.10559870235E-01  0.96144075363E-01  0.51100000000E-03 0. -1.
         11    1    4    4    0    0 -0.31352761653E-01 -0.66757587737E-02 -0.18029852056E-02  0.32110330038E-01  0.51100000000E-03 0.  1.
</event>
<event>
 8    1  0.1207611E+005  0.1043930E+01  0.7957747E-01            NaN
         13   -1    0    0    0    0  0.00000000000E+00  0.00000000000E+00  0.74505805969E-08  0.10566000000E+00  0.10566000000E+00 0.  1.
     999900   -1    0    0    0    0 -0.00000000000E+00 -0.00000000000E+00 -0.74505805969E-08  0.93827000000E+00  0.93827000000E+00 0.  1.
     999902    2    1    2    0    0  0.19906090300E-01  0.73334468670E-02 -0.97334305054E-02  0.10205896585E+01  0.10203227330E+01 0.  0.
     999903    2    3    3    0    0 -0.85025942443E-01 -0.64623243344E-01 -0.70659795622E-01  0.12935426939E+00  0.18279655983E-01 0.  0.
         14    1    1    2    0    0 -0.19906090300E-01 -0.73334468670E-02  0.97334305054E-02  0.23340341544E-01  0.00000000000E+00 0.  1.
     999901    1    3    3    0    0  0.10493203274E+00  0.71956690211E-01  0.60926365116E-01  0.89123538907E+00  0.88000000000E+00 0. -1.
        -11    1    4    4    0    0 -0.55889889691E-01 -0.52270670396E-01 -0.53272629925E-01  0.93242356112E-01  0.51100000000E-03 0.  1.
         11    1    4    4    0    0 -0.29136052752E-01 -0.12352572948E-01 -0.17387165697E-01  0.36111913275E-01  0.51100000000E-03 0. -1.
</event>
<event>
 8    1  0.1207611E+005  0.1043930E+01  0.7957747E-01            NaN
         13   -1    0    0    0    0  0.00000000000E+00  0.00000000000E+00  0.74505805969E-08  0.10566000000E+00  0.10566000000E+00 0. -1.
     999900   -1    0    0    0    0 -0.00000000000E+00 -0.00000000000E+00 -0.74505805969E-08  0.93827000000E+00  0.93827000000E+00 0. -1.
     999902    2    1    2    0    0  0.97076067818E-04  0.19133318122E-01  0.13874072317E-01  0.10202956358E+01  0.10200218632E+01 0.  0.
     999903    2    3    3    0    0 -0.88961064153E-01  0.73463520229E-01  0.62480452923E-01  0.13280157760E+00  0.20530277025E-01 0.  0.
         14    1    1    2    0    0 -0.97076067818E-04 -0.19133318122E-01 -0.13874072317E-01  0.23634364150E-01  0.00000000000E+00 0.  1.
     999901    1    3    3    0    0  0.89058140221E-01 -0.54330202108E-01 -0.48606380606E-01  0.88749405825E+00  0.88000000000E+00 0. -1.
        -11    1    4    4    0    0 -0.61458063662E-01  0.42086941095E-01  0.48083216773E-01  0.88660369140E-01  0.51100000000E-03 0.  1.
         11    1    4    4    0    0 -0.27503000491E-01  0.31376579134E-01  0.14397236150E-01  0.44141208456E-01  0.51100000000E-03 0. -1.
</event>
<event>
 8    1  0.1207611E+005  0.1043930E+01  0.7957747E-01            NaN
         13   -1    0    0    0    0  0.00000000000E+00  0.00000000000E+00  0.74505805969E-08  0.10566000000E+00  0.10566000000E+00 0.  1.
     999900   -1    0    0    0    0 -0.00000000000E+00 -0.00000000000E+00 -0.74505805969E-08  0.93827000000E+00  0.93827000000E+00 0. -1.
     999902    2    1    2    0    0 -0.15918259695E-01 -0.16518022544E-01 -0.57527434535E-02  0.10202798389E+01  0.10200056959E+01 0.  0.
     999903    2    3    3    0    0  0.78832267622E-01  0.54909949062E-01  0.82131784200E-01  0.12797758760E+00  0.20074960242E-01 0.  0.
         14    1    1    2    0    0  0.15918259695E-01  0.16518022544E-01  0.57527434535E-02  0.23650161051E-01  0.00000000000E+00 0.  1.
     999901    1    3    3    0    0 -0.94750527317E-01 -0.71427971606E-01 -0.87884527653E-01  0.89230225135E+00  0.88000000000E+00 0.  1.
        -11    1    4    4    0    0  0.56397064580E-01  0.27743869809E-01  0.54685297225E-01  0.83313228594E-01  0.51100000000E-03 0.  1.
         11    1    4    4    0    0  0.22435203042E-01  0.27166079252E-01  0.27446486975E-01  0.44664359009E-01  0.51100000000E-03 0. -1.
</event>
<event>
 8    1  0.1207611E+005  0.1043930E+01  0.7957747E-01            NaN
         13   -1    0    0    0    0  0.00000000000E+00  0.00000000000E+00  0.74505805969E-08  0.10566000000E+00  0.10566000000E+00 0. -1.
     999900   -1    0    0    0    0 -0.00000000000E+00 -0.00000000000E+00 -0.74505805969E-08  0.93827000000E+00  0.93827000000E+00 0. -1.
     999902    2    1    2    0    0 -0.18063250667E-01  0.60296256691E-02 -0.81307561060E-03  0.10248696091E+01  0.10246923524E+01 0.  0.
     999903    2    3    3    0    0 -0.54201185019E-01  0.44735402684E-01 -0.11464265525E+00  0.13595945575E+00  0.20075121294E-01 0.  0.
         14    1    1    2    0    0  0.18063250667E-01 -0.60296256691E-02  0.81307561060E-03  0.19060390927E-01  0.00000000000E+00 0.  1.
     999901    1    3    3    0    0  0.36137934353E-01 -0.38705777014E-01  0.11382957964E+00  0.88891015332E+00  0.88000000000E+00 0.  1.
        -11    1    4    4    0    0 -0.37686567563E-01  0.19437946586E-01 -0.74385866411E-01  0.85624934364E-01  0.51100000000E-03 0.  1.
         11    1    4    4    0    0 -0.16514617456E-01  0.25297456098E-01 -0.40256788840E-01  0.50334521389E-01  0.51100000000E-03 0. -1.
</event>
<event>
 8    1  0.1207611E+005  0.1043930E+01  0.7957747E-01            NaN
         13   -1    0    0    0    0  0.00000000000E+00  0.00000000000E+00  0.74505805969E-08  0.10566000000E+00  0.10566000000E+00 0.  1.
     999900   -1    0    0    0    0 -0.00000000000E+00 -0.00000000000E+00 -0.74505805969E-08  0.93827000000E+00  0.93827000000E+00 0.  1.
     999902    2    1    2    0    0 -0.84637671565E-02  0.75777673908E-02 -0.19425878464E-01  0.10214261633E+01  0.10211782334E+01 0.  0.
     999903    2    3    3    0    0  0.91191414552E-01  0.29552228644E-01  0.84616601528E-01  0.12944024981E+00  0.20139531030E-01 0.  0.
         14    1    1    2    0    0  0.84637671565E-02 -0.75777673908E-02  0.19425878464E-01  0.22503836722E-01  0.00000000000E+00 0.  1.
     999901    1    3    3    0    0 -0.99655181708E-01 -0.21974461253E-01 -0.10404247999E+00  0.89198591347E+00  0.88000000000E+00 0.  1.
        -11    1    4    4    0    0  0.58207667141E-01  0.11513569278E-01  0.42527137292E-01  0.73003515797E-01  0.51100000000E-03 0. -1.
         11    1    4    4    0    0  0.32983747411E-01  0.18038659366E-01  0.42089464236E-01  0.56436734010E-01  0.51100000000E-03 0.  1.
</event>
<event>
 8    1  0.1207611E+005  0.1043930E+01  0.7957747E-01            NaN
         13   -1    0    0    0    0  0.00000000000E+00  0.00000000000E+00  0.74505805969E-08  0.10566000000E+00  0.10566000000E+00 0. -1.
     999900   -1    0    0    0    0 -0.00000000000E+00 -0.00000000000E+00 -0.74505805969E-08  0.93827000000E+00  0.93827000000E+00 0. -1.
     999902    2    1    2    0    0 -0.49579428120E-02  0.17630466559E-01 -0.15834223785E-01  0.10197197296E+01  0.10194322880E+01 0.  0.
     999903    2    3    3    0    0  0.11912010347E+00 -0.35789239293E-01  0.25222025636E-01  0.12846519688E+00  0.19917016205E-01 0.  0.
         14    1    1    2    0    0  0.49579428120E-02 -0.17630466559E-01  0.15834223785E-01  0.24210270360E-01  0.00000000000E+00 0. -1.
     999901    1    3    3    0    0 -0.12407804628E+00  0.53419705852E-01 -0.41056249421E-01  0.89125453276E+00  0.88000000000E+00 0.  1.
        -11    1    4    4    0    0  0.85573499599E-01 -0.33269653753E-01  0.23508587011E-01  0.94776624115E-01  0.51100000000E-03 0.  1.
         11    1    4    4    0    0  0.33546603867E-01 -0.25195855397E-02  0.17134386248E-02  0.33688572769E-01  0.51100000000E-03 0. -1.
</event>
<event>
 8    1  0.1207611E+005  0.1043930E+01  0.7957747E-01            NaN
         13   -1    0    0    0    0  0.00000000000E+00  0.00000000000E+00  0.74505805969E-08  0.10566000000E+00  0.10566000000E+00 0.  1.
     999900   -1    0    0    0    0 -0.00000000000E+00 -0.00000000000E+00 -0.74505805969E-08  0.93827000000E+00  0.93827000000E+00 0. -1.
     999902    2    1    2    0    0  0.93102802823E-02 -0.74983379423E-02 -0.20997457144E-01  0.10197680548E+01  0.10194817732E+01 0.  0.
     999903    2    3    3    0    0 -0.43531631916E-01  0.11734177591E+00 -0.23968703947E-01  0.12938266067E+00  0.22389255538E-01 0.  0.
         14    1    1    2    0    0 -0.93102802823E-02  0.74983379423E-02  0.20997457144E-01  0.24161945231E-01  0.00000000000E+00 0.  1.
     999901    1    3    3    0    0  0.52841912199E-01 -0.12484011385E+00  0.29712468022E-02  0.89038539410E+00  0.88000000000E+00 0.  1.
        -11    1    4    4    0    0 -0.18346160487E-01  0.71172956051E-01 -0.57631628394E-02  0.73726836665E-01  0.51100000000E-03 0. -1.
         11    1    4    4    0    0 -0.25185471429E-01  0.46168819856E-01 -0.18205541107E-01  0.55655824008E-01  0.51100000000E-03 0.  1.
</event>
<event>
 8    1  0.1207611E+005  0.1043930E+01  0.7957747E-01            NaN
         13   -1    0    0    0    0  0.00000000000E+00  0.00000000000E+00  0.74505805969E-08  0.10566000000E+00  0.10566000000E+00 0.  1.
     999900   -1    0    0    0    0 -0.00000000000E+00 -0.00000000000E+00 -0.74505805969E-08  0.93827000000E+00  0.93827000000E+00 0.  1.
     999902    2    1    2    0    0  0.63743701423E-03  0.21103605683E-01  0.18006198657E-01  0.10161812759E+01  0.10158023399E+01 0.  0.
     999903    2    3    3    0    0  0.51586187391E-01  0.11590469817E+00 -0.14223851989E-01  0.12903878540E+00  0.18805754006E-01 0.  0.
         14    1    1    2    0    0 -0.63743701423E-03 -0.21103605683E-01 -0.18006198657E-01  0.27748724094E-01  0.00000000000E+00 0. -1.
     999901    1    3    3    0    0 -0.50948750377E-01 -0.94801092488E-01  0.32230050646E-01  0.88714249051E+00  0.88000000000E+00 0. -1.
        -11    1    4    4    0    0  0.37871758988E-01  0.62443917071E-01 -0.93758641814E-02  0.73632064063E-01  0.51100000000E-03 0. -1.
         11    1    4    4    0    0  0.13714428404E-01  0.53460781100E-01 -0.48479878079E-02  0.55406721334E-01  0.51100000000E-03 0.  1.
</event>
<event>
 8    1  0.1207611E+005  0.1043930E+01  0.7957747E-01            NaN
         13   -1    0    0    0    0  0.00000000000E+00  0.00000000000E+00  0.74505805969E-08  0.10566000000E+00  0.10566000000E+00 0.  1.
     999900   -1    0    0    0    0 -0.00000000000E+00 -0.00000000000E+00 -0.74505805969E-08  0.93827000000E+00  0.93827000000E+00 0. -1.
     999902    2    1    2    0    0 -0.41434028908E-02 -0.45817038488E-02 -0.22030020214E-01  0.10210502800E+01  0.10207939031E+01 0.  0.
     999903    2    3    3    0    0 -0.79707062654E-01 -0.44748443800E-01  0.89967729007E-01  0.12983384751E+00  0.20174157634E-01 0.  0.
         14    1    1    2    0    0  0.41434028908E-02  0.45817038488E-02  0.22030020214E-01  0.22879720023E-01  0.00000000000E+00 0.  1.
     999901    1    3    3    0    0  0.75563659764E-01  0.40166739951E-01 -0.11199774922E+00  0.89121643247E+00  0.88000000000E+00 0. -1.
        -11    1    4    4    0    0 -0.29364776997E-01 -0.27297815818E-01  0.34169116630E-01  0.52680646625E-01  0.51100000000E-03 0.  1.
         11    1    4    4    0    0 -0.50342285657E-01 -0.17450627982E-01  0.55798612376E-01  0.77153200882E-01  0.51100000000E-03 0. -1.
</event>
<event>
 8    1  0.1207611E+005  0.1043930E+01  0.7957747E-01            NaN
         13   -1    0    0    0    0  0.00000000000E+00  0.00000000000E+00  0.74505805969E-08  0.10566000000E+00  0.10566000000E+00 0. -1.
     999900   -1    0    0    0    0 -0.00000000000E+00 -0.00000000000E+00 -0.74505805969E-08  0.93827000000E+00  0.93827000000E+00 0.  1.
     999902    2    1    2    0    0  0.16951340167E-01  0.81587087201E-02 -0.14609515663E-01  0.10201108814E+01  0.10198327608E+01 0.  0.
     999903    2    3    3    0    0 -0.21802353820E-01  0.87283074371E-01  0.90986109592E-01  0.12942970946E+00  0.19491019673E-01 0.  0.
         14    1    1    2    0    0 -0.16951340167E-01 -0.81587087201E-02  0.14609515663E-01  0.23819118568E-01  0.00000000000E+00 0. -1.
     999901    1    3    3    0    0  0.38753693987E-01 -0.79124365651E-01 -0.10559562525E+00  0.89068117197E+00  0.88000000000E+00 0.  1.
        -11    1    4    4    0    0 -0.12583136626E-01  0.62755623434E-01  0.75531709895E-01  0.99004565150E-01  0.51100000000E-03 0.  1.
         11    1    4    4    0    0 -0.92192171937E-02  0.24527450937E-01  0.15454399697E-01  0.30425144307E-01  0.51100000000E-03 0. -1.
</event>
<event>
 7    1  0.1207611E+005  0.1043930E+01  0.7957747E-01            NaN
         13   -1    0    0    0    0  0.00000000000E+00  0.00000000000E+00  0.74505805969E-08  0.10566000000E+00  0.10566000000E+00 0. -1.
     999900   -1    0    0    0    0 -0.00000000000E+00 -0.00000000000E+00 -0.74505805969E-08  0.93827000000E+00  0.93827000000E+00 0. -1.
     999903    2    1    2    0    0 -0.53082462699E-02  0.98326521002E-02 -0.91975527124E-01  0.94915963049E-01  0.20607860782E-01 0.  0.
         14    1    1    2    0    0  0.17692300376E-01  0.55231523156E-01 -0.15428877813E-01  0.60013239484E-01  0.00000000000E+00 0. -1.
     999901    1    1    2    0    0 -0.12384054106E-01 -0.65064175257E-01  0.10740440494E+00  0.88900079747E+00  0.88000000000E+00 0. -1.
        -11    1    3    3    0    0 -0.74077668843E-02 -0.18310886350E-02 -0.13225419363E-01  0.15277458366E-01  0.51100000000E-03 0. -1.
         11    1    3    3    0    0  0.20995206144E-02  0.11663740735E-01 -0.78750107761E-01  0.79638504683E-01  0.51100000000E-03 0.  1.
</event>
<event>
 8    1  0.1207611E+005  0.1043930E+01  0.7957747E-01            NaN
         13   -1    0    0    0    0  0.00000000000E+00  0.00000000000E+00  0.74505805969E-08  0.10566000000E+00  0.10566000000E+00 0.  1.
     999900   -1    0    0    0    0 -0.00000000000E+00 -0.00000000000E+00 -0.74505805969E-08  0.93827000000E+00  0.93827000000E+00 0. -1.
     999902    2    1    2    0    0  0.10519994360E-01  0.18454451050E-02 -0.19698350509E-01  0.10215223905E+01  0.10212765999E+01 0.  0.
     999903    2    3    3    0    0  0.37523890240E-01  0.11199520253E+00  0.53466967382E-01  0.13123291896E+00  0.20307503276E-01 0.  0.
         14    1    1    2    0    0 -0.10519994360E-01 -0.18454451050E-02  0.19698350509E-01  0.22407609461E-01  0.00000000000E+00 0.  1.
     999901    1    3    3    0    0 -0.27003895880E-01 -0.11014975743E+00 -0.73165317891E-01  0.89028947157E+00  0.88000000000E+00 0. -1.
        -11    1    4    4    0    0  0.18144840220E-01  0.76507148096E-01  0.42275045771E-01  0.89274965989E-01  0.51100000000E-03 0. -1.
         11    1    4    4    0    0  0.19379050020E-01  0.35488054439E-01  0.11191921611E-01  0.41957952976E-01  0.51100000000E-03 0.  1.
</event>
<event>
 8    1  0.1207611E+005  0.1043930E+01  0.7957747E-01            NaN
         13   -1    0    0    0    0  0.00000000000E+00  0.00000000000E+00  0.74505805969E-08  0.10566000000E+00  0.10566000000E+00 0. -1.
     999900   -1    0    0    0    0 -0.00000000000E+00 -0.00000000000E+00 -0.74505805969E-08  0.93827000000E+00  0.93827000000E+00 0.  1.
     999902    2    1    2    0    0  0.63935584603E-02  0.49977277079E-02  0.22972018843E-01  0.10195667383E+01  0.10192756081E+01 0.  0.
     999903    2    3    3    0    0 -0.26592266703E-01 -0.92563528128E-02 -0.12304283111E+00  0.12681168795E+00  0.12199885142E-01 0.  0.
         14    1    1    2    0    0 -0.63935584603E-02 -0.49977277079E-02 -0.22972018843E-01  0.24363261722E-01  0.00000000000E+00 0.  1.
     999901    1    3    3    0    0  0.32985825163E-01  0.14254080521E-01  0.14601484996E+00  0.89275505032E+00  0.88000000000E+00 0. -1.
        -11    1    4    4    0    0 -0.67553409790E-02  0.13655512325E-02 -0.47080469737E-01  0.47584988322E-01  0.51100000000E-03 0.  1.
         11    1    4    4    0    0 -0.19836925724E-01 -0.10621904045E-01 -0.75962361376E-01  0.79226699631E-01  0.51100000000E-03 0. -1.
</event>
<event>
 8    1  0.1207611E+005  0.1043930E+01  0.7957747E-01            NaN
         13   -1    0    0    0    0  0.00000000000E+00  0.00000000000E+00  0.74505805969E-08  0.10566000000E+00  0.10566000000E+00 0.  1.
     999900   -1    0    0    0    0 -0.00000000000E+00 -0.00000000000E+00 -0.74505805969E-08  0.93827000000E+00  0.93827000000E+00 0.  1.
     999902    2    1    2    0    0 -0.11748947798E-01 -0.20456303962E-01  0.50356136562E-02  0.10198083178E+01  0.10195230010E+01 0.  0.
     999903    2    3    3    0    0 -0.10049390201E+00  0.39070328008E-01  0.71348812719E-01  0.13086707838E+00  0.20249055691E-01 0.  0.
         14    1    1    2    0    0  0.11748947798E-01  0.20456303962E-01 -0.50356136562E-02  0.24121682177E-01  0.00000000000E+00 0. -1.
     999901    1    3    3    0    0  0.88744954208E-01 -0.59526631971E-01 -0.66313199063E-01  0.88894123944E+00  0.88000000000E+00 0. -1.
        -11    1    4    4    0    0 -0.69220869921E-01  0.21252884802E-01  0.56844695342E-01  0.92058646821E-01  0.51100000000E-03 0.  1.
         11    1    4    4    0    0 -0.31273032085E-01  0.17817443207E-01  0.14504117377E-01  0.38808431559E-01  0.51100000000E-03 0. -1.
</event>
<event>
 8    1  0.1207611E+005  0.1043930E+01  0.7957747E-01            NaN
         13   -1    0    0    0    0  0.00000000000E+00  0.00000000000E+00  0.74505805969E-08  0.10566000000E+00  0.10566000000E+00 0. -1.
     999900   -1    0    0    0    0 -0.00000000000E+00 -0.00000000000E+00 -0.74505805969E-08  0.93827000000E+00  0.93827000000E+00 0.  1.
     999902    2    1    2    0    0 -0.79603837458E-02 -0.43135026525E-02  0.21470336253E-01  0.10206287264E+01  0.10203627040E+01 0.  0.
     999903    2    3    3    0    0  0.99328329071E-02 -0.88665405382E-01  0.97140087303E-01  0.13318220858E+00  0.18468590615E-01 0.  0.
         14    1    1    2    0    0  0.79603837458E-02  0.43135026525E-02 -0.21470336253E-01  0.23301273642E-01  0.00000000000E+00 0.  1.
     999901    1    3    3    0    0 -0.17893216653E-01  0.84351902729E-01 -0.75669751051E-01  0.88744651778E+00  0.88000000000E+00 0.  1.
        -11    1    4    4    0    0  0.44591871827E-02 -0.58514222295E-01  0.50772094552E-01  0.77600678265E-01  0.51100000000E-03 0.  1.
         11    1    4    4    0    0  0.54736457243E-02 -0.30151183087E-01  0.46367992752E-01  0.55581530313E-01  0.51100000000E-03 0. -1.
</event>
<event>
 8    1  0.1207611E+005  0.1043930E+01  0.7957747E-01            NaN
         13   -1    0    0    0    0  0.00000000000E+00  0.00000000000E+00  0.74505805969E-08  0.10566000000E+00  0.10566000000E+00 0.  1.
     999900   -1    0    0    0    0 -0.00000000000E+00 -0.00000000000E+00 -0.74505805969E-08  0.93827000000E+00  0.93827000000E+00 0.  1.
     999902    2    1    2    0    0  0.39074815374E-02 -0.21438100494E-01  0.88336528599E-02  0.10204163021E+01  0.10201453503E+01 0.  0.
     999903    2    3    3    0    0 -0.15963182120E-02  0.82348653892E-01  0.98369075661E-01  0.12978811139E+00  0.19611980589E-01 0.  0.
         14    1    1    2    0    0 -0.39074815374E-02  0.21438100494E-01 -0.88336528599E-02  0.23513697872E-01  0.00000000000E+00 0. -1.
     999901    1    3    3    0    0  0.55037997494E-02 -0.10378675439E+00 -0.89535422801E-01  0.89062819074E+00  0.88000000000E+00 0.  1.
        -11    1    4    4    0    0 -0.78741679502E-02  0.68182185369E-01  0.85482280474E-01  0.10962798146E+00  0.51100000000E-03 0. -1.
         11    1    4    4    0    0  0.62778497382E-02  0.14166468523E-01  0.12886795187E-01  0.20160129934E-01  0.51100000000E-03 0.  1.
</event>
<event>
 8    1  0.1207611E+005  0.1043930E+01  0.7957747E-01            NaN
         13   -1    0    0    0    0  0.00000000000E+00  0.00000000000E+00  0.74505805969E-08  0.10566000000E+00  0.10566000000E+00 0. -1.
     999900   -1    0    0    0    0 -0.00000000000E+00 -0.00000000000E+00 -0.74505805969E-08  0.93827000000E+00  0.93827000000E+00 0. -1.
     999902    2    1    2    0    0 -0.57588286688E-02 -0.24267548412E-01 -0.58837751335E-02  0.10183039035E+01  0.10179814060E+01 0.  0.
     999903    2    3    3    0    0 -0.11458668219E+00 -0.28866250175E-01  0.49780916316E-01  0.12984275765E+00  0.20436094293E-01 0.  0.
         14    1    1    2    0    0  0.57588286688E-02  0.24267548412E-01  0.58837751335E-02  0.25626096531E-01  0.00000000000E+00 0.  1.
     999901    1    3    3    0    0  0.10882785352E+00  0.45987017629E-02 -0.55664691449E-01  0.88846114582E+00  0.88000000000E+00 0. -1.
        -11    1    4    4    0    0 -0.41930051811E-01 -0.17258708119E-01  0.27190552647E-01  0.52873240161E-01  0.51100000000E-03 0.  1.
         11    1    4    4    0    0 -0.72656630379E-01 -0.11607542056E-01  0.22590363669E-01  0.76969517487E-01  0.51100000000E-03 0. -1.
</event>
<event>
 8    1  0.1207611E+005  0.1043930E+01  0.7957747E-01            NaN
         13   -1    0    0    0    0  0.00000000000E+00  0.00000000000E+00  0.74505805969E-08  0.10566000000E+00  0.10566000000E+00 0.  1.
     999900   -1    0    0    0    0 -0.00000000000E+00 -0.00000000000E+00 -0.74505805969E-08  0.93827000000E+00  0.93827000000E+00 0.  1.
     999902    2    1    2    0    0  0.49468657730E-02 -0.17649572620E-01  0.14773706332E-01  0.10203876702E+01  0.10201160503E+01 0.  0.
     999903    2    3    3    0    0  0.90794599329E-01  0.86449996803E-01  0.27479345209E-01  0.13001247569E+00  0.20757365104E-01 0.  0.
         14    1    1    2    0    0 -0.49468657730E-02  0.17649572620E-01 -0.14773706332E-01  0.23542329821E-01  0.00000000000E+00 0. -1.
     999901    1    3    3    0    0 -0.85847733556E-01 -0.10409956942E+00 -0.12705638878E-01  0.89037519449E+00  0.88000000000E+00 0.  1.
        -11    1    4    4    0    0  0.63722111813E-01  0.47639596369E-01  0.13787574075E-01  0.80748975200E-01  0.51100000000E-03 0.  1.
         11    1    4    4    0    0  0.27072487516E-01  0.38810400435E-01  0.13691771134E-01  0.49263500485E-01  0.51100000000E-03 0. -1.
</event>
<event>
 8    1  0.1207611E+005  0.1043930E+01  0.7957747E-01            NaN
         13   -1    0    0    0    0  0.00000000000E+00  0.00000000000E+00  0.74505805969E-08  0.10566000000E+00  0.10566000000E+00 0.  1.
     999900   -1    0    0    0    0 -0.00000000000E+00 -0.00000000000E+00 -0.74505805969E-08  0.93827000000E+00  0.93827000000E+00 0.  1.
     999902    2    1    2    0    0  0.15795803441E-01  0.15441306894E-01 -0.22768578502E-02  0.10217235720E+01  0.10214822231E+01 0.  0.
     999903    2    3    3    0    0 -0.11318355436E+00 -0.33912068445E-01  0.48786325835E-01  0.12949104670E+00  0.20670757662E-01 0.  0.
         14    1    1    2    0    0 -0.15795803441E-01 -0.15441306894E-01  0.22768578502E-02  0.22206428047E-01  0.00000000000E+00 0.  1.
     999901    1    3    3    0    0  0.12897935780E+00  0.49353375339E-01 -0.51063183685E-01  0.89223252526E+00  0.88000000000E+00 0.  1.
        -11    1    4    4    0    0 -0.81048044043E-01 -0.21291871590E-01  0.24605650541E-01  0.87337439844E-01  0.51100000000E-03 0.  1.
         11    1    4    4    0    0 -0.32135510318E-01 -0.12620196855E-01  0.24180675294E-01  0.42153606853E-01  0.51100000000E-03 0. -1.
</event>
<event>
 8    1  0.1207611E+005  0.1043930E+01  0.7957747E-01            NaN
         13   -1    0    0    0    0  0.00000000000E+00  0.00000000000E+00  0.74505805969E-08  0.10566000000E+00  0.10566000000E+00 0. -1.
     999900   -1    0    0    0    0 -0.00000000000E+00 -0.00000000000E+00 -0.74505805969E-08  0.93827000000E+00  0.93827000000E+00 0.  1.
     999902    2    1    2    0    0  0.15605899662E-01 -0.12781347655E-01 -0.20962910766E-01  0.10148378949E+01  0.10144208211E+01 0.  0.
     999903    2    3    3    0    0  0.10836965280E+00 -0.48998483654E-01 -0.45464842822E-01  0.12888239967E+00  0.19969676071E-01 0.  0.
         14    1    1    2    0    0 -0.15605899662E-01  0.12781347655E-01  0.20962910766E-01  0.29092105113E-01  0.00000000000E+00 0. -1.
     999901    1    3    3    0    0 -0.92763753139E-01  0.36217135999E-01  0.24501932056E-01  0.88595549522E+00  0.88000000000E+00 0.  1.
        -11    1    4    4    0    0  0.34708589140E-01 -0.24335526446E-01 -0.21836802062E-01  0.47686591961E-01  0.51100000000E-03 0. -1.
         11    1    4    4    0    0  0.73661063661E-01 -0.24662957208E-01 -0.23628040760E-01  0.81195807706E-01  0.51100000000E-03 0.  1.
</event>
<event>
 8    1  0.1207611E+005  0.1043930E+01  0.7957747E-01            NaN
         13   -1    0    0    0    0  0.00000000000E+00  0.00000000000E+00  0.74505805969E-08  0.10566000000E+00  0.10566000000E+00 0. -1.
     999900   -1    0    0    0    0 -0.00000000000E+00 -0.00000000000E+00 -0.74505805969E-08  0.93827000000E+00  0.93827000000E+00 0.  1.
     999902    2    1    2    0    0 -0.16595216209E-01  0.14251121804E-01  0.50555138246E-02  0.10214788554E+01  0.10212320981E+01 0.  0.
     999903    2    3    3    0    0  0.44087299825E-02  0.12694693132E+00  0.35446058985E-01  0.13352328418E+00  0.20906555163E-01 0.  0.
         14    1    1    2    0    0  0.16595216209E-01 -0.14251121804E-01 -0.50555138246E-02  0.22451144598E-01  0.00000000000E+00 0. -1.
     999901    1    3    3    0    0 -0.21003946192E-01 -0.11269580951E+00 -0.30390545160E-01  0.88795557123E+00  0.88000000000E+00 0. -1.
        -11    1    4    4    0    0  0.39621168349E-02  0.49830101414E-01  0.24364398950E-01  0.55611351664E-01  0.51100000000E-03 0.  1.
         11    1    4    4    0    0  0.44661314758E-03  0.77116829903E-01  0.11081660034E-01  0.77911932511E-01  0.51100000000E-03 0. -1.
</event>
<event>
 8    1  0.1207611E+005  0.1043930E+01  0.7957747E-01            NaN
         13   -1    0    0    0    0  0.00000000000E+00  0.00000000000E+00  0.74505805969E-08  0.10566000000E+00  0.10566000000E+00 0.  1.
     999900   -1    0    0    0    0 -0.00000000000E+00 -0.00000000000E+00 -0.74505805969E-08  0.93827000000E+00  0.93827000000E+00 0.  1.
     999902    2    1    2    0    0  0.17286485321E-01  0.15228653829E-01 -0.65110192653E-02  0.10199899114E+01  0.10197089249E+01 0.  0.
     999903    2    3    3    0    0  0.38057459774E-02  0.68198712486E-02 -0.12934281025E+00  0.13131669424E+00  0.21295945033E-01 0.  0.
         14    1    1    2    0    0 -0.17286485321E-01 -0.15228653829E-01  0.65110192653E-02  0.23940088640E-01  0.00000000000E+00 0.  1.
     999901    1    3    3    0    0  0.13480739344E-01  0.84087825804E-02  0.12283179099E+00  0.88867321712E+00  0.88000000000E+00 0. -1.
        -11    1    4    4    0    0 -0.28100439484E-02 -0.59762795214E-02 -0.21016280130E-01  0.22035367376E-01  0.51100000000E-03 0. -1.
         11    1    4    4    0    0  0.66157899258E-02  0.12796150770E-01 -0.10832653012E+00  0.10928132686E+00  0.51100000000E-03 0.  1.
</event>
<event>
 8    1  0.1207611E+005  0.1043930E+01  0.7957747E-01            NaN
         13   -1    0    0    0    0  0.00000000000E+00  0.00000000000E+00  0.74505805969E-08  0.10566000000E+00  0.10566000000E+00 0. -1.
     999900   -1    0    0    0    0 -0.00000000000E+00 -0.00000000000E+00 -0.74505805969E-08  0.93827000000E+00  0.93827000000E+00 0.  1.
     999902    2    1    2    0    0  0.28620208715E-02 -0.23004440523E-01 -0.93699507412E-03  0.10207292800E+01  0.10204655750E+01 0.  0.
     999903    2    3    3    0    0 -0.40920342384E-01 -0.44274926940E-01  0.11567621978E+00  0.13170286265E+00  0.18163497241E-01 0.  0.
         14    1    1    2    0    0 -0.28620208715E-02  0.23004440523E-01  0.93699507412E-03  0.23200719968E-01  0.00000000000E+00 0.  1.
     999901    1    3    3    0    0  0.43782363255E-01  0.21270486416E-01 -0.11661321485E+00  0.88902641738E+00  0.88000000000E+00 0.  1.
        -11    1    4    4    0    0 -0.12510320432E-01 -0.15316675443E-01  0.57252649154E-01  0.60574215802E-01  0.51100000000E-03 0.  1.
         11    1    4    4    0    0 -0.28410021951E-01 -0.28958251497E-01  0.58423570624E-01  0.71128646848E-01  0.51100000000E-03 0. -1.
</event>
<event>
 8    1  0.1207611E+005  0.1043930E+01  0.7957747E-01            NaN
         13   -1    0    0    0    0  0.00000000000E+00  0.00000000000E+00  0.74505805969E-08  0.10566000000E+00  0.10566000000E+00 0.  1.
     999900   -1    0    0    0    0 -0.00000000000E+00 -0.00000000000E+00 -0.74505805969E-08  0.93827000000E+00  0.93827000000E+00 0. -1.
     999902    2    1    2    0    0 -0.20876195496E-01 -0.97925898820E-02 -0.56168396390E-02  0.10201969167E+01  0.10199208252E+01 0.  0.
     999903    2    3    3    0    0 -0.12775472611E+00 -0.30121517064E-01 -0.11659779684E-01  0.13347666617E+00  0.21248390935E-01 0.  0.
         14    1    1    2    0    0  0.20876195496E-01  0.97925898820E-02  0.56168396390E-02  0.23733083292E-01  0.00000000000E+00 0.  1.
     999901    1    3    3    0    0  0.10687853061E+00  0.20328927183E-01  0.60429400450E-02  0.88672025054E+00  0.88000000000E+00 0.  1.
        -11    1    4    4    0    0 -0.70523481402E-01 -0.19362055907E-01 -0.16717879600E-01  0.75021325351E-01  0.51100000000E-03 0.  1.
         11    1    4    4    0    0 -0.57231244705E-01 -0.10759461157E-01  0.50580999162E-02  0.58455340822E-01  0.51100000000E-03 0. -1.
</event>
<event>
 8    1  0.1207611E+005  0.1043930E+01  0.7957747E-01            NaN
         13   -1    0    0    0    0  0.00000000000E+00  0.00000000000E+00  0.74505805969E-08  0.10566000000E+00  0.10566000000E+00 0.  1.
     999900   -1    0    0    0    0 -0.00000000000E+00 -0.00000000000E+00 -0.74505805969E-08  0.93827000000E+00  0.93827000000E+00 0.  1.
     999902    2    1    2    0    0  0.10483216187E-01 -0.20938322818E-01 -0.67638332375E-02  0.10195566411E+01  0.10192652666E+01 0.  0.
     999903    2    3    3    0    0 -0.59655461698E-01 -0.14471242169E-01 -0.11331184036E+00  0.13033578266E+00  0.19484663586E-01 0.  0.
         14    1    1    2    0    0 -0.10483216187E-01  0.20938322818E-01  0.67638332375E-02  0.24373358901E-01  0.00000000000E+00 0. -1.
     999901    1    3    3    0    0  0.70138677885E-01 -0.64670806498E-02  0.10654800712E+00  0.88922085844E+00  0.88000000000E+00 0. -1.
        -11    1    4    4    0    0 -0.14685899091E-01 -0.11573211410E-01 -0.25378178492E-01  0.31526622385E-01  0.51100000000E-03 0. -1.
         11    1    4    4    0    0 -0.44969562607E-01 -0.28980307588E-02 -0.87933661865E-01  0.98809160271E-01  0.51100000000E-03 0.  1.
</event>
<event>
 8    1  0.1207611E+005  0.1043930E+01  0.7957747E-01            NaN
         13   -1    0    0    0    0  0.00000000000E+00  0.00000000000E+00  0.74505805969E-08  0.10566000000E+00  0.10566000000E+00 0.  1.
     999900   -1    0    0    0    0 -0.00000000000E+00 -0.00000000000E+00 -0.74505805969E-08  0.93827000000E+00  0.93827000000E+00 0.  1.
     999902    2    1    2    0    0 -0.14641707398E-01 -0.62999136167E-02 -0.21042249373E-01  0.10175321826E+01  0.10171897059E+01 0.  0.
     999903    2    3    3    0    0  0.12382150640E+00 -0.11883282778E-01  0.51017085558E-02  0.12630452246E+00  0.21303218213E-01 0.  0.
         14    1    1    2    0    0  0.14641707398E-01  0.62999136167E-02  0.21042249373E-01  0.26397817443E-01  0.00000000000E+00 0.  1.
     999901    1    3    3    0    0 -0.13846321380E+00  0.55833691614E-02 -0.26143957928E-01  0.89122766010E+00  0.88000000000E+00 0. -1.
        -11    1    4    4    0    0  0.65313376999E-01 -0.14377043693E-02  0.12154058764E-01  0.66452136718E-01  0.51100000000E-03 0.  1.
         11    1    4    4    0    0  0.58508129403E-01 -0.10445578409E-01 -0.70523502084E-02  0.59852385742E-01  0.51100000000E-03 0. -1.
</event>
<event>
 8    1  0.1207611E+005  0.1043930E+01  0.7957747E-01            NaN
         13   -1    0    0    0    0  0.00000000000E+00  0.00000000000E+00  0.74505805969E-08  0.10566000000E+00  0.10566000000E+00 0. -1.
     999900   -1    0    0    0    0 -0.00000000000E+00 -0.00000000000E+00 -0.74505805969E-08  0.93827000000E+00  0.93827000000E+00 0.  1.
     999902    2    1    2    0    0  0.10860804219E-01  0.13075267268E-01  0.18488205050E-01  0.10188155936E+01  0.10185060041E+01 0.  0.
     999903    2    3    3    0    0  0.66435985070E-01  0.10630319074E+00 -0.31266434032E-01  0.13075277457E+00  0.20114414951E-01 0.  0.
         14    1    1    2    0    0 -0.10860804219E-01 -0.13075267268E-01 -0.18488205050E-01  0.25114406391E-01  0.00000000000E+00 0. -1.
     999901    1    3    3    0    0 -0.55575180851E-01 -0.93227923469E-01  0.49754639082E-01  0.88806281903E+00  0.88000000000E+00 0. -1.
        -11    1    4    4    0    0  0.55739472759E-01  0.72655209162E-01 -0.24554767997E-01  0.94809630281E-01  0.51100000000E-03 0.  1.
         11    1    4    4    0    0  0.10696512311E-01  0.33647981575E-01 -0.67116660350E-02  0.35943144293E-01  0.51100000000E-03 0. -1.
</event>
<event>
 8    1  0.1207611E+005  0.1043930E+01  0.7957747E-01            NaN
         13   -1    0    0    0    0  0.00000000000E+00  0.00000000000E+00  0.74505805969E-08  0.10566000000E+00  0.10566000000E+00 0.  1.
     999900   -1    0    0    0    0 -0.00000000000E+00 -0.00000000000E+00 -0.74505805969E-08  0.93827000000E+00  0.93827000000E+00 0. -1.
     999902    2    1    2    0    0 -0.15300503163E-01  0.54201859759E-02  0.16928337702E-01  0.10204768034E+01  0.10202072602E+01 0.  0.
     999903    2    3    3    0    0 -0.76672691118E-01 -0.38396541673E-01  0.99766916186E-01  0.13337552330E+00  0.21968083114E-01 0.  0.
         14    1    1    2    0    0  0.15300503163E-01 -0.54201859759E-02 -0.16928337702E-01  0.23453196592E-01  0.00000000000E+00 0. -1.
     999901    1    3    3    0    0  0.61372187955E-01  0.43816727649E-01 -0.82838578484E-01  0.88710128010E+00  0.88000000000E+00 0. -1.
        -11    1    4    4    0    0 -0.70812643365E-01 -0.27432766791E-01  0.88172971487E-01  0.11636890124E+00  0.51100000000E-03 0.  1.
         11    1    4    4    0    0 -0.58600477527E-02 -0.10963774881E-01  0.11593944699E-01  0.17006622063E-01  0.51100000000E-03 0. -1.
</event>
<event>
 8    1  0.1207611E+005  0.1043930E+01  0.7957747E-01            NaN
         13   -1    0    0    0    0  0.00000000000E+00  0.00000000000E+00  0.74505805969E-08  0.10566000000E+00  0.10566000000E+00 0. -1.
     999900   -1    0    0    0    0 -0.00000000000E+00 -0.00000000000E+00 -0.74505805969E-08  0.93827000000E+00  0.93827000000E+00 0. -1.
     999902    2    1    2    0    0  0.22978548229E-01  0.43995911123E-02 -0.50079018300E-02  0.10200040902E+01  0.10197234403E+01 0.  0.
     999903    2    3    3    0    0  0.13104481206E+00  0.12230636034E-02  0.11991870138E-01  0.13322486175E+00  0.20756208383E-01 0.  0.
         14    1    1    2    0    0 -0.22978548229E-01 -0.43995911123E-02  0.50079018300E-02  0.23925909834E-01  0.00000000000E+00 0.  1.
     999901    1    3    3    0    0 -0.10806626383E+00  0.31765275089E-02 -0.16999771968E-01  0.88677922842E+00  0.88000000000E+00 0.  1.
        -11    1    4    4    0    0  0.40597092722E-01 -0.91296045844E-02  0.24434116608E-02  0.41685788932E-01  0.51100000000E-03 0.  1.
         11    1    4    4    0    0  0.90447719337E-01  0.10352668188E-01  0.95484584774E-02  0.91539072817E-01  0.51100000000E-03 0. -1.
</event>
<event>
 8    1  0.1207611E+005  0.1043930E+01  0.7957747E-01            NaN
         13   -1    0    0    0    0  0.00000000000E+00  0.00000000000E+00  0.74505805969E-08  0.10566000000E+00  0.10566000000E+00 0.  1.
     999900   -1    0    0    0    0 -0.00000000000E+00 -0.00000000000E+00 -0.74505805969E-08  0.93827000000E+00  0.93827000000E+00 0. -1.
     999902    2    1    2    0    0 -0.64638897507E-02 -0.71200704693E-02 -0.21248884180E-01  0.10206063564E+01  0.10203398171E+01 0.  0.
     999903    2    3    3    0    0 -0.24889998157E-01 -0.98788459223E-01 -0.83987129651E-01  0.13343179494E+00  0.19275224258E-01 0.  0.
         14    1    1    2    0    0  0.64638897507E-02  0.71200704693E-02  0.21248884180E-01  0.23323643650E-01  0.00000000000E+00 0.  1.
     999901    1    3    3    0    0  0.18426108406E-01  0.91668388753E-01  0.62738245471E-01  0.88717456141E+00  0.88000000000E+00 0.  1.
        -11    1    4    4    0    0 -0.16341540408E-02 -0.45480425552E-01 -0.36030123071E-01  0.58048001320E-01  0.51100000000E-03 0. -1.
         11    1    4    4    0    0 -0.23255844116E-01 -0.53308033670E-01 -0.47957006581E-01  0.75383793620E-01  0.51100000000E-03 0.  1.
</event>
<event>
 8    1  0.1207611E+005  0.1043930E+01  0.7957747E-01            NaN
         13   -1    0    0    0    0  0.00000000000E+00  0.00000000000E+00  0.74505805969E-08  0.10566000000E+00  0.10566000000E+00 0. -1.
     999900   -1    0    0    0    0 -0.00000000000E+00 -0.00000000000E+00 -0.74505805969E-08  0.93827000000E+00  0.93827000000E+00 0.  1.
     999902    2    1    2    0    0  0.48790484359E-02 -0.52301657838E-02  0.23149159688E-01  0.10197010227E+01  0.10194131313E+01 0.  0.
     999903    2    3    3    0    0 -0.14386060156E-01 -0.17954366006E-01  0.12941665073E+00  0.13300725968E+00  0.20321015157E-01 0.  0.
         14    1    1    2    0    0 -0.48790484359E-02  0.52301657838E-02 -0.23149159688E-01  0.24228977321E-01  0.00000000000E+00 0.  1.
     999901    1    3    3    0    0  0.19265108592E-01  0.12724200222E-01 -0.10626749104E+00  0.88669376299E+00  0.88000000000E+00 0.  1.
        -11    1    4    4    0    0 -0.13975678338E-01 -0.72925676456E-02  0.40689248596E-01  0.43639170480E-01  0.51100000000E-03 0.  1.
         11    1    4    4    0    0 -0.41038181752E-03 -0.10661798360E-01  0.88727402134E-01  0.89368089204E-01  0.51100000000E-03 0. -1.
</event>
<event>
 8    1  0.1207611E+005  0.1043930E+01  0.7957747E-01            NaN
         13   -1    0    0    0    0  0.00000000000E+00  0.00000000000E+00  0.74505805969E-08  0.10566000000E+00  0.10566000000E+00 0. -1.
     999900   -1    0    0    0    0 -0.00000000000E+00 -0.00000000000E+00 -0.74505805969E-08  0.93827000000E+00  0.93827000000E+00 0. -1.
     999902    2    1    2    0    0 -0.82207609470E-02  0.22084985587E-01  0.61899923949E-02  0.10195651995E+01  0.10192740321E+01 0.  0.
     999903    2    3    3    0    0  0.58361617475E-01  0.10252522129E+00 -0.53114096438E-01  0.13140934626E+00  0.23017594364E-01 0.  0.
         14    1    1    2    0    0  0.82207609470E-02 -0.22084985587E-01 -0.61899923949E-02  0.24364800528E-01  0.00000000000E+00 0. -1.
     999901    1    3    3    0    0 -0.66582378422E-01 -0.80440235703E-01  0.59304088833E-01  0.88815585321E+00  0.88000000000E+00 0.  1.
        -11    1    4    4    0    0  0.23974699527E-01  0.64287593470E-01 -0.27052984286E-01  0.73755040311E-01  0.51100000000E-03 0. -1.
         11    1    4    4    0    0  0.34386917949E-01  0.38237627819E-01 -0.26061112152E-01  0.57654305953E-01  0.51100000000E-03 0.  1.
</event>
<event>
 8    1  0.1207611E+005  0.1043930E+01  0.7957747E-01            NaN
         13   -1    0    0    0    0  0.00000000000E+00  0.00000000000E+00  0.74505805969E-08  0.10566000000E+00  0.10566000000E+00 0. -1.
     999900   -1    0    0    0    0 -0.00000000000E+00 -0.00000000000E+00 -0.74505805969E-08  0.93827000000E+00  0.93827000000E+00 0. -1.
     999902    2    1    2    0    0 -0.16406137122E-01  0.12220225120E-01  0.11587210806E-01  0.10204191793E+01  0.10201482945E+01 0.  0.
     999903    2    3    3    0    0  0.11895087751E+00 -0.15717698210E-02  0.48713483688E-01  0.12918963495E+00  0.12852103511E-01 0.  0.
         14    1    1    2    0    0  0.16406137122E-01 -0.12220225120E-01 -0.11587210806E-01  0.23510820732E-01  0.00000000000E+00 0.  1.
     999901    1    3    3    0    0 -0.13535701463E+00  0.13791994941E-01 -0.37126272882E-01  0.89122954432E+00  0.88000000000E+00 0. -1.
        -11    1    4    4    0    0  0.28433676854E-01 -0.33638171978E-02  0.68574057627E-02  0.29446126746E-01  0.51100000000E-03 0. -1.
         11    1    4    4    0    0  0.90517200653E-01  0.17920473768E-02  0.41856077925E-01  0.99743508200E-01  0.51100000000E-03 0.  1.
</event>
<event>
 8    1  0.1207611E+005  0.1043930E+01  0.7957747E-01            NaN
         13   -1    0    0    0    0  0.00000000000E+00  0.00000000000E+00  0.74505805969E-08  0.10566000000E+00  0.10566000000E+00 0. -1.
     999900   -1    0    0    0    0 -0.00000000000E+00 -0.00000000000E+00 -0.74505805969E-08  0.93827000000E+00  0.93827000000E+00 0. -1.
     999902    2    1    2    0    0 -0.30478138072E-02  0.61267618178E-02  0.21800548461E-01  0.10210807048E+01  0.10208250170E+01 0.  0.
     999903    2    3    3    0    0  0.46694242587E-01 -0.93629968645E-01  0.78390411883E-01  0.13224546127E+00  0.19921898290E-01 0.  0.
         14    1    1    2    0    0  0.30478138072E-02 -0.61267618178E-02 -0.21800548461E-01  0.22849295232E-01  0.00000000000E+00 0.  1.
     999901    1    3    3    0    0 -0.49742056395E-01  0.99756730463E-01 -0.56589863421E-01  0.88883524350E+00  0.88000000000E+00 0. -1.
        -11    1    4    4    0    0  0.27277841520E-01 -0.36601008069E-01  0.26849738142E-01  0.52961155473E-01  0.51100000000E-03 0. -1.
         11    1    4    4    0    0  0.19416401067E-01 -0.57028960576E-01  0.51540673741E-01  0.79284305795E-01  0.51100000000E-03 0.  1.
</event>
<event>
 8    1  0.1207611E+005  0.1043930E+01  0.7957747E-01            NaN
         13   -1    0    0    0    0  0.00000000000E+00  0.00000000000E+00  0.74505805969E-08  0.10566000000E+00  0.10566000000E+00 0. -1.
     999900   -1    0    0    0    0 -0.00000000000E+00 -0.00000000000E+00 -0.74505805969E-08  0.93827000000E+00  0.93827000000E+00 0.  1.
     999902    2    1    2    0    0  0.10143896953E-01  0.20821062615E-02 -0.20780974054E-01  0.10207118456E+01  0.10204477395E+01 0.  0.
     999903    2    3    3    0    0  0.11577573590E+00 -0.30968256009E-01  0.49318136151E-01  0.13101285317E+00  0.19210289945E-01 0.  0.
         14    1    1    2    0    0 -0.10143896953E-01 -0.20821062615E-02  0.20780974054E-01  0.23218154416E-01  0.00000000000E+00 0. -1.
     999901    1    3    3    0    0 -0.10563183895E+00  0.33050362270E-01 -0.70099110205E-01  0.88969899241E+00  0.88000000000E+00 0. -1.
        -11    1    4    4    0    0  0.14889011588E-01 -0.15267604356E-02  0.13209083273E-03  0.14976389167E-01  0.51100000000E-03 0. -1.
         11    1    4    4    0    0  0.10088672431E+00 -0.29441495573E-01  0.49186045318E-01  0.11603646401E+00  0.51100000000E-03 0.  1.
</event>
<event>
 8    1  0.1207611E+005  0.1043930E+01  0.7957747E-01            NaN
         13   -1    0    0    0    0  0.00000000000E+00  0.00000000000E+00  0.74505805969E-08  0.10566000000E+00  0.10566000000E+00 0. -1.
     999900   -1    0    0    0    0 -0.00000000000E+00 -0.00000000000E+00 -0.74505805969E-08  0.93827000000E+00  0.93827000000E+00 0. -1.
     999902    2    1    2    0    0  0.10286399211E-01  0.99890162487E-02 -0.19074910486E-01  0.10200670022E+01  0.10197878438E+01 0.  0.
     999903    2    3    3    0    0 -0.92922412950E-01 -0.71873309882E-02  0.84867110435E-01  0.12779404534E+00  0.21039463780E-01 0.  0.
         14    1    1    2    0    0 -0.10286399211E-01 -0.99890162487E-02  0.19074910486E-01  0.23862997808E-01  0.00000000000E+00 0. -1.
     999901    1    3    3    0    0  0.10320881216E+00  0.17176347237E-01 -0.10394202092E+00  0.89227295685E+00  0.88000000000E+00 0. -1.
        -11    1    4    4    0    0 -0.60222434896E-01 -0.99882394907E-02  0.66126625474E-01  0.89997212793E-01  0.51100000000E-03 0. -1.
         11    1    4    4    0    0 -0.32699978055E-01  0.28009085025E-02  0.18740484962E-01  0.37796832550E-01  0.51100000000E-03 0.  1.
</event>
<event>
 8    1  0.1207611E+005  0.1043930E+01  0.7957747E-01            NaN
         13   -1    0    0    0    0  0.00000000000E+00  0.00000000000E+00  0.74505805969E-08  0.10566000000E+00  0.10566000000E+00 0.  1.
     999900   -1    0    0    0    0 -0.00000000000E+00 -0.00000000000E+00 -0.74505805969E-08  0.93827000000E+00  0.93827000000E+00 0.  1.
     999902    2    1    2    0    0 -0.19680160413E-01  0.11834147763E-01  0.59569048180E-02  0.10202057406E+01  0.10199298568E+01 0.  0.
     999903    2    3    3    0    0  0.37832318675E-01  0.88349553693E-01 -0.85694229019E-01  0.13028314686E+00  0.19831023506E-01 0.  0.
         14    1    1    2    0    0  0.19680160413E-01 -0.11834147763E-01 -0.59569048180E-02  0.23724259359E-01  0.00000000000E+00 0. -1.
     999901    1    3    3    0    0 -0.57512479088E-01 -0.76515405930E-01  0.91651133837E-01  0.88992259379E+00  0.88000000000E+00 0. -1.
        -11    1    4    4    0    0  0.36271189598E-01  0.65421489370E-01 -0.60782671045E-01  0.96386537891E-01  0.51100000000E-03 0.  1.
         11    1    4    4    0    0  0.15611290772E-02  0.22928064323E-01 -0.24911557974E-01  0.33896608964E-01  0.51100000000E-03 0. -1.
</event>
<event>
 8    1  0.1207611E+005  0.1043930E+01  0.7957747E-01            NaN
         13   -1    0    0    0    0  0.00000000000E+00  0.00000000000E+00  0.74505805969E-08  0.10566000000E+00  0.10566000000E+00 0.  1.
     999900   -1    0    0    0    0 -0.00000000000E+00 -0.00000000000E+00 -0.74505805969E-08  0.93827000000E+00  0.93827000000E+00 0. -1.
     999902    2    1    2    0    0  0.39883742076E-02  0.14433326193E-01  0.13068623990E-01  0.10240549662E+01  0.10238620791E+01 0.  0.
     999903    2    3    3    0    0 -0.59750055834E-01 -0.63578402260E-01  0.98808554874E-01  0.13416747168E+00  0.25009948693E-01 0.  0.
         14    1    1    2    0    0 -0.39883742076E-02 -0.14433326193E-01 -0.13068623990E-01  0.19875033756E-01  0.00000000000E+00 0. -1.
     999901    1    3    3    0    0  0.63738430041E-01  0.78011728453E-01 -0.85739930883E-01  0.88988749457E+00  0.88000000000E+00 0. -1.
        -11    1    4    4    0    0 -0.47502663926E-01 -0.42611817608E-01  0.55781441703E-01  0.84759072903E-01  0.51100000000E-03 0. -1.
         11    1    4    4    0    0 -0.12247391908E-01 -0.20966584652E-01  0.43027113170E-01  0.49408398773E-01  0.51100000000E-03 0.  1.
</event>
<event>
 8    1  0.1207611E+005  0.1043930E+01  0.7957747E-01            NaN
         13   -1    0    0    0    0  0.00000000000E+00  0.00000000000E+00  0.74505805969E-08  0.10566000000E+00  0.10566000000E+00 0. -1.
     999900   -1    0    0    0    0 -0.00000000000E+00 -0.00000000000E+00 -0.74505805969E-08  0.93827000000E+00  0.93827000000E+00 0.  1.
     999902    2    1    2    0    0 -0.22262624025E-01 -0.69204416295E-02  0.49334776003E-02  0.10201002677E+01  0.10198218962E+01 0.  0.
     999903    2    3    3    0    0 -0.60624397532E-01 -0.64598893262E-01 -0.95740734654E-01  0.13165571317E+00  0.17849480392E-01 0.  0.
         14    1    1    2    0    0  0.22262624025E-01  0.69204416295E-02 -0.49334776003E-02  0.23829732312E-01  0.00000000000E+00 0.  1.
     999901    1    3    3    0    0  0.38361773507E-01  0.57678451632E-01  0.10067421225E+00  0.88844455452E+00  0.88000000000E+00 0. -1.
        -11    1    4    4    0    0 -0.12302050127E-01 -0.18458102535E-01 -0.34510497508E-01  0.41027765547E-01  0.51100000000E-03 0. -1.
         11    1    4    4    0    0 -0.48322347405E-01 -0.46140790727E-01 -0.61230237146E-01  0.90627947618E-01  0.51100000000E-03 0.  1.
</event>
<event>
 8    1  0.1207611E+005  0.1043930E+01  0.7957747E-01            NaN
         13   -1    0    0    0    0  0.00000000000E+00  0.00000000000E+00  0.74505805969E-08  0.10566000000E+00  0.10566000000E+00 0.  1.
     999900   -1    0    0    0    0 -0.00000000000E+00 -0.00000000000E+00 -0.74505805969E-08  0.93827000000E+00  0.93827000000E+00 0. -1.
     999902    2    1    2    0    0  0.22038643514E-01 -0.68052536980E-02  0.11591465582E-01  0.10181157528E+01  0.10177884410E+01 0.  0.
     999903    2    3    3    0    0  0.97272465570E-01  0.83420127308E-01 -0.10092355479E-01  0.13004428298E+00  0.19718257990E-01 0.  0.
         14    1    1    2    0    0 -0.22038643514E-01  0.68052536980E-02 -0.11591465582E-01  0.25814247232E-01  0.00000000000E+00 0. -1.
     999901    1    3    3    0    0 -0.75233822056E-01 -0.90225381006E-01  0.21683821061E-01  0.88807146979E+00  0.88000000000E+00 0.  1.
        -11    1    4    4    0    0  0.86529460260E-01  0.71649679169E-01 -0.15047780816E-01  0.11334778713E+00  0.51100000000E-03 0. -1.
         11    1    4    4    0    0  0.10743005310E-01  0.11770448138E-01  0.49554253370E-02  0.16696495852E-01  0.51100000000E-03 0.  1.
</event>
<event>
 8    1  0.1207611E+005  0.1043930E+01  0.7957747E-01            NaN
         13   -1    0    0    0    0  0.00000000000E+00  0.00000000000E+00  0.74505805969E-08  0.10566000000E+00  0.10566000000E+00 0.  1.
     999900   -1    0    0    0    0 -0.00000000000E+00 -0.00000000000E+00 -0.74505805969E-08  0.93827000000E+00  0.93827000000E+00 0. -1.
     999902    2    1    2    0    0 -0.11598040936E-02 -0.25516160157E-04 -0.22309868123E-01  0.10215899908E+01  0.10213456972E+01 0.  0.
     999903    2    3    3    0    0  0.63980577006E-01  0.88578985518E-01 -0.73535567922E-01  0.13326679548E+00  0.20317679972E-01 0.  0.
         14    1    1    2    0    0  0.11598040936E-02  0.25516160157E-04  0.22309868123E-01  0.22340009228E-01  0.00000000000E+00 0.  1.
     999901    1    3    3    0    0 -0.65140381099E-01 -0.88604501679E-01  0.51225699799E-01  0.88832319529E+00  0.88000000000E+00 0.  1.
        -11    1    4    4    0    0  0.56648262809E-01  0.64126675432E-01 -0.55058496021E-01  0.10174947315E+00  0.51100000000E-03 0. -1.
         11    1    4    4    0    0  0.73323141964E-02  0.24452310086E-01 -0.18477071901E-01  0.31517322333E-01  0.51100000000E-03 0.  1.
</event>
<event>
 8    1  0.1207611E+005  0.1043930E+01  0.7957747E-01            NaN
         13   -1    0    0    0    0  0.00000000000E+00  0.00000000000E+00  0.74505805969E-08  0.10566000000E+00  0.10566000000E+00 0.  1.
     999900   -1    0    0    0    0 -0.00000000000E+00 -0.00000000000E+00 -0.74505805969E-08  0.93827000000E+00  0.93827000000E+00 0. -1.
     999902    2    1    2    0    0 -0.47854820452E-02  0.25501321023E-01 -0.70537879089E-03  0.10179739646E+01  0.10176430007E+01 0.  0.
     999903    2    3    3    0    0  0.45293611259E-01  0.16733363677E-01  0.11777192746E+00  0.12857997728E+00  0.18195246057E-01 0.  0.
         14    1    1    2    0    0  0.47854820452E-02 -0.25501321023E-01  0.70537879089E-03  0.25956035359E-01  0.00000000000E+00 0. -1.
     999901    1    3    3    0    0 -0.50079093304E-01  0.87679573460E-02 -0.11847730625E+00  0.88939398736E+00  0.88000000000E+00 0. -1.
        -11    1    4    4    0    0  0.88131353514E-02  0.43715141912E-02  0.96055968987E-02  0.13759000830E-01  0.51100000000E-03 0. -1.
         11    1    4    4    0    0  0.36480475907E-01  0.12361849486E-01  0.10816633056E+00  0.11482097645E+00  0.51100000000E-03 0.  1.
</event>
<event>
 8    1  0.1207611E+005  0.1043930E+01  0.7957747E-01            NaN
         13   -1    0    0    0    0  0.00000000000E+00  0.00000000000E+00  0.74505805969E-08  0.10566000000E+00  0.10566000000E+00 0.  1.
     999900   -1    0    0    0    0 -0.00000000000E+00 -0.00000000000E+00 -0.74505805969E-08  0.93827000000E+00  0.93827000000E+00 0. -1.
     999902    2    1    2    0    0  0.12757232039E-01 -0.20034485100E-01  0.50009907387E-02  0.10196578458E+01  0.10193689151E+01 0.  0.
     999903    2    3    3    0    0 -0.41936989657E-01  0.77289458462E-01 -0.90074746752E-01  0.12752399722E+00  0.20409271737E-01 0.  0.
         14    1    1    2    0    0 -0.12757232039E-01  0.20034485100E-01 -0.50009907387E-02  0.24272154229E-01  0.00000000000E+00 0. -1.
     999901    1    3    3    0    0  0.54694221696E-01 -0.97323943562E-01  0.95075737491E-01  0.89213384855E+00  0.88000000000E+00 0.  1.
        -11    1    4    4    0    0 -0.15220695654E-01  0.44975155460E-01 -0.39035905930E-01  0.61469482328E-01  0.51100000000E-03 0.  1.
         11    1    4    4    0    0 -0.26716294003E-01  0.32314303002E-01 -0.51038840822E-01  0.66054514889E-01  0.51100000000E-03 0. -1.
</event>
<event>
 8    1  0.1207611E+005  0.1043930E+01  0.7957747E-01            NaN
         13   -1    0    0    0    0  0.00000000000E+00  0.00000000000E+00  0.74505805969E-08  0.10566000000E+00  0.10566000000E+00 0.  1.
     999900   -1    0    0    0    0 -0.00000000000E+00 -0.00000000000E+00 -0.74505805969E-08  0.93827000000E+00  0.93827000000E+00 0. -1.
     999902    2    1    2    0    0  0.18710536635E-01  0.75776164546E-03 -0.14508669213E-01  0.10202411869E+01  0.10199661365E+01 0.  0.
     999903    2    3    3    0    0  0.54456471992E-01 -0.81847212826E-01 -0.86827591737E-01  0.13269886100E+00  0.20136619253E-01 0.  0.
         14    1    1    2    0    0 -0.18710536635E-01 -0.75776164546E-03  0.14508669213E-01  0.23688813103E-01  0.00000000000E+00 0. -1.
     999901    1    3    3    0    0 -0.35745935357E-01  0.82604974471E-01  0.72318922523E-01  0.88754232590E+00  0.88000000000E+00 0. -1.
        -11    1    4    4    0    0  0.32026049514E-01 -0.32369043310E-01 -0.46113013390E-01  0.64808131722E-01  0.51100000000E-03 0.  1.
         11    1    4    4    0    0  0.22430422478E-01 -0.49478169516E-01 -0.40714578346E-01  0.67890729279E-01  0.51100000000E-03 0. -1.
</event>
<event>
 8    1  0.1207611E+005  0.1043930E+01  0.7957747E-01            NaN
         13   -1    0    0    0    0  0.00000000000E+00  0.00000000000E+00  0.74505805969E-08  0.10566000000E+00  0.10566000000E+00 0. -1.
     999900   -1    0    0    0    0 -0.00000000000E+00 -0.00000000000E+00 -0.74505805969E-08  0.93827000000E+00  0.93827000000E+00 0.  1.
     999902    2    1    2    0    0  0.15318501682E-01  0.44991515905E-02  0.17894505696E-01  0.10199485031E+01  0.10196665322E+01 0.  0.
     999903    2    3    3    0    0  0.83080608182E-01 -0.47293958655E-01  0.90076583944E-01  0.13288340868E+00  0.20127179273E-01 0.  0.
         14    1    1    2    0    0 -0.15318501682E-01 -0.44991515905E-02 -0.17894505696E-01  0.23981496887E-01  0.00000000000E+00 0.  1.
     999901    1    3    3    0    0 -0.67762106500E-01  0.51793110245E-01 -0.72182078249E-01  0.88706509444E+00  0.88000000000E+00 0.  1.
        -11    1    4    4    0    0  0.23571065095E-01 -0.10113441590E-01  0.36420490139E-01  0.44548737732E-01  0.51100000000E-03 0. -1.
         11    1    4    4    0    0  0.59509543087E-01 -0.37180517065E-01  0.53656093805E-01  0.88334670945E-01  0.51100000000E-03 0.  1.
</event>
<event>
 8    1  0.1207611E+005  0.1043930E+01  0.7957747E-01            NaN
         13   -1    0    0    0    0  0.00000000000E+00  0.00000000000E+00  0.74505805969E-08  0.10566000000E+00  0.10566000000E+00 0. -1.
     999900   -1    0    0    0    0 -0.00000000000E+00 -0.00000000000E+00 -0.74505805969E-08  0.93827000000E+00  0.93827000000E+00 0.  1.
     999902    2    1    2    0    0  0.10643351814E-01 -0.19756763843E-01 -0.13732222267E-02  0.10214467530E+01  0.10211992817E+01 0.  0.
     999903    2    3    3    0    0 -0.99324433945E-01  0.56623447751E-01  0.57179952865E-01  0.12939556338E+00  0.20052600807E-01 0.  0.
         14    1    1    2    0    0 -0.10643351814E-01  0.19756763843E-01  0.13732222267E-02  0.22483246978E-01  0.00000000000E+00 0.  1.
     999901    1    3    3    0    0  0.10996778576E+00 -0.76380211595E-01 -0.58553175091E-01  0.89205118964E+00  0.88000000000E+00 0.  1.
        -11    1    4    4    0    0 -0.23732261718E-01  0.76319391218E-02  0.19912604415E-01  0.31909868013E-01  0.51100000000E-03 0.  1.
         11    1    4    4    0    0 -0.75592172226E-01  0.48991508630E-01  0.37267348450E-01  0.97485695367E-01  0.51100000000E-03 0. -1.
</event>
<event>
 8    1  0.1207611E+005  0.1043930E+01  0.7957747E-01            NaN
         13   -1    0    0    0    0  0.00000000000E+00  0.00000000000E+00  0.74505805969E-08  0.10566000000E+00  0.10566000000E+00 0. -1.
     999900   -1    0    0    0    0 -0.00000000000E+00 -0.00000000000E+00 -0.74505805969E-08  0.93827000000E+00  0.93827000000E+00 0. -1.
     999902    2    1    2    0    0  0.21572779094E-01 -0.64068742368E-02  0.80396595005E-02  0.10200329508E+01  0.10197529857E+01 0.  0.
     999903    2    3    3    0    0 -0.12551283975E+00 -0.20611424913E-02  0.12037572567E-01  0.12780593487E+00  0.20778175706E-01 0.  0.
         14    1    1    2    0    0 -0.21572779094E-01  0.64068742368E-02 -0.80396595005E-02  0.23897049195E-01  0.00000000000E+00 0. -1.
     999901    1    3    3    0    0  0.14708561884E+00 -0.43457317455E-02 -0.39979130663E-02  0.89222701593E+00  0.88000000000E+00 0.  1.
        -11    1    4    4    0    0 -0.10074856708E+00  0.34745966358E-02  0.16147249337E-01  0.10209476663E+00  0.51100000000E-03 0. -1.
         11    1    4    4    0    0 -0.24764272665E-01 -0.55357391271E-02 -0.41096767703E-02  0.25711168244E-01  0.51100000000E-03 0.  1.
</event>
<event>
 8    1  0.1207611E+005  0.1043930E+01  0.7957747E-01            NaN
         13   -1    0    0    0    0  0.00000000000E+00  0.00000000000E+00  0.74505805969E-08  0.10566000000E+00  0.10566000000E+00 0. -1.
     999900   -1    0    0    0    0 -0.00000000000E+00 -0.00000000000E+00 -0.74505805969E-08  0.93827000000E+00  0.93827000000E+00 0. -1.
     999902    2    1    2    0    0  0.16435951028E-01 -0.16296092250E-01  0.10030709606E-02  0.10207630136E+01  0.10205000836E+01 0.  0.
     999903    2    3    3    0    0  0.18513643340E-01  0.12164521749E+00  0.34507292033E-01  0.12938506087E+00  0.20234298743E-01 0.  0.
         14    1    1    2    0    0 -0.16435951028E-01  0.16296092250E-01 -0.10030709606E-02  0.23166986428E-01  0.00000000000E+00 0.  1.
     999901    1    3    3    0    0 -0.20776923119E-02 -0.13794130974E+00 -0.33504221072E-01  0.89137795270E+00  0.88000000000E+00 0. -1.
        -11    1    4    4    0    0  0.56354724574E-02  0.29602304205E-01  0.17654923841E-01  0.34928676198E-01  0.51100000000E-03 0. -1.
         11    1    4    4    0    0  0.12878170882E-01  0.92042913280E-01  0.16852368192E-01  0.94456384670E-01  0.51100000000E-03 0.  1.
</event>
<event>
 8    1  0.1207611E+005  0.1043930E+01  0.7957747E-01            NaN
         13   -1    0    0    0    0  0.00000000000E+00  0.00000000000E+00  0.74505805969E-08  0.10566000000E+00  0.10566000000E+00 0. -1.
     999900   -1    0    0    0    0 -0.00000000000E+00 -0.00000000000E+00 -0.74505805969E-08  0.93827000000E+00  0.93827000000E+00 0. -1.
     999902    2    1    2    0    0  0.27299939160E-03 -0.36291826205E-02 -0.23938654904E-01  0.10197162706E+01  0.10194287458E+01 0.  0.
     999903    2    3    3    0    0 -0.10781736403E+00 -0.35480513258E-01  0.57694692388E-01  0.12878303101E+00  0.19311673674E-01 0.  0.
         14    1    1    2    0    0 -0.27299939160E-03  0.36291826205E-02  0.23938654904E-01  0.24213729448E-01  0.00000000000E+00 0. -1.
     999901    1    3    3    0    0  0.10809036342E+00  0.31851330637E-01 -0.81633347292E-01  0.89093323954E+00  0.88000000000E+00 0. -1.
        -11    1    4    4    0    0 -0.28332673561E-01 -0.12603243022E-01  0.25028651688E-01  0.39853188732E-01  0.51100000000E-03 0. -1.
         11    1    4    4    0    0 -0.79484690466E-01 -0.22877270236E-01  0.32666040700E-01  0.88929842280E-01  0.51100000000E-03 0.  1.
</event>
<event>
 8    1  0.1207611E+005  0.1043930E+01  0.7957747E-01            NaN
         13   -1    0    0    0    0  0.00000000000E+00  0.00000000000E+00  0.74505805969E-08  0.10566000000E+00  0.10566000000E+00 0.  1.
     999900   -1    0    0    0    0 -0.00000000000E+00 -0.00000000000E+00 -0.74505805969E-08  0.93827000000E+00  0.93827000000E+00 0. -1.
     999902    2    1    2    0    0  0.17852247334E-01  0.10583278651E-01  0.12901189441E-01  0.10194933633E+01  0.10192004556E+01 0.  0.
     999903    2    3    3    0    0 -0.18316920635E-01  0.62729790887E-01 -0.10928808256E+00  0.12878707863E+00  0.19279273496E-01 0.  0.
         14    1    1    2    0    0 -0.17852247334E-01 -0.10583278651E-01 -0.12901189441E-01  0.24436636652E-01  0.00000000000E+00 0. -1.
     999901    1    3    3    0    0  0.36169167969E-01 -0.52146512237E-01  0.12218927200E+00  0.89070628472E+00  0.88000000000E+00 0.  1.
        -11    1    4    4    0    0 -0.48534911416E-02  0.47121544667E-01 -0.79869181975E-01  0.92861960449E-01  0.51100000000E-03 0. -1.
         11    1    4    4    0    0 -0.13463429494E-01  0.15608246220E-01 -0.29418900580E-01  0.35925118178E-01  0.51100000000E-03 0.  1.
</event>
<event>
 8    1  0.1207611E+005  0.1043930E+01  0.7957747E-01            NaN
         13   -1    0    0    0    0  0.00000000000E+00  0.00000000000E+00  0.74505805969E-08  0.10566000000E+00  0.10566000000E+00 0.  1.
     999900   -1    0    0    0    0 -0.00000000000E+00 -0.00000000000E+00 -0.74505805969E-08  0.93827000000E+00  0.93827000000E+00 0.  1.
     999902    2    1    2    0    0  0.47927758851E-02  0.22081601888E-01 -0.40459815020E-02  0.10209748740E+01  0.10207167852E+01 0.  0.
     999903    2    3    3    0    0  0.33862891159E-01 -0.30189236063E-01  0.12035447613E+00  0.13021520611E+00  0.20315378573E-01 0.  0.
         14    1    1    2    0    0 -0.47927758851E-02 -0.22081601888E-01  0.40459815020E-02  0.22955125984E-01  0.00000000000E+00 0. -1.
     999901    1    3    3    0    0 -0.29070115274E-01  0.52270837951E-01 -0.12440045763E+00  0.89075966790E+00  0.88000000000E+00 0.  1.
        -11    1    4    4    0    0  0.14199050344E-01 -0.21059589577E-01  0.85230267771E-01  0.88935813984E-01  0.51100000000E-03 0.  1.
         11    1    4    4    0    0  0.19663840815E-01 -0.91296464867E-02  0.35124208361E-01  0.41279392129E-01  0.51100000000E-03 0. -1.
</event>
<event>
 8    1  0.1207611E+005  0.1043930E+01  0.7957747E-01            NaN
         13   -1    0    0    0    0  0.00000000000E+00  0.00000000000E+00  0.74505805969E-08  0.10566000000E+00  0.10566000000E+00 0.  1.
     999900   -1    0    0    0    0 -0.00000000000E+00 -0.00000000000E+00 -0.74505805969E-08  0.93827000000E+00  0.93827000000E+00 0. -1.
     999902    2    1    2    0    0 -0.20839850872E-01 -0.99928789860E-02  0.46503380155E-02  0.10203549569E+01  0.10200825728E+01 0.  0.
     999903    2    3    3    0    0 -0.11381037284E+00  0.84729858917E-02 -0.64524514785E-01  0.13256575533E+00  0.19638585014E-01 0.  0.
         14    1    1    2    0    0  0.20839850872E-01  0.99928789860E-02 -0.46503380155E-02  0.23575043127E-01  0.00000000000E+00 0.  1.
     999901    1    3    3    0    0  0.92970521968E-01 -0.18465864878E-01  0.69174852801E-01  0.88778920155E+00  0.88000000000E+00 0.  1.
        -11    1    4    4    0    0 -0.69757163754E-01  0.22321118803E-02 -0.49636405994E-01  0.85645070725E-01  0.51100000000E-03 0.  1.
         11    1    4    4    0    0 -0.44053209086E-01  0.62408740114E-02 -0.14888108791E-01  0.46920684602E-01  0.51100000000E-03 0. -1.
</event>
<event>
 8    1  0.1207611E+005  0.1043930E+01  0.7957747E-01            NaN
         13   -1    0    0    0    0  0.00000000000E+00  0.00000000000E+00  0.74505805969E-08  0.10566000000E+00  0.10566000000E+00 0. -1.
     999900   -1    0    0    0    0 -0.00000000000E+00 -0.00000000000E+00 -0.74505805969E-08  0.93827000000E+00  0.93827000000E+00 0.  1.
     999902    2    1    2    0    0  0.67469461414E-02 -0.78240058132E-02  0.20613334977E-01  0.10208725516E+01  0.10206121304E+01 0.  0.
     999903    2    3    3    0    0 -0.11701185115E+00 -0.48011705002E-01 -0.23645926385E-01  0.13020416587E+00  0.19927314157E-01 0.  0.
         14    1    1    2    0    0 -0.67469461414E-02  0.78240058132E-02 -0.20613334977E-01  0.23057448429E-01  0.00000000000E+00 0.  1.
     999901    1    3    3    0    0  0.12375879729E+00  0.40187699189E-01  0.44259261362E-01  0.89066838570E+00  0.88000000000E+00 0.  1.
        -11    1    4    4    0    0 -0.46142269480E-01 -0.89388493392E-02 -0.11264521358E-01  0.48333866209E-01  0.51100000000E-03 0.  1.
         11    1    4    4    0    0 -0.70869581665E-01 -0.39072855663E-01 -0.12381405026E-01  0.81870299660E-01  0.51100000000E-03 0. -1.
</event>
<event>
 8    1  0.1207611E+005  0.1043930E+01  0.7957747E-01            NaN
         13   -1    0    0    0    0  0.00000000000E+00  0.00000000000E+00  0.74505805969E-08  0.10566000000E+00  0.10566000000E+00 0.  1.
     999900   -1    0    0    0    0 -0.00000000000E+00 -0.00000000000E+00 -0.74505805969E-08  0.93827000000E+00  0.93827000000E+00 0.  1.
     999902    2    1    2    0    0 -0.15262854116E-01  0.64057594070E-02 -0.64889917738E-02  0.10261509257E+01  0.10259968941E+01 0.  0.
     999903    2    3    3    0    0 -0.65586795264E-01 -0.69188962703E-01  0.94283361799E-01  0.13575655895E+00  0.21254428076E-01 0.  0.
         14    1    1    2    0    0  0.15262854116E-01 -0.64057594070E-02  0.64889917738E-02  0.17779074318E-01  0.00000000000E+00 0. -1.
     999901    1    3    3    0    0  0.50323941147E-01  0.75594722110E-01 -0.10077235357E+00  0.89039436673E+00  0.88000000000E+00 0.  1.
        -11    1    4    4    0    0 -0.51474665368E-01 -0.57798307684E-01  0.63897861748E-01  0.10036674451E+00  0.51100000000E-03 0. -1.
         11    1    4    4    0    0 -0.14112129895E-01 -0.11390655019E-01  0.30385500052E-01  0.35389814444E-01  0.51100000000E-03 0.  1.
</event>
<event>
 8    1  0.1207611E+005  0.1043930E+01  0.7957747E-01            NaN
         13   -1    0    0    0    0  0.00000000000E+00  0.00000000000E+00  0.74505805969E-08  0.10566000000E+00  0.10566000000E+00 0. -1.
     999900   -1    0    0    0    0 -0.00000000000E+00 -0.00000000000E+00 -0.74505805969E-08  0.93827000000E+00  0.93827000000E+00 0.  1.
     999902    2    1    2    0    0  0.19253735899E-01 -0.11234577387E-01 -0.72761507777E-02  0.10204808114E+01  0.10202113614E+01 0.  0.
     999903    2    3    3    0    0 -0.38962090754E-01  0.50630659818E-01  0.10982851341E+00  0.12866811111E+00  0.20289707479E-01 0.  0.
         14    1    1    2    0    0 -0.19253735899E-01  0.11234577387E-01  0.72761507777E-02  0.23449188585E-01  0.00000000000E+00 0.  1.
     999901    1    3    3    0    0  0.58215826653E-01 -0.61865237205E-01 -0.11710466419E+00  0.89181270030E+00  0.88000000000E+00 0.  1.
        -11    1    4    4    0    0 -0.13266748725E-01  0.53403848052E-02  0.31640312908E-01  0.34726025593E-01  0.51100000000E-03 0.  1.
         11    1    4    4    0    0 -0.25695342029E-01  0.45290275012E-01  0.78188200503E-01  0.93942085519E-01  0.51100000000E-03 0. -1.
</event>
<event>
 8    1  0.1207611E+005  0.1043930E+01  0.7957747E-01            NaN
         13   -1    0    0    0    0  0.00000000000E+00  0.00000000000E+00  0.74505805969E-08  0.10566000000E+00  0.10566000000E+00 0.  1.
     999900   -1    0    0    0    0 -0.00000000000E+00 -0.00000000000E+00 -0.74505805969E-08  0.93827000000E+00  0.93827000000E+00 0. -1.
     999902    2    1    2    0    0  0.10780687045E-01  0.65186092110E-02 -0.23494459266E-01  0.10172709472E+01  0.10169215677E+01 0.  0.
     999903    2    3    3    0    0 -0.11319437350E+00  0.93159147378E-02  0.49666498948E-01  0.12557023152E+00  0.20034207412E-01 0.  0.
         14    1    1    2    0    0 -0.10780687045E-01 -0.65186092110E-02  0.23494459266E-01  0.26659052786E-01  0.00000000000E+00 0.  1.
     999901    1    3    3    0    0  0.12397506055E+00 -0.27973055268E-02 -0.73160958214E-01  0.89170071569E+00  0.88000000000E+00 0. -1.
        -11    1    4    4    0    0 -0.64830569746E-01  0.12985795467E-02  0.38055521031E-01  0.75187584642E-01  0.51100000000E-03 0. -1.
         11    1    4    4    0    0 -0.48363803759E-01  0.80173351910E-02  0.11610977917E-01  0.50382646882E-01  0.51100000000E-03 0.  1.
</event>
<event>
 8    1  0.1207611E+005  0.1043930E+01  0.7957747E-01            NaN
         13   -1    0    0    0    0  0.00000000000E+00  0.00000000000E+00  0.74505805969E-08  0.10566000000E+00  0.10566000000E+00 0. -1.
     999900   -1    0    0    0    0 -0.00000000000E+00 -0.00000000000E+00 -0.74505805969E-08  0.93827000000E+00  0.93827000000E+00 0. -1.
     999902    2    1    2    0    0  0.19830046938E-01 -0.79102824350E-02 -0.94532950140E-02  0.10205811646E+01  0.10203140425E+01 0.  0.
     999903    2    3    3    0    0  0.45777683146E-01 -0.12159806960E+00  0.16145121875E-01  0.13251952722E+00  0.20471280557E-01 0.  0.
         14    1    1    2    0    0 -0.19830046938E-01  0.79102824350E-02  0.94532950140E-02  0.23348835439E-01  0.00000000000E+00 0. -1.
     999901    1    3    3    0    0 -0.25947636208E-01  0.11368778717E+00 -0.25598416889E-01  0.88806163734E+00  0.88000000000E+00 0. -1.
        -11    1    4    4    0    0  0.15786039431E-01 -0.58867539418E-01 -0.78584498581E-03  0.60954613537E-01  0.51100000000E-03 0. -1.
         11    1    4    4    0    0  0.29991643715E-01 -0.62730530186E-01  0.16930966861E-01  0.71564913679E-01  0.51100000000E-03 0.  1.
</event>
<event>
 8    1  0.1207611E+005  0.1043930E+01  0.7957747E-01            NaN
         13   -1    0    0    0    0  0.00000000000E+00  0.00000000000E+00  0.74505805969E-08  0.10566000000E+00  0.10566000000E+00 0.  1.
     999900   -1    0    0    0    0 -0.00000000000E+00 -0.00000000000E+00 -0.74505805969E-08  0.93827000000E+00  0.93827000000E+00 0. -1.
     999902    2    1    2    0    0 -0.16146633502E-01  0.14775654222E-01  0.52683693337E-02  0.10214180155E+01  0.10211699040E+01 0.  0.
     999903    2    3    3    0    0  0.37052666350E-01 -0.28725064943E-01  0.12098777978E+00  0.13118576488E+00  0.19329578696E-01 0.  0.
         14    1    1    2    0    0  0.16146633502E-01 -0.14775654222E-01 -0.52683693337E-02  0.22511984510E-01  0.00000000000E+00 0. -1.
     999901    1    3    3    0    0 -0.53199299852E-01  0.43500719165E-01 -0.11571941044E+00  0.89023225061E+00  0.88000000000E+00 0. -1.
        -11    1    4    4    0    0  0.61801696506E-02  0.94066734248E-03  0.29696049028E-01  0.30351207568E-01  0.51100000000E-03 0.  1.
         11    1    4    4    0    0  0.30872496700E-01 -0.29665732285E-01  0.91291730748E-01  0.10083455731E+00  0.51100000000E-03 0. -1.
</event>
<event>
 8    1  0.1207611E+005  0.1043930E+01  0.7957747E-01            NaN
         13   -1    0    0    0    0  0.00000000000E+00  0.00000000000E+00  0.74505805969E-08  0.10566000000E+00  0.10566000000E+00 0.  1.
     999900   -1    0    0    0    0 -0.00000000000E+00 -0.00000000000E+00 -0.74505805969E-08  0.93827000000E+00  0.93827000000E+00 0. -1.
     999902    2    1    2    0    0 -0.83799889774E-02  0.18905598463E-01  0.12680845548E-01  0.10196720176E+01  0.10193834282E+01 0.  0.
     999903    2    3    3    0    0  0.69734379107E-01 -0.19826769118E-01 -0.10308113081E+00  0.12781839393E+00  0.21350360541E-01 0.  0.
         14    1    1    2    0    0  0.83799889774E-02 -0.18905598463E-01 -0.12680845548E-01  0.24257982445E-01  0.00000000000E+00 0. -1.
     999901    1    3    3    0    0 -0.78114368085E-01  0.38732367580E-01  0.11576197636E+00  0.89185362362E+00  0.88000000000E+00 0.  1.
        -11    1    4    4    0    0  0.68052721730E-02 -0.61577934064E-02 -0.24821290038E-01  0.26468617439E-01  0.51100000000E-03 0. -1.
         11    1    4    4    0    0  0.62929106934E-01 -0.13668975711E-01 -0.78259840771E-01  0.10134977649E+00  0.51100000000E-03 0.  1.
</event>
<event>
 8    1  0.1207611E+005  0.1043930E+01  0.7957747E-01            NaN
         13   -1    0    0    0    0  0.00000000000E+00  0.00000000000E+00  0.74505805969E-08  0.10566000000E+00  0.10566000000E+00 0.  1.
     999900   -1    0    0    0    0 -0.00000000000E+00 -0.00000000000E+00 -0.74505805969E-08  0.93827000000E+00  0.93827000000E+00 0.  1.
     999902    2    1    2    0    0  0.65105429219E-02  0.22811621421E-01  0.42116357076E-02  0.10198365337E+01  0.10195518920E+01 0.  0.
     999903    2    3    3    0    0  0.75170286650E-01 -0.91970829599E-01 -0.44580541895E-01  0.12839396797E+00  0.19707379421E-01 0.  0.
         14    1    1    2    0    0 -0.65105429219E-02 -0.22811621421E-01 -0.42116357076E-02  0.24093466259E-01  0.00000000000E+00 0.  1.
     999901    1    3    3    0    0 -0.68659743729E-01  0.11478245102E+00  0.48792177602E-01  0.89144256577E+00  0.88000000000E+00 0.  1.
        -11    1    4    4    0    0  0.17220519277E-01 -0.28410968696E-01 -0.46014873595E-02  0.33543467819E-01  0.51100000000E-03 0. -1.
         11    1    4    4    0    0  0.57949767373E-01 -0.63559860903E-01 -0.39979054535E-01  0.94850500153E-01  0.51100000000E-03 0.  1.
</event>
<event>
 8    1  0.1207611E+005  0.1043930E+01  0.7957747E-01            NaN
         13   -1    0    0    0    0  0.00000000000E+00  0.00000000000E+00  0.74505805969E-08  0.10566000000E+00  0.10566000000E+00 0.  1.
     999900   -1    0    0    0    0 -0.00000000000E+00 -0.00000000000E+00 -0.74505805969E-08  0.93827000000E+00  0.93827000000E+00 0.  1.
     999902    2    1    2    0    0  0.21119554790E-01  0.10442715371E-01 -0.10178543954E-01  0.10182650695E+01  0.10179415814E+01 0.  0.
     999903    2    3    3    0    0  0.66566202653E-01 -0.72521307349E-01  0.80987132589E-01  0.12851251548E+00  0.16314154423E-01 0.  0.
         14    1    1    2    0    0 -0.21119554790E-01 -0.10442715371E-01  0.10178543954E-01  0.25664930466E-01  0.00000000000E+00 0.  1.
     999901    1    3    3    0    0 -0.45446647863E-01  0.82964022720E-01 -0.91165676542E-01  0.88975255405E+00  0.88000000000E+00 0.  1.
        -11    1    4    4    0    0  0.53876859792E-01 -0.59102788249E-01  0.73357140245E-01  0.10852366906E+00  0.51100000000E-03 0. -1.
         11    1    4    4    0    0  0.12689342861E-01 -0.13418519100E-01  0.76299923439E-02  0.19988846421E-01  0.51100000000E-03 0.  1.
</event>
<event>
 8    1  0.1207611E+005  0.1043930E+01  0.7957747E-01            NaN
         13   -1    0    0    0    0  0.00000000000E+00  0.00000000000E+00  0.74505805969E-08  0.10566000000E+00  0.10566000000E+00 0.  1.
     999900   -1    0    0    0    0 -0.00000000000E+00 -0.00000000000E+00 -0.74505805969E-08  0.93827000000E+00  0.93827000000E+00 0. -1.
     999902    2    1    2    0    0 -0.14571298300E-01  0.12711553400E-01  0.13398817834E-01  0.10204048083E+01  0.10201335884E+01 0.  0.
     999903    2    3    3    0    0  0.32589245693E-01 -0.56451455621E-01  0.11176272432E+00  0.13097628572E+00  0.20372901049E-01 0.  0.
         14    1    1    2    0    0  0.14571298300E-01 -0.12711553400E-01 -0.13398817834E-01  0.23525191675E-01  0.00000000000E+00 0. -1.
     999901    1    3    3    0    0 -0.47160543993E-01  0.69163009021E-01 -0.98363906485E-01  0.88942852261E+00  0.88000000000E+00 0. -1.
        -11    1    4    4    0    0  0.13800961062E-01 -0.84158039179E-02  0.34151839009E-01  0.37787584079E-01  0.51100000000E-03 0. -1.
         11    1    4    4    0    0  0.18788284631E-01 -0.48035651703E-01  0.77610885309E-01  0.93188701640E-01  0.51100000000E-03 0.  1.
</event>
<event>
 8    1  0.1207611E+005  0.1043930E+01  0.7957747E-01            NaN
         13   -1    0    0    0    0  0.00000000000E+00  0.00000000000E+00  0.74505805969E-08  0.10566000000E+00  0.10566000000E+00 0.  1.
     999900   -1    0    0    0    0 -0.00000000000E+00 -0.00000000000E+00 -0.74505805969E-08  0.93827000000E+00  0.93827000000E+00 0.  1.
     999902    2    1    2    0    0  0.21762006053E-01 -0.12809735667E-01  0.89091025086E-03  0.10186620765E+01  0.10183486428E+01 0.  0.
     999903    2    3    3    0    0  0.87947014563E-01  0.62893435124E-01 -0.69766491310E-01  0.13012176016E+00  0.19340310385E-01 0.  0.
         14    1    1    2    0    0 -0.21762006053E-01  0.12809735667E-01 -0.89091025086E-03  0.25267923468E-01  0.00000000000E+00 0.  1.
     999901    1    3    3    0    0 -0.66185008510E-01 -0.75703170790E-01  0.70657401561E-01  0.88854031637E+00  0.88000000000E+00 0. -1.
        -11    1    4    4    0    0  0.60325014792E-01  0.53278478641E-01 -0.53592186651E-01  0.96695849378E-01  0.51100000000E-03 0. -1.
         11    1    4    4    0    0  0.27621999771E-01  0.96149564821E-02 -0.16174304659E-01  0.33425910784E-01  0.51100000000E-03 0.  1.
</event>
<event>
 8    1  0.1207611E+005  0.1043930E+01  0.7957747E-01            NaN
         13   -1    0    0    0    0  0.00000000000E+00  0.00000000000E+00  0.74505805969E-08  0.10566000000E+00  0.10566000000E+00 0. -1.
     999900   -1    0    0    0    0 -0.00000000000E+00 -0.00000000000E+00 -0.74505805969E-08  0.93827000000E+00  0.93827000000E+00 0. -1.
     999902    2    1    2    0    0  0.17441308721E-01  0.27750636698E-03 -0.16456607871E-01  0.10199488365E+01  0.10196668735E+01 0.  0.
     999903    2    3    3    0    0 -0.24793985085E-01 -0.71482707085E-01  0.10187403456E+00  0.12813299834E+00  0.17754639888E-01 0.  0.
         14    1    1    2    0    0 -0.17441308721E-01 -0.27750636698E-03  0.16456607871E-01  0.23981163489E-01  0.00000000000E+00 0. -1.
     999901    1    3    3    0    0  0.42235293806E-01  0.71760213452E-01 -0.11833064243E+00  0.89181583817E+00  0.88000000000E+00 0. -1.
        -11    1    4    4    0    0 -0.82069963446E-02 -0.63545038920E-02  0.11380114263E-01  0.15411120347E-01  0.51100000000E-03 0.  1.
         11    1    4    4    0    0 -0.16586988741E-01 -0.65128203193E-01  0.90493920295E-01  0.11272187799E+00  0.51100000000E-03 0. -1.
</event>
<event>
 8    1  0.1207611E+005  0.1043930E+01  0.7957747E-01            NaN
         13   -1    0    0    0    0  0.00000000000E+00  0.00000000000E+00  0.74505805969E-08  0.10566000000E+00  0.10566000000E+00 0. -1.
     999900   -1    0    0    0    0 -0.00000000000E+00 -0.00000000000E+00 -0.74505805969E-08  0.93827000000E+00  0.93827000000E+00 0.  1.
     999902    2    1    2    0    0 -0.18307101591E-01  0.16735715880E-02  0.12887323157E-01  0.10214793005E+01  0.10212325531E+01 0.  0.
     999903    2    3    3    0    0  0.89640216627E-01 -0.83291387055E-01 -0.37007537213E-01  0.12942483757E+00  0.20209086480E-01 0.  0.
         14    1    1    2    0    0  0.18307101591E-01 -0.16735715880E-02 -0.12887323157E-01  0.22450699514E-01  0.00000000000E+00 0.  1.
     999901    1    3    3    0    0 -0.10794731822E+00  0.84964958643E-01  0.49894860370E-01  0.89205446291E+00  0.88000000000E+00 0. -1.
        -11    1    4    4    0    0  0.58401331299E-01 -0.52346668743E-01 -0.33585895250E-01  0.85318009276E-01  0.51100000000E-03 0. -1.
         11    1    4    4    0    0  0.31238885327E-01 -0.30944718312E-01 -0.34216419625E-02  0.44106828299E-01  0.51100000000E-03 0.  1.
</event>
<event>
 8    1  0.1207611E+005  0.1043930E+01  0.7957747E-01            NaN
         13   -1    0    0    0    0  0.00000000000E+00  0.00000000000E+00  0.74505805969E-08  0.10566000000E+00  0.10566000000E+00 0.  1.
     999900   -1    0    0    0    0 -0.00000000000E+00 -0.00000000000E+00 -0.74505805969E-08  0.93827000000E+00  0.93827000000E+00 0.  1.
     999902    2    1    2    0    0  0.81751585154E-02 -0.55984077947E-02 -0.21558458770E-01  0.10202035900E+01  0.10199276555E+01 0.  0.
     999903    2    3    3    0    0  0.24436459046E-01 -0.12434688316E+00  0.25945118439E-01  0.13080929042E+00  0.19458504719E-01 0.  0.
         14    1    1    2    0    0 -0.81751585154E-02  0.55984077947E-02  0.21558458770E-01  0.23726409992E-01  0.00000000000E+00 0.  1.
     999901    1    3    3    0    0 -0.16261300531E-01  0.11874847537E+00 -0.47503577208E-01  0.88939429959E+00  0.88000000000E+00 0.  1.
        -11    1    4    4    0    0  0.22890303550E-01 -0.70888593201E-01  0.11207093610E-01  0.75332720054E-01  0.51100000000E-03 0.  1.
         11    1    4    4    0    0  0.15461554963E-02 -0.53458289961E-01  0.14738024829E-01  0.55476570363E-01  0.51100000000E-03 0. -1.
</event>
<event>
 8    1  0.1207611E+005  0.1043930E+01  0.7957747E-01            NaN
         13   -1    0    0    0    0  0.00000000000E+00  0.00000000000E+00  0.74505805969E-08  0.10566000000E+00  0.10566000000E+00 0. -1.
     999900   -1    0    0    0    0 -0.00000000000E+00 -0.00000000000E+00 -0.74505805969E-08  0.93827000000E+00  0.93827000000E+00 0. -1.
     999902    2    1    2    0    0 -0.23007388625E-01 -0.20279671233E-02  0.68843748416E-02  0.10198292282E+01  0.10195444118E+01 0.  0.
     999903    2    3    3    0    0  0.16282384498E-01 -0.12054480794E+00 -0.40729188434E-01  0.12974104204E+00  0.19434619428E-01 0.  0.
         14    1    1    2    0    0  0.23007388625E-01  0.20279671233E-02 -0.68843748416E-02  0.24100771750E-01  0.00000000000E+00 0. -1.
     999901    1    3    3    0    0 -0.39289773123E-01  0.11851684082E+00  0.47613563276E-01  0.89008818621E+00  0.88000000000E+00 0.  1.
        -11    1    4    4    0    0  0.42093933381E-02 -0.36484770622E-01 -0.21869287024E-01  0.42747915921E-01  0.51100000000E-03 0. -1.
         11    1    4    4    0    0  0.12072991160E-01 -0.84060037316E-01 -0.18859901410E-01  0.86993126116E-01  0.51100000000E-03 0.  1.
</event>
<event>
 8    1  0.1207611E+005  0.1043930E+01  0.7957747E-01            NaN
         13   -1    0    0    0    0  0.00000000000E+00  0.00000000000E+00  0.74505805969E-08  0.10566000000E+00  0.10566000000E+00 0. -1.
     999900   -1    0    0    0    0 -0.00000000000E+00 -0.00000000000E+00 -0.74505805969E-08  0.93827000000E+00  0.93827000000E+00 0. -1.
     999902    2    1    2    0    0  0.13335526128E-01  0.13399107715E-01  0.15211586334E-01  0.10196655259E+01  0.10193767802E+01 0.  0.
     999903    2    3    3    0    0  0.62053104950E-01  0.10988184986E+00 -0.33860836431E-01  0.13169569269E+00  0.16510313943E-01 0.  0.
         14    1    1    2    0    0 -0.13335526128E-01 -0.13399107715E-01 -0.15211586334E-01  0.24264474102E-01  0.00000000000E+00 0. -1.
     999901    1    3    3    0    0 -0.48717578821E-01 -0.96482742142E-01  0.49072422765E-01  0.88796983321E+00  0.88000000000E+00 0.  1.
        -11    1    4    4    0    0  0.47546205544E-01  0.83309300710E-01 -0.18304877659E-01  0.97654548863E-01  0.51100000000E-03 0.  1.
         11    1    4    4    0    0  0.14506899405E-01  0.26572549147E-01 -0.15555958772E-01  0.34041143823E-01  0.51100000000E-03 0. -1.
</event>
<event>
 8    1  0.1207611E+005  0.1043930E+01  0.7957747E-01            NaN
         13   -1    0    0    0    0  0.00000000000E+00  0.00000000000E+00  0.74505805969E-08  0.10566000000E+00  0.10566000000E+00 0.  1.
     999900   -1    0    0    0    0 -0.00000000000E+00 -0.00000000000E+00 -0.74505805969E-08  0.93827000000E+00  0.93827000000E+00 0.  1.
     999902    2    1    2    0    0  0.39864153379E-02  0.27786394430E-01  0.77765502925E-02  0.10148018357E+01  0.10143837123E+01 0.  0.
     999903    2    3    3    0    0 -0.90931626239E-01  0.73550518786E-01  0.46950193458E-01  0.12765000875E+00  0.20296911182E-01 0.  0.
         14    1    1    2    0    0 -0.39864153379E-02 -0.27786394430E-01 -0.77765502925E-02  0.29128164328E-01  0.00000000000E+00 0. -1.
     999901    1    3    3    0    0  0.94918041577E-01 -0.45764124355E-01 -0.39173643166E-01  0.88715182692E+00  0.88000000000E+00 0.  1.
        -11    1    4    4    0    0 -0.73427072454E-01  0.67652315574E-01  0.35796480158E-01  0.10606611091E+00  0.51100000000E-03 0.  1.
         11    1    4    4    0    0 -0.17504553785E-01  0.58982032114E-02  0.11153713300E-01  0.21583897834E-01  0.51100000000E-03 0. -1.
</event>
<event>
 8    1  0.1207611E+005  0.1043930E+01  0.7957747E-01            NaN
         13   -1    0    0    0    0  0.00000000000E+00  0.00000000000E+00  0.74505805969E-08  0.10566000000E+00  0.10566000000E+00 0. -1.
     999900   -1    0    0    0    0 -0.00000000000E+00 -0.00000000000E+00 -0.74505805969E-08  0.93827000000E+00  0.93827000000E+00 0. -1.
     999902    2    1    2    0    0  0.88069886727E-02 -0.17715135012E-01  0.10589989998E-01  0.10214903711E+01  0.10212438696E+01 0.  0.
     999903    2    3    3    0    0  0.12043330936E-01  0.74278403630E-01 -0.10323063855E+00  0.12939821186E+00  0.20615756864E-01 0.  0.
         14    1    1    2    0    0 -0.88069886727E-02  0.17715135012E-01 -0.10589989998E-01  0.22439628922E-01  0.00000000000E+00 0.  1.
     999901    1    3    3    0    0 -0.32363422631E-02 -0.91993538642E-01  0.11382062854E+00  0.89209215922E+00  0.88000000000E+00 0.  1.
        -11    1    4    4    0    0 -0.17737461679E-02  0.38875111048E-01 -0.63010632666E-01  0.74060930216E-01  0.51100000000E-03 0. -1.
         11    1    4    4    0    0  0.13817077104E-01  0.35403292583E-01 -0.40220005880E-01  0.55337281641E-01  0.51100000000E-03 0.  1.
</event>
<event>
 7    1  0.1662663E+005  0.1043930E+01  0.7957747E-01            NaN
         13   -1    0    0    0    0  0.00000000000E+00  0.00000000000E+00  0.74505805969E-08  0.10566000000E+00  0.10566000000E+00 0. -1.
     999900   -1    0    0    0    0 -0.00000000000E+00 -0.00000000000E+00 -0.74505805969E-08  0.93827000000E+00  0.93827000000E+00 0.  1.
     999903    2    1    2    0    0  0.83998577686E-02 -0.64567208716E-01 -0.62896819485E-01  0.92708271711E-01  0.19983285276E-01 0.  0.
         14    1    1    2    0    0 -0.13254291225E-01  0.16860449561E-03 -0.59003949216E-01  0.60474545773E-01  0.00000000000E+00 0.  1.
     999901    1    1    2    0    0  0.48544334568E-02  0.64398604220E-01  0.12190076870E+00  0.89074718252E+00  0.88000000000E+00 0. -1.
        -11    1    3    3    0    0  0.40409842925E-02 -0.36956368891E-01 -0.22103894590E-01  0.43254433677E-01  0.51100000000E-03 0.  1.
         11    1    3    3    0    0  0.43588734760E-02 -0.27610839824E-01 -0.40792924895E-01  0.49453838033E-01  0.51100000000E-03 0. -1.
</event>
<event>
 8    1  0.1207611E+005  0.1043930E+01  0.7957747E-01            NaN
         13   -1    0    0    0    0  0.00000000000E+00  0.00000000000E+00  0.74505805969E-08  0.10566000000E+00  0.10566000000E+00 0. -1.
     999900   -1    0    0    0    0 -0.00000000000E+00 -0.00000000000E+00 -0.74505805969E-08  0.93827000000E+00  0.93827000000E+00 0. -1.
     999902    2    1    2    0    0 -0.91582944614E-02  0.71242628930E-02 -0.18893788086E-01  0.10217578394E+01  0.10215172429E+01 0.  0.
     999903    2    3    3    0    0  0.52707756183E-01  0.11959313834E+00 -0.58907997846E-02  0.13235032091E+00  0.20031965048E-01 0.  0.
         14    1    1    2    0    0  0.91582944614E-02 -0.71242628930E-02  0.18893788086E-01  0.22172160640E-01  0.00000000000E+00 0. -1.
     999901    1    3    3    0    0 -0.61866050644E-01 -0.11246887545E+00 -0.13002988301E-01  0.88940751845E+00  0.88000000000E+00 0. -1.
        -11    1    4    4    0    0  0.20711249722E-01  0.68876315031E-01  0.14129037984E-02  0.71938585304E-01  0.51100000000E-03 0. -1.
         11    1    4    4    0    0  0.31996506461E-01  0.50716823309E-01 -0.73037035830E-02  0.60411735609E-01  0.51100000000E-03 0.  1.
</event>
<event>
 8    1  0.1207611E+005  0.1043930E+01  0.7957747E-01            NaN
         13   -1    0    0    0    0  0.00000000000E+00  0.00000000000E+00  0.74505805969E-08  0.10566000000E+00  0.10566000000E+00 0.  1.
     999900   -1    0    0    0    0 -0.00000000000E+00 -0.00000000000E+00 -0.74505805969E-08  0.93827000000E+00  0.93827000000E+00 0.  1.
     999902    2    1    2    0    0 -0.12701213259E-01 -0.17200168888E-01  0.16246129266E-01  0.10170766325E+01  0.10167220727E+01 0.  0.
     999903    2    3    3    0    0 -0.70028023493E-01  0.45285647760E-01 -0.92775270809E-01  0.12630365016E+00  0.19764797068E-01 0.  0.
         14    1    1    2    0    0  0.12701213259E-01  0.17200168888E-01 -0.16246129266E-01  0.26853367464E-01  0.00000000000E+00 0.  1.
     999901    1    3    3    0    0  0.57326810233E-01 -0.62485816647E-01  0.10902140008E+00  0.89077298237E+00  0.88000000000E+00 0. -1.
        -11    1    4    4    0    0 -0.13585575839E-01  0.18023536051E-01 -0.30475151138E-01  0.37926398202E-01  0.51100000000E-03 0.  1.
         11    1    4    4    0    0 -0.56442447654E-01  0.27262111709E-01 -0.62300119671E-01  0.88377251960E-01  0.51100000000E-03 0. -1.
</event>
<event>
 8    1  0.1207611E+005  0.1043930E+01  0.7957747E-01            NaN
         13   -1    0    0    0    0  0.00000000000E+00  0.00000000000E+00  0.74505805969E-08  0.10566000000E+00  0.10566000000E+00 0. -1.
     999900   -1    0    0    0    0 -0.00000000000E+00 -0.00000000000E+00 -0.74505805969E-08  0.93827000000E+00  0.93827000000E+00 0.  1.
     999902    2    1    2    0    0  0.16844376777E-01 -0.15944140081E-01 -0.55579999150E-02  0.10200796332E+01  0.10198007737E+01 0.  0.
     999903    2    3    3    0    0 -0.10750507129E+00  0.42673379289E-01  0.50144964922E-01  0.12766626539E+00  0.20144482117E-01 0.  0.
         14    1    1    2    0    0 -0.16844376777E-01  0.15944140081E-01  0.55579999150E-02  0.23850366768E-01  0.00000000000E+00 0. -1.
     999901    1    3    3    0    0  0.12434944806E+00 -0.58617519369E-01 -0.55702964837E-01  0.89241336784E+00  0.88000000000E+00 0.  1.
        -11    1    4    4    0    0 -0.71054782707E-01  0.35779012881E-01  0.27366389265E-01  0.84131446503E-01  0.51100000000E-03 0.  1.
         11    1    4    4    0    0 -0.36450288578E-01  0.68943664073E-02  0.22778575657E-01  0.43534818887E-01  0.51100000000E-03 0. -1.
</event>
<event>
 8    1  0.1207611E+005  0.1043930E+01  0.7957747E-01            NaN
         13   -1    0    0    0    0  0.00000000000E+00  0.00000000000E+00  0.74505805969E-08  0.10566000000E+00  0.10566000000E+00 0.  1.
     999900   -1    0    0    0    0 -0.00000000000E+00 -0.00000000000E+00 -0.74505805969E-08  0.93827000000E+00  0.93827000000E+00 0. -1.
     999902    2    1    2    0    0 -0.11058610426E-01 -0.35746055955E-02 -0.88423541982E-02  0.10293266477E+01  0.10292230515E+01 0.  0.
     999903    2    3    3    0    0 -0.44297049952E-01  0.12937840670E+00  0.16331253510E-01  0.13836368112E+00  0.13296528069E-01 0.  0.
         14    1    1    2    0    0  0.11058610426E-01  0.35746055955E-02  0.88423541982E-02  0.14603352269E-01  0.00000000000E+00 0.  1.
     999901    1    3    3    0    0  0.33238439526E-01 -0.13295301229E+00 -0.25173607708E-01  0.89096296661E+00  0.88000000000E+00 0.  1.
        -11    1    4    4    0    0 -0.13498633393E-01  0.59340005497E-01  0.59045240923E-02  0.61143878530E-01  0.51100000000E-03 0. -1.
         11    1    4    4    0    0 -0.30798416559E-01  0.70038401201E-01  0.10426729417E-01  0.77219802594E-01  0.51100000000E-03 0.  1.
</event>
<event>
 8    1  0.1207611E+005  0.1043930E+01  0.7957747E-01            NaN
         13   -1    0    0    0    0  0.00000000000E+00  0.00000000000E+00  0.74505805969E-08  0.10566000000E+00  0.10566000000E+00 0.  1.
     999900   -1    0    0    0    0 -0.00000000000E+00 -0.00000000000E+00 -0.74505805969E-08  0.93827000000E+00  0.93827000000E+00 0.  1.
     999902    2    1    2    0    0  0.33055391489E-02 -0.59423506136E-02  0.22184156672E-01  0.10207270923E+01  0.10204633369E+01 0.  0.
     999903    2    3    3    0    0  0.93085308987E-01  0.88557709173E-01 -0.12063385482E-01  0.13046670198E+00  0.19201365932E-01 0.  0.
         14    1    1    2    0    0 -0.33055391489E-02  0.59423506136E-02 -0.22184156672E-01  0.23202907730E-01  0.00000000000E+00 0. -1.
     999901    1    3    3    0    0 -0.89779769838E-01 -0.94500059787E-01  0.34247542154E-01  0.89026039029E+00  0.88000000000E+00 0.  1.
        -11    1    4    4    0    0  0.49597521562E-01  0.51704348834E-01  0.22787062018E-02  0.71684778415E-01  0.51100000000E-03 0.  1.
         11    1    4    4    0    0  0.43487787425E-01  0.36853360339E-01 -0.14342091684E-01  0.58781923567E-01  0.51100000000E-03 0. -1.
</event>
<event>
 8    1  0.1207611E+005  0.1043930E+01  0.7957747E-01            NaN
         13   -1    0    0    0    0  0.00000000000E+00  0.00000000000E+00  0.74505805969E-08  0.10566000000E+00  0.10566000000E+00 0.  1.
     999900   -1    0    0    0    0 -0.00000000000E+00 -0.00000000000E+00 -0.74505805969E-08  0.93827000000E+00  0.93827000000E+00 0. -1.
     999902    2    1    2    0    0  0.16019678763E-01  0.95427122200E-04  0.16985232590E-01  0.10205818236E+01  0.10203147168E+01 0.  0.
     999903    2    3    3    0    0 -0.16043108424E-02  0.84746746390E-01 -0.95256973719E-01  0.12924868515E+00  0.21136384122E-01 0.  0.
         14    1    1    2    0    0 -0.16019678763E-01 -0.95427122200E-04 -0.16985232590E-01  0.23348176377E-01  0.00000000000E+00 0. -1.
     999901    1    3    3    0    0  0.17623989606E-01 -0.84651319268E-01  0.11224220631E+00  0.89133313847E+00  0.88000000000E+00 0.  1.
        -11    1    4    4    0    0  0.53360538674E-02  0.56765452015E-01 -0.74038345865E-01  0.93449065232E-01  0.51100000000E-03 0.  1.
         11    1    4    4    0    0 -0.69403647098E-02  0.27981294375E-01 -0.21218627854E-01  0.35799619917E-01  0.51100000000E-03 0. -1.
</event>
<event>
 8    1  0.1207611E+005  0.1043930E+01  0.7957747E-01            NaN
         13   -1    0    0    0    0  0.00000000000E+00  0.00000000000E+00  0.74505805969E-08  0.10566000000E+00  0.10566000000E+00 0. -1.
     999900   -1    0    0    0    0 -0.00000000000E+00 -0.00000000000E+00 -0.74505805969E-08  0.93827000000E+00  0.93827000000E+00 0.  1.
     999902    2    1    2    0    0 -0.10324036694E-01 -0.19111119946E-01 -0.10312757256E-01  0.10198847593E+01  0.10196012694E+01 0.  0.
     999903    2    3    3    0    0 -0.11699538699E+00  0.47547232422E-01 -0.27408840980E-01  0.13077599822E+00  0.20061337379E-01 0.  0.
         14    1    1    2    0    0  0.10324036694E-01  0.19111119946E-01  0.10312757256E-01  0.24045240724E-01  0.00000000000E+00 0. -1.
     999901    1    3    3    0    0  0.10667135030E+00 -0.66658352367E-01  0.17096083724E-01  0.88910876106E+00  0.88000000000E+00 0. -1.
        -11    1    4    4    0    0 -0.16014651227E-01 -0.48038586488E-03 -0.26717698360E-02  0.16251132255E-01  0.51100000000E-03 0. -1.
         11    1    4    4    0    0 -0.10098073576E+00  0.48027618286E-01 -0.24737071144E-01  0.11452486596E+00  0.51100000000E-03 0.  1.
</event>
<event>
 8    1  0.1207611E+005  0.1043930E+01  0.7957747E-01            NaN
         13   -1    0    0    0    0  0.00000000000E+00  0.00000000000E+00  0.74505805969E-08  0.10566000000E+00  0.10566000000E+00 0. -1.
     999900   -1    0    0    0    0 -0.00000000000E+00 -0.00000000000E+00 -0.74505805969E-08  0.93827000000E+00  0.93827000000E+00 0. -1.
     999902    2    1    2    0    0  0.80291255114E-03  0.43636550506E-03 -0.24054320691E-01  0.10198583273E+01  0.10195742064E+01 0.  0.
     999903    2    3    3    0    0  0.91821715428E-02  0.42666306707E-01  0.11808249106E+00  0.12741423762E+00  0.19651647561E-01 0.  0.
         14    1    1    2    0    0 -0.80291255114E-03 -0.43636550506E-03  0.24054320691E-01  0.24071672716E-01  0.00000000000E+00 0. -1.
     999901    1    3    3    0    0 -0.83792589916E-02 -0.42229941202E-01 -0.14213681175E+00  0.89244408966E+00  0.88000000000E+00 0. -1.
        -11    1    4    4    0    0  0.35078378217E-02 -0.10128577130E-02  0.11884113759E-01  0.12442832787E-01  0.51100000000E-03 0.  1.
         11    1    4    4    0    0  0.56743337211E-02  0.43679164420E-01  0.10619837730E+00  0.11497140484E+00  0.51100000000E-03 0. -1.
</event>
<event>
 8    1  0.1207611E+005  0.1043930E+01  0.7957747E-01            NaN
         13   -1    0    0    0    0  0.00000000000E+00  0.00000000000E+00  0.74505805969E-08  0.10566000000E+00  0.10566000000E+00 0. -1.
     999900   -1    0    0    0    0 -0.00000000000E+00 -0.00000000000E+00 -0.74505805969E-08  0.93827000000E+00  0.93827000000E+00 0.  1.
     999902    2    1    2    0    0  0.85642546025E-02 -0.19872643812E-01  0.10679336985E-01  0.10197987616E+01  0.10195132159E+01 0.  0.
     999903    2    3    3    0    0  0.76221015930E-01 -0.50764595646E-01  0.94006194463E-01  0.13273894668E+00  0.19894117930E-01 0.  0.
         14    1    1    2    0    0 -0.85642546025E-02  0.19872643812E-01 -0.10679336985E-01  0.24131238414E-01  0.00000000000E+00 0.  1.
     999901    1    3    3    0    0 -0.67656761328E-01  0.30891951835E-01 -0.83326857478E-01  0.88705981490E+00  0.88000000000E+00 0.  1.
        -11    1    4    4    0    0  0.40096648117E-01 -0.36456276180E-01  0.62409111197E-01  0.82655668557E-01  0.51100000000E-03 0.  1.
         11    1    4    4    0    0  0.36124367813E-01 -0.14308319466E-01  0.31597083265E-01  0.50083278124E-01  0.51100000000E-03 0. -1.
</event>
<event>
 8    1  0.1207611E+005  0.1043930E+01  0.7957747E-01            NaN
         13   -1    0    0    0    0  0.00000000000E+00  0.00000000000E+00  0.74505805969E-08  0.10566000000E+00  0.10566000000E+00 0. -1.
     999900   -1    0    0    0    0 -0.00000000000E+00 -0.00000000000E+00 -0.74505805969E-08  0.93827000000E+00  0.93827000000E+00 0.  1.
     999902    2    1    2    0    0 -0.13274928522E-01 -0.17835082926E-01  0.82755642873E-02  0.10202066176E+01  0.10199307543E+01 0.  0.
     999903    2    3    3    0    0  0.95750288839E-01 -0.82135312755E-01 -0.26206988225E-01  0.13048190507E+00  0.20600822932E-01 0.  0.
         14    1    1    2    0    0  0.13274928522E-01  0.17835082926E-01 -0.82755642873E-02  0.23723382443E-01  0.00000000000E+00 0. -1.
     999901    1    3    3    0    0 -0.10902521736E+00  0.64300229829E-01  0.34482552513E-01  0.88972471248E+00  0.88000000000E+00 0.  1.
        -11    1    4    4    0    0  0.54851809051E-01 -0.36222776037E-01 -0.19842174859E-01  0.68664280991E-01  0.51100000000E-03 0.  1.
         11    1    4    4    0    0  0.40898479789E-01 -0.45912536718E-01 -0.63648133668E-02  0.61817624082E-01  0.51100000000E-03 0. -1.
</event>
<event>
 8    1  0.1207611E+005  0.1043930E+01  0.7957747E-01            NaN
         13   -1    0    0    0    0  0.00000000000E+00  0.00000000000E+00  0.74505805969E-08  0.10566000000E+00  0.10566000000E+00 0.  1.
     999900   -1    0    0    0    0 -0.00000000000E+00 -0.00000000000E+00 -0.74505805969E-08  0.93827000000E+00  0.93827000000E+00 0. -1.
     999902    2    1    2    0    0 -0.10023564556E-01 -0.84078813079E-02 -0.19166537062E-01  0.10207239564E+01  0.10204601290E+01 0.  0.
     999903    2    3    3    0    0 -0.12933377318E+00  0.13962440226E-01 -0.10836622572E-01  0.13235199345E+00  0.21850472711E-01 0.  0.
         14    1    1    2    0    0  0.10023564556E-01  0.84078813079E-02  0.19166537062E-01  0.23206043554E-01  0.00000000000E+00 0.  1.
     999901    1    3    3    0    0  0.11931020863E+00 -0.22370321534E-01 -0.83299144895E-02  0.88837196300E+00  0.88000000000E+00 0. -1.
        -11    1    4    4    0    0 -0.83144231608E-01  0.42993624321E-02 -0.16322932102E-01  0.84841894135E-01  0.51100000000E-03 0. -1.
         11    1    4    4    0    0 -0.46189541575E-01  0.96630777937E-02  0.54863095293E-02  0.47510099311E-01  0.51100000000E-03 0.  1.
</event>
<event>
 8    1  0.1207611E+005  0.1043930E+01  0.7957747E-01            NaN
         13   -1    0    0    0    0  0.00000000000E+00  0.00000000000E+00  0.74505805969E-08  0.10566000000E+00  0.10566000000E+00 0.  1.
     999900   -1    0    0    0    0 -0.00000000000E+00 -0.00000000000E+00 -0.74505805969E-08  0.93827000000E+00  0.93827000000E+00 0. -1.
     999902    2    1    2    0    0  0.94148186127E-02  0.59071149702E-02 -0.19073812672E-01  0.10218541501E+01  0.10216156621E+01 0.  0.
     999903    2    3    3    0    0  0.68223386131E-01  0.11265619493E+00 -0.64297703816E-02  0.13336459732E+00  0.19973111916E-01 0.  0.
         14    1    1    2    0    0 -0.94148186127E-02 -0.59071149702E-02  0.19073812672E-01  0.22075849851E-01  0.00000000000E+00 0.  1.
     999901    1    3    3    0    0 -0.58808567519E-01 -0.10674907996E+00 -0.12644042290E-01  0.88848955283E+00  0.88000000000E+00 0.  1.
        -11    1    4    4    0    0  0.59305009295E-01  0.10776108043E+00 -0.53231727191E-02  0.12311836529E+00  0.51100000000E-03 0.  1.
         11    1    4    4    0    0  0.89183768361E-02  0.48951144943E-02 -0.11065976625E-02  0.10246232024E-01  0.51100000000E-03 0. -1.
</event>
<event>
 8    1  0.1207611E+005  0.1043930E+01  0.7957747E-01            NaN
         13   -1    0    0    0    0  0.00000000000E+00  0.00000000000E+00  0.74505805969E-08  0.10566000000E+00  0.10566000000E+00 0. -1.
     999900   -1    0    0    0    0 -0.00000000000E+00 -0.00000000000E+00 -0.74505805969E-08  0.93827000000E+00  0.93827000000E+00 0.  1.
     999902    2    1    2    0    0  0.57352880724E-02  0.15334833870E-01  0.16807701831E-01  0.10204662087E+01  0.10201964192E+01 0.  0.
     999903    2    3    3    0    0  0.19371952086E-01  0.27880111188E-01 -0.12310944627E+00  0.12921980571E+00  0.19729401935E-01 0.  0.
         14    1    1    2    0    0 -0.57352880724E-02 -0.15334833870E-01 -0.16807701831E-01  0.23463791253E-01  0.00000000000E+00 0.  1.
     999901    1    3    3    0    0 -0.13636664013E-01 -0.12545277317E-01  0.13991714810E+00  0.89124640303E+00  0.88000000000E+00 0. -1.
        -11    1    4    4    0    0 -0.30544213215E-02  0.38324244306E-02 -0.31572476613E-01  0.31954645470E-01  0.51100000000E-03 0. -1.
         11    1    4    4    0    0  0.22426373407E-01  0.24047686757E-01 -0.91536969655E-01  0.97265160244E-01  0.51100000000E-03 0.  1.
</event>
<event>
 8    1  0.1207611E+005  0.1043930E+01  0.7957747E-01            NaN
         13   -1    0    0    0    0  0.00000000000E+00  0.00000000000E+00  0.74505805969E-08  0.10566000000E+00  0.10566000000E+00 0.  1.
     999900   -1    0    0    0    0 -0.00000000000E+00 -0.00000000000E+00 -0.74505805969E-08  0.93827000000E+00  0.93827000000E+00 0. -1.
     999902    2    1    2    0    0  0.96007289802E-02 -0.16532053593E-01  0.11510252844E-01  0.10216147874E+01  0.10213710418E+01 0.  0.
     999903    2    3    3    0    0 -0.12980301492E+00 -0.11272318685E-01  0.60021502619E-02  0.13060894689E+00  0.68398355079E-02 0.  0.
         14    1    1    2    0    0 -0.96007289802E-02  0.16532053593E-01 -0.11510252844E-01  0.22315212603E-01  0.00000000000E+00 0.  1.
     999901    1    3    3    0    0  0.13940374390E+00 -0.52597349084E-02  0.55081025826E-02  0.89100584051E+00  0.88000000000E+00 0.  1.
        -11    1    4    4    0    0 -0.16321969312E-01  0.61652830139E-03 -0.11217151777E-03  0.16341985584E-01  0.51100000000E-03 0. -1.
         11    1    4    4    0    0 -0.11348104561E+00 -0.11888846986E-01  0.61143217797E-02  0.11426696131E+00  0.51100000000E-03 0.  1.
</event>
<event>
 8    1  0.1207611E+005  0.1043930E+01  0.7957747E-01            NaN
         13   -1    0    0    0    0  0.00000000000E+00  0.00000000000E+00  0.74505805969E-08  0.10566000000E+00  0.10566000000E+00 0.  1.
     999900   -1    0    0    0    0 -0.00000000000E+00 -0.00000000000E+00 -0.74505805969E-08  0.93827000000E+00  0.93827000000E+00 0.  1.
     999902    2    1    2    0    0  0.69053600691E-03 -0.13293613378E-01 -0.19292220068E-01  0.10204909993E+01  0.10202217862E+01 0.  0.
     999903    2    3    3    0    0  0.62748928942E-01 -0.65331163015E-01 -0.95794863425E-01  0.13346687050E+00  0.20764409912E-01 0.  0.
         14    1    1    2    0    0 -0.69053600691E-03  0.13293613378E-01  0.19292220068E-01  0.23439000656E-01  0.00000000000E+00 0.  1.
     999901    1    3    3    0    0 -0.62058392935E-01  0.52037549637E-01  0.76502643357E-01  0.88702412884E+00  0.88000000000E+00 0. -1.
        -11    1    4    4    0    0  0.17762063330E-01 -0.28584195132E-01 -0.45724377127E-01  0.56776111964E-01  0.51100000000E-03 0.  1.
         11    1    4    4    0    0  0.44986865612E-01 -0.36746967883E-01 -0.50070486297E-01  0.76690758538E-01  0.51100000000E-03 0. -1.
</event>
<event>
 8    1  0.1207611E+005  0.1043930E+01  0.7957747E-01            NaN
         13   -1    0    0    0    0  0.00000000000E+00  0.00000000000E+00  0.74505805969E-08  0.10566000000E+00  0.10566000000E+00 0. -1.
     999900   -1    0    0    0    0 -0.00000000000E+00 -0.00000000000E+00 -0.74505805969E-08  0.93827000000E+00  0.93827000000E+00 0.  1.
     999902    2    1    2    0    0  0.17326826965E-01  0.13872270510E-01 -0.72793978413E-02  0.10205708807E+01  0.10203035206E+01 0.  0.
     999903    2    3    3    0    0  0.16841653285E-02  0.12587225926E+00  0.35391655383E-01  0.13230880837E+00  0.20159103145E-01 0.  0.
         14    1    1    2    0    0 -0.17326826965E-01 -0.13872270510E-01  0.72793978413E-02  0.23359119305E-01  0.00000000000E+00 0.  1.
     999901    1    3    3    0    0  0.15642661636E-01 -0.11199998875E+00 -0.42671053224E-01  0.88826207232E+00  0.88000000000E+00 0. -1.
        -11    1    4    4    0    0  0.48898392442E-02  0.80475324179E-01  0.13290114276E-01  0.81713380716E-01  0.51100000000E-03 0.  1.
         11    1    4    4    0    0 -0.32056739157E-02  0.45396935076E-01  0.22101541107E-01  0.50595427657E-01  0.51100000000E-03 0. -1.
</event>
<event>
 8    1  0.1207611E+005  0.1043930E+01  0.7957747E-01            NaN
         13   -1    0    0    0    0  0.00000000000E+00  0.00000000000E+00  0.74505805969E-08  0.10566000000E+00  0.10566000000E+00 0. -1.
     999900   -1    0    0    0    0 -0.00000000000E+00 -0.00000000000E+00 -0.74505805969E-08  0.93827000000E+00  0.93827000000E+00 0.  1.
     999902    2    1    2    0    0  0.37543319141E-03 -0.16734734768E-01 -0.15568562974E-01  0.10210701564E+01  0.10208142298E+01 0.  0.
     999903    2    3    3    0    0  0.18442169188E-01 -0.12877443253E+00  0.19918453077E-01  0.13307318051E+00  0.19716960187E-01 0.  0.
         14    1    1    2    0    0 -0.37543319141E-03  0.16734734768E-01  0.15568562974E-01  0.22859843632E-01  0.00000000000E+00 0. -1.
     999901    1    3    3    0    0 -0.18066735996E-01  0.11203969777E+00 -0.35487016051E-01  0.88799697586E+00  0.88000000000E+00 0.  1.
        -11    1    4    4    0    0 -0.25158035562E-02 -0.30227139412E-01 -0.17547373892E-03  0.30336465460E-01  0.51100000000E-03 0.  1.
         11    1    4    4    0    0  0.20957972744E-01 -0.98547293122E-01  0.20093926816E-01  0.10273671505E+00  0.51100000000E-03 0. -1.
</event>
<event>
 8    1  0.1207611E+005  0.1043930E+01  0.7957747E-01            NaN
         13   -1    0    0    0    0  0.00000000000E+00  0.00000000000E+00  0.74505805969E-08  0.10566000000E+00  0.10566000000E+00 0.  1.
     999900   -1    0    0    0    0 -0.00000000000E+00 -0.00000000000E+00 -0.74505805969E-08  0.93827000000E+00  0.93827000000E+00 0. -1.
     999902    2    1    2    0    0  0.16190336436E-01 -0.16989871133E-01  0.40223226475E-02  0.10201190405E+01  0.10198411126E+01 0.  0.
     999903    2    3    3    0    0 -0.90475822451E-01 -0.86262866433E-01 -0.30405104704E-01  0.13030913655E+00  0.20708551446E-01 0.  0.
         14    1    1    2    0    0 -0.16190336436E-01  0.16989871133E-01 -0.40223226475E-02  0.23810959547E-01  0.00000000000E+00 0.  1.
     999901    1    3    3    0    0  0.10666615889E+00  0.69272995300E-01  0.34427427351E-01  0.88980990390E+00  0.88000000000E+00 0. -1.
        -11    1    4    4    0    0 -0.32225647298E-01 -0.33325543013E-01 -0.21468935891E-01  0.51090708452E-01  0.51100000000E-03 0.  1.
         11    1    4    4    0    0 -0.58250175153E-01 -0.52937323421E-01 -0.89361688130E-02  0.79218428098E-01  0.51100000000E-03 0. -1.
</event>
<event>
 8    1  0.1207611E+005  0.1043930E+01  0.7957747E-01            NaN
         13   -1    0    0    0    0  0.00000000000E+00  0.00000000000E+00  0.74505805969E-08  0.10566000000E+00  0.10566000000E+00 0. -1.
     999900   -1    0    0    0    0 -0.00000000000E+00 -0.00000000000E+00 -0.74505805969E-08  0.93827000000E+00  0.93827000000E+00 0.  1.
     999902    2    1    2    0    0 -0.11939130581E-01 -0.77571374523E-02 -0.27398836795E-01  0.10130526251E+01  0.10125819518E+01 0.  0.
     999903    2    3    3    0    0  0.89358259448E-01 -0.23817736808E-01 -0.83006318589E-01  0.12535262170E+00  0.16463527051E-01 0.  0.
         14    1    1    2    0    0  0.11939130581E-01  0.77571374523E-02  0.27398836795E-01  0.30877374859E-01  0.00000000000E+00 0. -1.
     999901    1    3    3    0    0 -0.10129739003E+00  0.16060599356E-01  0.55607481794E-01  0.88770000344E+00  0.88000000000E+00 0. -1.
        -11    1    4    4    0    0  0.45480029618E-01 -0.73600279217E-02 -0.32074643910E-01  0.56139531598E-01  0.51100000000E-03 0.  1.
         11    1    4    4    0    0  0.43878229830E-01 -0.16457708887E-01 -0.50931674679E-01  0.69213090102E-01  0.51100000000E-03 0. -1.
</event>
<event>
 8    1  0.1207611E+005  0.1043930E+01  0.7957747E-01            NaN
         13   -1    0    0    0    0  0.00000000000E+00  0.00000000000E+00  0.74505805969E-08  0.10566000000E+00  0.10566000000E+00 0.  1.
     999900   -1    0    0    0    0 -0.00000000000E+00 -0.00000000000E+00 -0.74505805969E-08  0.93827000000E+00  0.93827000000E+00 0.  1.
     999902    2    1    2    0    0  0.64674795466E-02 -0.21069826117E-01  0.69973809795E-02  0.10208057875E+01  0.10205438386E+01 0.  0.
     999903    2    3    3    0    0 -0.57754084242E-01  0.20966997046E-01  0.11201149263E+00  0.13124439701E+00  0.30056081832E-01 0.  0.
         14    1    1    2    0    0 -0.64674795466E-02  0.21069826117E-01 -0.69973809795E-02  0.23124212524E-01  0.00000000000E+00 0. -1.
     999901    1    3    3    0    0  0.64221563789E-01 -0.42036823163E-01 -0.10501411165E+00  0.88956139046E+00  0.88000000000E+00 0.  1.
        -11    1    4    4    0    0 -0.48185610319E-01  0.42208378620E-02  0.88233232212E-01  0.10062322248E+00  0.51100000000E-03 0. -1.
         11    1    4    4    0    0 -0.95684739235E-02  0.16746159184E-01  0.23778260415E-01  0.30621174537E-01  0.51100000000E-03 0.  1.
</event>
<event>
 8    1  0.1207611E+005  0.1043930E+01  0.7957747E-01            NaN
         13   -1    0    0    0    0  0.00000000000E+00  0.00000000000E+00  0.74505805969E-08  0.10566000000E+00  0.10566000000E+00 0.  1.
     999900   -1    0    0    0    0 -0.00000000000E+00 -0.00000000000E+00 -0.74505805969E-08  0.93827000000E+00  0.93827000000E+00 0.  1.
     999902    2    1    2    0    0 -0.49086936911E-02  0.12162945636E-01  0.19709979435E-01  0.10202547849E+01  0.10199800539E+01 0.  0.
     999903    2    3    3    0    0 -0.49232879756E-01  0.10296280022E+00  0.65727335503E-01  0.13327854841E+00  0.20441970433E-01 0.  0.
         14    1    1    2    0    0  0.49086936911E-02 -0.12162945636E-01 -0.19709979435E-01  0.23675215091E-01  0.00000000000E+00 0. -1.
     999901    1    3    3    0    0  0.44324186065E-01 -0.90799854581E-01 -0.46017356068E-01  0.88697623650E+00  0.88000000000E+00 0.  1.
        -11    1    4    4    0    0 -0.71368008355E-02  0.19750485086E-01  0.38366494663E-02  0.21354076599E-01  0.51100000000E-03 0.  1.
         11    1    4    4    0    0 -0.42096078920E-01  0.83212315131E-01  0.61890686037E-01  0.11192447181E+00  0.51100000000E-03 0. -1.
</event>
<event>
 8    1  0.1207611E+005  0.1043930E+01  0.7957747E-01            NaN
         13   -1    0    0    0    0  0.00000000000E+00  0.00000000000E+00  0.74505805969E-08  0.10566000000E+00  0.10566000000E+00 0. -1.
     999900   -1    0    0    0    0 -0.00000000000E+00 -0.00000000000E+00 -0.74505805969E-08  0.93827000000E+00  0.93827000000E+00 0.  1.
     999902    2    1    2    0    0  0.40330651865E-02 -0.22233207307E-01  0.84210742153E-03  0.10213182715E+01  0.10210679318E+01 0.  0.
     999903    2    3    3    0    0  0.45598657071E-01  0.45367069998E-01 -0.11184188441E+00  0.13059094062E+00  0.20198467664E-01 0.  0.
         14    1    1    2    0    0 -0.40330651865E-02  0.22233207307E-01 -0.84210742153E-03  0.22611728524E-01  0.00000000000E+00 0. -1.
     999901    1    3    3    0    0 -0.41565591885E-01 -0.67600277305E-01  0.11268399183E+00  0.89072733086E+00  0.88000000000E+00 0. -1.
        -11    1    4    4    0    0  0.27169665039E-01  0.12924217513E-01 -0.48659194633E-01  0.57211925680E-01  0.51100000000E-03 0.  1.
         11    1    4    4    0    0  0.18428992032E-01  0.32442852485E-01 -0.63182689779E-01  0.73379014939E-01  0.51100000000E-03 0. -1.
</event>
<event>
 8    1  0.1207611E+005  0.1043930E+01  0.7957747E-01            NaN
         13   -1    0    0    0    0  0.00000000000E+00  0.00000000000E+00  0.74505805969E-08  0.10566000000E+00  0.10566000000E+00 0.  1.
     999900   -1    0    0    0    0 -0.00000000000E+00 -0.00000000000E+00 -0.74505805969E-08  0.93827000000E+00  0.93827000000E+00 0.  1.
     999902    2    1    2    0    0 -0.22651797026E-01  0.38957987902E-02  0.47276860656E-02  0.10204644471E+01  0.10201946166E+01 0.  0.
     999903    2    3    3    0    0  0.29887685077E-01  0.68269672953E-01 -0.10396379050E+00  0.12989259154E+00  0.22574180778E-01 0.  0.
         14    1    1    2    0    0  0.22651797026E-01 -0.38957987902E-02 -0.47276860656E-02  0.23465552886E-01  0.00000000000E+00 0.  1.
     999901    1    3    3    0    0 -0.52539482103E-01 -0.64373874163E-01  0.10869147657E+00  0.89057185557E+00  0.88000000000E+00 0. -1.
        -11    1    4    4    0    0  0.32547512662E-02  0.15412212757E-01 -0.38696953659E-01  0.41783310679E-01  0.51100000000E-03 0.  1.
         11    1    4    4    0    0  0.26632933811E-01  0.52857460196E-01 -0.65266836845E-01  0.88109280865E-01  0.51100000000E-03 0. -1.
</event>
<event>
 7    1  0.1252572E+005  0.1043930E+01  0.7957747E-01            NaN
         13   -1    0    0    0    0  0.00000000000E+00  0.00000000000E+00  0.74505805969E-08  0.10566000000E+00  0.10566000000E+00 0. -1.
     999900   -1    0    0    0    0 -0.00000000000E+00 -0.00000000000E+00 -0.74505805969E-08  0.93827000000E+00  0.93827000000E+00 0.  1.
     999903    2    1    2    0    0  0.62651197533E-01 -0.35886075377E-01 -0.13676934015E-01  0.76033104926E-01  0.19519005161E-01 0.  0.
         14    1    1    2    0    0  0.59285708608E-01  0.49486243717E-01 -0.16103178506E-01  0.78885967829E-01  0.00000000000E+00 0. -1.
     999901    1    1    2    0    0 -0.12193690614E+00 -0.13600168340E-01  0.29780112521E-01  0.88901092724E+00  0.88000000000E+00 0. -1.
        -11    1    3    3    0    0  0.47932594709E-01 -0.22266298100E-01 -0.21517411545E-02  0.52898135862E-01  0.51100000000E-03 0. -1.
         11    1    3    3    0    0  0.14718602823E-01 -0.13619777277E-01 -0.11525192861E-01  0.23134969065E-01  0.51100000000E-03 0.  1.
</event>
<event>
 8    1  0.1207611E+005  0.1043930E+01  0.7957747E-01            NaN
         13   -1    0    0    0    0  0.00000000000E+00  0.00000000000E+00  0.74505805969E-08  0.10566000000E+00  0.10566000000E+00 0. -1.
     999900   -1    0    0    0    0 -0.00000000000E+00 -0.00000000000E+00 -0.74505805969E-08  0.93827000000E+00  0.93827000000E+00 0.  1.
     999902    2    1    2    0    0 -0.20778765008E-01 -0.11808786011E-01  0.15310054708E-02  0.10199811278E+01  0.10196999326E+01 0.  0.
     999903    2    3    3    0    0  0.97041771893E-01 -0.74919446071E-01  0.35790416771E-01  0.12922956782E+00  0.19730645571E-01 0.  0.
         14    1    1    2    0    0  0.20778765008E-01  0.11808786011E-01 -0.15310054708E-02  0.23948872209E-01  0.00000000000E+00 0. -1.
     999901    1    3    3    0    0 -0.11782053690E+00  0.63110660059E-01 -0.34259411301E-01  0.89075155997E+00  0.88000000000E+00 0. -1.
        -11    1    4    4    0    0  0.68242763519E-01 -0.40879685607E-01  0.21526946250E-01  0.82412948036E-01  0.51100000000E-03 0. -1.
         11    1    4    4    0    0  0.28799008374E-01 -0.34039760464E-01  0.14263470521E-01  0.46816619784E-01  0.51100000000E-03 0.  1.
</event>
<event>
 8    1  0.1207611E+005  0.1043930E+01  0.7957747E-01            NaN
         13   -1    0    0    0    0  0.00000000000E+00  0.00000000000E+00  0.74505805969E-08  0.10566000000E+00  0.10566000000E+00 0.  1.
     999900   -1    0    0    0    0 -0.00000000000E+00 -0.00000000000E+00 -0.74505805969E-08  0.93827000000E+00  0.93827000000E+00 0. -1.
     999902    2    1    2    0    0  0.16147481041E-01  0.15877628476E-01  0.96956344892E-02  0.10192957645E+01  0.10189980422E+01 0.  0.
     999903    2    3    3    0    0 -0.41317285629E-01  0.11265086809E-01 -0.11902033853E+00  0.12806556043E+00  0.20023149391E-01 0.  0.
         14    1    1    2    0    0 -0.16147481041E-01 -0.15877628476E-01 -0.96956344892E-02  0.24634235490E-01  0.00000000000E+00 0. -1.
     999901    1    3    3    0    0  0.57464766670E-01  0.46125416673E-02  0.12871597302E+00  0.89123020408E+00  0.88000000000E+00 0.  1.
        -11    1    4    4    0    0 -0.28702124493E-01  0.73972423419E-02 -0.52903318221E-01  0.60642834239E-01  0.51100000000E-03 0. -1.
         11    1    4    4    0    0 -0.12615161135E-01  0.38678444672E-02 -0.66117020314E-01  0.67422726194E-01  0.51100000000E-03 0.  1.
</event>
<event>
 8    1  0.1207611E+005  0.1043930E+01  0.7957747E-01            NaN
         13   -1    0    0    0    0  0.00000000000E+00  0.00000000000E+00  0.74505805969E-08  0.10566000000E+00  0.10566000000E+00 0. -1.
     999900   -1    0    0    0    0 -0.00000000000E+00 -0.00000000000E+00 -0.74505805969E-08  0.93827000000E+00  0.93827000000E+00 0.  1.
     999902    2    1    2    0    0  0.10312849965E-01 -0.18346443904E-01  0.10298523230E-01  0.10204991131E+01  0.10202300885E+01 0.  0.
     999903    2    3    3    0    0  0.11989637634E+00 -0.53441296084E-01 -0.13616789200E-02  0.13293156179E+00  0.20924453691E-01 0.  0.
         14    1    1    2    0    0 -0.10312849965E-01  0.18346443904E-01 -0.10298523230E-01  0.23430886860E-01  0.00000000000E+00 0.  1.
     999901    1    3    3    0    0 -0.10958352638E+00  0.35094852180E-01  0.11660202150E-01  0.88756755135E+00  0.88000000000E+00 0.  1.
        -11    1    4    4    0    0  0.51055342218E-01 -0.31671341867E-01  0.58601821501E-02  0.60368242649E-01  0.51100000000E-03 0. -1.
         11    1    4    4    0    0  0.68841034125E-01 -0.21769954216E-01 -0.72218610701E-02  0.72563319137E-01  0.51100000000E-03 0.  1.
</event>
<event>
 8    1  0.1207611E+005  0.1043930E+01  0.7957747E-01            NaN
         13   -1    0    0    0    0  0.00000000000E+00  0.00000000000E+00  0.74505805969E-08  0.10566000000E+00  0.10566000000E+00 0.  1.
     999900   -1    0    0    0    0 -0.00000000000E+00 -0.00000000000E+00 -0.74505805969E-08  0.93827000000E+00  0.93827000000E+00 0.  1.
     999902    2    1    2    0    0 -0.10670450021E-01  0.23173386863E-01  0.16602074293E-01  0.10134916486E+01  0.10130344657E+01 0.  0.
     999903    2    3    3    0    0  0.48932525910E-01  0.11279507365E-01  0.11366608322E+00  0.12607100378E+00  0.21267349181E-01 0.  0.
         14    1    1    2    0    0  0.10670450021E-01 -0.23173386863E-01 -0.16602074293E-01  0.30438351355E-01  0.00000000000E+00 0. -1.
     999901    1    3    3    0    0 -0.59602975932E-01  0.11893879498E-01 -0.97064008924E-01  0.88742064487E+00  0.88000000000E+00 0.  1.
        -11    1    4    4    0    0  0.36571597504E-01  0.56966729376E-02  0.58245263793E-01  0.69012359052E-01  0.51100000000E-03 0. -1.
         11    1    4    4    0    0  0.12360928406E-01  0.55828344275E-02  0.55420819423E-01  0.57058644725E-01  0.51100000000E-03 0.  1.
</event>
<event>
 8    1  0.1207611E+005  0.1043930E+01  0.7957747E-01            NaN
         13   -1    0    0    0    0  0.00000000000E+00  0.00000000000E+00  0.74505805969E-08  0.10566000000E+00  0.10566000000E+00 0.  1.
     999900   -1    0    0    0    0 -0.00000000000E+00 -0.00000000000E+00 -0.74505805969E-08  0.93827000000E+00  0.93827000000E+00 0.  1.
     999902    2    1    2    0    0 -0.10849364968E-01 -0.40562374722E-03 -0.20778846108E-01  0.10204857321E+01  0.10202163965E+01 0.  0.
     999903    2    3    3    0    0 -0.10348153809E+00  0.38957273635E-01  0.66197323999E-01  0.13048853473E+00  0.20471299344E-01 0.  0.
         14    1    1    2    0    0  0.10849364968E-01  0.40562374722E-03  0.20778846108E-01  0.23444267880E-01  0.00000000000E+00 0.  1.
     999901    1    3    3    0    0  0.92632173127E-01 -0.39362897382E-01 -0.86976170108E-01  0.88999719739E+00  0.88000000000E+00 0.  1.
        -11    1    4    4    0    0 -0.92987326100E-02  0.70131320037E-04  0.11635674083E-01  0.14903737079E-01  0.51100000000E-03 0. -1.
         11    1    4    4    0    0 -0.94182805485E-01  0.38887142315E-01  0.54561649917E-01  0.11558479766E+00  0.51100000000E-03 0.  1.
</event>
<event>
 8    1  0.1207611E+005  0.1043930E+01  0.7957747E-01            NaN
         13   -1    0    0    0    0  0.00000000000E+00  0.00000000000E+00  0.74505805969E-08  0.10566000000E+00  0.10566000000E+00 0. -1.
     999900   -1    0    0    0    0 -0.00000000000E+00 -0.00000000000E+00 -0.74505805969E-08  0.93827000000E+00  0.93827000000E+00 0.  1.
     999902    2    1    2    0    0 -0.72004894227E-02 -0.15393079801E-03  0.23133924250E-01  0.10197009019E+01  0.10194130077E+01 0.  0.
     999903    2    3    3    0    0  0.12463244601E+00 -0.25079619645E-01  0.14458028209E-01  0.12948941918E+00  0.19905807696E-01 0.  0.
         14    1    1    2    0    0  0.72004894227E-02  0.15393079801E-03 -0.23133924250E-01  0.24229098081E-01  0.00000000000E+00 0.  1.
     999901    1    3    3    0    0 -0.13183293543E+00  0.24925688847E-01  0.86758960409E-02  0.89021148274E+00  0.88000000000E+00 0. -1.
        -11    1    4    4    0    0  0.40687648935E-01 -0.17779268334E-01  0.41833224171E-02  0.44602112796E-01  0.51100000000E-03 0. -1.
         11    1    4    4    0    0  0.83944797073E-01 -0.73003513103E-02  0.10274705792E-01  0.84887306383E-01  0.51100000000E-03 0.  1.
</event>
<event>
 8    1  0.1209949E+005  0.1043930E+01  0.7957747E-01            NaN
         13   -1    0    0    0    0  0.00000000000E+00  0.00000000000E+00  0.74505805969E-08  0.10566000000E+00  0.10566000000E+00 0.  1.
     999900   -1    0    0    0    0 -0.00000000000E+00 -0.00000000000E+00 -0.74505805969E-08  0.93827000000E+00  0.93827000000E+00 0.  1.
     999902    2    1    2    0    0 -0.29119691514E-02 -0.30766361973E-01 -0.15418008649E-01  0.10093935905E+01  0.10088025857E+01 0.  0.
     999903    2    3    3    0    0 -0.70792071385E-01 -0.98654801364E-01  0.61462949160E-02  0.12390978616E+00  0.23907550314E-01 0.  0.
         14    1    1    2    0    0  0.29119691514E-02  0.30766361973E-01  0.15418008649E-01  0.34536409543E-01  0.00000000000E+00 0.  1.
     999901    1    3    3    0    0  0.67880102234E-01  0.67888439391E-01 -0.21564303565E-01  0.88548380430E+00  0.88000000000E+00 0. -1.
        -11    1    4    4    0    0 -0.25393556710E-01 -0.48368435773E-01  0.11912817517E-01  0.55915245181E-01  0.51100000000E-03 0.  1.
         11    1    4    4    0    0 -0.45398514675E-01 -0.50286365592E-01 -0.57665226015E-02  0.67994540980E-01  0.51100000000E-03 0. -1.
</event>
<event>
 7    1  0.1207611E+005  0.1043930E+01  0.7957747E-01            NaN
         13   -1    0    0    0    0  0.00000000000E+00  0.00000000000E+00  0.74505805969E-08  0.10566000000E+00  0.10566000000E+00 0.  1.
     999900   -1    0    0    0    0 -0.00000000000E+00 -0.00000000000E+00 -0.74505805969E-08  0.93827000000E+00  0.93827000000E+00 0.  1.
     999903    2    1    2    0    0 -0.14817696830E-01  0.67777766873E-01 -0.90007288583E-01  0.11593971727E+00  0.22963366923E-01 0.  0.
         14    1    1    2    0    0  0.14662795087E-01  0.30471253480E-01  0.21071131799E-01  0.39843286055E-01  0.00000000000E+00 0.  1.
     999901    1    1    2    0    0  0.15490174334E-03 -0.98249020353E-01  0.68936156784E-01  0.88814699668E+00  0.88000000000E+00 0. -1.
        -11    1    3    3    0    0 -0.82786329022E-02  0.22440447855E-01 -0.15598068428E-01  0.28559942618E-01  0.51100000000E-03 0.  1.
         11    1    3    3    0    0 -0.65390639277E-02  0.45337319018E-01 -0.74409220155E-01  0.87379774649E-01  0.51100000000E-03 0. -1.
</event>
<event>
 8    1  0.1207611E+005  0.1043930E+01  0.7957747E-01            NaN
         13   -1    0    0    0    0  0.00000000000E+00  0.00000000000E+00  0.74505805969E-08  0.10566000000E+00  0.10566000000E+00 0. -1.
     999900   -1    0    0    0    0 -0.00000000000E+00 -0.00000000000E+00 -0.74505805969E-08  0.93827000000E+00  0.93827000000E+00 0. -1.
     999902    2    1    2    0    0  0.10732906104E-01 -0.19844968224E-02  0.21157674359E-01  0.10201228438E+01  0.10198450058E+01 0.  0.
     999903    2    3    3    0    0  0.86417698619E-01  0.93940282309E-01  0.25926122051E-01  0.13166773006E+00  0.19272572747E-01 0.  0.
         14    1    1    2    0    0 -0.10732906104E-01  0.19844968224E-02 -0.21157674359E-01  0.23807156180E-01  0.00000000000E+00 0.  1.
     999901    1    3    3    0    0 -0.75684792514E-01 -0.95924779132E-01 -0.47684476917E-02  0.88845511376E+00  0.88000000000E+00 0. -1.
        -11    1    4    4    0    0  0.23381942308E-01  0.15981318008E-01  0.92712183713E-03  0.28341461276E-01  0.51100000000E-03 0. -1.
         11    1    4    4    0    0  0.63035756310E-01  0.77958964301E-01  0.24999000214E-01  0.10332626879E+00  0.51100000000E-03 0.  1.
</event>
<event>
 8    1  0.1207611E+005  0.1043930E+01  0.7957747E-01            NaN
         13   -1    0    0    0    0  0.00000000000E+00  0.00000000000E+00  0.74505805969E-08  0.10566000000E+00  0.10566000000E+00 0.  1.
     999900   -1    0    0    0    0 -0.00000000000E+00 -0.00000000000E+00 -0.74505805969E-08  0.93827000000E+00  0.93827000000E+00 0.  1.
     999902    2    1    2    0    0 -0.58034187630E-02  0.16452077094E-01  0.19358797827E-01  0.10178701926E+01  0.10175365425E+01 0.  0.
     999903    2    3    3    0    0  0.42370998171E-01 -0.43377703807E-01  0.11152529688E+00  0.12972885208E+00  0.26734931170E-01 0.  0.
         14    1    1    2    0    0  0.58034187630E-02 -0.16452077094E-01 -0.19358797827E-01  0.26059807431E-01  0.00000000000E+00 0. -1.
     999901    1    3    3    0    0 -0.48174416933E-01  0.59829780901E-01 -0.92166499056E-01  0.88814134048E+00  0.88000000000E+00 0.  1.
        -11    1    4    4    0    0  0.42552323692E-01 -0.40374545092E-01  0.86478760441E-01  0.10449708738E+00  0.51100000000E-03 0. -1.
         11    1    4    4    0    0 -0.18132552173E-03 -0.30031587146E-02  0.25046536443E-01  0.25231764702E-01  0.51100000000E-03 0.  1.
</event>
<event>
 8    1  0.1207611E+005  0.1043930E+01  0.7957747E-01            NaN
         13   -1    0    0    0    0  0.00000000000E+00  0.00000000000E+00  0.74505805969E-08  0.10566000000E+00  0.10566000000E+00 0.  1.
     999900   -1    0    0    0    0 -0.00000000000E+00 -0.00000000000E+00 -0.74505805969E-08  0.93827000000E+00  0.93827000000E+00 0. -1.
     999902    2    1    2    0    0 -0.29571625576E-02 -0.16133478704E-01  0.18439885366E-01  0.10192507918E+01  0.10189519681E+01 0.  0.
     999903    2    3    3    0    0  0.11781037978E+00 -0.50843572882E-01 -0.66310344702E-02  0.12997122892E+00  0.19600898970E-01 0.  0.
         14    1    1    2    0    0  0.29571625576E-02  0.16133478704E-01 -0.18439885366E-01  0.24679208209E-01  0.00000000000E+00 0.  1.
     999901    1    3    3    0    0 -0.12076754234E+00  0.34710094179E-01  0.25070919837E-01  0.88927956287E+00  0.88000000000E+00 0. -1.
        -11    1    4    4    0    0  0.87858811371E-01 -0.43769515027E-01 -0.11419622723E-01  0.98821101417E-01  0.51100000000E-03 0. -1.
         11    1    4    4    0    0  0.29951568413E-01 -0.70740578552E-02  0.47885882530E-02  0.31150127502E-01  0.51100000000E-03 0.  1.
</event>
<event>
 8    1  0.1207611E+005  0.1043930E+01  0.7957747E-01            NaN
         13   -1    0    0    0    0  0.00000000000E+00  0.00000000000E+00  0.74505805969E-08  0.10566000000E+00  0.10566000000E+00 0. -1.
     999900   -1    0    0    0    0 -0.00000000000E+00 -0.00000000000E+00 -0.74505805969E-08  0.93827000000E+00  0.93827000000E+00 0. -1.
     999902    2    1    2    0    0  0.70325293540E-02 -0.21293071644E-01 -0.75721433060E-02  0.10202616937E+01  0.10199871249E+01 0.  0.
     999903    2    3    3    0    0  0.99134526034E-01 -0.37507071750E-01  0.74612220304E-01  0.13149854121E+00  0.22146065974E-01 0.  0.
         14    1    1    2    0    0 -0.70325293540E-02  0.21293071644E-01  0.75721433060E-02  0.23668306306E-01  0.00000000000E+00 0.  1.
     999901    1    3    3    0    0 -0.92101996680E-01  0.16214000105E-01 -0.82184363611E-01  0.88876315248E+00  0.88000000000E+00 0. -1.
        -11    1    4    4    0    0  0.57540699348E-01 -0.32151952910E-01  0.39858374892E-01  0.77030067684E-01  0.51100000000E-03 0.  1.
         11    1    4    4    0    0  0.41593826687E-01 -0.53551188395E-02  0.34753845413E-01  0.54468473525E-01  0.51100000000E-03 0. -1.
</event>
<event>
 8    1  0.1207611E+005  0.1043930E+01  0.7957747E-01            NaN
         13   -1    0    0    0    0  0.00000000000E+00  0.00000000000E+00  0.74505805969E-08  0.10566000000E+00  0.10566000000E+00 0. -1.
     999900   -1    0    0    0    0 -0.00000000000E+00 -0.00000000000E+00 -0.74505805969E-08  0.93827000000E+00  0.93827000000E+00 0. -1.
     999902    2    1    2    0    0 -0.48058640790E-03  0.14995261834E-01 -0.18442134298E-01  0.10201560403E+01  0.10198789857E+01 0.  0.
     999903    2    3    3    0    0 -0.12711719050E+00 -0.18847074265E-01 -0.10024066593E-01  0.13040720101E+00  0.19787972036E-01 0.  0.
         14    1    1    2    0    0  0.48058640790E-03 -0.14995261834E-01  0.18442134298E-01  0.23773959666E-01  0.00000000000E+00 0. -1.
     999901    1    3    3    0    0  0.12663660409E+00  0.33842336099E-01 -0.84180677046E-02  0.88974883932E+00  0.88000000000E+00 0. -1.
        -11    1    4    4    0    0 -0.23492148877E-01 -0.40355824789E-02  0.58035683773E-02  0.24537919874E-01  0.51100000000E-03 0.  1.
         11    1    4    4    0    0 -0.10362504162E+00 -0.14811491786E-01 -0.15827634970E-01  0.10586928114E+00  0.51100000000E-03 0. -1.
</event>
<event>
 8    1  0.1207611E+005  0.1043930E+01  0.7957747E-01            NaN
         13   -1    0    0    0    0  0.00000000000E+00  0.00000000000E+00  0.74505805969E-08  0.10566000000E+00  0.10566000000E+00 0. -1.
     999900   -1    0    0    0    0 -0.00000000000E+00 -0.00000000000E+00 -0.74505805969E-08  0.93827000000E+00  0.93827000000E+00 0.  1.
     999902    2    1    2    0    0  0.14718226690E-02  0.76996919963E-02 -0.22287295364E-01  0.10203042714E+01  0.10200307011E+01 0.  0.
     999903    2    3    3    0    0  0.61945092961E-01 -0.41676995363E-01 -0.10791136825E+00  0.13270832977E+00  0.19810878535E-01 0.  0.
         14    1    1    2    0    0 -0.14718226690E-02 -0.76996919963E-02  0.22287295364E-01  0.23625728633E-01  0.00000000000E+00 0. -1.
     999901    1    3    3    0    0 -0.60473270292E-01  0.49376687360E-01  0.85624072891E-01  0.88759594159E+00  0.88000000000E+00 0. -1.
        -11    1    4    4    0    0  0.30661953382E-01 -0.32254200874E-01 -0.64859042232E-01  0.78660316167E-01  0.51100000000E-03 0. -1.
         11    1    4    4    0    0  0.31283139579E-01 -0.94227944895E-02 -0.43052326022E-01  0.54048013607E-01  0.51100000000E-03 0.  1.
</event>
<event>
 8    1  0.1207611E+005  0.1043930E+01  0.7957747E-01            NaN
         13   -1    0    0    0    0  0.00000000000E+00  0.00000000000E+00  0.74505805969E-08  0.10566000000E+00  0.10566000000E+00 0. -1.
     999900   -1    0    0    0    0 -0.00000000000E+00 -0.00000000000E+00 -0.74505805969E-08  0.93827000000E+00  0.93827000000E+00 0.  1.
     999902    2    1    2    0    0  0.47224908610E-02 -0.23512548220E-01  0.34803950263E-02  0.10196966553E+01  0.10194086589E+01 0.  0.
     999903    2    3    3    0    0  0.79260277090E-01  0.39737581362E-01 -0.91722998318E-01  0.12917986910E+00  0.20323957896E-01 0.  0.
         14    1    1    2    0    0 -0.47224908610E-02  0.23512548220E-01 -0.34803950263E-02  0.24233344657E-01  0.00000000000E+00 0.  1.
     999901    1    3    3    0    0 -0.74537786229E-01 -0.63250129582E-01  0.95203393344E-01  0.89051678624E+00  0.88000000000E+00 0.  1.
        -11    1    4    4    0    0  0.59590395807E-01  0.35699860395E-01 -0.60861660094E-01  0.92357447426E-01  0.51100000000E-03 0. -1.
         11    1    4    4    0    0  0.19669881283E-01  0.40377209667E-02 -0.30861338224E-01  0.36822421678E-01  0.51100000000E-03 0.  1.
</event>
<event>
 8    1  0.1207611E+005  0.1043930E+01  0.7957747E-01            NaN
         13   -1    0    0    0    0  0.00000000000E+00  0.00000000000E+00  0.74505805969E-08  0.10566000000E+00  0.10566000000E+00 0. -1.
     999900   -1    0    0    0    0 -0.00000000000E+00 -0.00000000000E+00 -0.74505805969E-08  0.93827000000E+00  0.93827000000E+00 0. -1.
     999902    2    1    2    0    0  0.41053213038E-02  0.22308682246E-01 -0.20121282078E-02  0.10211576565E+01  0.10209037075E+01 0.  0.
     999903    2    3    3    0    0 -0.31432740442E-01  0.96439771144E-01 -0.84605235197E-01  0.13347528458E+00  0.19208309163E-01 0.  0.
         14    1    1    2    0    0 -0.41053213038E-02 -0.22308682246E-01  0.20121282078E-02  0.22772343456E-01  0.00000000000E+00 0.  1.
     999901    1    3    3    0    0  0.35538061745E-01 -0.74131088898E-01  0.82593106989E-01  0.88768237196E+00  0.88000000000E+00 0.  1.
        -11    1    4    4    0    0 -0.17838681006E-01  0.60302018901E-01 -0.63924291197E-01  0.89672337705E-01  0.51100000000E-03 0.  1.
         11    1    4    4    0    0 -0.13594059435E-01  0.36137752243E-01 -0.20680944000E-01  0.43802946874E-01  0.51100000000E-03 0. -1.
</event>
<event>
 8    1  0.1207611E+005  0.1043930E+01  0.7957747E-01            NaN
         13   -1    0    0    0    0  0.00000000000E+00  0.00000000000E+00  0.74505805969E-08  0.10566000000E+00  0.10566000000E+00 0.  1.
     999900   -1    0    0    0    0 -0.00000000000E+00 -0.00000000000E+00 -0.74505805969E-08  0.93827000000E+00  0.93827000000E+00 0. -1.
     999902    2    1    2    0    0  0.16929225678E-01  0.11880419996E-01  0.13819862589E-01  0.10190556827E+01  0.10187520565E+01 0.  0.
     999903    2    3    3    0    0 -0.42727295341E-01 -0.20161029575E-01 -0.11616350704E+00  0.12693392450E+00  0.19651258029E-01 0.  0.
         14    1    1    2    0    0 -0.16929225678E-01 -0.11880419996E-01 -0.13819862589E-01  0.24874317344E-01  0.00000000000E+00 0. -1.
     999901    1    3    3    0    0  0.59656521019E-01  0.32041449572E-01  0.12998336963E+00  0.89212175815E+00  0.88000000000E+00 0.  1.
        -11    1    4    4    0    0 -0.31485823296E-01 -0.20448345483E-01 -0.10290785333E+00  0.10954350414E+00  0.51100000000E-03 0.  1.
         11    1    4    4    0    0 -0.11241472045E-01  0.28731590797E-03 -0.13255653705E-01  0.17390420360E-01  0.51100000000E-03 0. -1.
</event>
<event>
 8    1  0.1207611E+005  0.1043930E+01  0.7957747E-01            NaN
         13   -1    0    0    0    0  0.00000000000E+00  0.00000000000E+00  0.74505805969E-08  0.10566000000E+00  0.10566000000E+00 0.  1.
     999900   -1    0    0    0    0 -0.00000000000E+00 -0.00000000000E+00 -0.74505805969E-08  0.93827000000E+00  0.93827000000E+00 0. -1.
     999902    2    1    2    0    0 -0.17948463379E-01 -0.46665990691E-02 -0.21464178718E-01  0.10155639031E+01  0.10151676738E+01 0.  0.
     999903    2    3    3    0    0 -0.56895111249E-01 -0.75623969655E-01  0.80667618115E-01  0.12596697543E+00  0.20109097839E-01 0.  0.
         14    1    1    2    0    0  0.17948463379E-01  0.46665990691E-02  0.21464178718E-01  0.28366096886E-01  0.00000000000E+00 0.  1.
     999901    1    3    3    0    0  0.38946647870E-01  0.70957370586E-01 -0.10213179683E+00  0.88959692768E+00  0.88000000000E+00 0. -1.
        -11    1    4    4    0    0 -0.93741221571E-02 -0.17552180769E-01  0.78266682475E-02  0.21388573417E-01  0.51100000000E-03 0.  1.
         11    1    4    4    0    0 -0.47520989092E-01 -0.58071788886E-01  0.72840949868E-01  0.10457840201E+00  0.51100000000E-03 0. -1.
</event>
<event>
 7    1  0.1207611E+005  0.1043930E+01  0.7957747E-01            NaN
         13   -1    0    0    0    0  0.00000000000E+00  0.00000000000E+00  0.74505805969E-08  0.10566000000E+00  0.10566000000E+00 0. -1.
     999900   -1    0    0    0    0 -0.00000000000E+00 -0.00000000000E+00 -0.74505805969E-08  0.93827000000E+00  0.93827000000E+00 0. -1.
     999903    2    1    2    0    0 -0.55486796244E-01  0.75320383349E-01  0.57895493943E-01  0.11172400103E+00  0.19453006993E-01 0.  0.
         14    1    1    2    0    0 -0.25032114874E-01 -0.38472704388E-01 -0.52119231073E-02  0.46194370874E-01  0.00000000000E+00 0. -1.
     999901    1    1    2    0    0  0.80518911118E-01 -0.36847678961E-01 -0.52683570836E-01  0.88601162810E+00  0.88000000000E+00 0. -1.
        -11    1    3    3    0    0 -0.36176575975E-01  0.56727961994E-01  0.49829662515E-01  0.83726117243E-01  0.51100000000E-03 0.  1.
         11    1    3    3    0    0 -0.19310220269E-01  0.18592421355E-01  0.80658314278E-02  0.27997883783E-01  0.51100000000E-03 0. -1.
</event>
<event>
 8    1  0.1207611E+005  0.1043930E+01  0.7957747E-01            NaN
         13   -1    0    0    0    0  0.00000000000E+00  0.00000000000E+00  0.74505805969E-08  0.10566000000E+00  0.10566000000E+00 0.  1.
     999900   -1    0    0    0    0 -0.00000000000E+00 -0.00000000000E+00 -0.74505805969E-08  0.93827000000E+00  0.93827000000E+00 0. -1.
     999902    2    1    2    0    0  0.10597819619E-01  0.10425859540E-01 -0.18527484214E-01  0.10201754215E+01  0.10198988237E+01 0.  0.
     999903    2    3    3    0    0 -0.52965273390E-01  0.43679715663E-01  0.10675500727E+00  0.12841211860E+00  0.19488532029E-01 0.  0.
         14    1    1    2    0    0 -0.10597819619E-01 -0.10425859540E-01  0.18527484214E-01  0.23754578487E-01  0.00000000000E+00 0.  1.
     999901    1    3    3    0    0  0.63563093009E-01 -0.33253856123E-01 -0.12528249149E+00  0.89176330291E+00  0.88000000000E+00 0. -1.
        -11    1    4    4    0    0 -0.21315630811E-01  0.29508551297E-01  0.60329689232E-01  0.70463062951E-01  0.51100000000E-03 0. -1.
         11    1    4    4    0    0 -0.31649642579E-01  0.14171164366E-01  0.46425318042E-01  0.57949055654E-01  0.51100000000E-03 0.  1.
</event>
<event>
 8    1  0.1207611E+005  0.1043930E+01  0.7957747E-01            NaN
         13   -1    0    0    0    0  0.00000000000E+00  0.00000000000E+00  0.74505805969E-08  0.10566000000E+00  0.10566000000E+00 0. -1.
     999900   -1    0    0    0    0 -0.00000000000E+00 -0.00000000000E+00 -0.74505805969E-08  0.93827000000E+00  0.93827000000E+00 0. -1.
     999902    2    1    2    0    0  0.16916546740E-01  0.15275553412E-01 -0.62475255246E-02  0.10202964717E+01  0.10200227186E+01 0.  0.
     999903    2    3    3    0    0 -0.10381684248E+00 -0.65021571145E-01 -0.31439106524E-01  0.12807520135E+00  0.20226178200E-01 0.  0.
         14    1    1    2    0    0 -0.16916546740E-01 -0.15275553412E-01  0.62475255246E-02  0.23633528320E-01  0.00000000000E+00 0. -1.
     999901    1    3    3    0    0  0.12073338922E+00  0.80297124557E-01  0.25191580999E-01  0.89222127033E+00  0.88000000000E+00 0.  1.
        -11    1    4    4    0    0 -0.59897613501E-01 -0.25612695595E-01 -0.16374140211E-01  0.67172225417E-01  0.51100000000E-03 0. -1.
         11    1    4    4    0    0 -0.43919228976E-01 -0.39408875550E-01 -0.15064966312E-01  0.60902975929E-01  0.51100000000E-03 0.  1.
</event>
<event>
 8    1  0.1207611E+005  0.1043930E+01  0.7957747E-01            NaN
         13   -1    0    0    0    0  0.00000000000E+00  0.00000000000E+00  0.74505805969E-08  0.10566000000E+00  0.10566000000E+00 0. -1.
     999900   -1    0    0    0    0 -0.00000000000E+00 -0.00000000000E+00 -0.74505805969E-08  0.93827000000E+00  0.93827000000E+00 0.  1.
     999902    2    1    2    0    0  0.10953330174E-01  0.18070902275E-01 -0.76543661240E-02  0.10214550746E+01  0.10212077884E+01 0.  0.
     999903    2    3    3    0    0 -0.77746395336E-01  0.83344881639E-01  0.62559081037E-01  0.13181567470E+00  0.21699359304E-01 0.  0.
         14    1    1    2    0    0 -0.10953330174E-01 -0.18070902275E-01  0.76543661240E-02  0.22474925399E-01  0.00000000000E+00 0.  1.
     999901    1    3    3    0    0  0.88699725510E-01 -0.65273979364E-01 -0.70213447161E-01  0.88963939990E+00  0.88000000000E+00 0.  1.
        -11    1    4    4    0    0 -0.33872417596E-01  0.50942074362E-01  0.37810525057E-01  0.71918930333E-01  0.51100000000E-03 0.  1.
         11    1    4    4    0    0 -0.43873977740E-01  0.32402807278E-01  0.24748555980E-01  0.59896744371E-01  0.51100000000E-03 0. -1.
</event>
<event>
 8    1  0.1207611E+005  0.1043930E+01  0.7957747E-01            NaN
         13   -1    0    0    0    0  0.00000000000E+00  0.00000000000E+00  0.74505805969E-08  0.10566000000E+00  0.10566000000E+00 0.  1.
     999900   -1    0    0    0    0 -0.00000000000E+00 -0.00000000000E+00 -0.74505805969E-08  0.93827000000E+00  0.93827000000E+00 0. -1.
     999902    2    1    2    0    0 -0.26486890488E-01 -0.88806156439E-02  0.80131096409E-02  0.10148674704E+01  0.10144512565E+01 0.  0.
     999903    2    3    3    0    0  0.68046737671E-01 -0.33865266115E-01 -0.95653292046E-01  0.12340375129E+00  0.17370054586E-01 0.  0.
         14    1    1    2    0    0  0.26486890488E-01  0.88806156439E-02 -0.80131096409E-02  0.29062529622E-01  0.00000000000E+00 0.  1.
     999901    1    3    3    0    0 -0.94533628159E-01  0.24984650471E-01  0.10366640169E+00  0.89146371909E+00  0.88000000000E+00 0.  1.
        -11    1    4    4    0    0  0.45652801002E-01 -0.30391756126E-01 -0.61395113100E-01  0.82325318787E-01  0.51100000000E-03 0.  1.
         11    1    4    4    0    0  0.22393936670E-01 -0.34735099888E-02 -0.34258178946E-01  0.41078432503E-01  0.51100000000E-03 0. -1.
</event>
<event>
 8    1  0.1207611E+005  0.1043930E+01  0.7957747E-01            NaN
         13   -1    0    0    0    0  0.00000000000E+00  0.00000000000E+00  0.74505805969E-08  0.10566000000E+00  0.10566000000E+00 0. -1.
     999900   -1    0    0    0    0 -0.00000000000E+00 -0.00000000000E+00 -0.74505805969E-08  0.93827000000E+00  0.93827000000E+00 0.  1.
     999902    2    1    2    0    0  0.52635750642E-02  0.10967550098E-01 -0.20337833184E-01  0.10202314803E+01  0.10199562018E+01 0.  0.
     999903    2    3    3    0    0 -0.12566038386E+00 -0.21280605733E-01 -0.21842459900E-01  0.12996001019E+00  0.13004420168E-01 0.  0.
         14    1    1    2    0    0 -0.52635750642E-02 -0.10967550098E-01  0.20337833184E-01  0.23698519705E-01  0.00000000000E+00 0. -1.
     999901    1    3    3    0    0  0.13092395892E+00  0.32248155831E-01  0.15046267155E-02  0.89027147010E+00  0.88000000000E+00 0. -1.
        -11    1    4    4    0    0 -0.42263738728E-01 -0.13388410004E-01 -0.70763995785E-02  0.44897769273E-01  0.51100000000E-03 0.  1.
         11    1    4    4    0    0 -0.83396645128E-01 -0.78921957285E-02 -0.14766060321E-01  0.85062240921E-01  0.51100000000E-03 0. -1.
</event>
<event>
 8    1  0.1207611E+005  0.1043930E+01  0.7957747E-01            NaN
         13   -1    0    0    0    0  0.00000000000E+00  0.00000000000E+00  0.74505805969E-08  0.10566000000E+00  0.10566000000E+00 0. -1.
     999900   -1    0    0    0    0 -0.00000000000E+00 -0.00000000000E+00 -0.74505805969E-08  0.93827000000E+00  0.93827000000E+00 0.  1.
     999902    2    1    2    0    0 -0.35193132576E-02  0.22205805401E-01  0.77962282781E-02  0.10201336865E+01  0.10198561045E+01 0.  0.
     999903    2    3    3    0    0  0.16949151026E-01 -0.12307570427E+00 -0.20734344878E-01  0.12753093688E+00  0.19983095402E-01 0.  0.
         14    1    1    2    0    0  0.35193132576E-02 -0.22205805401E-01 -0.77962282781E-02  0.23796313468E-01  0.00000000000E+00 0.  1.
     999901    1    3    3    0    0 -0.20468464284E-01  0.14528150967E+00  0.28530573156E-01  0.89260274965E+00  0.88000000000E+00 0.  1.
        -11    1    4    4    0    0 -0.94060956121E-03 -0.55716447280E-01 -0.41017244302E-02  0.55877477646E-01  0.51100000000E-03 0. -1.
         11    1    4    4    0    0  0.17889760587E-01 -0.67359256990E-01 -0.16632620447E-01  0.71653459233E-01  0.51100000000E-03 0.  1.
</event>
<event>
 8    1  0.1207611E+005  0.1043930E+01  0.7957747E-01            NaN
         13   -1    0    0    0    0  0.00000000000E+00  0.00000000000E+00  0.74505805969E-08  0.10566000000E+00  0.10566000000E+00 0. -1.
     999900   -1    0    0    0    0 -0.00000000000E+00 -0.00000000000E+00 -0.74505805969E-08  0.93827000000E+00  0.93827000000E+00 0.  1.
     999902    2    1    2    0    0  0.12843975160E-01 -0.78799155472E-02 -0.18745916730E-01  0.10198785934E+01  0.10195949564E+01 0.  0.
     999903    2    3    3    0    0  0.12780310184E-01  0.18464088331E-01  0.12434799419E+00  0.12793135393E+00  0.19993718388E-01 0.  0.
         14    1    1    2    0    0 -0.12843975160E-01  0.78799155472E-02  0.18745916730E-01  0.24051406632E-01  0.00000000000E+00 0.  1.
     999901    1    3    3    0    0  0.63664976144E-04 -0.26344003878E-01 -0.14309391092E+00  0.89194723943E+00  0.88000000000E+00 0.  1.
        -11    1    4    4    0    0  0.12138673340E-01  0.18612750981E-01  0.67264379551E-01  0.70841652768E-01  0.51100000000E-03 0. -1.
         11    1    4    4    0    0  0.64163684391E-03 -0.14866264927E-03  0.57083614634E-01  0.57089701165E-01  0.51100000000E-03 0.  1.
</event>
<event>
 8    1  0.1207611E+005  0.1043930E+01  0.7957747E-01            NaN
         13   -1    0    0    0    0  0.00000000000E+00  0.00000000000E+00  0.74505805969E-08  0.10566000000E+00  0.10566000000E+00 0. -1.
     999900   -1    0    0    0    0 -0.00000000000E+00 -0.00000000000E+00 -0.74505805969E-08  0.93827000000E+00  0.93827000000E+00 0.  1.
     999902    2    1    2    0    0 -0.14549069200E-01  0.15516985303E-01 -0.81579074912E-02  0.10211483472E+01  0.10208941881E+01 0.  0.
     999903    2    3    3    0    0  0.39903560334E-01 -0.13697801350E-01 -0.12264134341E+00  0.13158381911E+00  0.22214374804E-01 0.  0.
         14    1    1    2    0    0  0.14549069200E-01 -0.15516985303E-01  0.81579074912E-02  0.22781652752E-01  0.00000000000E+00 0.  1.
     999901    1    3    3    0    0 -0.54452629534E-01  0.29214786653E-01  0.11448343592E+00  0.88956452814E+00  0.88000000000E+00 0. -1.
        -11    1    4    4    0    0  0.87940367575E-02 -0.13497102307E-01 -0.33668613291E-01  0.37327516595E-01  0.51100000000E-03 0.  1.
         11    1    4    4    0    0  0.31109523576E-01 -0.20069904233E-03 -0.88972730122E-01  0.94256302514E-01  0.51100000000E-03 0. -1.
</event>
<event>
 8    1  0.1207611E+005  0.1043930E+01  0.7957747E-01            NaN
         13   -1    0    0    0    0  0.00000000000E+00  0.00000000000E+00  0.74505805969E-08  0.10566000000E+00  0.10566000000E+00 0.  1.
     999900   -1    0    0    0    0 -0.00000000000E+00 -0.00000000000E+00 -0.74505805969E-08  0.93827000000E+00  0.93827000000E+00 0. -1.
     999902    2    1    2    0    0 -0.21831981230E-01  0.64207844085E-02 -0.89464376469E-02  0.10194779935E+01  0.10191847127E+01 0.  0.
     999903    2    3    3    0    0  0.37415141419E-01 -0.51919530377E-01  0.10839760861E+00  0.12780347939E+00  0.22094283151E-01 0.  0.
         14    1    1    2    0    0  0.21831981230E-01 -0.64207844085E-02  0.89464376469E-02  0.24452006531E-01  0.00000000000E+00 0. -1.
     999901    1    3    3    0    0 -0.59247122648E-01  0.58340314786E-01 -0.11734404626E+00  0.89167451408E+00  0.88000000000E+00 0. -1.
        -11    1    4    4    0    0  0.13693790971E-01 -0.60632037812E-02  0.34923211683E-01  0.38002291859E-01  0.51100000000E-03 0. -1.
         11    1    4    4    0    0  0.23721350448E-01 -0.45856326596E-01  0.73474396931E-01  0.89801187528E-01  0.51100000000E-03 0.  1.
</event>
<event>
 8    1  0.1207611E+005  0.1043930E+01  0.7957747E-01            NaN
         13   -1    0    0    0    0  0.00000000000E+00  0.00000000000E+00  0.74505805969E-08  0.10566000000E+00  0.10566000000E+00 0.  1.
     999900   -1    0    0    0    0 -0.00000000000E+00 -0.00000000000E+00 -0.74505805969E-08  0.93827000000E+00  0.93827000000E+00 0.  1.
     999902    2    1    2    0    0  0.11784424156E-01 -0.11016466693E-01 -0.17478986756E-01  0.10201444967E+01  0.10198671697E+01 0.  0.
     999903    2    3    3    0    0  0.12452802406E+00 -0.38865483861E-01 -0.12436913356E-01  0.13250036212E+00  0.19593737170E-01 0.  0.
         14    1    1    2    0    0 -0.11784424156E-01  0.11016466693E-01  0.17478986756E-01  0.23785503340E-01  0.00000000000E+00 0.  1.
     999901    1    3    3    0    0 -0.11274359990E+00  0.27849017168E-01 -0.50420734009E-02  0.88764413454E+00  0.88000000000E+00 0.  1.
        -11    1    4    4    0    0  0.46064718521E-01 -0.48337452120E-02 -0.23451625942E-02  0.46379783245E-01  0.51100000000E-03 0.  1.
         11    1    4    4    0    0  0.78463305539E-01 -0.34031738649E-01 -0.10091750761E-01  0.86120578877E-01  0.51100000000E-03 0. -1.
</event>
<event>
 8    1  0.1207611E+005  0.1043930E+01  0.7957747E-01            NaN
         13   -1    0    0    0    0  0.00000000000E+00  0.00000000000E+00  0.74505805969E-08  0.10566000000E+00  0.10566000000E+00 0. -1.
     999900   -1    0    0    0    0 -0.00000000000E+00 -0.00000000000E+00 -0.74505805969E-08  0.93827000000E+00  0.93827000000E+00 0. -1.
     999902    2    1    2    0    0  0.10467565159E-01 -0.19560671360E-01  0.66758663097E-02  0.10207619838E+01  0.10204990302E+01 0.  0.
     999903    2    3    3    0    0 -0.45084186217E-01  0.10676798101E+00  0.52659543623E-01  0.12882060450E+00  0.19741706966E-01 0.  0.
         14    1    1    2    0    0 -0.10467565159E-01  0.19560671360E-01 -0.66758663097E-02  0.23168016216E-01  0.00000000000E+00 0.  1.
     999901    1    3    3    0    0  0.55551751376E-01 -0.12632865237E+00 -0.45983677314E-01  0.89194137928E+00  0.88000000000E+00 0. -1.
        -11    1    4    4    0    0 -0.29398934298E-01  0.78999165701E-01  0.46721469275E-01  0.96375942701E-01  0.51100000000E-03 0. -1.
         11    1    4    4    0    0 -0.15685251919E-01  0.27768815312E-01  0.59380743487E-02  0.32444661804E-01  0.51100000000E-03 0.  1.
</event>
<event>
 8    1  0.1207611E+005  0.1043930E+01  0.7957747E-01            NaN
         13   -1    0    0    0    0  0.00000000000E+00  0.00000000000E+00  0.74505805969E-08  0.10566000000E+00  0.10566000000E+00 0.  1.
     999900   -1    0    0    0    0 -0.00000000000E+00 -0.00000000000E+00 -0.74505805969E-08  0.93827000000E+00  0.93827000000E+00 0.  1.
     999902    2    1    2    0    0 -0.20173361618E-01 -0.94895154122E-02  0.11814556556E-01  0.10186990831E+01  0.10183865782E+01 0.  0.
     999903    2    3    3    0    0 -0.95303201597E-01 -0.35446767578E-01 -0.78958475923E-01  0.13046599700E+00  0.21160384837E-01 0.  0.
         14    1    1    2    0    0  0.20173361618E-01  0.94895154122E-02 -0.11814556556E-01  0.25230916914E-01  0.00000000000E+00 0.  1.
     999901    1    3    3    0    0  0.75129839979E-01  0.25957252166E-01  0.90773032478E-01  0.88823308609E+00  0.88000000000E+00 0. -1.
        -11    1    4    4    0    0 -0.77530158563E-01 -0.20420853240E-01 -0.56208019410E-01  0.97915980825E-01  0.51100000000E-03 0. -1.
         11    1    4    4    0    0 -0.17773043033E-01 -0.15025914338E-01 -0.22750456513E-01  0.32550016173E-01  0.51100000000E-03 0.  1.
</event>
<event>
 8    1  0.1207611E+005  0.1043930E+01  0.7957747E-01            NaN
         13   -1    0    0    0    0  0.00000000000E+00  0.00000000000E+00  0.74505805969E-08  0.10566000000E+00  0.10566000000E+00 0. -1.
     999900   -1    0    0    0    0 -0.00000000000E+00 -0.00000000000E+00 -0.74505805969E-08  0.93827000000E+00  0.93827000000E+00 0. -1.
     999902    2    1    2    0    0 -0.96944490537E-02  0.19021318423E-01 -0.11382476010E-01  0.10197359169E+01  0.10194488641E+01 0.  0.
     999903    2    3    3    0    0 -0.86349799765E-01 -0.46121503809E-01  0.81792187111E-01  0.12911750931E+00  0.19947137782E-01 0.  0.
         14    1    1    2    0    0  0.96944490537E-02 -0.19021318423E-01  0.11382476010E-01  0.24194083102E-01  0.00000000000E+00 0. -1.
     999901    1    3    3    0    0  0.76655350712E-01  0.65142822233E-01 -0.93174663121E-01  0.89061840758E+00  0.88000000000E+00 0.  1.
        -11    1    4    4    0    0 -0.44520152296E-01 -0.16747314239E-01  0.29400317733E-01  0.55920982632E-01  0.51100000000E-03 0. -1.
         11    1    4    4    0    0 -0.41829647469E-01 -0.29374189571E-01  0.52391869378E-01  0.73196526681E-01  0.51100000000E-03 0.  1.
</event>
<event>
 8    1  0.1207611E+005  0.1043930E+01  0.7957747E-01            NaN
         13   -1    0    0    0    0  0.00000000000E+00  0.00000000000E+00  0.74505805969E-08  0.10566000000E+00  0.10566000000E+00 0.  1.
     999900   -1    0    0    0    0 -0.00000000000E+00 -0.00000000000E+00 -0.74505805969E-08  0.93827000000E+00  0.93827000000E+00 0.  1.
     999902    2    1    2    0    0 -0.14315281529E-02  0.21925004449E-01 -0.85459142783E-02  0.10203548490E+01  0.10200824624E+01 0.  0.
     999903    2    3    3    0    0  0.20609443955E-01 -0.73398132841E-01 -0.10362403606E+00  0.12984255029E+00  0.17581579305E-01 0.  0.
         14    1    1    2    0    0  0.14315281529E-02 -0.21925004449E-01  0.85459142783E-02  0.23575150981E-01  0.00000000000E+00 0. -1.
     999901    1    3    3    0    0 -0.22040972108E-01  0.95323137290E-01  0.95078121780E-01  0.89051229873E+00  0.88000000000E+00 0. -1.
        -11    1    4    4    0    0  0.15846712095E-01 -0.26782545170E-01 -0.46534218996E-01  0.55983190946E-01  0.51100000000E-03 0. -1.
         11    1    4    4    0    0  0.47627318602E-02 -0.46615587671E-01 -0.57089817063E-01  0.73859359339E-01  0.51100000000E-03 0.  1.
</event>
<event>
 8    1  0.1308705E+005  0.1043930E+01  0.7957747E-01            NaN
         13   -1    0    0    0    0  0.00000000000E+00  0.00000000000E+00  0.74505805969E-08  0.10566000000E+00  0.10566000000E+00 0. -1.
     999900   -1    0    0    0    0 -0.00000000000E+00 -0.00000000000E+00 -0.74505805969E-08  0.93827000000E+00  0.93827000000E+00 0. -1.
     999902    2    1    2    0    0 -0.11072509343E-01  0.17888543017E-01 -0.10485139015E-01  0.10204238609E+01  0.10201530853E+01 0.  0.
     999903    2    3    3    0    0 -0.69234308581E-01 -0.55523329429E-01 -0.94768173409E-01  0.13144932372E+00  0.20535053408E-01 0.  0.
         14    1    1    2    0    0  0.11072509343E-01 -0.17888543017E-01  0.10485139015E-01  0.23506139083E-01  0.00000000000E+00 0. -1.
     999901    1    3    3    0    0  0.58161799238E-01  0.73411872446E-01  0.84283034394E-01  0.88897453720E+00  0.88000000000E+00 0.  1.
        -11    1    4    4    0    0 -0.38771646328E-01 -0.39673455694E-01 -0.47564894782E-01  0.73074646645E-01  0.51100000000E-03 0. -1.
         11    1    4    4    0    0 -0.30462662253E-01 -0.15849873735E-01 -0.47203278627E-01  0.58374677071E-01  0.51100000000E-03 0.  1.
</event>
<event>
 8    1  0.1207611E+005  0.1043930E+01  0.7957747E-01            NaN
         13   -1    0    0    0    0  0.00000000000E+00  0.00000000000E+00  0.74505805969E-08  0.10566000000E+00  0.10566000000E+00 0.  1.
     999900   -1    0    0    0    0 -0.00000000000E+00 -0.00000000000E+00 -0.74505805969E-08  0.93827000000E+00  0.93827000000E+00 0. -1.
     999902    2    1    2    0    0 -0.86089698456E-03 -0.11742632218E-01  0.18894813643E-01  0.10216669243E+01  0.10214243289E+01 0.  0.
     999903    2    3    3    0    0  0.14812109422E-01  0.12784261633E+00  0.52363337576E-02  0.13042271605E+00  0.20482493394E-01 0.  0.
         14    1    1    2    0    0  0.86089698456E-03  0.11742632218E-01 -0.18894813643E-01  0.22263075655E-01  0.00000000000E+00 0.  1.
     999901    1    3    3    0    0 -0.15673006406E-01 -0.13958524855E+00  0.13658479885E-01  0.89124420829E+00  0.88000000000E+00 0. -1.
        -11    1    4    4    0    0  0.72868525427E-02  0.11584699653E+00  0.33266325517E-02  0.11612472790E+00  0.51100000000E-03 0. -1.
         11    1    4    4    0    0  0.75252568790E-02  0.11995619802E-01  0.19097012059E-02  0.14297988153E-01  0.51100000000E-03 0.  1.
</event>
<event>
 8    1  0.1207611E+005  0.1043930E+01  0.7957747E-01            NaN
         13   -1    0    0    0    0  0.00000000000E+00  0.00000000000E+00  0.74505805969E-08  0.10566000000E+00  0.10566000000E+00 0.  1.
     999900   -1    0    0    0    0 -0.00000000000E+00 -0.00000000000E+00 -0.74505805969E-08  0.93827000000E+00  0.93827000000E+00 0.  1.
     999902    2    1    2    0    0 -0.16517363530E-01  0.10392611333E-01  0.96867039411E-02  0.10221432632E+01  0.10219110473E+01 0.  0.
     999903    2    3    3    0    0  0.99804357349E-01 -0.74907942766E-03 -0.80826922759E-01  0.12981619498E+00  0.18915130698E-01 0.  0.
         14    1    1    2    0    0  0.16517363530E-01 -0.10392611333E-01 -0.96867039411E-02  0.21786736826E-01  0.00000000000E+00 0. -1.
     999901    1    3    3    0    0 -0.11632172088E+00  0.11141690760E-01  0.90513626700E-01  0.89232706820E+00  0.88000000000E+00 0.  1.
        -11    1    4    4    0    0  0.58184084125E-01  0.21628145427E-02 -0.58307193503E-01  0.82401792137E-01  0.51100000000E-03 0.  1.
         11    1    4    4    0    0  0.41620273224E-01 -0.29118939704E-02 -0.22519729256E-01  0.47414402838E-01  0.51100000000E-03 0. -1.
</event>
<event>
 8    1  0.1207611E+005  0.1043930E+01  0.7957747E-01            NaN
         13   -1    0    0    0    0  0.00000000000E+00  0.00000000000E+00  0.74505805969E-08  0.10566000000E+00  0.10566000000E+00 0.  1.
     999900   -1    0    0    0    0 -0.00000000000E+00 -0.00000000000E+00 -0.74505805969E-08  0.93827000000E+00  0.93827000000E+00 0.  1.
     999902    2    1    2    0    0  0.20314156289E-01  0.10755770754E-01  0.82649933857E-02  0.10195033411E+01  0.10192106754E+01 0.  0.
     999903    2    3    3    0    0 -0.85195988949E-01 -0.74855860132E-01 -0.53459819493E-01  0.12693866857E+00  0.19842302009E-01 0.  0.
         14    1    1    2    0    0 -0.20314156289E-01 -0.10755770754E-01 -0.82649933857E-02  0.24426658918E-01  0.00000000000E+00 0.  1.
     999901    1    3    3    0    0  0.10551014524E+00  0.85611630886E-01  0.61724812878E-01  0.89256467251E+00  0.88000000000E+00 0. -1.
        -11    1    4    4    0    0 -0.50151060811E-01 -0.31993113990E-01 -0.23300816687E-01  0.63889572095E-01  0.51100000000E-03 0. -1.
         11    1    4    4    0    0 -0.35044928138E-01 -0.42862746142E-01 -0.30159002806E-01  0.63049096474E-01  0.51100000000E-03 0.  1.
</event>
<event>
 8    1  0.1207611E+005  0.1043930E+01  0.7957747E-01            NaN
         13   -1    0    0    0    0  0.00000000000E+00  0.00000000000E+00  0.74505805969E-08  0.10566000000E+00  0.10566000000E+00 0. -1.
     999900   -1    0    0    0    0 -0.00000000000E+00 -0.00000000000E+00 -0.74505805969E-08  0.93827000000E+00  0.93827000000E+00 0.  1.
     999902    2    1    2    0    0 -0.13918779415E-01  0.38190907202E-02 -0.18361999238E-01  0.10205744677E+01  0.10203071906E+01 0.  0.
     999903    2    3    3    0    0  0.10491153338E+00 -0.80990846723E-02 -0.75229075343E-01  0.13068877249E+00  0.18657879536E-01 0.  0.
         14    1    1    2    0    0  0.13918779415E-01 -0.38190907202E-02  0.18361999238E-01  0.23355532329E-01  0.00000000000E+00 0. -1.
     999901    1    3    3    0    0 -0.11883031280E+00  0.11918175392E-01  0.56867076104E-01  0.88988569518E+00  0.88000000000E+00 0.  1.
        -11    1    4    4    0    0  0.66896320377E-01 -0.12397633341E-01 -0.54494894406E-01  0.87170944871E-01  0.51100000000E-03 0. -1.
         11    1    4    4    0    0  0.38015213006E-01  0.42985486687E-02 -0.20734180937E-01  0.43517827618E-01  0.51100000000E-03 0.  1.
</event>
<event>
 8    1  0.1207611E+005  0.1043930E+01  0.7957747E-01            NaN
         13   -1    0    0    0    0  0.00000000000E+00  0.00000000000E+00  0.74505805969E-08  0.10566000000E+00  0.10566000000E+00 0. -1.
     999900   -1    0    0    0    0 -0.00000000000E+00 -0.00000000000E+00 -0.74505805969E-08  0.93827000000E+00  0.93827000000E+00 0. -1.
     999902    2    1    2    0    0  0.17811751029E-01 -0.15426718346E-01  0.22325731559E-02  0.10202608957E+01  0.10199863082E+01 0.  0.
     999903    2    3    3    0    0 -0.51473883526E-01 -0.67147324676E-01  0.97883407795E-01  0.13086525687E+00  0.19652736121E-01 0.  0.
         14    1    1    2    0    0 -0.17811751029E-01  0.15426718346E-01 -0.22325731559E-02  0.23669104262E-01  0.00000000000E+00 0.  1.
     999901    1    3    3    0    0  0.69285634555E-01  0.51720606329E-01 -0.95650834639E-01  0.88939563887E+00  0.88000000000E+00 0. -1.
        -11    1    4    4    0    0 -0.39333821903E-01 -0.62495222185E-01  0.83643037412E-01  0.11157607795E+00  0.51100000000E-03 0. -1.
         11    1    4    4    0    0 -0.12140061623E-01 -0.46521024907E-02  0.14240370383E-01  0.19289178921E-01  0.51100000000E-03 0.  1.
</event>
<event>
 8    1  0.1207611E+005  0.1043930E+01  0.7957747E-01            NaN
         13   -1    0    0    0    0  0.00000000000E+00  0.00000000000E+00  0.74505805969E-08  0.10566000000E+00  0.10566000000E+00 0. -1.
     999900   -1    0    0    0    0 -0.00000000000E+00 -0.00000000000E+00 -0.74505805969E-08  0.93827000000E+00  0.93827000000E+00 0. -1.
     999902    2    1    2    0    0 -0.76742591779E-02  0.19680750915E-01  0.91707819112E-02  0.10209011170E+01  0.10206413480E+01 0.  0.
     999903    2    3    3    0    0 -0.22520927493E-01  0.12639171809E+00 -0.30024145494E-01  0.13346441707E+00  0.20718174056E-01 0.  0.
         14    1    1    2    0    0  0.76742591779E-02 -0.19680750915E-01 -0.91707819112E-02  0.23028882982E-01  0.00000000000E+00 0. -1.
     999901    1    3    3    0    0  0.14846668315E-01 -0.10671096717E+00  0.39194927405E-01  0.88743669994E+00  0.88000000000E+00 0.  1.
        -11    1    4    4    0    0 -0.17964609757E-01  0.12291765765E+00 -0.29561265980E-01  0.12769341147E+00  0.51100000000E-03 0. -1.
         11    1    4    4    0    0 -0.45563177363E-02  0.34740604393E-02 -0.46287951376E-03  0.57710056051E-02  0.51100000000E-03 0.  1.
</event>
<event>
 8    1  0.1207611E+005  0.1043930E+01  0.7957747E-01            NaN
         13   -1    0    0    0    0  0.00000000000E+00  0.00000000000E+00  0.74505805969E-08  0.10566000000E+00  0.10566000000E+00 0.  1.
     999900   -1    0    0    0    0 -0.00000000000E+00 -0.00000000000E+00 -0.74505805969E-08  0.93827000000E+00  0.93827000000E+00 0. -1.
     999902    2    1    2    0    0 -0.12717088622E-01 -0.17385920790E-01  0.97587194075E-02  0.10202820151E+01  0.10200079231E+01 0.  0.
     999903    2    3    3    0    0  0.10788065025E-01  0.11002858525E+00 -0.61316014810E-01  0.12796000684E+00  0.19784786102E-01 0.  0.
         14    1    1    2    0    0  0.12717088622E-01  0.17385920790E-01 -0.97587194075E-02  0.23647984887E-01  0.00000000000E+00 0. -1.
     999901    1    3    3    0    0 -0.23505153647E-01 -0.12741450604E+00  0.71074734218E-01  0.89232200827E+00  0.88000000000E+00 0.  1.
        -11    1    4    4    0    0  0.12563816128E-01  0.10119126690E+00 -0.50251410964E-01  0.11367931824E+00  0.51100000000E-03 0. -1.
         11    1    4    4    0    0 -0.17757511029E-02  0.88373183505E-02 -0.11064603847E-01  0.14280688600E-01  0.51100000000E-03 0.  1.
</event>
<event>
 8    1  0.1207611E+005  0.1043930E+01  0.7957747E-01            NaN
         13   -1    0    0    0    0  0.00000000000E+00  0.00000000000E+00  0.74505805969E-08  0.10566000000E+00  0.10566000000E+00 0. -1.
     999900   -1    0    0    0    0 -0.00000000000E+00 -0.00000000000E+00 -0.74505805969E-08  0.93827000000E+00  0.93827000000E+00 0. -1.
     999902    2    1    2    0    0  0.17229861439E-01 -0.34181782372E-02  0.11055950324E-01  0.10231746126E+01  0.10229640765E+01 0.  0.
     999903    2    3    3    0    0 -0.95728020245E-01  0.44616434760E-01  0.77176169827E-01  0.13219835564E+00  0.19124955787E-01 0.  0.
         14    1    1    2    0    0 -0.17229861439E-01  0.34181782372E-02 -0.11055950324E-01  0.20755387378E-01  0.00000000000E+00 0. -1.
     999901    1    3    3    0    0  0.11295788168E+00 -0.48034612997E-01 -0.66120219503E-01  0.89097625698E+00  0.88000000000E+00 0.  1.
        -11    1    4    4    0    0 -0.56648178129E-01  0.36564459555E-01  0.48927860642E-01  0.83307697459E-01  0.51100000000E-03 0. -1.
         11    1    4    4    0    0 -0.39079842115E-01  0.80519752046E-02  0.28248309185E-01  0.48890658180E-01  0.51100000000E-03 0.  1.
</event>
<event>
 8    1  0.1207611E+005  0.1043930E+01  0.7957747E-01            NaN
         13   -1    0    0    0    0  0.00000000000E+00  0.00000000000E+00  0.74505805969E-08  0.10566000000E+00  0.10566000000E+00 0. -1.
     999900   -1    0    0    0    0 -0.00000000000E+00 -0.00000000000E+00 -0.74505805969E-08  0.93827000000E+00  0.93827000000E+00 0. -1.
     999902    2    1    2    0    0 -0.69839206060E-02  0.15936117678E-01  0.15734454935E-01  0.10204713541E+01  0.10202016842E+01 0.  0.
     999903    2    3    3    0    0  0.43282527795E-01 -0.76725341841E-01 -0.90132972243E-01  0.12787918856E+00  0.21655920384E-01 0.  0.
         14    1    1    2    0    0  0.69839206060E-02 -0.15936117678E-01 -0.15734454935E-01  0.23458645864E-01  0.00000000000E+00 0.  1.
     999901    1    3    3    0    0 -0.50266448401E-01  0.92661459519E-01  0.10586742718E+00  0.89259216558E+00  0.88000000000E+00 0.  1.
        -11    1    4    4    0    0  0.72176890256E-02 -0.31615191909E-01 -0.25962202149E-01  0.41544102538E-01  0.51100000000E-03 0. -1.
         11    1    4    4    0    0  0.36064838769E-01 -0.45110149933E-01 -0.64170770095E-01  0.86335086019E-01  0.51100000000E-03 0.  1.
</event>
<event>
 8    1  0.1207611E+005  0.1043930E+01  0.7957747E-01            NaN
         13   -1    0    0    0    0  0.00000000000E+00  0.00000000000E+00  0.74505805969E-08  0.10566000000E+00  0.10566000000E+00 0.  1.
     999900   -1    0    0    0    0 -0.00000000000E+00 -0.00000000000E+00 -0.74505805969E-08  0.93827000000E+00  0.93827000000E+00 0. -1.
     999902    2    1    2    0    0  0.57402867646E-02 -0.47502875141E-02  0.22374638657E-01  0.10203473670E+01  0.10200748055E+01 0.  0.
     999903    2    3    3    0    0  0.95017418047E-01  0.87246175788E-01 -0.56177439416E-02  0.13061857187E+00  0.19734420371E-01 0.  0.
         14    1    1    2    0    0 -0.57402867646E-02  0.47502875141E-02 -0.22374638657E-01  0.23582632987E-01  0.00000000000E+00 0. -1.
     999901    1    3    3    0    0 -0.89277131282E-01 -0.91996463302E-01  0.27992382598E-01  0.88972879515E+00  0.88000000000E+00 0. -1.
        -11    1    4    4    0    0  0.57414789608E-01  0.48385093938E-01 -0.12450814469E-01  0.76110835517E-01  0.51100000000E-03 0. -1.
         11    1    4    4    0    0  0.37602628439E-01  0.38861081849E-01  0.68330705276E-02  0.54507736348E-01  0.51100000000E-03 0.  1.
</event>
<event>
 8    1  0.1207611E+005  0.1043930E+01  0.7957747E-01            NaN
         13   -1    0    0    0    0  0.00000000000E+00  0.00000000000E+00  0.74505805969E-08  0.10566000000E+00  0.10566000000E+00 0.  1.
     999900   -1    0    0    0    0 -0.00000000000E+00 -0.00000000000E+00 -0.74505805969E-08  0.93827000000E+00  0.93827000000E+00 0.  1.
     999902    2    1    2    0    0 -0.62406554314E-02  0.12553374714E-01  0.19393924314E-01  0.10199997410E+01  0.10197189879E+01 0.  0.
     999903    2    3    3    0    0  0.56443800743E-01 -0.11370773754E+00  0.12831835337E-01  0.12875663692E+00  0.17270302077E-01 0.  0.
         14    1    1    2    0    0  0.62406554314E-02 -0.12553374714E-01 -0.19393924314E-01  0.23930259029E-01  0.00000000000E+00 0. -1.
     999901    1    3    3    0    0 -0.62684456174E-01  0.12626111225E+00  0.65620889772E-02  0.89124310405E+00  0.88000000000E+00 0.  1.
        -11    1    4    4    0    0  0.44292872204E-01 -0.71377585727E-01  0.10406266466E-01  0.84647325859E-01  0.51100000000E-03 0.  1.
         11    1    4    4    0    0  0.12150928538E-01 -0.42330151810E-01  0.24255688709E-02  0.44109311057E-01  0.51100000000E-03 0. -1.
</event>
<event>
 8    1  0.1207611E+005  0.1043930E+01  0.7957747E-01            NaN
         13   -1    0    0    0    0  0.00000000000E+00  0.00000000000E+00  0.74505805969E-08  0.10566000000E+00  0.10566000000E+00 0.  1.
     999900   -1    0    0    0    0 -0.00000000000E+00 -0.00000000000E+00 -0.74505805969E-08  0.93827000000E+00  0.93827000000E+00 0. -1.
     999902    2    1    2    0    0 -0.14610799477E-01 -0.12492003790E-01 -0.13327630481E-01  0.10205387334E+01  0.10202706283E+01 0.  0.
     999903    2    3    3    0    0 -0.10269085624E+00 -0.73124478744E-01  0.36326288451E-01  0.13267618485E+00  0.19767889268E-01 0.  0.
         14    1    1    2    0    0  0.14610799477E-01  0.12492003790E-01  0.13327630481E-01  0.23391266624E-01  0.00000000000E+00 0. -1.
     999901    1    3    3    0    0  0.88080056760E-01  0.60632474953E-01 -0.49653918932E-01  0.88786254853E+00  0.88000000000E+00 0.  1.
        -11    1    4    4    0    0 -0.56067067054E-01 -0.37665842555E-01  0.29481983835E-01  0.73699933482E-01  0.51100000000E-03 0. -1.
         11    1    4    4    0    0 -0.46623789183E-01 -0.35458636189E-01  0.68443046167E-02  0.58976251363E-01  0.51100000000E-03 0.  1.
</event>
<event>
 8    1  0.1207611E+005  0.1043930E+01  0.7957747E-01            NaN
         13   -1    0    0    0    0  0.00000000000E+00  0.00000000000E+00  0.74505805969E-08  0.10566000000E+00  0.10566000000E+00 0.  1.
     999900   -1    0    0    0    0 -0.00000000000E+00 -0.00000000000E+00 -0.74505805969E-08  0.93827000000E+00  0.93827000000E+00 0.  1.
     999902    2    1    2    0    0 -0.65144311620E-02 -0.77548734860E-02 -0.21419663749E-01  0.10202365859E+01  0.10199614274E+01 0.  0.
     999903    2    3    3    0    0 -0.82196351747E-02 -0.10611088447E+00  0.71738201074E-01  0.12986857189E+00  0.19808944051E-01 0.  0.
         14    1    1    2    0    0  0.65144311620E-02  0.77548734860E-02  0.21419663749E-01  0.23693414091E-01  0.00000000000E+00 0.  1.
     999901    1    3    3    0    0  0.17052040128E-02  0.98356010986E-01 -0.93157864823E-01  0.89036801402E+00  0.88000000000E+00 0.  1.
        -11    1    4    4    0    0 -0.71502531884E-03 -0.12307222035E-01  0.14746799105E-02  0.12426374260E-01  0.51100000000E-03 0. -1.
         11    1    4    4    0    0 -0.75046098559E-02 -0.93803662438E-01  0.70263521164E-01  0.11744219763E+00  0.51100000000E-03 0.  1.
</event>
<event>
 8    1  0.1207611E+005  0.1043930E+01  0.7957747E-01            NaN
         13   -1    0    0    0    0  0.00000000000E+00  0.00000000000E+00  0.74505805969E-08  0.10566000000E+00  0.10566000000E+00 0. -1.
     999900   -1    0    0    0    0 -0.00000000000E+00 -0.00000000000E+00 -0.74505805969E-08  0.93827000000E+00  0.93827000000E+00 0. -1.
     999902    2    1    2    0    0  0.78246402990E-02  0.68933775796E-02  0.19826893660E-01  0.10215280054E+01  0.10212823392E+01 0.  0.
     999903    2    3    3    0    0  0.46106241618E-01  0.21235527760E-01 -0.11799549525E+00  0.12986316412E+00  0.19098987948E-01 0.  0.
         14    1    1    2    0    0 -0.78246402990E-02 -0.68933775796E-02 -0.19826893660E-01  0.22401994609E-01  0.00000000000E+00 0.  1.
     999901    1    3    3    0    0 -0.38281601319E-01 -0.14342150180E-01  0.13782238891E+00  0.89166484127E+00  0.88000000000E+00 0.  1.
        -11    1    4    4    0    0  0.43486334322E-01  0.21555058933E-01 -0.94713302386E-01  0.10642627781E+00  0.51100000000E-03 0.  1.
         11    1    4    4    0    0  0.26199072959E-02 -0.31953117330E-03 -0.23282192865E-01  0.23436886313E-01  0.51100000000E-03 0. -1.
</event>
<event>
 8    1  0.1207611E+005  0.1043930E+01  0.7957747E-01            NaN
         13   -1    0    0    0    0  0.00000000000E+00  0.00000000000E+00  0.74505805969E-08  0.10566000000E+00  0.10566000000E+00 0.  1.
     999900   -1    0    0    0    0 -0.00000000000E+00 -0.00000000000E+00 -0.74505805969E-08  0.93827000000E+00  0.93827000000E+00 0. -1.
     999902    2    1    2    0    0  0.73536066141E-02 -0.14527209873E-01 -0.20623620460E-01  0.10176536023E+01  0.10173143099E+01 0.  0.
     999903    2    3    3    0    0  0.23889171859E-02  0.62388256598E-01  0.10656520636E+00  0.12517523570E+00  0.20364059964E-01 0.  0.
         14    1    1    2    0    0 -0.73536066141E-02  0.14527209873E-01  0.20623620460E-01  0.26276397733E-01  0.00000000000E+00 0.  1.
     999901    1    3    3    0    0  0.49646894282E-02 -0.76915466471E-01 -0.12718882682E+00  0.89247836657E+00  0.88000000000E+00 0. -1.
        -11    1    4    4    0    0 -0.15774927250E-02  0.15029931956E-01  0.44526847314E-01  0.47024340406E-01  0.51100000000E-03 0.  1.
         11    1    4    4    0    0  0.39664099109E-02  0.47358324642E-01  0.62038359050E-01  0.78150895293E-01  0.51100000000E-03 0. -1.
</event>
<event>
 8    1  0.1207611E+005  0.1043930E+01  0.7957747E-01            NaN
         13   -1    0    0    0    0  0.00000000000E+00  0.00000000000E+00  0.74505805969E-08  0.10566000000E+00  0.10566000000E+00 0.  1.
     999900   -1    0    0    0    0 -0.00000000000E+00 -0.00000000000E+00 -0.74505805969E-08  0.93827000000E+00  0.93827000000E+00 0. -1.
     999902    2    1    2    0    0 -0.21231553708E-01 -0.91056715582E-02  0.27334437580E-02  0.10206670715E+01  0.10204019341E+01 0.  0.
     999903    2    3    3    0    0 -0.85947593850E-01  0.13040099407E-01  0.98403729706E-01  0.13284309986E+00  0.20173301114E-01 0.  0.
         14    1    1    2    0    0  0.21231553708E-01  0.91056715582E-02 -0.27334437580E-02  0.23262928494E-01  0.00000000000E+00 0.  1.
     999901    1    3    3    0    0  0.64716040143E-01 -0.22145770965E-01 -0.95670285948E-01  0.88782397165E+00  0.88000000000E+00 0. -1.
        -11    1    4    4    0    0 -0.23623596967E-01  0.12100100282E-01  0.35018624857E-01  0.43943736395E-01  0.51100000000E-03 0. -1.
         11    1    4    4    0    0 -0.62323996883E-01  0.93999912527E-03  0.63385104850E-01  0.88899363461E-01  0.51100000000E-03 0.  1.
</event>
<event>
 8    1  0.1207611E+005  0.1043930E+01  0.7957747E-01            NaN
         13   -1    0    0    0    0  0.00000000000E+00  0.00000000000E+00  0.74505805969E-08  0.10566000000E+00  0.10566000000E+00 0. -1.
     999900   -1    0    0    0    0 -0.00000000000E+00 -0.00000000000E+00 -0.74505805969E-08  0.93827000000E+00  0.93827000000E+00 0.  1.
     999902    2    1    2    0    0  0.22136277542E-01 -0.49167757436E-02 -0.72086447943E-02  0.10201360086E+01  0.10198584814E+01 0.  0.
     999903    2    3    3    0    0  0.65796337562E-01 -0.11276097779E+00  0.10718946735E-01  0.13229707540E+00  0.18531707744E-01 0.  0.
         14    1    1    2    0    0 -0.22136277542E-01  0.49167757436E-02  0.72086447943E-02  0.23793991403E-01  0.00000000000E+00 0. -1.
     999901    1    3    3    0    0 -0.43660060021E-01  0.10784420205E+00 -0.17927591530E-01  0.88783893319E+00  0.88000000000E+00 0.  1.
        -11    1    4    4    0    0  0.22343428867E-01 -0.31478107750E-01 -0.45444140445E-02  0.38871749395E-01  0.51100000000E-03 0. -1.
         11    1    4    4    0    0  0.43452908695E-01 -0.81282870043E-01  0.15263360780E-01  0.93425326008E-01  0.51100000000E-03 0.  1.
</event>
<event>
 8    1  0.1207611E+005  0.1043930E+01  0.7957747E-01            NaN
         13   -1    0    0    0    0  0.00000000000E+00  0.00000000000E+00  0.74505805969E-08  0.10566000000E+00  0.10566000000E+00 0.  1.
     999900   -1    0    0    0    0 -0.00000000000E+00 -0.00000000000E+00 -0.74505805969E-08  0.93827000000E+00  0.93827000000E+00 0.  1.
     999902    2    1    2    0    0  0.13347701591E-01 -0.65149010274E-03  0.19212231281E-01  0.10205271068E+01  0.10202587321E+01 0.  0.
     999903    2    3    3    0    0  0.84140405344E-02  0.87936399242E-01 -0.91436382148E-01  0.12917124592E+00  0.22825258015E-01 0.  0.
         14    1    1    2    0    0 -0.13347701591E-01  0.65149010274E-03 -0.19212231281E-01  0.23402893152E-01  0.00000000000E+00 0. -1.
     999901    1    3    3    0    0  0.49336610562E-02 -0.88587889345E-01  0.11064861343E+00  0.89135586092E+00  0.88000000000E+00 0. -1.
        -11    1    4    4    0    0 -0.99054737664E-03  0.58687610474E-01 -0.71650187340E-01  0.92624118210E-01  0.51100000000E-03 0. -1.
         11    1    4    4    0    0  0.94045879110E-02  0.29248788768E-01 -0.19786194808E-01  0.36547127714E-01  0.51100000000E-03 0.  1.
</event>
<event>
 8    1  0.1207611E+005  0.1043930E+01  0.7957747E-01            NaN
         13   -1    0    0    0    0  0.00000000000E+00  0.00000000000E+00  0.74505805969E-08  0.10566000000E+00  0.10566000000E+00 0. -1.
     999900   -1    0    0    0    0 -0.00000000000E+00 -0.00000000000E+00 -0.74505805969E-08  0.93827000000E+00  0.93827000000E+00 0.  1.
     999902    2    1    2    0    0  0.78180335496E-02  0.18512452834E-01 -0.12710843056E-01  0.10201518989E+01  0.10198747466E+01 0.  0.
     999903    2    3    3    0    0  0.75856334083E-01  0.61583647502E-01 -0.88324572055E-01  0.13324616880E+00  0.20163888801E-01 0.  0.
         14    1    1    2    0    0 -0.78180335496E-02 -0.18512452834E-01  0.12710843056E-01  0.23778101054E-01  0.00000000000E+00 0.  1.
     999901    1    3    3    0    0 -0.68038300533E-01 -0.43071194668E-01  0.75613728999E-01  0.88690573014E+00  0.88000000000E+00 0. -1.
        -11    1    4    4    0    0  0.56990094324E-01  0.54194687649E-01 -0.62736363688E-01  0.10060341679E+00  0.51100000000E-03 0.  1.
         11    1    4    4    0    0  0.18866239759E-01  0.73889598530E-02 -0.25588208368E-01  0.32642752010E-01  0.51100000000E-03 0. -1.
</event>
<event>
 7    1  0.1207611E+005  0.1043930E+01  0.7957747E-01            NaN
         13   -1    0    0    0    0  0.00000000000E+00  0.00000000000E+00  0.74505805969E-08  0.10566000000E+00  0.10566000000E+00 0.  1.
     999900   -1    0    0    0    0 -0.00000000000E+00 -0.00000000000E+00 -0.74505805969E-08  0.93827000000E+00  0.93827000000E+00 0.  1.
     999902    2    1    2    0    0  0.10818670780E-01 -0.18382340137E-01  0.98557057403E-02  0.10204334257E+01  0.10201628730E+01 0.  0.
         14    1    1    2    0    0 -0.10818670780E-01  0.18382340137E-01 -0.98557057403E-02  0.23496574261E-01  0.00000000000E+00 0.  1.
     999901    1    3    3    0    0 -0.56678516364E-01 -0.11854876310E+00 -0.17416169976E-01  0.88992673093E+00  0.88000000000E+00 0. -1.
        -11    1    3    3    0    0  0.16067209635E-01  0.32147805202E-01 -0.10199285025E-01  0.37362054826E-01  0.51100000000E-03 0. -1.
         11    1    3    3    0    0  0.51429977509E-01  0.68018617763E-01  0.37471160741E-01  0.93144639981E-01  0.51100000000E-03 0.  1.
</event>
<event>
 8    1  0.1207611E+005  0.1043930E+01  0.7957747E-01            NaN
         13   -1    0    0    0    0  0.00000000000E+00  0.00000000000E+00  0.74505805969E-08  0.10566000000E+00  0.10566000000E+00 0. -1.
     999900   -1    0    0    0    0 -0.00000000000E+00 -0.00000000000E+00 -0.74505805969E-08  0.93827000000E+00  0.93827000000E+00 0.  1.
     999902    2    1    2    0    0  0.17131398023E-01 -0.11211262535E-01 -0.61357051596E-02  0.10225565566E+01  0.10223331587E+01 0.  0.
     999903    2    3    3    0    0 -0.24381946684E-01  0.17028607332E-01  0.12631206038E+00  0.13122987200E+00  0.19547120395E-01 0.  0.
         14    1    1    2    0    0 -0.17131398023E-01  0.11211262535E-01  0.61357051596E-02  0.21373443421E-01  0.00000000000E+00 0.  1.
     999901    1    3    3    0    0  0.41513344707E-01 -0.28239869868E-01 -0.13244776554E+00  0.89132668458E+00  0.88000000000E+00 0.  1.
        -11    1    4    4    0    0 -0.14805445339E-01  0.14962422866E-01  0.11145328068E+00  0.11342473366E+00  0.51100000000E-03 0. -1.
         11    1    4    4    0    0 -0.95765013450E-02  0.20661844667E-02  0.14858779705E-01  0.17805138348E-01  0.51100000000E-03 0.  1.
</event>
<event>
 8    1  0.1207611E+005  0.1043930E+01  0.7957747E-01            NaN
         13   -1    0    0    0    0  0.00000000000E+00  0.00000000000E+00  0.74505805969E-08  0.10566000000E+00  0.10566000000E+00 0. -1.
     999900   -1    0    0    0    0 -0.00000000000E+00 -0.00000000000E+00 -0.74505805969E-08  0.93827000000E+00  0.93827000000E+00 0.  1.
     999902    2    1    2    0    0  0.88586929639E-02  0.47284848481E-02 -0.21756990445E-01  0.10199674951E+01  0.10196859758E+01 0.  0.
     999903    2    3    3    0    0 -0.50161964169E-02 -0.52347761628E-01 -0.12005159906E+00  0.13254874353E+00  0.19782128348E-01 0.  0.
         14    1    1    2    0    0 -0.88586929639E-02 -0.47284848481E-02  0.21756990445E-01  0.23962504945E-01  0.00000000000E+00 0. -1.
     999901    1    3    3    0    0  0.13874889381E-01  0.57076246476E-01  0.98294608614E-01  0.88741875152E+00  0.88000000000E+00 0. -1.
        -11    1    4    4    0    0 -0.50156907735E-02 -0.50491235804E-01 -0.97487805524E-01  0.10990293624E+00  0.51100000000E-03 0.  1.
         11    1    4    4    0    0 -0.50564340601E-06 -0.18565258240E-02 -0.22563793536E-01  0.22645807297E-01  0.51100000000E-03 0. -1.
</event>
<event>
 8    1  0.1207611E+005  0.1043930E+01  0.7957747E-01            NaN
         13   -1    0    0    0    0  0.00000000000E+00  0.00000000000E+00  0.74505805969E-08  0.10566000000E+00  0.10566000000E+00 0.  1.
     999900   -1    0    0    0    0 -0.00000000000E+00 -0.00000000000E+00 -0.74505805969E-08  0.93827000000E+00  0.93827000000E+00 0.  1.
     999902    2    1    2    0    0  0.13326058959E-02  0.17127649241E-01 -0.17105896268E-01  0.10196865701E+01  0.10193983310E+01 0.  0.
     999903    2    3    3    0    0  0.96755139105E-01 -0.31330132396E-01  0.75680563571E-01  0.12836006225E+00  0.20140102732E-01 0.  0.
         14    1    1    2    0    0 -0.13326058959E-02 -0.17127649241E-01  0.17105896268E-01  0.24243429917E-01  0.00000000000E+00 0. -1.
     999901    1    3    3    0    0 -0.95422533209E-01  0.48457781637E-01 -0.92786459840E-01  0.89132650784E+00  0.88000000000E+00 0. -1.
        -11    1    4    4    0    0  0.97068866549E-01 -0.29058335681E-01  0.74014834049E-01  0.12547991276E+00  0.51100000000E-03 0. -1.
         11    1    4    4    0    0 -0.31372744436E-03 -0.22717967150E-02  0.16657295228E-02  0.28801494869E-02  0.51100000000E-03 0.  1.
</event>
<event>
 8    1  0.1207611E+005  0.1043930E+01  0.7957747E-01            NaN
         13   -1    0    0    0    0  0.00000000000E+00  0.00000000000E+00  0.74505805969E-08  0.10566000000E+00  0.10566000000E+00 0.  1.
     999900   -1    0    0    0    0 -0.00000000000E+00 -0.00000000000E+00 -0.74505805969E-08  0.93827000000E+00  0.93827000000E+00 0. -1.
     999902    2    1    2    0    0 -0.23250839096E-01 -0.32652988424E-02  0.11850223030E-02  0.10204211086E+01  0.10201502688E+01 0.  0.
     999903    2    3    3    0    0 -0.63866903874E-01  0.20282985300E-01 -0.11192553561E+00  0.13194027895E+00  0.19761851805E-01 0.  0.
         14    1    1    2    0    0  0.23250839096E-01  0.32652988424E-02 -0.11850223030E-02  0.23508891362E-01  0.00000000000E+00 0.  1.
     999901    1    3    3    0    0  0.40616064778E-01 -0.23548284143E-01  0.11311055791E+00  0.88848082968E+00  0.88000000000E+00 0.  1.
        -11    1    4    4    0    0 -0.27827684945E-01  0.13490543042E-02 -0.58240284916E-01  0.64563084693E-01  0.51100000000E-03 0.  1.
         11    1    4    4    0    0 -0.36039218929E-01  0.18933930996E-01 -0.53685250690E-01  0.67377194262E-01  0.51100000000E-03 0. -1.
</event>
<event>
 8    1  0.1207611E+005  0.1043930E+01  0.7957747E-01            NaN
         13   -1    0    0    0    0  0.00000000000E+00  0.00000000000E+00  0.74505805969E-08  0.10566000000E+00  0.10566000000E+00 0. -1.
     999900   -1    0    0    0    0 -0.00000000000E+00 -0.00000000000E+00 -0.74505805969E-08  0.93827000000E+00  0.93827000000E+00 0. -1.
     999902    2    1    2    0    0  0.24053836308E-02 -0.23759958968E-01  0.35420986184E-02  0.10197873410E+01  0.10195015218E+01 0.  0.
     999903    2    3    3    0    0 -0.10026480508E+00  0.20616221264E-01 -0.76188987431E-01  0.12913170660E+00  0.19803437216E-01 0.  0.
         14    1    1    2    0    0 -0.24053836308E-02  0.23759958968E-01 -0.35420986184E-02  0.24142658992E-01  0.00000000000E+00 0.  1.
     999901    1    3    3    0    0  0.10267018871E+00 -0.44376180232E-01  0.79731086050E-01  0.89065563441E+00  0.88000000000E+00 0.  1.
        -11    1    4    4    0    0 -0.45053569698E-01  0.13905191714E-02 -0.25738194259E-01  0.51908317742E-01  0.51100000000E-03 0. -1.
         11    1    4    4    0    0 -0.55211235386E-01  0.19225702092E-01 -0.50450793173E-01  0.77223388857E-01  0.51100000000E-03 0.  1.
</event>
<event>
 8    1  0.1207611E+005  0.1043930E+01  0.7957747E-01            NaN
         13   -1    0    0    0    0  0.00000000000E+00  0.00000000000E+00  0.74505805969E-08  0.10566000000E+00  0.10566000000E+00 0.  1.
     999900   -1    0    0    0    0 -0.00000000000E+00 -0.00000000000E+00 -0.74505805969E-08  0.93827000000E+00  0.93827000000E+00 0. -1.
     999902    2    1    2    0    0  0.13848058676E-01 -0.10265347964E-01 -0.70082729001E-02  0.10253218838E+01  0.10251530147E+01 0.  0.
     999903    2    3    3    0    0  0.58332034485E-01 -0.99223797417E-01 -0.70105897485E-01  0.13747407027E+00  0.27134754723E-01 0.  0.
         14    1    1    2    0    0 -0.13848058676E-01  0.10265347964E-01  0.70082729001E-02  0.18608116158E-01  0.00000000000E+00 0. -1.
     999901    1    3    3    0    0 -0.44483975809E-01  0.88958449452E-01  0.63097624585E-01  0.88784781357E+00  0.88000000000E+00 0. -1.
        -11    1    4    4    0    0  0.24943276237E-01 -0.64132249808E-01 -0.32251637674E-01  0.75996985127E-01  0.51100000000E-03 0. -1.
         11    1    4    4    0    0  0.33388758248E-01 -0.35091547609E-01 -0.37854259812E-01  0.61477085144E-01  0.51100000000E-03 0.  1.
</event>
<event>
 8    1  0.1207611E+005  0.1043930E+01  0.7957747E-01            NaN
         13   -1    0    0    0    0  0.00000000000E+00  0.00000000000E+00  0.74505805969E-08  0.10566000000E+00  0.10566000000E+00 0.  1.
     999900   -1    0    0    0    0 -0.00000000000E+00 -0.00000000000E+00 -0.74505805969E-08  0.93827000000E+00  0.93827000000E+00 0.  1.
     999902    2    1    2    0    0 -0.15466221695E-01 -0.13300869314E-01 -0.12104090307E-01  0.10202102584E+01  0.10199344809E+01 0.  0.
     999903    2    3    3    0    0  0.50769005995E-01 -0.74918888480E-01  0.89488369131E-01  0.12975817466E+00  0.25272195405E-01 0.  0.
         14    1    1    2    0    0  0.15466221695E-01  0.13300869314E-01  0.12104090307E-01  0.23719741571E-01  0.00000000000E+00 0.  1.
     999901    1    3    3    0    0 -0.66235227690E-01  0.61618019166E-01 -0.10159245944E+00  0.89045208377E+00  0.88000000000E+00 0.  1.
        -11    1    4    4    0    0  0.20160221111E-01 -0.34712413485E-01  0.56866157616E-01  0.69608958964E-01  0.51100000000E-03 0. -1.
         11    1    4    4    0    0  0.30608784885E-01 -0.40206474996E-01  0.32622211516E-01  0.60149215696E-01  0.51100000000E-03 0.  1.
</event>
<event>
 8    1  0.1207611E+005  0.1043930E+01  0.7957747E-01            NaN
         13   -1    0    0    0    0  0.00000000000E+00  0.00000000000E+00  0.74505805969E-08  0.10566000000E+00  0.10566000000E+00 0.  1.
     999900   -1    0    0    0    0 -0.00000000000E+00 -0.00000000000E+00 -0.74505805969E-08  0.93827000000E+00  0.93827000000E+00 0. -1.
     999902    2    1    2    0    0  0.14051625255E-01 -0.10317362529E-01  0.15008784969E-01  0.10209265270E+01  0.10206673375E+01 0.  0.
     999903    2    3    3    0    0 -0.66007455667E-01 -0.85166814773E-01 -0.70061043361E-01  0.13005685496E+00  0.19896361073E-01 0.  0.
         14    1    1    2    0    0 -0.14051625255E-01  0.10317362529E-01 -0.15008784969E-01  0.23003472957E-01  0.00000000000E+00 0. -1.
     999901    1    3    3    0    0  0.80059080921E-01  0.74849452244E-01  0.85069828330E-01  0.89086967208E+00  0.88000000000E+00 0.  1.
        -11    1    4    4    0    0 -0.35734261953E-01 -0.59845646559E-01 -0.39335474440E-01  0.80037363524E-01  0.51100000000E-03 0.  1.
         11    1    4    4    0    0 -0.30273193714E-01 -0.25321168213E-01 -0.30725568922E-01  0.50019491439E-01  0.51100000000E-03 0. -1.
</event>
<event>
 8    1  0.1207611E+005  0.1043930E+01  0.7957747E-01            NaN
         13   -1    0    0    0    0  0.00000000000E+00  0.00000000000E+00  0.74505805969E-08  0.10566000000E+00  0.10566000000E+00 0. -1.
     999900   -1    0    0    0    0 -0.00000000000E+00 -0.00000000000E+00 -0.74505805969E-08  0.93827000000E+00  0.93827000000E+00 0.  1.
     999902    2    1    2    0    0  0.24455708575E-01  0.35125532127E-02 -0.42140933667E-03  0.10192197329E+01  0.10189201474E+01 0.  0.
     999903    2    3    3    0    0 -0.17940498129E-01 -0.55966567169E-01  0.11258878163E+00  0.12899138732E+00  0.22548306777E-01 0.  0.
         14    1    1    2    0    0 -0.24455708575E-01 -0.35125532127E-02  0.42140933667E-03  0.24710267053E-01  0.00000000000E+00 0.  1.
     999901    1    3    3    0    0  0.42396206704E-01  0.59479120382E-01 -0.11301019097E+00  0.89022834563E+00  0.88000000000E+00 0.  1.
        -11    1    4    4    0    0  0.42869717201E-02 -0.16960492950E-01  0.39665816573E-01  0.43355213909E-01  0.51100000000E-03 0. -1.
         11    1    4    4    0    0 -0.22227469849E-01 -0.39006074220E-01  0.72922965058E-01  0.85636173407E-01  0.51100000000E-03 0.  1.
</event>
<event>
 8    1  0.1207611E+005  0.1043930E+01  0.7957747E-01            NaN
         13   -1    0    0    0    0  0.00000000000E+00  0.00000000000E+00  0.74505805969E-08  0.10566000000E+00  0.10566000000E+00 0.  1.
     999900   -1    0    0    0    0 -0.00000000000E+00 -0.00000000000E+00 -0.74505805969E-08  0.93827000000E+00  0.93827000000E+00 0.  1.
     999902    2    1    2    0    0 -0.19443529227E-01  0.14082654524E-01 -0.20305821827E-03  0.10199213928E+01  0.10196387764E+01 0.  0.
     999903    2    3    3    0    0 -0.99697184983E-01  0.80792942666E-01  0.30628284110E-01  0.13321880259E+00  0.18496737496E-01 0.  0.
         14    1    1    2    0    0  0.19443529227E-01 -0.14082654524E-01  0.20305821827E-03  0.24008607205E-01  0.00000000000E+00 0. -1.
     999901    1    3    3    0    0  0.80253655755E-01 -0.66710288142E-01 -0.30831342328E-01  0.88670259020E+00  0.88000000000E+00 0.  1.
        -11    1    4    4    0    0 -0.43174387007E-01  0.32776526487E-01  0.22187125640E-01  0.58573526846E-01  0.51100000000E-03 0. -1.
         11    1    4    4    0    0 -0.56522797976E-01  0.48016416179E-01  0.84411584697E-02  0.74645275744E-01  0.51100000000E-03 0.  1.
</event>
<event>
 8    1  0.1207611E+005  0.1043930E+01  0.7957747E-01            NaN
         13   -1    0    0    0    0  0.00000000000E+00  0.00000000000E+00  0.74505805969E-08  0.10566000000E+00  0.10566000000E+00 0.  1.
     999900   -1    0    0    0    0 -0.00000000000E+00 -0.00000000000E+00 -0.74505805969E-08  0.93827000000E+00  0.93827000000E+00 0. -1.
     999902    2    1    2    0    0 -0.11626535545E-02 -0.20059192400E-01  0.18450928950E-01  0.10166507085E+01  0.10162846567E+01 0.  0.
     999903    2    3    3    0    0  0.30614501794E-01 -0.12271461957E+00  0.22957551404E-01  0.13010221355E+00  0.20085099652E-01 0.  0.
         14    1    1    2    0    0  0.11626535545E-02  0.20059192400E-01 -0.18450928950E-01  0.27279291452E-01  0.00000000000E+00 0. -1.
     999901    1    3    3    0    0 -0.31777155348E-01  0.10265542717E+00 -0.45066224540E-02  0.88654849499E+00  0.88000000000E+00 0.  1.
        -11    1    4    4    0    0  0.70835255333E-03 -0.39699562498E-01  0.46108531795E-02  0.39975969206E-01  0.51100000000E-03 0.  1.
         11    1    4    4    0    0  0.29906149241E-01 -0.83015057075E-01  0.18346698224E-01  0.90126244348E-01  0.51100000000E-03 0. -1.
</event>
<event>
 8    1  0.1207611E+005  0.1043930E+01  0.7957747E-01            NaN
         13   -1    0    0    0    0  0.00000000000E+00  0.00000000000E+00  0.74505805969E-08  0.10566000000E+00  0.10566000000E+00 0. -1.
     999900   -1    0    0    0    0 -0.00000000000E+00 -0.00000000000E+00 -0.74505805969E-08  0.93827000000E+00  0.93827000000E+00 0. -1.
     999902    2    1    2    0    0  0.95707626204E-03 -0.22949726575E-01  0.25508363161E-02  0.10208191214E+01  0.10205574780E+01 0.  0.
     999903    2    3    3    0    0  0.85373740429E-02  0.10933090430E+00 -0.63281792023E-01  0.12846853939E+00  0.21758837735E-01 0.  0.
         14    1    1    2    0    0 -0.95707626204E-03  0.22949726575E-01 -0.25508363161E-02  0.23110878623E-01  0.00000000000E+00 0. -1.
     999901    1    3    3    0    0 -0.75802977809E-02 -0.13228063088E+00  0.65832628339E-01  0.89235058199E+00  0.88000000000E+00 0.  1.
        -11    1    4    4    0    0  0.15733022562E-01  0.83638806529E-01 -0.48855928769E-01  0.98133281069E-01  0.51100000000E-03 0. -1.
         11    1    4    4    0    0 -0.71956485193E-02  0.25692097775E-01 -0.14425863254E-01  0.30335258319E-01  0.51100000000E-03 0.  1.
</event>
<event>
 8    1  0.1207611E+005  0.1043930E+01  0.7957747E-01            NaN
         13   -1    0    0    0    0  0.00000000000E+00  0.00000000000E+00  0.74505805969E-08  0.10566000000E+00  0.10566000000E+00 0.  1.
     999900   -1    0    0    0    0 -0.00000000000E+00 -0.00000000000E+00 -0.74505805969E-08  0.93827000000E+00  0.93827000000E+00 0. -1.
     999902    2    1    2    0    0 -0.22618975405E-01  0.15291332235E-02 -0.56123495049E-02  0.10205750270E+01  0.10203077629E+01 0.  0.
     999903    2    3    3    0    0 -0.13028114015E+00  0.16653497872E-01  0.13226743709E-01  0.13368450413E+00  0.21120734475E-01 0.  0.
         14    1    1    2    0    0  0.22618975405E-01 -0.15291332235E-02  0.56123495049E-02  0.23354972999E-01  0.00000000000E+00 0. -1.
     999901    1    3    3    0    0  0.10766216475E+00 -0.15124364649E-01 -0.18839093214E-01  0.88689052287E+00  0.88000000000E+00 0.  1.
        -11    1    4    4    0    0 -0.24481066034E-01  0.57731466167E-03  0.10459507191E-01  0.26633030208E-01  0.51100000000E-03 0.  1.
         11    1    4    4    0    0 -0.10580007412E+00  0.16076183211E-01  0.27672365177E-02  0.10705147392E+00  0.51100000000E-03 0. -1.
</event>
<event>
 8    1  0.1207611E+005  0.1043930E+01  0.7957747E-01            NaN
         13   -1    0    0    0    0  0.00000000000E+00  0.00000000000E+00  0.74505805969E-08  0.10566000000E+00  0.10566000000E+00 0. -1.
     999900   -1    0    0    0    0 -0.00000000000E+00 -0.00000000000E+00 -0.74505805969E-08  0.93827000000E+00  0.93827000000E+00 0. -1.
     999902    2    1    2    0    0  0.18902082327E-01  0.57831483600E-02 -0.13382156065E-01  0.10200591889E+01  0.10197798455E+01 0.  0.
     999903    2    3    3    0    0  0.11212723273E+00  0.68404713377E-01  0.14004300805E-02  0.13279884722E+00  0.19541020646E-01 0.  0.
         14    1    1    2    0    0 -0.18902082327E-01 -0.57831483600E-02  0.13382156065E-01  0.23870811092E-01  0.00000000000E+00 0. -1.
     999901    1    3    3    0    0 -0.93225150402E-01 -0.62621565017E-01 -0.14782586146E-01  0.88726034168E+00  0.88000000000E+00 0. -1.
        -11    1    4    4    0    0  0.76125424533E-01  0.38968581800E-01 -0.58911816827E-02  0.85723962638E-01  0.51100000000E-03 0.  1.
         11    1    4    4    0    0  0.36001808196E-01  0.29436131577E-01  0.72916117632E-02  0.47074884585E-01  0.51100000000E-03 0. -1.
</event>
<event>
 8    1  0.1207611E+005  0.1043930E+01  0.7957747E-01            NaN
         13   -1    0    0    0    0  0.00000000000E+00  0.00000000000E+00  0.74505805969E-08  0.10566000000E+00  0.10566000000E+00 0.  1.
     999900   -1    0    0    0    0 -0.00000000000E+00 -0.00000000000E+00 -0.74505805969E-08  0.93827000000E+00  0.93827000000E+00 0. -1.
     999902    2    1    2    0    0  0.85012016709E-02  0.21412995430E-01 -0.28756225140E-02  0.10207124203E+01  0.10204483274E+01 0.  0.
     999903    2    3    3    0    0  0.81929225659E-01 -0.48849426455E-02 -0.10140218904E+00  0.13178568508E+00  0.18676246069E-01 0.  0.
         14    1    1    2    0    0 -0.85012016709E-02 -0.21412995430E-01  0.28756225140E-02  0.23217579718E-01  0.00000000000E+00 0. -1.
     999901    1    3    3    0    0 -0.73428023989E-01  0.26297938075E-01  0.98526566524E-01  0.88892673521E+00  0.88000000000E+00 0.  1.
        -11    1    4    4    0    0  0.25707564673E-01 -0.10159967700E-01 -0.35583477746E-01  0.45061611541E-01  0.51100000000E-03 0. -1.
         11    1    4    4    0    0  0.56221660986E-01  0.52750250543E-02 -0.65818711292E-01  0.86724073535E-01  0.51100000000E-03 0.  1.
</event>
<event>
 8    1  0.1207611E+005  0.1043930E+01  0.7957747E-01            NaN
         13   -1    0    0    0    0  0.00000000000E+00  0.00000000000E+00  0.74505805969E-08  0.10566000000E+00  0.10566000000E+00 0. -1.
     999900   -1    0    0    0    0 -0.00000000000E+00 -0.00000000000E+00 -0.74505805969E-08  0.93827000000E+00  0.93827000000E+00 0.  1.
     999902    2    1    2    0    0 -0.24561415258E-01 -0.20449970633E-02  0.42394801323E-02  0.10189216349E+01  0.10186146866E+01 0.  0.
     999903    2    3    3    0    0 -0.28942388889E-01  0.11476241637E+00  0.49897558856E-01  0.13001903906E+00  0.20176968365E-01 0.  0.
         14    1    1    2    0    0  0.24561415258E-01  0.20449970633E-02 -0.42394801323E-02  0.25008365086E-01  0.00000000000E+00 0.  1.
     999901    1    3    3    0    0  0.43809736307E-02 -0.11680741343E+00 -0.45658078724E-01  0.88890259585E+00  0.88000000000E+00 0.  1.
        -11    1    4    4    0    0 -0.56301137665E-02  0.62018942599E-01  0.28799257260E-01  0.68612723032E-01  0.51100000000E-03 0. -1.
         11    1    4    4    0    0 -0.23312275122E-01  0.52743473772E-01  0.21098301596E-01  0.61406316028E-01  0.51100000000E-03 0.  1.
</event>
<event>
 8    1  0.1207611E+005  0.1043930E+01  0.7957747E-01            NaN
         13   -1    0    0    0    0  0.00000000000E+00  0.00000000000E+00  0.74505805969E-08  0.10566000000E+00  0.10566000000E+00 0. -1.
     999900   -1    0    0    0    0 -0.00000000000E+00 -0.00000000000E+00 -0.74505805969E-08  0.93827000000E+00  0.93827000000E+00 0. -1.
     999902    2    1    2    0    0 -0.67007896398E-02  0.23054770791E-01 -0.16349193432E-02  0.10198655865E+01  0.10195816389E+01 0.  0.
     999903    2    3    3    0    0 -0.42415280101E-01  0.12443567997E+00 -0.75208609239E-02  0.13330579835E+00  0.20750375654E-01 0.  0.
         14    1    1    2    0    0  0.67007896398E-02 -0.23054770791E-01  0.16349193432E-02  0.24064413546E-01  0.00000000000E+00 0.  1.
     999901    1    3    3    0    0  0.35714490461E-01 -0.10138090918E+00  0.58859415807E-02  0.88655978810E+00  0.88000000000E+00 0. -1.
        -11    1    4    4    0    0 -0.13773594905E-01  0.71543036825E-01 -0.17757132826E-02  0.72880260108E-01  0.51100000000E-03 0.  1.
         11    1    4    4    0    0 -0.28641685196E-01  0.52892643143E-01 -0.57451476413E-02  0.60425538243E-01  0.51100000000E-03 0. -1.
</event>
<event>
 8    1  0.1207611E+005  0.1043930E+01  0.7957747E-01            NaN
         13   -1    0    0    0    0  0.00000000000E+00  0.00000000000E+00  0.74505805969E-08  0.10566000000E+00  0.10566000000E+00 0.  1.
     999900   -1    0    0    0    0 -0.00000000000E+00 -0.00000000000E+00 -0.74505805969E-08  0.93827000000E+00  0.93827000000E+00 0. -1.
     999902    2    1    2    0    0  0.98902925897E-03  0.77983728276E-02  0.23303760750E-01  0.10193361377E+01  0.10190394024E+01 0.  0.
     999903    2    3    3    0    0  0.12388779470E+00  0.11242002733E-01 -0.28903320658E-01  0.12925662188E+00  0.19932487381E-01 0.  0.
         14    1    1    2    0    0 -0.98902925897E-03 -0.77983728276E-02 -0.23303760750E-01  0.24593862298E-01  0.00000000000E+00 0. -1.
     999901    1    3    3    0    0 -0.12289876544E+00 -0.34436299052E-02  0.52207081408E-01  0.89007951582E+00  0.88000000000E+00 0.  1.
        -11    1    4    4    0    0  0.10439097568E+00  0.15262076869E-01 -0.19726542685E-01  0.10733035172E+00  0.51100000000E-03 0.  1.
         11    1    4    4    0    0  0.19496819028E-01 -0.40200741360E-02 -0.91767779724E-02  0.21926270162E-01  0.51100000000E-03 0. -1.
</event>
<event>
 8    1  0.1207611E+005  0.1043930E+01  0.7957747E-01            NaN
         13   -1    0    0    0    0  0.00000000000E+00  0.00000000000E+00  0.74505805969E-08  0.10566000000E+00  0.10566000000E+00 0. -1.
     999900   -1    0    0    0    0 -0.00000000000E+00 -0.00000000000E+00 -0.74505805969E-08  0.93827000000E+00  0.93827000000E+00 0.  1.
     999902    2    1    2    0    0 -0.16964932810E-01  0.16893344638E-01 -0.10452392674E-02  0.10199657232E+01  0.10196841618E+01 0.  0.
     999903    2    3    3    0    0 -0.47611695067E-01  0.20784259415E-01 -0.11935287264E+00  0.13151141408E+00  0.18742595299E-01 0.  0.
         14    1    1    2    0    0  0.16964932810E-01 -0.16893344638E-01  0.10452392674E-02  0.23964276818E-01  0.00000000000E+00 0.  1.
     999901    1    3    3    0    0  0.30646762258E-01 -0.38909147774E-02  0.11830763337E+00  0.88845430911E+00  0.88000000000E+00 0. -1.
        -11    1    4    4    0    0 -0.12329964324E-01 -0.28013862324E-02 -0.31382453904E-01  0.33837779464E-01  0.51100000000E-03 0. -1.
         11    1    4    4    0    0 -0.35281730743E-01  0.23585645647E-01 -0.87970418736E-01  0.97673634612E-01  0.51100000000E-03 0.  1.
</event>
<event>
 8    1  0.1207611E+005  0.1043930E+01  0.7957747E-01            NaN
         13   -1    0    0    0    0  0.00000000000E+00  0.00000000000E+00  0.74505805969E-08  0.10566000000E+00  0.10566000000E+00 0.  1.
     999900   -1    0    0    0    0 -0.00000000000E+00 -0.00000000000E+00 -0.74505805969E-08  0.93827000000E+00  0.93827000000E+00 0. -1.
     999902    2    1    2    0    0  0.24647565571E-03 -0.10272026583E-02  0.23765741446E-01  0.10201407932E+01  0.10198633788E+01 0.  0.
     999903    2    3    3    0    0  0.99640634948E-01 -0.64628479668E-01  0.52450119794E-01  0.13180126635E+00  0.22703793234E-01 0.  0.
         14    1    1    2    0    0 -0.24647565571E-03  0.10272026583E-02 -0.23765741446E-01  0.23789206839E-01  0.00000000000E+00 0. -1.
     999901    1    3    3    0    0 -0.99394159292E-01  0.63601277010E-01 -0.28684378348E-01  0.88833952681E+00  0.88000000000E+00 0. -1.
        -11    1    4    4    0    0  0.87809701959E-01 -0.47606496941E-01  0.39879750651E-01  0.10755267520E+00  0.51100000000E-03 0. -1.
         11    1    4    4    0    0  0.11830932989E-01 -0.17021982728E-01  0.12570369143E-01  0.24248591150E-01  0.51100000000E-03 0.  1.
</event>
<event>
 8    1  0.1207611E+005  0.1043930E+01  0.7957747E-01            NaN
         13   -1    0    0    0    0  0.00000000000E+00  0.00000000000E+00  0.74505805969E-08  0.10566000000E+00  0.10566000000E+00 0. -1.
     999900   -1    0    0    0    0 -0.00000000000E+00 -0.00000000000E+00 -0.74505805969E-08  0.93827000000E+00  0.93827000000E+00 0. -1.
     999902    2    1    2    0    0  0.59288005186E-02 -0.14733900683E-01 -0.17138630413E-01  0.10205639743E+01  0.10202964542E+01 0.  0.
     999903    2    3    3    0    0 -0.67935744843E-01 -0.56220888441E-01 -0.97364515321E-01  0.13286282310E+00  0.19915501364E-01 0.  0.
         14    1    1    2    0    0 -0.59288005186E-02  0.14733900683E-01  0.17138630413E-01  0.23366025707E-01  0.00000000000E+00 0. -1.
     999901    1    3    3    0    0  0.73864545362E-01  0.41486987759E-01  0.80225884908E-01  0.88770115119E+00  0.88000000000E+00 0.  1.
        -11    1    4    4    0    0 -0.21325468099E-01 -0.29801459614E-01 -0.35534131974E-01  0.51047411697E-01  0.51100000000E-03 0.  1.
         11    1    4    4    0    0 -0.46610276744E-01 -0.26419428827E-01 -0.61830383347E-01  0.81815411406E-01  0.51100000000E-03 0. -1.
</event>
<event>
 8    1  0.1207611E+005  0.1043930E+01  0.7957747E-01            NaN
         13   -1    0    0    0    0  0.00000000000E+00  0.00000000000E+00  0.74505805969E-08  0.10566000000E+00  0.10566000000E+00 0.  1.
     999900   -1    0    0    0    0 -0.00000000000E+00 -0.00000000000E+00 -0.74505805969E-08  0.93827000000E+00  0.93827000000E+00 0.  1.
     999902    2    1    2    0    0 -0.11605415554E-01  0.41413604482E-03  0.19172873520E-01  0.10215144639E+01  0.10212684974E+01 0.  0.
     999903    2    3    3    0    0 -0.70010003064E-02  0.73929795581E-01  0.10957317415E+00  0.13382196807E+00  0.19682732643E-01 0.  0.
         14    1    1    2    0    0  0.11605415554E-01 -0.41413604482E-03 -0.19172873520E-01  0.22415536082E-01  0.00000000000E+00 0. -1.
     999901    1    3    3    0    0 -0.46044152475E-02 -0.73515659536E-01 -0.90400300628E-01  0.88769249585E+00  0.88000000000E+00 0.  1.
        -11    1    4    4    0    0 -0.66158116483E-02  0.51002188829E-01  0.90044693365E-01  0.10369812030E+00  0.51100000000E-03 0.  1.
         11    1    4    4    0    0 -0.38518865809E-03  0.22927606752E-01  0.19528480784E-01  0.30123847769E-01  0.51100000000E-03 0. -1.
</event>
<event>
 8    1  0.1207611E+005  0.1043930E+01  0.7957747E-01            NaN
         13   -1    0    0    0    0  0.00000000000E+00  0.00000000000E+00  0.74505805969E-08  0.10566000000E+00  0.10566000000E+00 0.  1.
     999900   -1    0    0    0    0 -0.00000000000E+00 -0.00000000000E+00 -0.74505805969E-08  0.93827000000E+00  0.93827000000E+00 0.  1.
     999902    2    1    2    0    0 -0.73594099767E-02 -0.25836165519E-01 -0.38630346963E-02  0.10167897826E+01  0.10164275038E+01 0.  0.
     999903    2    3    3    0    0 -0.35850797601E-01 -0.36795814419E-01 -0.11682031158E+00  0.12904476319E+00  0.19140377776E-01 0.  0.
         14    1    1    2    0    0  0.73594099767E-02  0.25836165519E-01  0.38630346963E-02  0.27140217409E-01  0.00000000000E+00 0. -1.
     999901    1    3    3    0    0  0.28491387624E-01  0.10959648900E-01  0.11295727688E+00  0.88774501940E+00  0.88000000000E+00 0. -1.
        -11    1    4    4    0    0 -0.18172340900E-01 -0.10921677979E-01 -0.66135476818E-01  0.69452713688E-01  0.51100000000E-03 0. -1.
         11    1    4    4    0    0 -0.17678456701E-01 -0.25874136440E-01 -0.50684834761E-01  0.59592049500E-01  0.51100000000E-03 0.  1.
</event>
<event>
 8    1  0.1207611E+005  0.1043930E+01  0.7957747E-01            NaN
         13   -1    0    0    0    0  0.00000000000E+00  0.00000000000E+00  0.74505805969E-08  0.10566000000E+00  0.10566000000E+00 0. -1.
     999900   -1    0    0    0    0 -0.00000000000E+00 -0.00000000000E+00 -0.74505805969E-08  0.93827000000E+00  0.93827000000E+00 0.  1.
     999902    2    1    2    0    0  0.20731132778E-01  0.84043879584E-02 -0.75427896702E-02  0.10203226435E+01  0.10200495035E+01 0.  0.
     999903    2    3    3    0    0  0.28066995370E-01  0.62734300441E-01  0.10943530064E+00  0.13089056188E+00  0.20806380811E-01 0.  0.
         14    1    1    2    0    0 -0.20731132778E-01 -0.84043879584E-02  0.75427896702E-02  0.23607356464E-01  0.00000000000E+00 0. -1.
     999901    1    3    3    0    0 -0.73358625917E-02 -0.54329912483E-01 -0.11697809031E+00  0.88943208166E+00  0.88000000000E+00 0.  1.
        -11    1    4    4    0    0  0.10762383179E-01  0.25394911001E-01  0.63388331587E-01  0.69130833200E-01  0.51100000000E-03 0. -1.
         11    1    4    4    0    0  0.17304612190E-01  0.37339389440E-01  0.46046969049E-01  0.61759728678E-01  0.51100000000E-03 0.  1.
</event>
<event>
 8    1  0.1207611E+005  0.1043930E+01  0.7957747E-01            NaN
         13   -1    0    0    0    0  0.00000000000E+00  0.00000000000E+00  0.74505805969E-08  0.10566000000E+00  0.10566000000E+00 0. -1.
     999900   -1    0    0    0    0 -0.00000000000E+00 -0.00000000000E+00 -0.74505805969E-08  0.93827000000E+00  0.93827000000E+00 0. -1.
     999902    2    1    2    0    0  0.68635651788E-02 -0.15956150076E-01 -0.14890012868E-01  0.10210516317E+01  0.10207952855E+01 0.  0.
     999903    2    3    3    0    0  0.73051634928E-01 -0.43263498734E-01 -0.10161149428E+00  0.13389484331E+00  0.19866091899E-01 0.  0.
         14    1    1    2    0    0 -0.68635651788E-02  0.15956150076E-01  0.14890012868E-01  0.22878368286E-01  0.00000000000E+00 0.  1.
     999901    1    3    3    0    0 -0.66188069749E-01  0.27307348658E-01  0.86721481414E-01  0.88715678840E+00  0.88000000000E+00 0.  1.
        -11    1    4    4    0    0  0.24617159541E-01 -0.45185188119E-02 -0.25920725721E-01  0.36035630965E-01  0.51100000000E-03 0.  1.
         11    1    4    4    0    0  0.48434475387E-01 -0.38744979922E-01 -0.75690768560E-01  0.97859212348E-01  0.51100000000E-03 0. -1.
</event>
<event>
 8    1  0.1207611E+005  0.1043930E+01  0.7957747E-01            NaN
         13   -1    0    0    0    0  0.00000000000E+00  0.00000000000E+00  0.74505805969E-08  0.10566000000E+00  0.10566000000E+00 0.  1.
     999900   -1    0    0    0    0 -0.00000000000E+00 -0.00000000000E+00 -0.74505805969E-08  0.93827000000E+00  0.93827000000E+00 0. -1.
     999902    2    1    2    0    0 -0.17945587427E-01 -0.14228022805E-01 -0.61806619712E-02  0.10202090952E+01  0.10199332903E+01 0.  0.
     999903    2    3    3    0    0 -0.71672413291E-01 -0.77302128808E-01 -0.79062933138E-01  0.13331747833E+00  0.20249658922E-01 0.  0.
         14    1    1    2    0    0  0.17945587427E-01  0.14228022805E-01  0.61806619712E-02  0.23720904778E-01  0.00000000000E+00 0.  1.
     999901    1    3    3    0    0  0.53726825863E-01  0.63074106002E-01  0.72882271167E-01  0.88689161689E+00  0.88000000000E+00 0.  1.
        -11    1    4    4    0    0 -0.63577471067E-02 -0.11728023643E-01 -0.18097005591E-01  0.22488446350E-01  0.51100000000E-03 0.  1.
         11    1    4    4    0    0 -0.65314666184E-01 -0.65574105164E-01 -0.60965927547E-01  0.11082903198E+00  0.51100000000E-03 0. -1.
</event>
<event>
 8    1  0.1207611E+005  0.1043930E+01  0.7957747E-01            NaN
         13   -1    0    0    0    0  0.00000000000E+00  0.00000000000E+00  0.74505805969E-08  0.10566000000E+00  0.10566000000E+00 0.  1.
     999900   -1    0    0    0    0 -0.00000000000E+00 -0.00000000000E+00 -0.74505805969E-08  0.93827000000E+00  0.93827000000E+00 0. -1.
     999902    2    1    2    0    0 -0.79931187577E-02 -0.10723891286E-01  0.20567321256E-01  0.10193962173E+01  0.10191009475E+01 0.  0.
     999903    2    3    3    0    0  0.57045467828E-02  0.11884590105E+00 -0.41544111695E-01  0.12763740052E+00  0.20211450860E-01 0.  0.
         14    1    1    2    0    0  0.79931187577E-02  0.10723891286E-01 -0.20567321256E-01  0.24533782738E-01  0.00000000000E+00 0. -1.
     999901    1    3    3    0    0 -0.13697665541E-01 -0.12956979233E+00  0.62111432951E-01  0.89175881674E+00  0.88000000000E+00 0. -1.
        -11    1    4    4    0    0 -0.67401041187E-02  0.54192870542E-01 -0.14900335900E-01  0.56608986496E-01  0.51100000000E-03 0.  1.
         11    1    4    4    0    0  0.12444650902E-01  0.64653030507E-01 -0.26643775795E-01  0.71028414028E-01  0.51100000000E-03 0. -1.
</event>
<event>
 8    1  0.1207611E+005  0.1043930E+01  0.7957747E-01            NaN
         13   -1    0    0    0    0  0.00000000000E+00  0.00000000000E+00  0.74505805969E-08  0.10566000000E+00  0.10566000000E+00 0.  1.
     999900   -1    0    0    0    0 -0.00000000000E+00 -0.00000000000E+00 -0.74505805969E-08  0.93827000000E+00  0.93827000000E+00 0. -1.
     999902    2    1    2    0    0 -0.18984359563E-01 -0.14028015282E-01  0.10501671289E-02  0.10203017548E+01  0.10200281255E+01 0.  0.
     999903    2    3    3    0    0 -0.66036869018E-01 -0.11353666799E+00  0.11033799518E-01  0.13338823954E+00  0.20475220870E-01 0.  0.
         14    1    1    2    0    0  0.18984359563E-01  0.14028015282E-01 -0.10501671289E-02  0.23628245211E-01  0.00000000000E+00 0. -1.
     999901    1    3    3    0    0  0.47052509456E-01  0.99508652703E-01 -0.99836323896E-02  0.88691351525E+00  0.88000000000E+00 0. -1.
        -11    1    4    4    0    0 -0.22803262188E-01 -0.33730863520E-01  0.12553649694E-01  0.42610035929E-01  0.51100000000E-03 0.  1.
         11    1    4    4    0    0 -0.43233606830E-01 -0.79805804465E-01 -0.15198501752E-02  0.90778203615E-01  0.51100000000E-03 0. -1.
</event>
<event>
 8    1  0.1207611E+005  0.1043930E+01  0.7957747E-01            NaN
         13   -1    0    0    0    0  0.00000000000E+00  0.00000000000E+00  0.74505805969E-08  0.10566000000E+00  0.10566000000E+00 0. -1.
     999900   -1    0    0    0    0 -0.00000000000E+00 -0.00000000000E+00 -0.74505805969E-08  0.93827000000E+00  0.93827000000E+00 0.  1.
     999902    2    1    2    0    0  0.21728288982E-01  0.25817177332E-02 -0.66060429920E-03  0.10220389012E+01  0.10218044311E+01 0.  0.
     999903    2    3    3    0    0  0.87293101465E-01  0.87321431843E-01 -0.48871972797E-01  0.13423041969E+00  0.19601475041E-01 0.  0.
         14    1    1    2    0    0 -0.21728288982E-01 -0.25817177332E-02  0.66060429920E-03  0.21891098798E-01  0.00000000000E+00 0.  1.
     999901    1    3    3    0    0 -0.65564812483E-01 -0.84739714110E-01  0.48211368497E-01  0.88780848151E+00  0.88000000000E+00 0. -1.
        -11    1    4    4    0    0  0.53281831330E-01  0.59392985817E-01 -0.40301233315E-01  0.89392006588E-01  0.51100000000E-03 0. -1.
         11    1    4    4    0    0  0.34011270136E-01  0.27928446027E-01 -0.85707394821E-02  0.44838413107E-01  0.51100000000E-03 0.  1.
</event>
<event>
 8    1  0.1207611E+005  0.1043930E+01  0.7957747E-01            NaN
         13   -1    0    0    0    0  0.00000000000E+00  0.00000000000E+00  0.74505805969E-08  0.10566000000E+00  0.10566000000E+00 0.  1.
     999900   -1    0    0    0    0 -0.00000000000E+00 -0.00000000000E+00 -0.74505805969E-08  0.93827000000E+00  0.93827000000E+00 0.  1.
     999902    2    1    2    0    0 -0.15323054111E-01 -0.15731025470E-01  0.22503601138E-02  0.10218545550E+01  0.10216160758E+01 0.  0.
     999903    2    3    3    0    0  0.10154284948E-01 -0.12628131762E+00 -0.37807766573E-01  0.13366813575E+00  0.19689149775E-01 0.  0.
         14    1    1    2    0    0  0.15323054111E-01  0.15731025470E-01 -0.22503601138E-02  0.22075444962E-01  0.00000000000E+00 0. -1.
     999901    1    3    3    0    0 -0.25477339059E-01  0.11055029215E+00  0.40058126687E-01  0.88818641929E+00  0.88000000000E+00 0. -1.
        -11    1    4    4    0    0  0.13099778641E-01 -0.62436482192E-01 -0.24765894230E-01  0.68436314534E-01  0.51100000000E-03 0. -1.
         11    1    4    4    0    0 -0.29454936931E-02 -0.63844835426E-01 -0.13041872344E-01  0.65231821214E-01  0.51100000000E-03 0.  1.
</event>
<event>
 8    1  0.1207611E+005  0.1043930E+01  0.7957747E-01            NaN
         13   -1    0    0    0    0  0.00000000000E+00  0.00000000000E+00  0.74505805969E-08  0.10566000000E+00  0.10566000000E+00 0. -1.
     999900   -1    0    0    0    0 -0.00000000000E+00 -0.00000000000E+00 -0.74505805969E-08  0.93827000000E+00  0.93827000000E+00 0.  1.
     999902    2    1    2    0    0  0.18756494341E-01 -0.13271027293E-01 -0.63023247652E-02  0.10201046869E+01  0.10198264199E+01 0.  0.
     999903    2    3    3    0    0  0.46839033064E-02  0.11575129986E+00 -0.53795182315E-01  0.12931830949E+00  0.20223777034E-01 0.  0.
         14    1    1    2    0    0 -0.18756494341E-01  0.13271027293E-01  0.63023247652E-02  0.23825313069E-01  0.00000000000E+00 0. -1.
     999901    1    3    3    0    0  0.14072591035E-01 -0.12902232716E+00  0.47492857550E-01  0.89078637745E+00  0.88000000000E+00 0.  1.
        -11    1    4    4    0    0  0.10460519262E-01  0.80703980521E-01 -0.43781058825E-01  0.92409940850E-01  0.51100000000E-03 0.  1.
         11    1    4    4    0    0 -0.57766159556E-02  0.35047319343E-01 -0.10014123490E-01  0.36908368635E-01  0.51100000000E-03 0. -1.
</event>
<event>
 8    1  0.1207611E+005  0.1043930E+01  0.7957747E-01            NaN
         13   -1    0    0    0    0  0.00000000000E+00  0.00000000000E+00  0.74505805969E-08  0.10566000000E+00  0.10566000000E+00 0.  1.
     999900   -1    0    0    0    0 -0.00000000000E+00 -0.00000000000E+00 -0.74505805969E-08  0.93827000000E+00  0.93827000000E+00 0.  1.
     999902    2    1    2    0    0  0.73982209684E-02  0.55976710229E-02 -0.19875033687E-01  0.10219963601E+01  0.10217609679E+01 0.  0.
     999903    2    3    3    0    0  0.48021968989E-01  0.36673461595E-01  0.11380974920E+00  0.13043165981E+00  0.20216492656E-01 0.  0.
         14    1    1    2    0    0 -0.73982209684E-02 -0.55976710229E-02  0.19875033687E-01  0.21933639881E-01  0.00000000000E+00 0.  1.
     999901    1    3    3    0    0 -0.40623748020E-01 -0.31075790572E-01 -0.13368478289E+00  0.89156470031E+00  0.88000000000E+00 0.  1.
        -11    1    4    4    0    0  0.22689857742E-01  0.25351064289E-01  0.46452065396E-01  0.57580913552E-01  0.51100000000E-03 0. -1.
         11    1    4    4    0    0  0.25332111247E-01  0.11322397306E-01  0.67357683808E-01  0.72850746256E-01  0.51100000000E-03 0.  1.
</event>
<event>
 8    1  0.1207611E+005  0.1043930E+01  0.7957747E-01            NaN
         13   -1    0    0    0    0  0.00000000000E+00  0.00000000000E+00  0.74505805969E-08  0.10566000000E+00  0.10566000000E+00 0.  1.
     999900   -1    0    0    0    0 -0.00000000000E+00 -0.00000000000E+00 -0.74505805969E-08  0.93827000000E+00  0.93827000000E+00 0.  1.
     999902    2    1    2    0    0  0.57727114287E-04  0.15951394227E-02  0.23397071833E-01  0.10204785443E+01  0.10202090417E+01 0.  0.
     999903    2    3    3    0    0  0.11649831866E+00  0.54599082870E-01  0.16099187279E-01  0.13119732420E+00  0.20015892328E-01 0.  0.
         14    1    1    2    0    0 -0.57727114287E-04 -0.15951394227E-02 -0.23397071833E-01  0.23451455660E-01  0.00000000000E+00 0. -1.
     999901    1    3    3    0    0 -0.11644059154E+00 -0.53003943448E-01  0.72978845542E-02  0.88928122014E+00  0.88000000000E+00 0. -1.
        -11    1    4    4    0    0  0.96680401760E-01  0.37776314380E-01  0.86955332733E-02  0.10416344576E+00  0.51100000000E-03 0.  1.
         11    1    4    4    0    0  0.19817916895E-01  0.16822768490E-01  0.74036540059E-02  0.27033878437E-01  0.51100000000E-03 0. -1.
</event>
<event>
 8    1  0.1207611E+005  0.1043930E+01  0.7957747E-01            NaN
         13   -1    0    0    0    0  0.00000000000E+00  0.00000000000E+00  0.74505805969E-08  0.10566000000E+00  0.10566000000E+00 0. -1.
     999900   -1    0    0    0    0 -0.00000000000E+00 -0.00000000000E+00 -0.74505805969E-08  0.93827000000E+00  0.93827000000E+00 0. -1.
     999902    2    1    2    0    0  0.13201759754E-01 -0.19192731415E-01 -0.15491760464E-02  0.10205837509E+01  0.10203166887E+01 0.  0.
     999903    2    3    3    0    0  0.89547643180E-01  0.41816141442E-01  0.83743655309E-01  0.13107509803E+00  0.20007784357E-01 0.  0.
         14    1    1    2    0    0 -0.13201759754E-01  0.19192731415E-01  0.15491760464E-02  0.23346249082E-01  0.00000000000E+00 0.  1.
     999901    1    3    3    0    0 -0.76345883425E-01 -0.61008872857E-01 -0.85292831355E-01  0.88950865289E+00  0.88000000000E+00 0.  1.
        -11    1    4    4    0    0  0.39252900733E-01  0.16342396278E-01  0.23578971772E-01  0.48621941168E-01  0.51100000000E-03 0. -1.
         11    1    4    4    0    0  0.50294742446E-01  0.25473745164E-01  0.60164683536E-01  0.82453156862E-01  0.51100000000E-03 0.  1.
</event>
<event>
 8    1  0.1207611E+005  0.1043930E+01  0.7957747E-01            NaN
         13   -1    0    0    0    0  0.00000000000E+00  0.00000000000E+00  0.74505805969E-08  0.10566000000E+00  0.10566000000E+00 0. -1.
     999900   -1    0    0    0    0 -0.00000000000E+00 -0.00000000000E+00 -0.74505805969E-08  0.93827000000E+00  0.93827000000E+00 0.  1.
     999902    2    1    2    0    0 -0.10317200673E-01 -0.22684728103E-01  0.31627273111E-02  0.10188094036E+01  0.10184996596E+01 0.  0.
     999903    2    3    3    0    0  0.10055776965E+00  0.72313671226E-01 -0.17370764427E-01  0.12654286316E+00  0.19241119425E-01 0.  0.
         14    1    1    2    0    0  0.10317200673E-01  0.22684728103E-01 -0.31627273111E-02  0.25120596388E-01  0.00000000000E+00 0.  1.
     999901    1    3    3    0    0 -0.11087497033E+00 -0.94998399329E-01  0.20533491738E-01  0.89226654045E+00  0.88000000000E+00 0. -1.
        -11    1    4    4    0    0  0.79571021653E-01  0.64986408303E-01 -0.17981807629E-01  0.10429950756E+00  0.51100000000E-03 0.  1.
         11    1    4    4    0    0  0.20986748002E-01  0.73272629231E-02  0.61104320219E-03  0.22243355602E-01  0.51100000000E-03 0. -1.
</event>
<event>
 8    1  0.1207611E+005  0.1043930E+01  0.7957747E-01            NaN
         13   -1    0    0    0    0  0.00000000000E+00  0.00000000000E+00  0.74505805969E-08  0.10566000000E+00  0.10566000000E+00 0.  1.
     999900   -1    0    0    0    0 -0.00000000000E+00 -0.00000000000E+00 -0.74505805969E-08  0.93827000000E+00  0.93827000000E+00 0. -1.
     999902    2    1    2    0    0 -0.77915264448E-02  0.20684723633E-01 -0.87213386870E-02  0.10201681098E+01  0.10198913397E+01 0.  0.
     999903    2    3    3    0    0 -0.80552802341E-01 -0.67055551475E-01  0.72700921603E-01  0.12908890817E+00  0.19832328735E-01 0.  0.
         14    1    1    2    0    0  0.77915264448E-02 -0.20684723633E-01  0.87213386870E-02  0.23761890174E-01  0.00000000000E+00 0.  1.
     999901    1    3    3    0    0  0.72761275897E-01  0.87740275108E-01 -0.81422260290E-01  0.89107920165E+00  0.88000000000E+00 0. -1.
        -11    1    4    4    0    0 -0.66724061173E-01 -0.48149526997E-01  0.63419067092E-01  0.10388799970E+00  0.51100000000E-03 0. -1.
         11    1    4    4    0    0 -0.13828741168E-01 -0.18906024478E-01  0.92818545111E-02  0.25200908476E-01  0.51100000000E-03 0.  1.
</event>
<event>
 8    1  0.1207611E+005  0.1043930E+01  0.7957747E-01            NaN
         13   -1    0    0    0    0  0.00000000000E+00  0.00000000000E+00  0.74505805969E-08  0.10566000000E+00  0.10566000000E+00 0. -1.
     999900   -1    0    0    0    0 -0.00000000000E+00 -0.00000000000E+00 -0.74505805969E-08  0.93827000000E+00  0.93827000000E+00 0.  1.
     999902    2    1    2    0    0 -0.13532404044E-01 -0.13784392686E-01 -0.13637131558E-01  0.10202845607E+01  0.10200105284E+01 0.  0.
     999903    2    3    3    0    0 -0.65191237302E-01  0.34369196120E-01 -0.10816162801E+00  0.13240940983E+00  0.20054300640E-01 0.  0.
         14    1    1    2    0    0  0.13532404044E-01  0.13784392686E-01  0.13637131558E-01  0.23645439266E-01  0.00000000000E+00 0. -1.
     999901    1    3    3    0    0  0.51658833258E-01 -0.48153588806E-01  0.94524496452E-01  0.88787515091E+00  0.88000000000E+00 0. -1.
        -11    1    4    4    0    0 -0.97281447661E-02  0.88612822779E-02 -0.33307912070E-01  0.35816717488E-01  0.51100000000E-03 0. -1.
         11    1    4    4    0    0 -0.55463092536E-01  0.25507913842E-01 -0.74853715940E-01  0.96592692339E-01  0.51100000000E-03 0.  1.
</event>
<event>
 8    1  0.1207611E+005  0.1043930E+01  0.7957747E-01            NaN
         13   -1    0    0    0    0  0.00000000000E+00  0.00000000000E+00  0.74505805969E-08  0.10566000000E+00  0.10566000000E+00 0.  1.
     999900   -1    0    0    0    0 -0.00000000000E+00 -0.00000000000E+00 -0.74505805969E-08  0.93827000000E+00  0.93827000000E+00 0.  1.
     999902    2    1    2    0    0 -0.10839227372E-01 -0.47707077398E-02 -0.25174134273E-01  0.10161094044E+01  0.10157284756E+01 0.  0.
     999903    2    3    3    0    0  0.11143290273E+00  0.12136086385E-01  0.49914440555E-01  0.12432770043E+00  0.20033704483E-01 0.  0.
         14    1    1    2    0    0  0.10839227372E-01  0.47707077398E-02  0.25174134273E-01  0.27820595586E-01  0.00000000000E+00 0.  1.
     999901    1    3    3    0    0 -0.12227213010E+00 -0.16906794125E-01 -0.75088574828E-01  0.89178170398E+00  0.88000000000E+00 0.  1.
        -11    1    4    4    0    0  0.13828875138E-01 -0.21706603558E-02  0.55197606898E-03  0.14018393366E-01  0.51100000000E-03 0.  1.
         11    1    4    4    0    0  0.97604027591E-01  0.14306746741E-01  0.49362464486E-01  0.11030930707E+00  0.51100000000E-03 0. -1.
</event>
<event>
 8    1  0.1207611E+005  0.1043930E+01  0.7957747E-01            NaN
         13   -1    0    0    0    0  0.00000000000E+00  0.00000000000E+00  0.74505805969E-08  0.10566000000E+00  0.10566000000E+00 0. -1.
     999900   -1    0    0    0    0 -0.00000000000E+00 -0.00000000000E+00 -0.74505805969E-08  0.93827000000E+00  0.93827000000E+00 0.  1.
     999902    2    1    2    0    0  0.15450973368E-01 -0.90751229670E-02 -0.22456413635E-02  0.10258708378E+01  0.10257118711E+01 0.  0.
     999903    2    3    3    0    0 -0.50490996656E-01 -0.17089950918E-01  0.12201060398E+00  0.13466255944E+00  0.20149696419E-01 0.  0.
         14    1    1    2    0    0 -0.15450973368E-01  0.90751229670E-02  0.22456413635E-02  0.18059162218E-01  0.00000000000E+00 0. -1.
     999901    1    3    3    0    0  0.65941970023E-01  0.80148279513E-02 -0.12425624534E+00  0.89120827834E+00  0.88000000000E+00 0.  1.
        -11    1    4    4    0    0 -0.39420907638E-01 -0.14206069915E-01  0.71546007854E-01  0.82915093573E-01  0.51100000000E-03 0.  1.
         11    1    4    4    0    0 -0.11070089018E-01 -0.28838810029E-02  0.50464596126E-01  0.51747465868E-01  0.51100000000E-03 0. -1.
</event>
<event>
 8    1  0.1207611E+005  0.1043930E+01  0.7957747E-01            NaN
         13   -1    0    0    0    0  0.00000000000E+00  0.00000000000E+00  0.74505805969E-08  0.10566000000E+00  0.10566000000E+00 0. -1.
     999900   -1    0    0    0    0 -0.00000000000E+00 -0.00000000000E+00 -0.74505805969E-08  0.93827000000E+00  0.93827000000E+00 0. -1.
     999902    2    1    2    0    0  0.14835780689E-01  0.11612644053E-01  0.78713009809E-02  0.10235115948E+01  0.10233079075E+01 0.  0.
     999903    2    3    3    0    0 -0.13309534191E-01  0.67124566509E-01 -0.11272825472E+00  0.13310832377E+00  0.18091857673E-01 0.  0.
         14    1    1    2    0    0 -0.14835780689E-01 -0.11612644053E-01 -0.78713009809E-02  0.20418405170E-01  0.00000000000E+00 0.  1.
     999901    1    3    3    0    0  0.28145314879E-01 -0.55511922456E-01  0.12059955570E+00  0.89040327106E+00  0.88000000000E+00 0.  1.
        -11    1    4    4    0    0 -0.16306524513E-01  0.37305458527E-01 -0.68260588173E-01  0.79481878415E-01  0.51100000000E-03 0.  1.
         11    1    4    4    0    0  0.29969903227E-02  0.29819107982E-01 -0.44467666549E-01  0.53626445352E-01  0.51100000000E-03 0. -1.
</event>
<event>
 8    1  0.1207611E+005  0.1043930E+01  0.7957747E-01            NaN
         13   -1    0    0    0    0  0.00000000000E+00  0.00000000000E+00  0.74505805969E-08  0.10566000000E+00  0.10566000000E+00 0. -1.
     999900   -1    0    0    0    0 -0.00000000000E+00 -0.00000000000E+00 -0.74505805969E-08  0.93827000000E+00  0.93827000000E+00 0.  1.
     999902    2    1    2    0    0 -0.44808595214E-02 -0.16996823599E-01 -0.16570691265E-01  0.10197730564E+01  0.10194868948E+01 0.  0.
     999903    2    3    3    0    0  0.58055155127E-01  0.51618978863E-01 -0.10352718979E+00  0.13062722242E+00  0.17625895599E-01 0.  0.
         14    1    1    2    0    0  0.44808595214E-02  0.16996823599E-01  0.16570691265E-01  0.24156943588E-01  0.00000000000E+00 0. -1.
     999901    1    3    3    0    0 -0.62536014649E-01 -0.68615802463E-01  0.86956498520E-01  0.88914583400E+00  0.88000000000E+00 0. -1.
        -11    1    4    4    0    0  0.34930067922E-01  0.37809143464E-01 -0.78391439275E-01  0.93782300287E-01  0.51100000000E-03 0. -1.
         11    1    4    4    0    0  0.23125087205E-01  0.13809835400E-01 -0.25135750510E-01  0.36844922129E-01  0.51100000000E-03 0.  1.
</event>
<event>
 8    1  0.1207611E+005  0.1043930E+01  0.7957747E-01            NaN
         13   -1    0    0    0    0  0.00000000000E+00  0.00000000000E+00  0.74505805969E-08  0.10566000000E+00  0.10566000000E+00 0. -1.
     999900   -1    0    0    0    0 -0.00000000000E+00 -0.00000000000E+00 -0.74505805969E-08  0.93827000000E+00  0.93827000000E+00 0.  1.
     999902    2    1    2    0    0 -0.21016617562E-01 -0.32213207111E-02 -0.21030302286E-01  0.10140243361E+01  0.10135832504E+01 0.  0.
     999903    2    3    3    0    0  0.71640662587E-01 -0.65128115146E-01 -0.78282497299E-01  0.12515109618E+00  0.12672473037E-01 0.  0.
         14    1    1    2    0    0  0.21016617562E-01  0.32213207111E-02  0.21030302286E-01  0.29905663930E-01  0.00000000000E+00 0. -1.
     999901    1    3    3    0    0 -0.92657280149E-01  0.61906794435E-01  0.57252195014E-01  0.88887323989E+00  0.88000000000E+00 0. -1.
        -11    1    4    4    0    0  0.21772565690E-01 -0.18040679126E-01 -0.30289570240E-01  0.41439472805E-01  0.51100000000E-03 0.  1.
         11    1    4    4    0    0  0.49868096897E-01 -0.47087436020E-01 -0.47992927060E-01  0.83711623373E-01  0.51100000000E-03 0. -1.
</event>
<event>
 8    1  0.1207611E+005  0.1043930E+01  0.7957747E-01            NaN
         13   -1    0    0    0    0  0.00000000000E+00  0.00000000000E+00  0.74505805969E-08  0.10566000000E+00  0.10566000000E+00 0. -1.
     999900   -1    0    0    0    0 -0.00000000000E+00 -0.00000000000E+00 -0.74505805969E-08  0.93827000000E+00  0.93827000000E+00 0. -1.
     999902    2    1    2    0    0 -0.19865445295E-03  0.28499464222E-01 -0.10923999429E-02  0.10154089155E+01  0.10150082824E+01 0.  0.
     999903    2    3    3    0    0  0.84301485466E-01  0.95189930996E-01 -0.33880088381E-02  0.12884636167E+00  0.20543682633E-01 0.  0.
         14    1    1    2    0    0  0.19865445295E-03 -0.28499464222E-01  0.10923999429E-02  0.28521084519E-01  0.00000000000E+00 0.  1.
     999901    1    3    3    0    0 -0.84500139919E-01 -0.66690466774E-01  0.22956088952E-02  0.88656255381E+00  0.88000000000E+00 0.  1.
        -11    1    4    4    0    0  0.57355402017E-01  0.53990321798E-01 -0.90546011126E-02  0.79289620447E-01  0.51100000000E-03 0.  1.
         11    1    4    4    0    0  0.26946083450E-01  0.41199609197E-01  0.56665922745E-02  0.49556741219E-01  0.51100000000E-03 0. -1.
</event>
<event>
 8    1  0.1207611E+005  0.1043930E+01  0.7957747E-01            NaN
         13   -1    0    0    0    0  0.00000000000E+00  0.00000000000E+00  0.74505805969E-08  0.10566000000E+00  0.10566000000E+00 0. -1.
     999900   -1    0    0    0    0 -0.00000000000E+00 -0.00000000000E+00 -0.74505805969E-08  0.93827000000E+00  0.93827000000E+00 0. -1.
     999902    2    1    2    0    0 -0.17560083398E-01  0.83660299460E-02 -0.13373094442E-01  0.10203251988E+01  0.10200521186E+01 0.  0.
     999903    2    3    3    0    0 -0.12077966960E+00  0.52034325246E-01 -0.66620756470E-03  0.13312585930E+00  0.20657952212E-01 0.  0.
         14    1    1    2    0    0  0.17560083398E-01 -0.83660299460E-02  0.13373094442E-01  0.23604801227E-01  0.00000000000E+00 0.  1.
     999901    1    3    3    0    0  0.10321958620E+00 -0.43668295300E-01 -0.12706886877E-01  0.88719933947E+00  0.88000000000E+00 0. -1.
        -11    1    4    4    0    0 -0.16351632507E-01  0.10802468543E-01 -0.66248339159E-02  0.20693447216E-01  0.51100000000E-03 0. -1.
         11    1    4    4    0    0 -0.10442803709E+00  0.41231856704E-01  0.59586263512E-02  0.11243241208E+00  0.51100000000E-03 0.  1.
</event>
<event>
 8    1  0.1207611E+005  0.1043930E+01  0.7957747E-01            NaN
         13   -1    0    0    0    0  0.00000000000E+00  0.00000000000E+00  0.74505805969E-08  0.10566000000E+00  0.10566000000E+00 0.  1.
     999900   -1    0    0    0    0 -0.00000000000E+00 -0.00000000000E+00 -0.74505805969E-08  0.93827000000E+00  0.93827000000E+00 0.  1.
     999902    2    1    2    0    0  0.10220909116E-01 -0.12013993351E-01 -0.17399391210E-01  0.10204450722E+01  0.10201747907E+01 0.  0.
     999903    2    3    3    0    0 -0.27503916191E-01  0.12281605932E+00 -0.21302888962E-01  0.12936845212E+00  0.21026970664E-01 0.  0.
         14    1    1    2    0    0 -0.10220909116E-01  0.12013993351E-01  0.17399391210E-01  0.23484927803E-01  0.00000000000E+00 0. -1.
     999901    1    3    3    0    0  0.37724825307E-01 -0.13483005267E+00  0.39034977515E-02  0.89107662007E+00  0.88000000000E+00 0. -1.
        -11    1    4    4    0    0 -0.85748338090E-02  0.71421709819E-01 -0.44993000272E-02  0.72076995152E-01  0.51100000000E-03 0.  1.
         11    1    4    4    0    0 -0.18929082382E-01  0.51394349496E-01 -0.16803588935E-01  0.57291456972E-01  0.51100000000E-03 0. -1.
</event>
<event>
 8    1  0.1207611E+005  0.1043930E+01  0.7957747E-01            NaN
         13   -1    0    0    0    0  0.00000000000E+00  0.00000000000E+00  0.74505805969E-08  0.10566000000E+00  0.10566000000E+00 0. -1.
     999900   -1    0    0    0    0 -0.00000000000E+00 -0.00000000000E+00 -0.74505805969E-08  0.93827000000E+00  0.93827000000E+00 0. -1.
     999902    2    1    2    0    0 -0.18444270415E-01  0.10192913306E-01  0.10120820473E-01  0.10205522841E+01  0.10202844932E+01 0.  0.
     999903    2    3    3    0    0 -0.33392297203E-01 -0.19461378990E-01 -0.12251499012E+00  0.12999342654E+00  0.19863971306E-01 0.  0.
         14    1    1    2    0    0  0.18444270415E-01 -0.10192913306E-01 -0.10120820473E-01  0.23377715882E-01  0.00000000000E+00 0.  1.
     999901    1    3    3    0    0  0.14948026789E-01  0.29654292296E-01  0.13263581059E+00  0.89055885758E+00  0.88000000000E+00 0.  1.
        -11    1    4    4    0    0 -0.15258934797E-01 -0.53501866070E-03 -0.65222545729E-01  0.66987781935E-01  0.51100000000E-03 0. -1.
         11    1    4    4    0    0 -0.18133362406E-01 -0.18926360330E-01 -0.57292444388E-01  0.63005644607E-01  0.51100000000E-03 0.  1.
</event>
<event>
 8    1  0.1207611E+005  0.1043930E+01  0.7957747E-01            NaN
         13   -1    0    0    0    0  0.00000000000E+00  0.00000000000E+00  0.74505805969E-08  0.10566000000E+00  0.10566000000E+00 0.  1.
     999900   -1    0    0    0    0 -0.00000000000E+00 -0.00000000000E+00 -0.74505805969E-08  0.93827000000E+00  0.93827000000E+00 0.  1.
     999902    2    1    2    0    0 -0.17575777652E-01 -0.13541455002E-01 -0.99086200097E-02  0.10196306232E+01  0.10193410362E+01 0.  0.
     999903    2    3    3    0    0 -0.10705330402E+00 -0.33025525976E-01 -0.69631635248E-01  0.13286532429E+00  0.15922766850E-01 0.  0.
         14    1    1    2    0    0  0.17575777652E-01  0.13541455002E-01  0.99086200097E-02  0.24299376826E-01  0.00000000000E+00 0. -1.
     999901    1    3    3    0    0  0.89477526372E-01  0.19484070974E-01  0.59723015238E-01  0.88676529888E+00  0.88000000000E+00 0. -1.
        -11    1    4    4    0    0 -0.48792099731E-01 -0.21799488917E-01 -0.27580092336E-01  0.60139914595E-01  0.51100000000E-03 0. -1.
         11    1    4    4    0    0 -0.58261204293E-01 -0.11226037059E-01 -0.42051542912E-01  0.72725409700E-01  0.51100000000E-03 0.  1.
</event>
<event>
 8    1  0.1207611E+005  0.1043930E+01  0.7957747E-01            NaN
         13   -1    0    0    0    0  0.00000000000E+00  0.00000000000E+00  0.74505805969E-08  0.10566000000E+00  0.10566000000E+00 0. -1.
     999900   -1    0    0    0    0 -0.00000000000E+00 -0.00000000000E+00 -0.74505805969E-08  0.93827000000E+00  0.93827000000E+00 0.  1.
     999902    2    1    2    0    0  0.22546297754E-01  0.30247595024E-02 -0.36183537880E-02  0.10208957386E+01  0.10206358469E+01 0.  0.
     999903    2    3    3    0    0  0.12658490647E+00 -0.39732509547E-01 -0.35604597235E-02  0.13373610277E+00  0.16439508759E-01 0.  0.
         14    1    1    2    0    0 -0.22546297754E-01 -0.30247595024E-02  0.36183537880E-02  0.23034261364E-01  0.00000000000E+00 0.  1.
     999901    1    3    3    0    0 -0.10403860872E+00  0.42757269049E-01 -0.57894064480E-04  0.88715963587E+00  0.88000000000E+00 0. -1.
        -11    1    4    4    0    0  0.98472404279E-01 -0.23939318198E-01 -0.50970932105E-03  0.10134311168E+00  0.51100000000E-03 0.  1.
         11    1    4    4    0    0  0.28112502195E-01 -0.15793191349E-01 -0.30507504025E-02  0.32392991088E-01  0.51100000000E-03 0. -1.
</event>
<event>
 8    1  0.1207611E+005  0.1043930E+01  0.7957747E-01            NaN
         13   -1    0    0    0    0  0.00000000000E+00  0.00000000000E+00  0.74505805969E-08  0.10566000000E+00  0.10566000000E+00 0. -1.
     999900   -1    0    0    0    0 -0.00000000000E+00 -0.00000000000E+00 -0.74505805969E-08  0.93827000000E+00  0.93827000000E+00 0. -1.
     999902    2    1    2    0    0 -0.87061934481E-02  0.19383915388E-01 -0.10682923292E-01  0.10201464168E+01  0.10198691352E+01 0.  0.
     999903    2    3    3    0    0 -0.81673427281E-01 -0.48570467334E-02  0.99053776970E-01  0.13000374012E+00  0.19879187240E-01 0.  0.
         14    1    1    2    0    0  0.87061934481E-02 -0.19383915388E-01  0.10682923292E-01  0.23783583207E-01  0.00000000000E+00 0. -1.
     999901    1    3    3    0    0  0.72967233832E-01  0.24240962121E-01 -0.10973670026E+00  0.89014267668E+00  0.88000000000E+00 0. -1.
        -11    1    4    4    0    0 -0.61896311905E-01 -0.58889836460E-02  0.86578488364E-01  0.10659235115E+00  0.51100000000E-03 0.  1.
         11    1    4    4    0    0 -0.19777115376E-01  0.10319369126E-02  0.12475288605E-01  0.23411388963E-01  0.51100000000E-03 0. -1.
</event>
<event>
 8    1  0.1207611E+005  0.1043930E+01  0.7957747E-01            NaN
         13   -1    0    0    0    0  0.00000000000E+00  0.00000000000E+00  0.74505805969E-08  0.10566000000E+00  0.10566000000E+00 0. -1.
     999900   -1    0    0    0    0 -0.00000000000E+00 -0.00000000000E+00 -0.74505805969E-08  0.93827000000E+00  0.93827000000E+00 0.  1.
     999902    2    1    2    0    0 -0.85979131683E-02  0.91794996043E-02 -0.20821589099E-01  0.10196045833E+01  0.10193143678E+01 0.  0.
     999903    2    3    3    0    0  0.36954624356E-01  0.12127648515E+00 -0.29056258544E-01  0.13128674740E+00  0.17841349983E-01 0.  0.
         14    1    1    2    0    0  0.85979131683E-02 -0.91794996043E-02  0.20821589099E-01  0.24325416676E-01  0.00000000000E+00 0. -1.
     999901    1    3    3    0    0 -0.45552537524E-01 -0.11209698555E+00  0.82346694451E-02  0.88831783593E+00  0.88000000000E+00 0.  1.
        -11    1    4    4    0    0  0.21261457768E-01  0.65565175059E-01 -0.67587894297E-02  0.69258819817E-01  0.51100000000E-03 0.  1.
         11    1    4    4    0    0  0.15693166588E-01  0.55711310094E-01 -0.22297469115E-01  0.62027927580E-01  0.51100000000E-03 0. -1.
</event>
<event>
 8    1  0.1207611E+005  0.1043930E+01  0.7957747E-01            NaN
         13   -1    0    0    0    0  0.00000000000E+00  0.00000000000E+00  0.74505805969E-08  0.10566000000E+00  0.10566000000E+00 0. -1.
     999900   -1    0    0    0    0 -0.00000000000E+00 -0.00000000000E+00 -0.74505805969E-08  0.93827000000E+00  0.93827000000E+00 0.  1.
     999902    2    1    2    0    0  0.14892930409E-01  0.30544368341E-02  0.15955185745E-01  0.10218914675E+01  0.10216537939E+01 0.  0.
     999903    2    3    3    0    0  0.71908584166E-01 -0.96723450818E-01 -0.49884171542E-01  0.13198066718E+00  0.20104614508E-01 0.  0.
         14    1    1    2    0    0 -0.14892930409E-01 -0.30544368341E-02 -0.15955185745E-01  0.22038532453E-01  0.00000000000E+00 0.  1.
     999901    1    3    3    0    0 -0.57015653757E-01  0.99777887652E-01  0.65839357287E-01  0.88991080036E+00  0.88000000000E+00 0. -1.
        -11    1    4    4    0    0  0.21127236052E-01 -0.44678583657E-01 -0.18350937893E-01  0.52721475542E-01  0.51100000000E-03 0. -1.
         11    1    4    4    0    0  0.50781348114E-01 -0.52044867161E-01 -0.31533233650E-01  0.79259191641E-01  0.51100000000E-03 0.  1.
</event>
<event>
 8    1  0.1207611E+005  0.1043930E+01  0.7957747E-01            NaN
         13   -1    0    0    0    0  0.00000000000E+00  0.00000000000E+00  0.74505805969E-08  0.10566000000E+00  0.10566000000E+00 0. -1.
     999900   -1    0    0    0    0 -0.00000000000E+00 -0.00000000000E+00 -0.74505805969E-08  0.93827000000E+00  0.93827000000E+00 0.  1.
     999902    2    1    2    0    0 -0.92548355137E-02 -0.17340421612E-01  0.13412941020E-01  0.10201340090E+01  0.10198564345E+01 0.  0.
     999903    2    3    3    0    0 -0.11956708589E-01  0.53877155170E-01 -0.11395347907E+00  0.12811301801E+00  0.19540707797E-01 0.  0.
         14    1    1    2    0    0  0.92548355137E-02  0.17340421612E-01 -0.13412941020E-01  0.23795991025E-01  0.00000000000E+00 0. -1.
     999901    1    3    3    0    0  0.27018730750E-02 -0.71217576781E-01  0.12736642009E+00  0.89202099097E+00  0.88000000000E+00 0. -1.
        -11    1    4    4    0    0 -0.10799788725E-01  0.33783013583E-01 -0.90498548222E-01  0.97201727322E-01  0.51100000000E-03 0. -1.
         11    1    4    4    0    0 -0.11569198641E-02  0.20094141586E-01 -0.23454930849E-01  0.30911290684E-01  0.51100000000E-03 0.  1.
</event>
<event>
 8    1  0.1207611E+005  0.1043930E+01  0.7957747E-01            NaN
         13   -1    0    0    0    0  0.00000000000E+00  0.00000000000E+00  0.74505805969E-08  0.10566000000E+00  0.10566000000E+00 0. -1.
     999900   -1    0    0    0    0 -0.00000000000E+00 -0.00000000000E+00 -0.74505805969E-08  0.93827000000E+00  0.93827000000E+00 0. -1.
     999902    2    1    2    0    0 -0.12283531375E-01  0.13604605710E-01  0.15218479479E-01  0.10201062187E+01  0.10198279878E+01 0.  0.
     999903    2    3    3    0    0 -0.17434397328E-01  0.12777487267E+00  0.24045582102E-01  0.13267210898E+00  0.19832352021E-01 0.  0.
         14    1    1    2    0    0  0.12283531375E-01 -0.13604605710E-01 -0.15218479479E-01  0.23823781338E-01  0.00000000000E+00 0.  1.
     999901    1    3    3    0    0  0.51508659530E-02 -0.11417026696E+00 -0.88271026226E-02  0.88743410968E+00  0.88000000000E+00 0.  1.
        -11    1    4    4    0    0  0.14209447665E-02  0.62779244939E-01  0.11458481463E-01  0.63834243143E-01  0.51100000000E-03 0. -1.
         11    1    4    4    0    0 -0.18855342095E-01  0.64995627735E-01  0.12587100639E-01  0.68837865842E-01  0.51100000000E-03 0.  1.
</event>
<event>
 8    1  0.1207611E+005  0.1043930E+01  0.7957747E-01            NaN
         13   -1    0    0    0    0  0.00000000000E+00  0.00000000000E+00  0.74505805969E-08  0.10566000000E+00  0.10566000000E+00 0. -1.
     999900   -1    0    0    0    0 -0.00000000000E+00 -0.00000000000E+00 -0.74505805969E-08  0.93827000000E+00  0.93827000000E+00 0. -1.
     999902    2    1    2    0    0  0.28398627287E-02  0.11811004146E-01  0.19635736336E-01  0.10208404617E+01  0.10205793068E+01 0.  0.
     999903    2    3    3    0    0 -0.77545408720E-01 -0.19192784583E-01 -0.98954381984E-01  0.12871567053E+00  0.19851970510E-01 0.  0.
         14    1    1    2    0    0 -0.28398627287E-02 -0.11811004146E-01 -0.19635736336E-01  0.23089538340E-01  0.00000000000E+00 0.  1.
     999901    1    3    3    0    0  0.80385271449E-01  0.31003788729E-01  0.11859011832E+00  0.89212479113E+00  0.88000000000E+00 0.  1.
        -11    1    4    4    0    0 -0.36178215970E-01 -0.18520033381E-01 -0.43615867045E-01  0.59619291561E-01  0.51100000000E-03 0. -1.
         11    1    4    4    0    0 -0.41367192750E-01 -0.67275120159E-03 -0.55338514940E-01  0.69096378971E-01  0.51100000000E-03 0.  1.
</event>
<event>
 8    1  0.1207611E+005  0.1043930E+01  0.7957747E-01            NaN
         13   -1    0    0    0    0  0.00000000000E+00  0.00000000000E+00  0.74505805969E-08  0.10566000000E+00  0.10566000000E+00 0. -1.
     999900   -1    0    0    0    0 -0.00000000000E+00 -0.00000000000E+00 -0.74505805969E-08  0.93827000000E+00  0.93827000000E+00 0.  1.
     999902    2    1    2    0    0  0.18141669050E-02 -0.13582232652E-01  0.19187493659E-01  0.10203518712E+01  0.10200794150E+01 0.  0.
     999903    2    3    3    0    0 -0.10645954213E+00 -0.53663204203E-01  0.53385217033E-01  0.13215191361E+00  0.20019322603E-01 0.  0.
         14    1    1    2    0    0 -0.18141669050E-02  0.13582232652E-01 -0.19187493659E-01  0.23578128812E-01  0.00000000000E+00 0.  1.
     999901    1    3    3    0    0  0.10827370904E+00  0.40080971551E-01 -0.34197723374E-01  0.88819995757E+00  0.88000000000E+00 0. -1.
        -11    1    4    4    0    0 -0.31794564082E-01 -0.10327101653E-01  0.70385196415E-02  0.34166434017E-01  0.51100000000E-03 0.  1.
         11    1    4    4    0    0 -0.74664978053E-01 -0.43336102549E-01  0.46346697391E-01  0.97985479597E-01  0.51100000000E-03 0. -1.
</event>
<event>
 8    1  0.1207611E+005  0.1043930E+01  0.7957747E-01            NaN
         13   -1    0    0    0    0  0.00000000000E+00  0.00000000000E+00  0.74505805969E-08  0.10566000000E+00  0.10566000000E+00 0. -1.
     999900   -1    0    0    0    0 -0.00000000000E+00 -0.00000000000E+00 -0.74505805969E-08  0.93827000000E+00  0.93827000000E+00 0. -1.
     999902    2    1    2    0    0 -0.11281424993E-01  0.13681531866E-01 -0.17287121645E-01  0.10191651168E+01  0.10188641891E+01 0.  0.
     999903    2    3    3    0    0  0.79326063775E-01 -0.74347434794E-01 -0.66029238973E-01  0.12880866573E+00  0.20289073764E-01 0.  0.
         14    1    1    2    0    0  0.11281424993E-01 -0.13681531866E-01  0.17287121645E-01  0.24764883179E-01  0.00000000000E+00 0. -1.
     999901    1    3    3    0    0 -0.90607488767E-01  0.88028966660E-01  0.48742117328E-01  0.89035645109E+00  0.88000000000E+00 0. -1.
        -11    1    4    4    0    0  0.34544528001E-01 -0.19105688164E-01 -0.24067367181E-01  0.46236901054E-01  0.51100000000E-03 0. -1.
         11    1    4    4    0    0  0.44781535774E-01 -0.55241746630E-01 -0.41961871792E-01  0.82571764680E-01  0.51100000000E-03 0.  1.
</event>
<event>
 8    1  0.1207611E+005  0.1043930E+01  0.7957747E-01            NaN
         13   -1    0    0    0    0  0.00000000000E+00  0.00000000000E+00  0.74505805969E-08  0.10566000000E+00  0.10566000000E+00 0.  1.
     999900   -1    0    0    0    0 -0.00000000000E+00 -0.00000000000E+00 -0.74505805969E-08  0.93827000000E+00  0.93827000000E+00 0. -1.
     999902    2    1    2    0    0  0.81742516165E-02  0.69656119487E-02 -0.20988276481E-01  0.10203536159E+01  0.10200812005E+01 0.  0.
     999903    2    3    3    0    0  0.10427525576E+00  0.61907387142E-01 -0.51625614462E-01  0.13288944862E+00  0.16986698915E-01 0.  0.
         14    1    1    2    0    0 -0.81742516165E-02 -0.69656119487E-02  0.20988276481E-01  0.23576384137E-01  0.00000000000E+00 0.  1.
     999901    1    3    3    0    0 -0.96101004143E-01 -0.54941775193E-01  0.30637337981E-01  0.88746416724E+00  0.88000000000E+00 0.  1.
        -11    1    4    4    0    0  0.23469668750E-01  0.82762700172E-02 -0.54874568000E-02  0.25489121204E-01  0.51100000000E-03 0. -1.
         11    1    4    4    0    0  0.80805587009E-01  0.53631117125E-01 -0.46138157662E-01  0.10740032742E+00  0.51100000000E-03 0.  1.
</event>
<event>
 8    1  0.1207611E+005  0.1043930E+01  0.7957747E-01            NaN
         13   -1    0    0    0    0  0.00000000000E+00  0.00000000000E+00  0.74505805969E-08  0.10566000000E+00  0.10566000000E+00 0.  1.
     999900   -1    0    0    0    0 -0.00000000000E+00 -0.00000000000E+00 -0.74505805969E-08  0.93827000000E+00  0.93827000000E+00 0.  1.
     999902    2    1    2    0    0 -0.10385441111E-01  0.98015834935E-02 -0.18648260516E-01  0.10204420021E+01  0.10201716491E+01 0.  0.
     999903    2    3    3    0    0 -0.38000409047E-01 -0.27377815882E-01  0.11816784178E+00  0.12866650340E+00  0.19946287312E-01 0.  0.
         14    1    1    2    0    0  0.10385441111E-01 -0.98015834935E-02  0.18648260516E-01  0.23487997920E-01  0.00000000000E+00 0.  1.
     999901    1    3    3    0    0  0.27614967937E-01  0.37179399375E-01 -0.13681610229E+00  0.89177549868E+00  0.88000000000E+00 0.  1.
        -11    1    4    4    0    0 -0.25166226665E-01 -0.11726325899E-01  0.46184410517E-01  0.53889763216E-01  0.51100000000E-03 0.  1.
         11    1    4    4    0    0 -0.12834182382E-01 -0.15651489983E-01  0.71983431261E-01  0.74776740188E-01  0.51100000000E-03 0. -1.
</event>
<event>
 8    1  0.1207611E+005  0.1043930E+01  0.7957747E-01            NaN
         13   -1    0    0    0    0  0.00000000000E+00  0.00000000000E+00  0.74505805969E-08  0.10566000000E+00  0.10566000000E+00 0. -1.
     999900   -1    0    0    0    0 -0.00000000000E+00 -0.00000000000E+00 -0.74505805969E-08  0.93827000000E+00  0.93827000000E+00 0.  1.
     999902    2    1    2    0    0 -0.66741189947E-02 -0.19558882162E-01  0.11695812669E-01  0.10201837209E+01  0.10199073187E+01 0.  0.
     999903    2    3    3    0    0 -0.53906451134E-01  0.66686716518E-01 -0.93441905486E-01  0.12848694720E+00  0.20602967435E-01 0.  0.
         14    1    1    2    0    0  0.66741189947E-02  0.19558882162E-01 -0.11695812669E-01  0.23746279072E-01  0.00000000000E+00 0.  1.
     999901    1    3    3    0    0  0.47232332139E-01 -0.86245598680E-01  0.10513771816E+00  0.89169677372E+00  0.88000000000E+00 0. -1.
        -11    1    4    4    0    0 -0.37482723103E-01  0.30326675889E-01 -0.48536313135E-01  0.68415616751E-01  0.51100000000E-03 0.  1.
         11    1    4    4    0    0 -0.16423728031E-01  0.36360040629E-01 -0.44905592351E-01  0.60071330453E-01  0.51100000000E-03 0. -1.
</event>
<event>
 8    1  0.1207611E+005  0.1043930E+01  0.7957747E-01            NaN
         13   -1    0    0    0    0  0.00000000000E+00  0.00000000000E+00  0.74505805969E-08  0.10566000000E+00  0.10566000000E+00 0. -1.
     999900   -1    0    0    0    0 -0.00000000000E+00 -0.00000000000E+00 -0.74505805969E-08  0.93827000000E+00  0.93827000000E+00 0.  1.
     999902    2    1    2    0    0  0.48691159733E-02 -0.18008611763E-01 -0.13072328715E-01  0.10211505319E+01  0.10208964221E+01 0.  0.
     999903    2    3    3    0    0  0.12964202258E+00  0.44774666809E-02 -0.14774985204E-01  0.13206290914E+00  0.19879890763E-01 0.  0.
         14    1    1    2    0    0 -0.48691159733E-02  0.18008611763E-01  0.13072328715E-01  0.22779468080E-01  0.00000000000E+00 0. -1.
     999901    1    3    3    0    0 -0.12477290660E+00 -0.22486078444E-01  0.17026564892E-02  0.88908762278E+00  0.88000000000E+00 0.  1.
        -11    1    4    4    0    0  0.11578175520E+00 -0.13195348643E-02 -0.16387371248E-01  0.11694427334E+00  0.51100000000E-03 0.  1.
         11    1    4    4    0    0  0.13860267371E-01  0.57970015452E-02  0.16123860439E-02  0.15118635793E-01  0.51100000000E-03 0. -1.
</event>
<event>
 8    1  0.1207611E+005  0.1043930E+01  0.7957747E-01            NaN
         13   -1    0    0    0    0  0.00000000000E+00  0.00000000000E+00  0.74505805969E-08  0.10566000000E+00  0.10566000000E+00 0. -1.
     999900   -1    0    0    0    0 -0.00000000000E+00 -0.00000000000E+00 -0.74505805969E-08  0.93827000000E+00  0.93827000000E+00 0.  1.
     999902    2    1    2    0    0  0.19566913429E-01  0.21447187197E-02  0.33138602675E-02  0.10239688981E+01  0.10237743202E+01 0.  0.
     999903    2    3    3    0    0 -0.92719890863E-01  0.92235159579E-01 -0.96044708112E-02  0.13217772454E+00  0.16565089192E-01 0.  0.
         14    1    1    2    0    0 -0.19566913429E-01 -0.21447187197E-02 -0.33138602675E-02  0.19961101908E-01  0.00000000000E+00 0.  1.
     999901    1    3    3    0    0  0.11228680429E+00 -0.90090440859E-01  0.12918331079E-01  0.89179117355E+00  0.88000000000E+00 0. -1.
        -11    1    4    4    0    0 -0.63125183689E-01  0.57669468743E-01  0.75386506424E-03  0.85506642283E-01  0.51100000000E-03 0. -1.
         11    1    4    4    0    0 -0.29594707174E-01  0.34565690836E-01 -0.10358335875E-01  0.46671082254E-01  0.51100000000E-03 0.  1.
</event>
<event>
 8    1  0.1207611E+005  0.1043930E+01  0.7957747E-01            NaN
         13   -1    0    0    0    0  0.00000000000E+00  0.00000000000E+00  0.74505805969E-08  0.10566000000E+00  0.10566000000E+00 0.  1.
     999900   -1    0    0    0    0 -0.00000000000E+00 -0.00000000000E+00 -0.74505805969E-08  0.93827000000E+00  0.93827000000E+00 0. -1.
     999902    2    1    2    0    0 -0.78123991067E-02  0.10677967363E-02  0.22139946604E-01  0.10204278510E+01  0.10201571684E+01 0.  0.
     999903    2    3    3    0    0 -0.33124393927E-01 -0.23583000069E-01 -0.12004024004E+00  0.12831599464E+00  0.20048737795E-01 0.  0.
         14    1    1    2    0    0  0.78123991067E-02 -0.10677967363E-02 -0.22139946604E-01  0.23502148951E-01  0.00000000000E+00 0. -1.
     999901    1    3    3    0    0  0.25311994820E-01  0.24650796806E-01  0.14218018664E+00  0.89211185641E+00  0.88000000000E+00 0.  1.
        -11    1    4    4    0    0 -0.24135932930E-01 -0.18533662880E-01 -0.10913852981E+00  0.11330277899E+00  0.51100000000E-03 0. -1.
         11    1    4    4    0    0 -0.89884609971E-02 -0.50493371894E-02 -0.10901710232E-01  0.15013215649E-01  0.51100000000E-03 0.  1.
</event>
<event>
 8    1  0.1207611E+005  0.1043930E+01  0.7957747E-01            NaN
         13   -1    0    0    0    0  0.00000000000E+00  0.00000000000E+00  0.74505805969E-08  0.10566000000E+00  0.10566000000E+00 0.  1.
     999900   -1    0    0    0    0 -0.00000000000E+00 -0.00000000000E+00 -0.74505805969E-08  0.93827000000E+00  0.93827000000E+00 0. -1.
     999902    2    1    2    0    0 -0.44833612226E-02 -0.17816253741E-01 -0.21773553828E-01  0.10154412817E+01  0.10150415703E+01 0.  0.
     999903    2    3    3    0    0 -0.85348510698E-01  0.88150181003E-01 -0.15247394000E-01  0.12537912180E+00  0.20799482438E-01 0.  0.
         14    1    1    2    0    0  0.44833612226E-02  0.17816253741E-01  0.21773553828E-01  0.28488718320E-01  0.00000000000E+00 0.  1.
     999901    1    3    3    0    0  0.80865149476E-01 -0.10596643474E+00 -0.65261598280E-02  0.89006215988E+00  0.88000000000E+00 0. -1.
        -11    1    4    4    0    0 -0.26971336458E-01  0.20744095360E-01  0.36537934754E-02  0.34225455590E-01  0.51100000000E-03 0.  1.
         11    1    4    4    0    0 -0.58377174241E-01  0.67406085643E-01 -0.18901187475E-01  0.91153666208E-01  0.51100000000E-03 0. -1.
</event>
<event>
 8    1  0.1207611E+005  0.1043930E+01  0.7957747E-01            NaN
         13   -1    0    0    0    0  0.00000000000E+00  0.00000000000E+00  0.74505805969E-08  0.10566000000E+00  0.10566000000E+00 0. -1.
     999900   -1    0    0    0    0 -0.00000000000E+00 -0.00000000000E+00 -0.74505805969E-08  0.93827000000E+00  0.93827000000E+00 0. -1.
     999902    2    1    2    0    0  0.18366933911E-01 -0.12917997097E-01  0.54738414571E-02  0.10208176256E+01  0.10205559479E+01 0.  0.
     999903    2    3    3    0    0 -0.17272397658E-01  0.11783641086E+00 -0.46172012326E-01  0.12894646261E+00  0.17651630263E-01 0.  0.
         14    1    1    2    0    0 -0.18366933911E-01  0.12917997097E-01 -0.54738414571E-02  0.23112374404E-01  0.00000000000E+00 0.  1.
     999901    1    3    3    0    0  0.35639331569E-01 -0.13075440796E+00  0.51645853783E-01  0.89187116299E+00  0.88000000000E+00 0.  1.
        -11    1    4    4    0    0 -0.13491233351E-01  0.66215789085E-01 -0.17641626957E-01  0.69842911052E-01  0.51100000000E-03 0.  1.
         11    1    4    4    0    0 -0.37811643063E-02  0.51620621779E-01 -0.28530385369E-01  0.59103551557E-01  0.51100000000E-03 0. -1.
</event>
<event>
 8    1  0.1207611E+005  0.1043930E+01  0.7957747E-01            NaN
         13   -1    0    0    0    0  0.00000000000E+00  0.00000000000E+00  0.74505805969E-08  0.10566000000E+00  0.10566000000E+00 0.  1.
     999900   -1    0    0    0    0 -0.00000000000E+00 -0.00000000000E+00 -0.74505805969E-08  0.93827000000E+00  0.93827000000E+00 0. -1.
     999902    2    1    2    0    0  0.82737894144E-02 -0.22148872993E-01  0.80854535541E-02  0.10189419483E+01  0.10186355047E+01 0.  0.
     999903    2    3    3    0    0  0.44173279233E-02  0.97874087251E-01  0.79964800892E-01  0.12788245322E+00  0.18992175211E-01 0.  0.
         14    1    1    2    0    0 -0.82737894144E-02  0.22148872993E-01 -0.80854535541E-02  0.24988051651E-01  0.00000000000E+00 0.  1.
     999901    1    3    3    0    0  0.38564614911E-02 -0.12002296024E+00 -0.71879347338E-01  0.89105949513E+00  0.88000000000E+00 0. -1.
        -11    1    4    4    0    0 -0.30206060321E-02  0.76688569909E-01  0.55785649049E-01  0.94881824267E-01  0.51100000000E-03 0.  1.
         11    1    4    4    0    0  0.74379339554E-02  0.21185517343E-01  0.24179151843E-01  0.33000628956E-01  0.51100000000E-03 0. -1.
</event>
<event>
 8    1  0.1207611E+005  0.1043930E+01  0.7957747E-01            NaN
         13   -1    0    0    0    0  0.00000000000E+00  0.00000000000E+00  0.74505805969E-08  0.10566000000E+00  0.10566000000E+00 0.  1.
     999900   -1    0    0    0    0 -0.00000000000E+00 -0.00000000000E+00 -0.74505805969E-08  0.93827000000E+00  0.93827000000E+00 0. -1.
     999902    2    1    2    0    0  0.26165502789E-01  0.12643961446E-01  0.48852701056E-02  0.10144618959E+01  0.10140338106E+01 0.  0.
     999903    2    3    3    0    0  0.79767897181E-01  0.92943296922E-01 -0.32668172126E-01  0.12838545391E+00  0.20352922218E-01 0.  0.
         14    1    1    2    0    0 -0.26165502789E-01 -0.12643961446E-01 -0.48852701056E-02  0.29468104134E-01  0.00000000000E+00 0. -1.
     999901    1    3    3    0    0 -0.53602394392E-01 -0.80299335476E-01  0.37553442231E-01  0.88607644195E+00  0.88000000000E+00 0.  1.
        -11    1    4    4    0    0  0.40094577012E-01  0.31494276622E-01 -0.12103444058E-01  0.52404380015E-01  0.51100000000E-03 0. -1.
         11    1    4    4    0    0  0.39673320169E-01  0.61449020299E-01 -0.20564728068E-01  0.75981073897E-01  0.51100000000E-03 0.  1.
</event>
<event>
 8    1  0.1207611E+005  0.1043930E+01  0.7957747E-01            NaN
         13   -1    0    0    0    0  0.00000000000E+00  0.00000000000E+00  0.74505805969E-08  0.10566000000E+00  0.10566000000E+00 0.  1.
     999900   -1    0    0    0    0 -0.00000000000E+00 -0.00000000000E+00 -0.74505805969E-08  0.93827000000E+00  0.93827000000E+00 0.  1.
     999902    2    1    2    0    0  0.17506341111E-01 -0.76570821573E-02 -0.50199917383E-03  0.10248157412E+01  0.10246374718E+01 0.  0.
     999903    2    3    3    0    0  0.92272157861E-02  0.95529374035E-01  0.91243346975E-01  0.13401093812E+00  0.20556759307E-01 0.  0.
         14    1    1    2    0    0 -0.17506341111E-01  0.76570821573E-02  0.50199917383E-03  0.19114258799E-01  0.00000000000E+00 0. -1.
     999901    1    3    3    0    0  0.82791253253E-02 -0.10318645619E+00 -0.91745346148E-01  0.89080480308E+00  0.88000000000E+00 0. -1.
        -11    1    4    4    0    0  0.14106719425E-01  0.84355286064E-01  0.75447547631E-01  0.11405002141E+00  0.51100000000E-03 0. -1.
         11    1    4    4    0    0 -0.48795036391E-02  0.11174087971E-01  0.15795799343E-01  0.19960916704E-01  0.51100000000E-03 0.  1.
</event>
<event>
 8    1  0.1207611E+005  0.1043930E+01  0.7957747E-01            NaN
         13   -1    0    0    0    0  0.00000000000E+00  0.00000000000E+00  0.74505805969E-08  0.10566000000E+00  0.10566000000E+00 0. -1.
     999900   -1    0    0    0    0 -0.00000000000E+00 -0.00000000000E+00 -0.74505805969E-08  0.93827000000E+00  0.93827000000E+00 0. -1.
     999902    2    1    2    0    0  0.15162641924E-01 -0.60989483557E-03 -0.42583400587E-02  0.10281689359E+01  0.10280481261E+01 0.  0.
     999903    2    3    3    0    0 -0.11641004792E+00  0.53602248352E-01  0.40554765977E-01  0.13561163036E+00  0.17925539339E-01 0.  0.
         14    1    1    2    0    0 -0.15162641924E-01  0.60989483557E-03  0.42583400587E-02  0.15761064110E-01  0.00000000000E+00 0.  1.
     999901    1    3    3    0    0  0.13157268984E+00 -0.54212143188E-01 -0.44813106036E-01  0.89255730553E+00  0.88000000000E+00 0.  1.
        -11    1    4    4    0    0 -0.79144836930E-01  0.38572420607E-01  0.19238572323E-01  0.90122808601E-01  0.51100000000E-03 0. -1.
         11    1    4    4    0    0 -0.37265210989E-01  0.15029827745E-01  0.21316193655E-01  0.45488821759E-01  0.51100000000E-03 0.  1.
</event>
<event>
 8    1  0.1207611E+005  0.1043930E+01  0.7957747E-01            NaN
         13   -1    0    0    0    0  0.00000000000E+00  0.00000000000E+00  0.74505805969E-08  0.10566000000E+00  0.10566000000E+00 0.  1.
     999900   -1    0    0    0    0 -0.00000000000E+00 -0.00000000000E+00 -0.74505805969E-08  0.93827000000E+00  0.93827000000E+00 0.  1.
     999902    2    1    2    0    0  0.77927196394E-02  0.20630308139E-01 -0.72719530835E-02  0.10207089450E+01  0.10204447722E+01 0.  0.
     999903    2    3    3    0    0  0.10753360810E+00  0.12906351103E-01  0.71673401640E-01  0.13152939431E+00  0.20805150701E-01 0.  0.
         14    1    1    2    0    0 -0.77927196394E-02 -0.20630308139E-01  0.72719530835E-02  0.23221054992E-01  0.00000000000E+00 0. -1.
     999901    1    3    3    0    0 -0.99740888460E-01  0.77239570359E-02 -0.78945354724E-01  0.88917955070E+00  0.88000000000E+00 0. -1.
        -11    1    4    4    0    0  0.70173119582E-01 -0.70176215930E-03  0.50664451820E-01  0.86555802701E-01  0.51100000000E-03 0. -1.
         11    1    4    4    0    0  0.37360488517E-01  0.13608113263E-01  0.21008949821E-01  0.44973591611E-01  0.51100000000E-03 0.  1.
</event>
<event>
 8    1  0.1207611E+005  0.1043930E+01  0.7957747E-01            NaN
         13   -1    0    0    0    0  0.00000000000E+00  0.00000000000E+00  0.74505805969E-08  0.10566000000E+00  0.10566000000E+00 0.  1.
     999900   -1    0    0    0    0 -0.00000000000E+00 -0.00000000000E+00 -0.74505805969E-08  0.93827000000E+00  0.93827000000E+00 0. -1.
     999902    2    1    2    0    0  0.12078914362E-01 -0.20592906450E-01 -0.90899565896E-03  0.10200386995E+01  0.10197588706E+01 0.  0.
     999903    2    3    3    0    0 -0.74579640246E-01  0.10153580876E+00 -0.16482193045E-02  0.12738777406E+00  0.18795881291E-01 0.  0.
         14    1    1    2    0    0 -0.12078914362E-01  0.20592906450E-01  0.90899565896E-03  0.23891300537E-01  0.00000000000E+00 0. -1.
     999901    1    3    3    0    0  0.86658554608E-01 -0.12212871521E+00  0.73922364558E-03  0.89265092540E+00  0.88000000000E+00 0.  1.
        -11    1    4    4    0    0 -0.16890163844E-01  0.13561490273E-01 -0.45697615977E-02  0.22143520388E-01  0.51100000000E-03 0.  1.
         11    1    4    4    0    0 -0.57689476402E-01  0.87974318490E-01  0.29215422932E-02  0.10524425367E+00  0.51100000000E-03 0. -1.
</event>
<event>
 8    1  0.1207611E+005  0.1043930E+01  0.7957747E-01            NaN
         13   -1    0    0    0    0  0.00000000000E+00  0.00000000000E+00  0.74505805969E-08  0.10566000000E+00  0.10566000000E+00 0.  1.
     999900   -1    0    0    0    0 -0.00000000000E+00 -0.00000000000E+00 -0.74505805969E-08  0.93827000000E+00  0.93827000000E+00 0.  1.
     999902    2    1    2    0    0 -0.53974088930E-02 -0.22935483017E-01 -0.26576460171E-02  0.10202185790E+01  0.10199429971E+01 0.  0.
     999903    2    3    3    0    0 -0.11211786845E+00 -0.54942291074E-01 -0.39492330652E-01  0.13242891570E+00  0.19715520789E-01 0.  0.
         14    1    1    2    0    0  0.53974088930E-02  0.22935483017E-01  0.26576460171E-02  0.23711421011E-01  0.00000000000E+00 0. -1.
     999901    1    3    3    0    0  0.10672045955E+00  0.32006808057E-01  0.36834684635E-01  0.88778966329E+00  0.88000000000E+00 0. -1.
        -11    1    4    4    0    0 -0.26485491566E-01 -0.47282775650E-02 -0.11690963537E-01  0.29339011940E-01  0.51100000000E-03 0.  1.
         11    1    4    4    0    0 -0.85632376881E-01 -0.50214013509E-01 -0.27801367115E-01  0.10308990376E+00  0.51100000000E-03 0. -1.
</event>
<event>
 8    1  0.1207611E+005  0.1043930E+01  0.7957747E-01            NaN
         13   -1    0    0    0    0  0.00000000000E+00  0.00000000000E+00  0.74505805969E-08  0.10566000000E+00  0.10566000000E+00 0. -1.
     999900   -1    0    0    0    0 -0.00000000000E+00 -0.00000000000E+00 -0.74505805969E-08  0.93827000000E+00  0.93827000000E+00 0. -1.
     999902    2    1    2    0    0  0.20972566698E-01 -0.11237278622E-01  0.10462555691E-02  0.10201136267E+01  0.10198355710E+01 0.  0.
     999903    2    3    3    0    0 -0.73629289841E-01  0.17021604385E-01 -0.10242068849E+00  0.12856806747E+00  0.18131276950E-01 0.  0.
         14    1    1    2    0    0 -0.20972566698E-01  0.11237278622E-01 -0.10462555691E-02  0.23816373264E-01  0.00000000000E+00 0.  1.
     999901    1    3    3    0    0  0.94601856539E-01 -0.28258883007E-01  0.10346694406E+00  0.89154555926E+00  0.88000000000E+00 0.  1.
        -11    1    4    4    0    0 -0.54960557671E-01  0.15055699333E-01 -0.63297700137E-01  0.85171573577E-01  0.51100000000E-03 0. -1.
         11    1    4    4    0    0 -0.18668732170E-01  0.19659050518E-02 -0.39122988356E-01  0.43396493895E-01  0.51100000000E-03 0.  1.
</event>
<event>
 8    1  0.1207611E+005  0.1043930E+01  0.7957747E-01            NaN
         13   -1    0    0    0    0  0.00000000000E+00  0.00000000000E+00  0.74505805969E-08  0.10566000000E+00  0.10566000000E+00 0. -1.
     999900   -1    0    0    0    0 -0.00000000000E+00 -0.00000000000E+00 -0.74505805969E-08  0.93827000000E+00  0.93827000000E+00 0. -1.
     999902    2    1    2    0    0  0.14002650521E-01 -0.18718408728E-01  0.28423080023E-02  0.10203815019E+01  0.10201097381E+01 0.  0.
     999903    2    3    3    0    0  0.23978171097E-03 -0.14222218939E-01 -0.12821054742E+00  0.13055877621E+00  0.20132574823E-01 0.  0.
         14    1    1    2    0    0 -0.14002650521E-01  0.18718408728E-01 -0.28423080023E-02  0.23548498077E-01  0.00000000000E+00 0.  1.
     999901    1    3    3    0    0  0.13762868810E-01 -0.44961897883E-02  0.13105285542E+00  0.88982272571E+00  0.88000000000E+00 0.  1.
        -11    1    4    4    0    0  0.10097934615E-01 -0.56915737613E-02 -0.59728375552E-01  0.60844903340E-01  0.51100000000E-03 0. -1.
         11    1    4    4    0    0 -0.98581529041E-02 -0.85306451779E-02 -0.68482171868E-01  0.69713872871E-01  0.51100000000E-03 0.  1.
</event>
<event>
 8    1  0.1207611E+005  0.1043930E+01  0.7957747E-01            NaN
         13   -1    0    0    0    0  0.00000000000E+00  0.00000000000E+00  0.74505805969E-08  0.10566000000E+00  0.10566000000E+00 0.  1.
     999900   -1    0    0    0    0 -0.00000000000E+00 -0.00000000000E+00 -0.74505805969E-08  0.93827000000E+00  0.93827000000E+00 0.  1.
     999902    2    1    2    0    0 -0.93051637072E-02 -0.22952189074E-01 -0.98410111494E-03  0.10191437637E+01  0.10188423105E+01 0.  0.
     999903    2    3    3    0    0  0.67838634137E-01 -0.10704149462E+00 -0.28159501206E-01  0.13135962371E+00  0.20060692410E-01 0.  0.
         14    1    1    2    0    0  0.93051637072E-02  0.22952189074E-01  0.98410111494E-03  0.24786236300E-01  0.00000000000E+00 0.  1.
     999901    1    3    3    0    0 -0.77143797844E-01  0.84089305547E-01  0.27175400091E-01  0.88778413999E+00  0.88000000000E+00 0. -1.
        -11    1    4    4    0    0  0.33026291207E-01 -0.35984360508E-01 -0.15355395911E-01  0.51202142696E-01  0.51100000000E-03 0. -1.
         11    1    4    4    0    0  0.34812342930E-01 -0.71057134113E-01 -0.12804105295E-01  0.80157481011E-01  0.51100000000E-03 0.  1.
</event>
<event>
 8    1  0.1207611E+005  0.1043930E+01  0.7957747E-01            NaN
         13   -1    0    0    0    0  0.00000000000E+00  0.00000000000E+00  0.74505805969E-08  0.10566000000E+00  0.10566000000E+00 0.  1.
     999900   -1    0    0    0    0 -0.00000000000E+00 -0.00000000000E+00 -0.74505805969E-08  0.93827000000E+00  0.93827000000E+00 0. -1.
     999902    2    1    2    0    0 -0.13394671935E-01  0.80355816507E-02 -0.17881177047E-01  0.10201871210E+01  0.10199107989E+01 0.  0.
     999903    2    3    3    0    0  0.10564160374E+00 -0.69762269521E-01 -0.12413812550E-01  0.12875454779E+00  0.19917533595E-01 0.  0.
         14    1    1    2    0    0  0.13394671935E-01 -0.80355816507E-02  0.17881177047E-01  0.23742878960E-01  0.00000000000E+00 0. -1.
     999901    1    3    3    0    0 -0.11903627568E+00  0.77797851172E-01 -0.54673644971E-02  0.89143257325E+00  0.88000000000E+00 0.  1.
        -11    1    4    4    0    0  0.26741585982E-01 -0.11229454424E-01 -0.93012186116E-02  0.30462876689E-01  0.51100000000E-03 0. -1.
         11    1    4    4    0    0  0.78900017762E-01 -0.58532815098E-01 -0.31125939381E-02  0.98291671102E-01  0.51100000000E-03 0.  1.
</event>
<event>
 8    1  0.1207611E+005  0.1043930E+01  0.7957747E-01            NaN
         13   -1    0    0    0    0  0.00000000000E+00  0.00000000000E+00  0.74505805969E-08  0.10566000000E+00  0.10566000000E+00 0.  1.
     999900   -1    0    0    0    0 -0.00000000000E+00 -0.00000000000E+00 -0.74505805969E-08  0.93827000000E+00  0.93827000000E+00 0. -1.
     999902    2    1    2    0    0  0.13666977851E-01  0.44648224882E-02  0.18769048009E-01  0.10202868596E+01  0.10200128812E+01 0.  0.
     999903    2    3    3    0    0  0.64592516534E-01  0.37060863393E-01  0.10931350307E+00  0.13357709273E+00  0.18646634012E-01 0.  0.
         14    1    1    2    0    0 -0.13666977851E-01 -0.44648224882E-02 -0.18769048009E-01  0.23643140370E-01  0.00000000000E+00 0. -1.
     999901    1    3    3    0    0 -0.50925538683E-01 -0.32596040905E-01 -0.90544455066E-01  0.88670976690E+00  0.88000000000E+00 0. -1.
        -11    1    4    4    0    0  0.23494333894E-01  0.20612011429E-01  0.57321427107E-01  0.65290473018E-01  0.51100000000E-03 0.  1.
         11    1    4    4    0    0  0.41098182640E-01  0.16448851964E-01  0.51992075968E-01  0.68286619712E-01  0.51100000000E-03 0. -1.
</event>
<event>
 8    1  0.1207611E+005  0.1043930E+01  0.7957747E-01            NaN
         13   -1    0    0    0    0  0.00000000000E+00  0.00000000000E+00  0.74505805969E-08  0.10566000000E+00  0.10566000000E+00 0. -1.
     999900   -1    0    0    0    0 -0.00000000000E+00 -0.00000000000E+00 -0.74505805969E-08  0.93827000000E+00  0.93827000000E+00 0. -1.
     999902    2    1    2    0    0  0.64862540170E-02  0.63275373421E-02  0.21880725687E-01  0.10202471924E+01  0.10199722831E+01 0.  0.
     999903    2    3    3    0    0  0.67123575288E-01  0.46238125714E-01  0.10381540508E+00  0.13346478870E+00  0.19790726691E-01 0.  0.
         14    1    1    2    0    0 -0.64862540170E-02 -0.63275373421E-02 -0.21880725687E-01  0.23682807616E-01  0.00000000000E+00 0.  1.
     999901    1    3    3    0    0 -0.60637321271E-01 -0.39910588372E-01 -0.81934679389E-01  0.88678240368E+00  0.88000000000E+00 0. -1.
        -11    1    4    4    0    0  0.15943413563E-01  0.10618116005E-01  0.12463487844E-01  0.22859056712E-01  0.51100000000E-03 0. -1.
         11    1    4    4    0    0  0.51180161726E-01  0.35620009709E-01  0.91351917232E-01  0.11060573199E+00  0.51100000000E-03 0.  1.
</event>
<event>
 8    1  0.1207611E+005  0.1043930E+01  0.7957747E-01            NaN
         13   -1    0    0    0    0  0.00000000000E+00  0.00000000000E+00  0.74505805969E-08  0.10566000000E+00  0.10566000000E+00 0.  1.
     999900   -1    0    0    0    0 -0.00000000000E+00 -0.00000000000E+00 -0.74505805969E-08  0.93827000000E+00  0.93827000000E+00 0.  1.
     999902    2    1    2    0    0  0.26712397962E-01 -0.43428554276E-03 -0.12990303796E-01  0.10142232869E+01  0.10137881371E+01 0.  0.
     999903    2    3    3    0    0  0.12475113273E+00  0.18739430220E-01  0.11626480781E-01  0.12822937556E+00  0.19839010537E-01 0.  0.
         14    1    1    2    0    0 -0.26712397962E-01  0.43428554276E-03  0.12990303796E-01  0.29706713072E-01  0.00000000000E+00 0.  1.
     999901    1    3    3    0    0 -0.98038734770E-01 -0.19173715762E-01 -0.24616784577E-01  0.88599391136E+00  0.88000000000E+00 0. -1.
        -11    1    4    4    0    0  0.10868537799E+00  0.21306514147E-01  0.56842484727E-02  0.11090108536E+00  0.51100000000E-03 0.  1.
         11    1    4    4    0    0  0.16065754747E-01 -0.25670839271E-02  0.59422323086E-02  0.17328290201E-01  0.51100000000E-03 0. -1.
</event>
<event>
 8    1  0.1207611E+005  0.1043930E+01  0.7957747E-01            NaN
         13   -1    0    0    0    0  0.00000000000E+00  0.00000000000E+00  0.74505805969E-08  0.10566000000E+00  0.10566000000E+00 0.  1.
     999900   -1    0    0    0    0 -0.00000000000E+00 -0.00000000000E+00 -0.74505805969E-08  0.93827000000E+00  0.93827000000E+00 0.  1.
     999902    2    1    2    0    0  0.78134096532E-02  0.21286252837E-01 -0.49245623783E-02  0.10207264390E+01  0.10204626686E+01 0.  0.
     999903    2    3    3    0    0 -0.35244998407E-01  0.10783594103E+00  0.65893939545E-01  0.13260474953E+00  0.19266765080E-01 0.  0.
         14    1    1    2    0    0 -0.78134096532E-02 -0.21286252837E-01  0.49245623783E-02  0.23203561038E-01  0.00000000000E+00 0.  1.
     999901    1    3    3    0    0  0.43058408060E-01 -0.86549688198E-01 -0.70818501923E-01  0.88812168944E+00  0.88000000000E+00 0.  1.
        -11    1    4    4    0    0 -0.33890927670E-01  0.76508342428E-01  0.49329450199E-01  0.97137928829E-01  0.51100000000E-03 0.  1.
         11    1    4    4    0    0 -0.13540707368E-02  0.31327598607E-01  0.16564489346E-01  0.35466820697E-01  0.51100000000E-03 0. -1.
</event>
<event>
 8    1  0.1207611E+005  0.1043930E+01  0.7957747E-01            NaN
         13   -1    0    0    0    0  0.00000000000E+00  0.00000000000E+00  0.74505805969E-08  0.10566000000E+00  0.10566000000E+00 0.  1.
     999900   -1    0    0    0    0 -0.00000000000E+00 -0.00000000000E+00 -0.74505805969E-08  0.93827000000E+00  0.93827000000E+00 0.  1.
     999902    2    1    2    0    0 -0.20545224093E-01 -0.25441333689E-02 -0.67141270042E-02  0.10221663066E+01  0.10219345870E+01 0.  0.
     999903    2    3    3    0    0 -0.93014955760E-01  0.40889536659E-01 -0.86019903921E-01  0.13456969107E+00  0.19642853186E-01 0.  0.
         14    1    1    2    0    0  0.20545224093E-01  0.25441333689E-02  0.67141270042E-02  0.21763693369E-01  0.00000000000E+00 0.  1.
     999901    1    3    3    0    0  0.72469731667E-01 -0.43433670027E-01  0.79305776917E-01  0.88759661556E+00  0.88000000000E+00 0.  1.
        -11    1    4    4    0    0 -0.54927049754E-01  0.34252639478E-01 -0.51151461690E-01  0.82504286312E-01  0.51100000000E-03 0. -1.
         11    1    4    4    0    0 -0.38087906007E-01  0.66368971809E-02 -0.34868442231E-01  0.52065404759E-01  0.51100000000E-03 0.  1.
</event>
<event>
 8    1  0.1207611E+005  0.1043930E+01  0.7957747E-01            NaN
         13   -1    0    0    0    0  0.00000000000E+00  0.00000000000E+00  0.74505805969E-08  0.10566000000E+00  0.10566000000E+00 0.  1.
     999900   -1    0    0    0    0 -0.00000000000E+00 -0.00000000000E+00 -0.74505805969E-08  0.93827000000E+00  0.93827000000E+00 0.  1.
     999902    2    1    2    0    0 -0.17406421055E-01 -0.16744834582E-01  0.61124090119E-02  0.10190154556E+01  0.10187108344E+01 0.  0.
     999903    2    3    3    0    0  0.12144363290E+00 -0.33124248909E-01  0.89925085601E-02  0.12797341524E+00  0.21226350640E-01 0.  0.
         14    1    1    2    0    0  0.17406421055E-01  0.16744834582E-01 -0.61124090119E-02  0.24914544408E-01  0.00000000000E+00 0. -1.
     999901    1    3    3    0    0 -0.13885005395E+00  0.16379414327E-01 -0.28800995482E-02  0.89104204035E+00  0.88000000000E+00 0.  1.
        -11    1    4    4    0    0  0.81635471895E-01 -0.30063697390E-01 -0.21328194158E-03  0.86997027434E-01  0.51100000000E-03 0. -1.
         11    1    4    4    0    0  0.39808161003E-01 -0.30605515185E-02  0.92057905017E-02  0.40976387808E-01  0.51100000000E-03 0.  1.
</event>
<event>
 8    1  0.1207611E+005  0.1043930E+01  0.7957747E-01            NaN
         13   -1    0    0    0    0  0.00000000000E+00  0.00000000000E+00  0.74505805969E-08  0.10566000000E+00  0.10566000000E+00 0.  1.
     999900   -1    0    0    0    0 -0.00000000000E+00 -0.00000000000E+00 -0.74505805969E-08  0.93827000000E+00  0.93827000000E+00 0.  1.
     999902    2    1    2    0    0 -0.22660549188E-01  0.11457848155E-02 -0.64896974831E-02  0.10203306465E+01  0.10200576938E+01 0.  0.
     999903    2    3    3    0    0 -0.23498428865E-01  0.12534640940E+00  0.23151574715E-01  0.13111464225E+00  0.19777651310E-01 0.  0.
         14    1    1    2    0    0  0.22660549188E-01 -0.11457848155E-02  0.64896974831E-02  0.23599353503E-01  0.00000000000E+00 0.  1.
     999901    1    3    3    0    0  0.83787967768E-03 -0.12420062459E+00 -0.29641272198E-01  0.88921600425E+00  0.88000000000E+00 0. -1.
        -11    1    4    4    0    0 -0.13610408329E-01  0.40542352911E-01  0.46351640668E-03  0.42771504099E-01  0.51100000000E-03 0. -1.
         11    1    4    4    0    0 -0.98880205357E-02  0.84804056493E-01  0.22688058309E-01  0.88343138152E-01  0.51100000000E-03 0.  1.
</event>
<event>
 8    1  0.1207611E+005  0.1043930E+01  0.7957747E-01            NaN
         13   -1    0    0    0    0  0.00000000000E+00  0.00000000000E+00  0.74505805969E-08  0.10566000000E+00  0.10566000000E+00 0. -1.
     999900   -1    0    0    0    0 -0.00000000000E+00 -0.00000000000E+00 -0.74505805969E-08  0.93827000000E+00  0.93827000000E+00 0. -1.
     999902    2    1    2    0    0  0.77321221336E-02  0.14606801694E-01  0.17706621276E-01  0.10197087530E+01  0.10194210475E+01 0.  0.
     999903    2    3    3    0    0  0.38482908250E-01  0.66066088617E-01  0.10735376467E+00  0.13312526604E+00  0.18757488587E-01 0.  0.
         14    1    1    2    0    0 -0.77321221336E-02 -0.14606801694E-01 -0.17706621276E-01  0.24221246983E-01  0.00000000000E+00 0.  1.
     999901    1    3    3    0    0 -0.30750786117E-01 -0.51459286923E-01 -0.89647143391E-01  0.88658348697E+00  0.88000000000E+00 0. -1.
        -11    1    4    4    0    0  0.16041308379E-01  0.14806318007E-01  0.39872263282E-01  0.45459972808E-01  0.51100000000E-03 0.  1.
         11    1    4    4    0    0  0.22441599871E-01  0.51259770609E-01  0.67481501385E-01  0.87665293235E-01  0.51100000000E-03 0. -1.
</event>
<event>
 8    1  0.1207611E+005  0.1043930E+01  0.7957747E-01            NaN
         13   -1    0    0    0    0  0.00000000000E+00  0.00000000000E+00  0.74505805969E-08  0.10566000000E+00  0.10566000000E+00 0. -1.
     999900   -1    0    0    0    0 -0.00000000000E+00 -0.00000000000E+00 -0.74505805969E-08  0.93827000000E+00  0.93827000000E+00 0. -1.
     999902    2    1    2    0    0 -0.19309053527E-01  0.84444837915E-02  0.11241296841E-01  0.10200445314E+01  0.10197648408E+01 0.  0.
     999903    2    3    3    0    0  0.46080616179E-01 -0.61420912744E-01 -0.99881450006E-01  0.12790931330E+00  0.22102865533E-01 0.  0.
         14    1    1    2    0    0  0.19309053527E-01 -0.84444837915E-02 -0.11241296841E-01  0.23885468579E-01  0.00000000000E+00 0. -1.
     999901    1    3    3    0    0 -0.65389669706E-01  0.69865396536E-01  0.11112274685E+00  0.89213521812E+00  0.88000000000E+00 0. -1.
        -11    1    4    4    0    0  0.13603988299E-01 -0.29658470616E-01 -0.55596154658E-01  0.64466168730E-01  0.51100000000E-03 0. -1.
         11    1    4    4    0    0  0.32476627880E-01 -0.31762442128E-01 -0.44285295348E-01  0.63443144574E-01  0.51100000000E-03 0.  1.
</event>
<event>
 8    1  0.1207611E+005  0.1043930E+01  0.7957747E-01            NaN
         13   -1    0    0    0    0  0.00000000000E+00  0.00000000000E+00  0.74505805969E-08  0.10566000000E+00  0.10566000000E+00 0. -1.
     999900   -1    0    0    0    0 -0.00000000000E+00 -0.00000000000E+00 -0.74505805969E-08  0.93827000000E+00  0.93827000000E+00 0. -1.
     999902    2    1    2    0    0  0.23148223765E-01  0.27565296548E-02 -0.62080447424E-02  0.10198057686E+01  0.10195203908E+01 0.  0.
     999903    2    3    3    0    0  0.11905987687E+00  0.55573729106E-01 -0.35369164437E-03  0.13300084352E+00  0.20625363802E-01 0.  0.
         14    1    1    2    0    0 -0.23148223765E-01 -0.27565296548E-02  0.62080447424E-02  0.24124231361E-01  0.00000000000E+00 0.  1.
     999901    1    3    3    0    0 -0.95911653110E-01 -0.52817199451E-01 -0.58543530980E-02  0.88680492512E+00  0.88000000000E+00 0.  1.
        -11    1    4    4    0    0  0.50114483974E-01  0.34407371551E-01  0.22191990036E-02  0.60831855851E-01  0.51100000000E-03 0.  1.
         11    1    4    4    0    0  0.68945392901E-01  0.21166357555E-01 -0.25728906480E-02  0.72168987672E-01  0.51100000000E-03 0. -1.
</event>
<event>
 8    1  0.1207611E+005  0.1043930E+01  0.7957747E-01            NaN
         13   -1    0    0    0    0  0.00000000000E+00  0.00000000000E+00  0.74505805969E-08  0.10566000000E+00  0.10566000000E+00 0.  1.
     999900   -1    0    0    0    0 -0.00000000000E+00 -0.00000000000E+00 -0.74505805969E-08  0.93827000000E+00  0.93827000000E+00 0. -1.
     999902    2    1    2    0    0  0.59599783268E-02  0.16669971606E-01  0.17688356868E-01  0.10189042680E+01  0.10185968879E+01 0.  0.
     999903    2    3    3    0    0 -0.28376242895E-01  0.32200022544E-01 -0.11834667474E+00  0.12765475835E+00  0.21160087337E-01 0.  0.
         14    1    1    2    0    0 -0.59599783268E-02 -0.16669971606E-01 -0.17688356868E-01  0.25025732031E-01  0.00000000000E+00 0. -1.
     999901    1    3    3    0    0  0.34336221222E-01 -0.15530050938E-01  0.13603503160E+00  0.89124950962E+00  0.88000000000E+00 0.  1.
        -11    1    4    4    0    0 -0.19950181044E-01  0.16088005235E-01 -0.92925440321E-01  0.96396225112E-01  0.51100000000E-03 0.  1.
         11    1    4    4    0    0 -0.84260618511E-02  0.16112017309E-01 -0.25421234416E-01  0.31258533239E-01  0.51100000000E-03 0. -1.
</event>
<event>
 8    1  0.1207611E+005  0.1043930E+01  0.7957747E-01            NaN
         13   -1    0    0    0    0  0.00000000000E+00  0.00000000000E+00  0.74505805969E-08  0.10566000000E+00  0.10566000000E+00 0.  1.
     999900   -1    0    0    0    0 -0.00000000000E+00 -0.00000000000E+00 -0.74505805969E-08  0.93827000000E+00  0.93827000000E+00 0.  1.
     999902    2    1    2    0    0  0.40895835122E-02 -0.13123714733E-02 -0.23455341303E-01  0.10200846640E+01  0.10198059236E+01 0.  0.
     999903    2    3    3    0    0  0.44989914245E-01 -0.80682568144E-01  0.87330687815E-01  0.12865546918E+00  0.19794229700E-01 0.  0.
         14    1    1    2    0    0 -0.40895835122E-02  0.13123714733E-02  0.23455341303E-01  0.23845335976E-01  0.00000000000E+00 0.  1.
     999901    1    3    3    0    0 -0.40900330733E-01  0.79370196671E-01 -0.11078602912E+00  0.89142919484E+00  0.88000000000E+00 0.  1.
        -11    1    4    4    0    0  0.18118911978E-01 -0.21756162465E-01  0.37216586692E-01  0.46764955068E-01  0.51100000000E-03 0.  1.
         11    1    4    4    0    0  0.26871002267E-01 -0.58926405679E-01  0.50114101122E-01  0.81890514111E-01  0.51100000000E-03 0. -1.
</event>
<event>
 8    1  0.1207611E+005  0.1043930E+01  0.7957747E-01            NaN
         13   -1    0    0    0    0  0.00000000000E+00  0.00000000000E+00  0.74505805969E-08  0.10566000000E+00  0.10566000000E+00 0.  1.
     999900   -1    0    0    0    0 -0.00000000000E+00 -0.00000000000E+00 -0.74505805969E-08  0.93827000000E+00  0.93827000000E+00 0.  1.
     999902    2    1    2    0    0  0.18318607200E-01  0.97075376300E-02  0.12841134179E-01  0.10195434795E+01  0.10192517864E+01 0.  0.
     999903    2    3    3    0    0 -0.24930441146E-01 -0.53216829654E-01 -0.11147422460E+00  0.12753212046E+00  0.19605640594E-01 0.  0.
         14    1    1    2    0    0 -0.18318607200E-01 -0.97075376300E-02 -0.12841134179E-01  0.24386520530E-01  0.00000000000E+00 0. -1.
     999901    1    3    3    0    0  0.43249048346E-01  0.62924367284E-01  0.12431535878E+00  0.89201135901E+00  0.88000000000E+00 0. -1.
        -11    1    4    4    0    0 -0.14662998129E-01 -0.41279069740E-01 -0.64372216028E-01  0.77865322385E-01  0.51100000000E-03 0. -1.
         11    1    4    4    0    0 -0.10267443018E-01 -0.11937759914E-01 -0.47102008575E-01  0.49666798071E-01  0.51100000000E-03 0.  1.
</event>
<event>
 8    1  0.1207611E+005  0.1043930E+01  0.7957747E-01            NaN
         13   -1    0    0    0    0  0.00000000000E+00  0.00000000000E+00  0.74505805969E-08  0.10566000000E+00  0.10566000000E+00 0.  1.
     999900   -1    0    0    0    0 -0.00000000000E+00 -0.00000000000E+00 -0.74505805969E-08  0.93827000000E+00  0.93827000000E+00 0. -1.
     999902    2    1    2    0    0  0.44950911169E-02 -0.26927526600E-01 -0.11989428457E-01  0.10141131603E+01  0.10136747299E+01 0.  0.
     999903    2    3    3    0    0 -0.92218151545E-01  0.46240514655E-02 -0.82746142152E-01  0.12543129042E+00  0.18987239091E-01 0.  0.
         14    1    1    2    0    0 -0.44950911169E-02  0.26927526600E-01  0.11989428457E-01  0.29816839667E-01  0.00000000000E+00 0. -1.
     999901    1    3    3    0    0  0.96713242662E-01 -0.31551578066E-01  0.70756713695E-01  0.88868186992E+00  0.88000000000E+00 0.  1.
        -11    1    4    4    0    0 -0.61889564818E-01 -0.18575950330E-02 -0.44831225915E-01  0.76445201489E-01  0.51100000000E-03 0.  1.
         11    1    4    4    0    0 -0.30328586727E-01  0.64816464985E-02 -0.37914916237E-01  0.48986088928E-01  0.51100000000E-03 0. -1.
</event>
<event>
 8    1  0.1207611E+005  0.1043930E+01  0.7957747E-01            NaN
         13   -1    0    0    0    0  0.00000000000E+00  0.00000000000E+00  0.74505805969E-08  0.10566000000E+00  0.10566000000E+00 0. -1.
     999900   -1    0    0    0    0 -0.00000000000E+00 -0.00000000000E+00 -0.74505805969E-08  0.93827000000E+00  0.93827000000E+00 0.  1.
     999902    2    1    2    0    0 -0.77751855940E-03  0.21650494575E-01 -0.24493772704E-02  0.10221275254E+01  0.10218949703E+01 0.  0.
     999903    2    3    3    0    0 -0.12955176793E-01 -0.62498879453E-01 -0.11286076740E+00  0.13116170809E+00  0.19796320672E-01 0.  0.
         14    1    1    2    0    0  0.77751855940E-03 -0.21650494575E-01  0.24493772704E-02  0.21802474618E-01  0.00000000000E+00 0. -1.
     999901    1    3    3    0    0  0.12177658233E-01  0.84149374028E-01  0.11041139013E+00  0.89096581729E+00  0.88000000000E+00 0. -1.
        -11    1    4    4    0    0 -0.15113085401E-02 -0.49248712044E-01 -0.85152957698E-01  0.98381944569E-01  0.51100000000E-03 0.  1.
         11    1    4    4    0    0 -0.11443868253E-01 -0.13250167409E-01 -0.27707809704E-01  0.32779763522E-01  0.51100000000E-03 0. -1.
</event>
<event>
 8    1  0.1207611E+005  0.1043930E+01  0.7957747E-01            NaN
         13   -1    0    0    0    0  0.00000000000E+00  0.00000000000E+00  0.74505805969E-08  0.10566000000E+00  0.10566000000E+00 0. -1.
     999900   -1    0    0    0    0 -0.00000000000E+00 -0.00000000000E+00 -0.74505805969E-08  0.93827000000E+00  0.93827000000E+00 0. -1.
     999902    2    1    2    0    0  0.41578933015E-02 -0.83870249075E-02  0.22153561574E-01  0.10198798326E+01  0.10195962251E+01 0.  0.
     999903    2    3    3    0    0  0.86351622642E-01 -0.15577005685E-01 -0.92104702915E-01  0.12866579768E+00  0.19296770555E-01 0.  0.
         14    1    1    2    0    0 -0.41578933015E-02  0.83870249075E-02 -0.22153561574E-01  0.24050167440E-01  0.00000000000E+00 0.  1.
     999901    1    3    3    0    0 -0.82193729341E-01  0.71899807772E-02  0.11425826449E+00  0.89121403488E+00  0.88000000000E+00 0.  1.
        -11    1    4    4    0    0  0.27284700953E-01  0.37976749883E-02 -0.31455742142E-01  0.41816289602E-01  0.51100000000E-03 0. -1.
         11    1    4    4    0    0  0.59066921689E-01 -0.19374680673E-01 -0.60648960774E-01  0.86849508075E-01  0.51100000000E-03 0.  1.
</event>
<event>
 8    1  0.1207611E+005  0.1043930E+01  0.7957747E-01            NaN
         13   -1    0    0    0    0  0.00000000000E+00  0.00000000000E+00  0.74505805969E-08  0.10566000000E+00  0.10566000000E+00 0.  1.
     999900   -1    0    0    0    0 -0.00000000000E+00 -0.00000000000E+00 -0.74505805969E-08  0.93827000000E+00  0.93827000000E+00 0. -1.
     999902    2    1    2    0    0  0.35849809741E-03 -0.18530453658E-01  0.94734523136E-02  0.10231152809E+01  0.10229035269E+01 0.  0.
     999903    2    3    3    0    0 -0.68261111324E-02 -0.11640747673E+00 -0.63837604070E-01  0.13463002987E+00  0.21276955083E-01 0.  0.
         14    1    1    2    0    0 -0.35849809741E-03  0.18530453658E-01 -0.94734523136E-02  0.20814719129E-01  0.00000000000E+00 0.  1.
     999901    1    3    3    0    0  0.71846092298E-02  0.97877023074E-01  0.73311056384E-01  0.88848525100E+00  0.88000000000E+00 0.  1.
        -11    1    4    4    0    0 -0.63638419761E-02 -0.42476087339E-01 -0.34478852732E-01  0.55079659467E-01  0.51100000000E-03 0.  1.
         11    1    4    4    0    0 -0.46226915630E-03 -0.73931389393E-01 -0.29358751338E-01  0.79550370405E-01  0.51100000000E-03 0. -1.
</event>
<event>
 8    1  0.1207611E+005  0.1043930E+01  0.7957747E-01            NaN
         13   -1    0    0    0    0  0.00000000000E+00  0.00000000000E+00  0.74505805969E-08  0.10566000000E+00  0.10566000000E+00 0. -1.
     999900   -1    0    0    0    0 -0.00000000000E+00 -0.00000000000E+00 -0.74505805969E-08  0.93827000000E+00  0.93827000000E+00 0.  1.
     999902    2    1    2    0    0  0.11626508785E-01  0.20825576573E-01 -0.43239663727E-02  0.10196900117E+01  0.10194018555E+01 0.  0.
     999903    2    3    3    0    0 -0.17393990240E-03 -0.93743774768E-01 -0.85318619392E-01  0.12849669899E+00  0.21076272765E-01 0.  0.
         14    1    1    2    0    0 -0.11626508785E-01 -0.20825576573E-01  0.43239663727E-02  0.24239988269E-01  0.00000000000E+00 0. -1.
     999901    1    3    3    0    0  0.11800448687E-01  0.11456935134E+00  0.80994653019E-01  0.89119331274E+00  0.88000000000E+00 0. -1.
        -11    1    4    4    0    0 -0.69358591555E-02 -0.13319915893E-01 -0.96127878341E-02  0.17837968286E-01  0.51100000000E-03 0.  1.
         11    1    4    4    0    0  0.67619192531E-02 -0.80423858875E-01 -0.75705831557E-01  0.11065873070E+00  0.51100000000E-03 0. -1.
</event>
<event>
 8    1  0.1207611E+005  0.1043930E+01  0.7957747E-01            NaN
         13   -1    0    0    0    0  0.00000000000E+00  0.00000000000E+00  0.74505805969E-08  0.10566000000E+00  0.10566000000E+00 0. -1.
     999900   -1    0    0    0    0 -0.00000000000E+00 -0.00000000000E+00 -0.74505805969E-08  0.93827000000E+00  0.93827000000E+00 0.  1.
     999902    2    1    2    0    0 -0.93898485356E-02  0.11025436543E-01  0.14502035428E-01  0.10234351583E+01  0.10232299275E+01 0.  0.
     999903    2    3    3    0    0 -0.13303919869E+00 -0.25432409549E-02  0.29751316672E-03  0.13457350465E+00  0.20100825309E-01 0.  0.
         14    1    1    2    0    0  0.93898485356E-02 -0.11025436543E-01 -0.14502035428E-01  0.20494841742E-01  0.00000000000E+00 0.  1.
     999901    1    3    3    0    0  0.12364935015E+00  0.13568677498E-01  0.14204522262E-01  0.88886165361E+00  0.88000000000E+00 0.  1.
        -11    1    4    4    0    0 -0.43564161922E-01  0.73642839114E-02  0.47522866570E-02  0.44440007099E-01  0.51100000000E-03 0. -1.
         11    1    4    4    0    0 -0.89475036764E-01 -0.99075248663E-02 -0.44547734903E-02  0.90133497551E-01  0.51100000000E-03 0.  1.
</event>
<event>
 8    1  0.1207611E+005  0.1043930E+01  0.7957747E-01            NaN
         13   -1    0    0    0    0  0.00000000000E+00  0.00000000000E+00  0.74505805969E-08  0.10566000000E+00  0.10566000000E+00 0. -1.
     999900   -1    0    0    0    0 -0.00000000000E+00 -0.00000000000E+00 -0.74505805969E-08  0.93827000000E+00  0.93827000000E+00 0. -1.
     999902    2    1    2    0    0  0.69541868886E-02  0.18824671042E-01  0.12095641133E-01  0.10204985363E+01  0.10202294983E+01 0.  0.
     999903    2    3    3    0    0  0.27085930381E-01  0.83304441579E-01  0.98856187134E-01  0.13365564143E+00  0.20445222896E-01 0.  0.
         14    1    1    2    0    0 -0.69541868886E-02 -0.18824671042E-01 -0.12095641133E-01  0.23431463666E-01  0.00000000000E+00 0.  1.
     999901    1    3    3    0    0 -0.20131743493E-01 -0.64479770537E-01 -0.86760546001E-01  0.88684289491E+00  0.88000000000E+00 0.  1.
        -11    1    4    4    0    0  0.58164109170E-02  0.30200078531E-01  0.21872555618E-01  0.37743147584E-01  0.51100000000E-03 0. -1.
         11    1    4    4    0    0  0.21269519464E-01  0.53104363048E-01  0.76983631515E-01  0.95912493843E-01  0.51100000000E-03 0.  1.
</event>
<event>
 7    1  0.1207611E+005  0.1043930E+01  0.7957747E-01            NaN
         13   -1    0    0    0    0  0.00000000000E+00  0.00000000000E+00  0.74505805969E-08  0.10566000000E+00  0.10566000000E+00 0. -1.
     999900   -1    0    0    0    0 -0.00000000000E+00 -0.00000000000E+00 -0.74505805969E-08  0.93827000000E+00  0.93827000000E+00 0. -1.
     999903    2    1    2    0    0 -0.27187677135E-01  0.63504044192E-01 -0.12346184617E+00  0.14290168437E+00  0.20152680187E-01 0.  0.
         14    1    1    2    0    0 -0.72281609365E-02  0.44923555840E-02 -0.23267471431E-02  0.88227728909E-02  0.00000000000E+00 0.  1.
     999901    1    1    2    0    0  0.34415838071E-01 -0.67996399776E-01  0.12578859331E+00  0.89220554274E+00  0.88000000000E+00 0.  1.
        -11    1    3    3    0    0 -0.13866878985E-01  0.34885890036E-01 -0.46833378396E-01  0.60024512571E-01  0.51100000000E-03 0.  1.
         11    1    3    3    0    0 -0.13320798150E-01  0.28618154155E-01 -0.76628467773E-01  0.82877171795E-01  0.51100000000E-03 0. -1.
</event>
<event>
 8    1  0.1207611E+005  0.1043930E+01  0.7957747E-01            NaN
         13   -1    0    0    0    0  0.00000000000E+00  0.00000000000E+00  0.74505805969E-08  0.10566000000E+00  0.10566000000E+00 0. -1.
     999900   -1    0    0    0    0 -0.00000000000E+00 -0.00000000000E+00 -0.74505805969E-08  0.93827000000E+00  0.93827000000E+00 0.  1.
     999902    2    1    2    0    0 -0.77283066429E-02  0.14701391793E-01 -0.74737384953E-02  0.10257169714E+01  0.10255552598E+01 0.  0.
     999903    2    3    3    0    0 -0.65947529078E-01  0.38533677614E-01 -0.11235311963E+00  0.13725924009E+00  0.19569225782E-01 0.  0.
         14    1    1    2    0    0  0.77283066429E-02 -0.14701391793E-01  0.74737384953E-02  0.18213028614E-01  0.00000000000E+00 0. -1.
     999901    1    3    3    0    0  0.58219222436E-01 -0.23832285821E-01  0.10487938114E+00  0.88845773129E+00  0.88000000000E+00 0. -1.
        -11    1    4    4    0    0 -0.17315050204E-01  0.98450887316E-03 -0.22696819724E-01  0.28568986119E-01  0.51100000000E-03 0. -1.
         11    1    4    4    0    0 -0.48632478875E-01  0.37549168741E-01 -0.89656299907E-01  0.10869025397E+00  0.51100000000E-03 0.  1.
</event>
<event>
 8    1  0.1207611E+005  0.1043930E+01  0.7957747E-01            NaN
         13   -1    0    0    0    0  0.00000000000E+00  0.00000000000E+00  0.74505805969E-08  0.10566000000E+00  0.10566000000E+00 0.  1.
     999900   -1    0    0    0    0 -0.00000000000E+00 -0.00000000000E+00 -0.74505805969E-08  0.93827000000E+00  0.93827000000E+00 0. -1.
     999902    2    1    2    0    0  0.49505668182E-02  0.21752515933E-01 -0.10964810614E-01  0.10190722621E+01  0.10187690456E+01 0.  0.
     999903    2    3    3    0    0  0.70543923246E-01  0.10738666511E+00 -0.24811820256E-01  0.13237759336E+00  0.19996495908E-01 0.  0.
         14    1    1    2    0    0 -0.49505668182E-02 -0.21752515933E-01  0.10964810614E-01  0.24857737891E-01  0.00000000000E+00 0. -1.
     999901    1    3    3    0    0 -0.65593356428E-01 -0.85634149179E-01  0.13847009641E-01  0.88669466875E+00  0.88000000000E+00 0. -1.
        -11    1    4    4    0    0  0.96615362296E-02  0.16715772481E-01  0.33190067496E-02  0.19596919624E-01  0.51100000000E-03 0. -1.
         11    1    4    4    0    0  0.60882387016E-01  0.90670892630E-01 -0.28130827005E-01  0.11278067374E+00  0.51100000000E-03 0.  1.
</event>
<event>
 8    1  0.1207611E+005  0.1043930E+01  0.7957747E-01            NaN
         13   -1    0    0    0    0  0.00000000000E+00  0.00000000000E+00  0.74505805969E-08  0.10566000000E+00  0.10566000000E+00 0. -1.
     999900   -1    0    0    0    0 -0.00000000000E+00 -0.00000000000E+00 -0.74505805969E-08  0.93827000000E+00  0.93827000000E+00 0. -1.
     999902    2    1    2    0    0 -0.57820165258E-02  0.19036972624E-01  0.12769115391E-01  0.10202891804E+01  0.10200152564E+01 0.  0.
     999903    2    3    3    0    0 -0.59158500785E-01 -0.11239098636E+00  0.90930025362E-02  0.12892176389E+00  0.20166221262E-01 0.  0.
         14    1    1    2    0    0  0.57820165258E-02 -0.19036972624E-01 -0.12769115391E-01  0.23640819564E-01  0.00000000000E+00 0.  1.
     999901    1    3    3    0    0  0.53376484259E-01  0.13142795898E+00  0.36761128547E-02  0.89136741655E+00  0.88000000000E+00 0.  1.
        -11    1    4    4    0    0 -0.19238889519E-01 -0.56916653039E-01  0.75785329074E-02  0.60558529912E-01  0.51100000000E-03 0. -1.
         11    1    4    4    0    0 -0.39919611266E-01 -0.55474333319E-01  0.15144696288E-02  0.68363233979E-01  0.51100000000E-03 0.  1.
</event>
<event>
 8    1  0.1207611E+005  0.1043930E+01  0.7957747E-01            NaN
         13   -1    0    0    0    0  0.00000000000E+00  0.00000000000E+00  0.74505805969E-08  0.10566000000E+00  0.10566000000E+00 0.  1.
     999900   -1    0    0    0    0 -0.00000000000E+00 -0.00000000000E+00 -0.74505805969E-08  0.93827000000E+00  0.93827000000E+00 0. -1.
     999902    2    1    2    0    0  0.79555844147E-02 -0.21062015495E-01 -0.70096705330E-02  0.10203495992E+01  0.10200770899E+01 0.  0.
     999903    2    3    3    0    0  0.82671982177E-01  0.49911999280E-01  0.84119707779E-01  0.12966199155E+00  0.20254444096E-01 0.  0.
         14    1    1    2    0    0 -0.79555844147E-02  0.21062015495E-01  0.70096705330E-02  0.23580400783E-01  0.00000000000E+00 0.  1.
     999901    1    3    3    0    0 -0.74716397763E-01 -0.70974014775E-01 -0.91129378312E-01  0.89068760767E+00  0.88000000000E+00 0. -1.
        -11    1    4    4    0    0  0.46022774964E-01  0.24804785865E-01  0.32525178170E-01  0.61575332343E-01  0.51100000000E-03 0. -1.
         11    1    4    4    0    0  0.36649207213E-01  0.25107213415E-01  0.51594529609E-01  0.68086659203E-01  0.51100000000E-03 0.  1.
</event>
<event>
 8    1  0.1207611E+005  0.1043930E+01  0.7957747E-01            NaN
         13   -1    0    0    0    0  0.00000000000E+00  0.00000000000E+00  0.74505805969E-08  0.10566000000E+00  0.10566000000E+00 0.  1.
     999900   -1    0    0    0    0 -0.00000000000E+00 -0.00000000000E+00 -0.74505805969E-08  0.93827000000E+00  0.93827000000E+00 0. -1.
     999902    2    1    2    0    0  0.21395132632E-01 -0.12505264515E-01  0.42958189529E-02  0.10187787097E+01  0.10184681988E+01 0.  0.
     999903    2    3    3    0    0  0.13399834980E-01  0.12397567421E+00  0.21231059643E-01  0.12806114857E+00  0.19984406567E-01 0.  0.
         14    1    1    2    0    0 -0.21395132632E-01  0.12505264515E-01 -0.42958189529E-02  0.25151290254E-01  0.00000000000E+00 0. -1.
     999901    1    3    3    0    0  0.79952976518E-02 -0.13648093872E+00 -0.16935240690E-01  0.89071756118E+00  0.88000000000E+00 0.  1.
        -11    1    4    4    0    0  0.96304649512E-02  0.10753397543E+00  0.11489113061E-01  0.10857514709E+00  0.51100000000E-03 0. -1.
         11    1    4    4    0    0  0.37693700292E-02  0.16441698779E-01  0.97419465822E-02  0.19486001472E-01  0.51100000000E-03 0.  1.
</event>
<event>
 8    1  0.1207611E+005  0.1043930E+01  0.7957747E-01            NaN
         13   -1    0    0    0    0  0.00000000000E+00  0.00000000000E+00  0.74505805969E-08  0.10566000000E+00  0.10566000000E+00 0. -1.
     999900   -1    0    0    0    0 -0.00000000000E+00 -0.00000000000E+00 -0.74505805969E-08  0.93827000000E+00  0.93827000000E+00 0. -1.
     999902    2    1    2    0    0 -0.21071070412E-01 -0.46657779704E-02  0.10888493532E-01  0.10197573133E+01  0.10194707741E+01 0.  0.
     999903    2    3    3    0    0  0.88609940914E-02 -0.86028811878E-01 -0.94010239833E-01  0.12929697388E+00  0.20007712776E-01 0.  0.
         14    1    1    2    0    0  0.21071070412E-01  0.46657779704E-02 -0.10888493532E-01  0.24172686730E-01  0.00000000000E+00 0. -1.
     999901    1    3    3    0    0 -0.29932064503E-01  0.81363033907E-01  0.10489873336E+00  0.89046033939E+00  0.88000000000E+00 0.  1.
        -11    1    4    4    0    0  0.24359314184E-02 -0.65313270410E-01 -0.58678887065E-01  0.87836381766E-01  0.51100000000E-03 0.  1.
         11    1    4    4    0    0  0.64250626730E-02 -0.20715541467E-01 -0.35331352769E-01  0.41460592110E-01  0.51100000000E-03 0. -1.
</event>
<event>
 7    1  0.1207611E+005  0.1043930E+01  0.7957747E-01            NaN
         13   -1    0    0    0    0  0.00000000000E+00  0.00000000000E+00  0.74505805969E-08  0.10566000000E+00  0.10566000000E+00 0. -1.
     999900   -1    0    0    0    0 -0.00000000000E+00 -0.00000000000E+00 -0.74505805969E-08  0.93827000000E+00  0.93827000000E+00 0.  1.
     999903    2    1    2    0    0 -0.62039858931E-01  0.19019741000E-01 -0.22156298852E-01  0.71446259306E-01  0.20074156175E-01 0.  0.
         14    1    1    2    0    0 -0.67498655911E-02  0.82578335510E-01 -0.95736160281E-02  0.83405013668E-01  0.00000000000E+00 0. -1.
     999901    1    1    2    0    0  0.68789724522E-01 -0.10159807651E+00  0.31729914880E-01  0.88907872703E+00  0.88000000000E+00 0.  1.
        -11    1    3    3    0    0 -0.65378368023E-02  0.27863497344E-03 -0.94423059310E-02  0.11499530851E-01  0.51100000000E-03 0.  1.
         11    1    3    3    0    0 -0.55502022129E-01  0.18741106026E-01 -0.12713992921E-01  0.59946728455E-01  0.51100000000E-03 0. -1.
</event>
<event>
 8    1  0.1207611E+005  0.1043930E+01  0.7957747E-01            NaN
         13   -1    0    0    0    0  0.00000000000E+00  0.00000000000E+00  0.74505805969E-08  0.10566000000E+00  0.10566000000E+00 0.  1.
     999900   -1    0    0    0    0 -0.00000000000E+00 -0.00000000000E+00 -0.74505805969E-08  0.93827000000E+00  0.93827000000E+00 0. -1.
     999902    2    1    2    0    0  0.18849914850E-01  0.14300411559E-01 -0.10377820375E-01  0.10180935874E+01  0.10177657061E+01 0.  0.
     999903    2    3    3    0    0 -0.10059893406E+00  0.51256863326E-01  0.54003597753E-01  0.12692650214E+00  0.21131417439E-01 0.  0.
         14    1    1    2    0    0 -0.18849914850E-01 -0.14300411559E-01  0.10377820375E-01  0.25836412606E-01  0.00000000000E+00 0.  1.
     999901    1    3    3    0    0  0.11944884891E+00 -0.36956451767E-01 -0.64381418129E-01  0.89116708525E+00  0.88000000000E+00 0. -1.
        -11    1    4    4    0    0 -0.70488376686E-01  0.24972642159E-01  0.32533627408E-01  0.81553308563E-01  0.51100000000E-03 0. -1.
         11    1    4    4    0    0 -0.30110557379E-01  0.26284221168E-01  0.21469970346E-01  0.45373193581E-01  0.51100000000E-03 0.  1.
</event>
<event>
 8    1  0.1207611E+005  0.1043930E+01  0.7957747E-01            NaN
         13   -1    0    0    0    0  0.00000000000E+00  0.00000000000E+00  0.74505805969E-08  0.10566000000E+00  0.10566000000E+00 0.  1.
     999900   -1    0    0    0    0 -0.00000000000E+00 -0.00000000000E+00 -0.74505805969E-08  0.93827000000E+00  0.93827000000E+00 0. -1.
     999902    2    1    2    0    0  0.21951314497E-01  0.86239511617E-02  0.43190386971E-02  0.10199532021E+01  0.10196713430E+01 0.  0.
     999903    2    3    3    0    0  0.40940271500E-02  0.11802292804E+00  0.54429962444E-01  0.13158496566E+00  0.20144720797E-01 0.  0.
         14    1    1    2    0    0 -0.21951314497E-01 -0.86239511617E-02 -0.43190386971E-02  0.23976797890E-01  0.00000000000E+00 0.  1.
     999901    1    3    3    0    0  0.17857287347E-01 -0.10939897687E+00 -0.50110923747E-01  0.88836823645E+00  0.88000000000E+00 0. -1.
        -11    1    4    4    0    0 -0.69599311915E-02  0.53556631436E-01  0.29854355354E-01  0.61711401439E-01  0.51100000000E-03 0. -1.
         11    1    4    4    0    0  0.11053958342E-01  0.64466296599E-01  0.24575607091E-01  0.69873564222E-01  0.51100000000E-03 0.  1.
</event>
<event>
 8    1  0.1207611E+005  0.1043930E+01  0.7957747E-01            NaN
         13   -1    0    0    0    0  0.00000000000E+00  0.00000000000E+00  0.74505805969E-08  0.10566000000E+00  0.10566000000E+00 0. -1.
     999900   -1    0    0    0    0 -0.00000000000E+00 -0.00000000000E+00 -0.74505805969E-08  0.93827000000E+00  0.93827000000E+00 0.  1.
     999902    2    1    2    0    0  0.10518057746E-01 -0.16245092793E-01  0.13206289273E-01  0.10205005601E+01  0.10202315690E+01 0.  0.
     999903    2    3    3    0    0  0.49013587408E-01 -0.64851530779E-01 -0.99153495220E-01  0.13119228238E+00  0.27783926039E-01 0.  0.
         14    1    1    2    0    0 -0.10518057746E-01  0.16245092793E-01 -0.13206289273E-01  0.23429439920E-01  0.00000000000E+00 0.  1.
     999901    1    3    3    0    0 -0.38495529662E-01  0.48606437986E-01  0.11235978449E+00  0.88930827770E+00  0.88000000000E+00 0. -1.
        -11    1    4    4    0    0  0.20781618766E-02  0.28255100464E-02 -0.42288776434E-02  0.55178610829E-02  0.51100000000E-03 0.  1.
         11    1    4    4    0    0  0.46935425531E-01 -0.67677040826E-01 -0.94924617577E-01  0.12567442130E+00  0.51100000000E-03 0. -1.
</event>
<event>
 8    1  0.1207611E+005  0.1043930E+01  0.7957747E-01            NaN
         13   -1    0    0    0    0  0.00000000000E+00  0.00000000000E+00  0.74505805969E-08  0.10566000000E+00  0.10566000000E+00 0. -1.
     999900   -1    0    0    0    0 -0.00000000000E+00 -0.00000000000E+00 -0.74505805969E-08  0.93827000000E+00  0.93827000000E+00 0.  1.
     999902    2    1    2    0    0  0.17392102350E-01  0.37623132862E-02  0.15828775422E-01  0.10201142414E+01  0.10198362002E+01 0.  0.
     999903    2    3    3    0    0 -0.12242430370E-01  0.12454214484E+00 -0.29988960409E-01  0.13018995354E+00  0.19734824917E-01 0.  0.
         14    1    1    2    0    0 -0.17392102350E-01 -0.37623132862E-02 -0.15828775422E-01  0.23815758581E-01  0.00000000000E+00 0.  1.
     999901    1    3    3    0    0  0.29634532721E-01 -0.12077983155E+00  0.45817735831E-01  0.88992428788E+00  0.88000000000E+00 0.  1.
        -11    1    4    4    0    0 -0.11274074571E-01  0.28849733732E-01 -0.65755808459E-02  0.31668774499E-01  0.51100000000E-03 0. -1.
         11    1    4    4    0    0 -0.96835579908E-03  0.95692411105E-01 -0.23413379563E-01  0.98521179041E-01  0.51100000000E-03 0.  1.
</event>
<event>
 8    1  0.1207611E+005  0.1043930E+01  0.7957747E-01            NaN
         13   -1    0    0    0    0  0.00000000000E+00  0.00000000000E+00  0.74505805969E-08  0.10566000000E+00  0.10566000000E+00 0. -1.
     999900   -1    0    0    0    0 -0.00000000000E+00 -0.00000000000E+00 -0.74505805969E-08  0.93827000000E+00  0.93827000000E+00 0.  1.
     999902    2    1    2    0    0  0.65495716341E-02  0.23696583051E-01 -0.37717272204E-02  0.10190573069E+01  0.10187537209E+01 0.  0.
     999903    2    3    3    0    0  0.10269788555E+00 -0.70204829258E-01 -0.26795304455E-01  0.12855629138E+00  0.18252615278E-01 0.  0.
         14    1    1    2    0    0 -0.65495716341E-02 -0.23696583051E-01  0.37717272204E-02  0.24872693121E-01  0.00000000000E+00 0. -1.
     999901    1    3    3    0    0 -0.96148313914E-01  0.93901412308E-01  0.23023577234E-01  0.89050101550E+00  0.88000000000E+00 0. -1.
        -11    1    4    4    0    0  0.86088909201E-01 -0.61027411927E-01 -0.16041420566E-01  0.10673909119E+00  0.51100000000E-03 0.  1.
         11    1    4    4    0    0  0.16608976347E-01 -0.91774173308E-02 -0.10753883888E-01  0.21817200184E-01  0.51100000000E-03 0. -1.
</event>
<event>
 8    1  0.1207611E+005  0.1043930E+01  0.7957747E-01            NaN
         13   -1    0    0    0    0  0.00000000000E+00  0.00000000000E+00  0.74505805969E-08  0.10566000000E+00  0.10566000000E+00 0.  1.
     999900   -1    0    0    0    0 -0.00000000000E+00 -0.00000000000E+00 -0.74505805969E-08  0.93827000000E+00  0.93827000000E+00 0.  1.
     999902    2    1    2    0    0  0.53495593204E-02 -0.55719409441E-02 -0.22577979574E-01  0.10200672786E+01  0.10197881267E+01 0.  0.
     999903    2    3    3    0    0 -0.48438404022E-01 -0.10537667802E+00 -0.60872517764E-01  0.13196784600E+00  0.16109801453E-01 0.  0.
         14    1    1    2    0    0 -0.53495593204E-02  0.55719409441E-02  0.22577979574E-01  0.23862721396E-01  0.00000000000E+00 0.  1.
     999901    1    3    3    0    0  0.53787963342E-01  0.99804737077E-01  0.38294538190E-01  0.88809943261E+00  0.88000000000E+00 0.  1.
        -11    1    4    4    0    0 -0.19055547499E-01 -0.59881344752E-01 -0.30163407247E-01  0.69706395672E-01  0.51100000000E-03 0.  1.
         11    1    4    4    0    0 -0.29382856522E-01 -0.45495333269E-01 -0.30709110517E-01  0.62261450324E-01  0.51100000000E-03 0. -1.
</event>
<event>
 7    1  0.1207611E+005  0.1043930E+01  0.7957747E-01            NaN
         13   -1    0    0    0    0  0.00000000000E+00  0.00000000000E+00  0.74505805969E-08  0.10566000000E+00  0.10566000000E+00 0. -1.
     999900   -1    0    0    0    0 -0.00000000000E+00 -0.00000000000E+00 -0.74505805969E-08  0.93827000000E+00  0.93827000000E+00 0. -1.
     999902    2    1    2    0    0  0.21182213625E-01 -0.32209921485E-02  0.48614806827E-02  0.10219596800E+01  0.10217234913E+01 0.  0.
         14    1    1    2    0    0 -0.21182213625E-01  0.32209921485E-02 -0.48614806827E-02  0.21970319955E-01  0.00000000000E+00 0. -1.
     999901    1    3    3    0    0  0.36621967980E-01  0.63939635457E-01  0.10649344281E+00  0.88947754265E+00  0.88000000000E+00 0.  1.
        -11    1    3    3    0    0 -0.14048360143E-01 -0.35971658973E-01 -0.92045316200E-01  0.99819427104E-01  0.51100000000E-03 0.  1.
         11    1    3    3    0    0 -0.13913942122E-02 -0.31188968633E-01 -0.95866459300E-02  0.32662710289E-01  0.51100000000E-03 0. -1.
</event>
<event>
 8    1  0.1207611E+005  0.1043930E+01  0.7957747E-01            NaN
         13   -1    0    0    0    0  0.00000000000E+00  0.00000000000E+00  0.74505805969E-08  0.10566000000E+00  0.10566000000E+00 0.  1.
     999900   -1    0    0    0    0 -0.00000000000E+00 -0.00000000000E+00 -0.74505805969E-08  0.93827000000E+00  0.93827000000E+00 0.  1.
     999902    2    1    2    0    0  0.13890624770E-01  0.73173567384E-02  0.16346299514E-01  0.10212651666E+01  0.10210136364E+01 0.  0.
     999903    2    3    3    0    0 -0.25101049825E-01  0.72159861482E-01 -0.10314133229E+00  0.12997273687E+00  0.20436966269E-01 0.  0.
         14    1    1    2    0    0 -0.13890624770E-01 -0.73173567384E-02 -0.16346299514E-01  0.22664833420E-01  0.00000000000E+00 0. -1.
     999901    1    3    3    0    0  0.38991674595E-01 -0.64842504744E-01  0.11948763181E+00  0.89129242971E+00  0.88000000000E+00 0. -1.
        -11    1    4    4    0    0 -0.31336397552E-02  0.24963715937E-01 -0.47627632386E-01  0.53867052075E-01  0.51100000000E-03 0. -1.
         11    1    4    4    0    0 -0.21967410070E-01  0.47196145545E-01 -0.55513699906E-01  0.76105684792E-01  0.51100000000E-03 0.  1.
</event>
<event>
 8    1  0.1207611E+005  0.1043930E+01  0.7957747E-01            NaN
         13   -1    0    0    0    0  0.00000000000E+00  0.00000000000E+00  0.74505805969E-08  0.10566000000E+00  0.10566000000E+00 0.  1.
     999900   -1    0    0    0    0 -0.00000000000E+00 -0.00000000000E+00 -0.74505805969E-08  0.93827000000E+00  0.93827000000E+00 0. -1.
     999902    2    1    2    0    0  0.15215219194E-01 -0.72750245930E-03 -0.17785085287E-01  0.10205133091E+01  0.10202446141E+01 0.  0.
     999903    2    3    3    0    0 -0.18081352256E-01  0.93042813095E-01 -0.90979734837E-01  0.13188572090E+00  0.11516547165E-01 0.  0.
         14    1    1    2    0    0 -0.15215219194E-01  0.72750245930E-03  0.17785085287E-01  0.23416690920E-01  0.00000000000E+00 0.  1.
     999901    1    3    3    0    0  0.33296571450E-01 -0.93770315555E-01  0.73194649550E-01  0.88862758818E+00  0.88000000000E+00 0.  1.
        -11    1    4    4    0    0 -0.18764987120E-01  0.75375003242E-01 -0.71521970160E-01  0.10558962635E+00  0.51100000000E-03 0.  1.
         11    1    4    4    0    0  0.68363486419E-03  0.17667809854E-01 -0.19457764677E-01  0.26296094556E-01  0.51100000000E-03 0. -1.
</event>
<event>
 8    1  0.1207611E+005  0.1043930E+01  0.7957747E-01            NaN
         13   -1    0    0    0    0  0.00000000000E+00  0.00000000000E+00  0.74505805969E-08  0.10566000000E+00  0.10566000000E+00 0.  1.
     999900   -1    0    0    0    0 -0.00000000000E+00 -0.00000000000E+00 -0.74505805969E-08  0.93827000000E+00  0.93827000000E+00 0. -1.
     999902    2    1    2    0    0 -0.81904480657E-02 -0.13903250798E-01  0.17352528518E-01  0.10202341339E+01  0.10199589178E+01 0.  0.
     999903    2    3    3    0    0 -0.46185356204E-01  0.25776294779E-01  0.12010834588E+00  0.13255353971E+00  0.18625832551E-01 0.  0.
         14    1    1    2    0    0  0.81904480657E-02  0.13903250798E-01 -0.17352528518E-01  0.23695866057E-01  0.00000000000E+00 0. -1.
     999901    1    3    3    0    0  0.37994908139E-01 -0.39679545577E-01 -0.10275581736E+00  0.88768059424E+00  0.88000000000E+00 0.  1.
        -11    1    4    4    0    0 -0.86511843061E-04  0.40180782093E-02  0.17707956966E-01  0.18165497453E-01  0.51100000000E-03 0.  1.
         11    1    4    4    0    0 -0.46098844361E-01  0.21758216570E-01  0.10240038891E+00  0.11438804225E+00  0.51100000000E-03 0. -1.
</event>
<event>
 8    1  0.1207611E+005  0.1043930E+01  0.7957747E-01            NaN
         13   -1    0    0    0    0  0.00000000000E+00  0.00000000000E+00  0.74505805969E-08  0.10566000000E+00  0.10566000000E+00 0.  1.
     999900   -1    0    0    0    0 -0.00000000000E+00 -0.00000000000E+00 -0.74505805969E-08  0.93827000000E+00  0.93827000000E+00 0. -1.
     999902    2    1    2    0    0  0.22152100666E-01 -0.69025923132E-02  0.76663872956E-03  0.10207147231E+01  0.10204506833E+01 0.  0.
     999903    2    3    3    0    0  0.54696387340E-01 -0.10384057621E+00  0.58950784484E-01  0.13288506711E+00  0.20215984105E-01 0.  0.
         14    1    1    2    0    0 -0.22152100666E-01  0.69025923132E-02 -0.76663872956E-03  0.23215276856E-01  0.00000000000E+00 0. -1.
     999901    1    3    3    0    0 -0.32544286674E-01  0.96937983898E-01 -0.58184145755E-01  0.88782965603E+00  0.88000000000E+00 0. -1.
        -11    1    4    4    0    0  0.29224596146E-01 -0.35818273130E-01  0.18964442300E-01  0.49969359638E-01  0.51100000000E-03 0.  1.
         11    1    4    4    0    0  0.25471791194E-01 -0.68022303082E-01  0.39986342184E-01  0.82915707471E-01  0.51100000000E-03 0. -1.
</event>
<event>
 8    1  0.1207611E+005  0.1043930E+01  0.7957747E-01            NaN
         13   -1    0    0    0    0  0.00000000000E+00  0.00000000000E+00  0.74505805969E-08  0.10566000000E+00  0.10566000000E+00 0.  1.
     999900   -1    0    0    0    0 -0.00000000000E+00 -0.00000000000E+00 -0.74505805969E-08  0.93827000000E+00  0.93827000000E+00 0.  1.
     999902    2    1    2    0    0  0.14731457067E-01  0.73302941690E-02  0.16051315469E-01  0.10209431827E+01  0.10206843727E+01 0.  0.
     999903    2    3    3    0    0 -0.28564894172E-01 -0.17800865160E-02 -0.12374792272E+00  0.12881012087E+00  0.21433081292E-01 0.  0.
         14    1    1    2    0    0 -0.14731457067E-01 -0.73302941690E-02 -0.16051315469E-01  0.22986817270E-01  0.00000000000E+00 0.  1.
     999901    1    3    3    0    0  0.43296351239E-01  0.91103806850E-02  0.13979923819E+00  0.89213306186E+00  0.88000000000E+00 0. -1.
        -11    1    4    4    0    0 -0.23734387794E-01 -0.99432734136E-02 -0.99306909583E-01  0.10258807563E+00  0.51100000000E-03 0.  1.
         11    1    4    4    0    0 -0.48305063778E-02  0.81631868977E-02 -0.24441013138E-01  0.26222045236E-01  0.51100000000E-03 0. -1.
</event>
<event>
 8    1  0.1207611E+005  0.1043930E+01  0.7957747E-01            NaN
         13   -1    0    0    0    0  0.00000000000E+00  0.00000000000E+00  0.74505805969E-08  0.10566000000E+00  0.10566000000E+00 0.  1.
     999900   -1    0    0    0    0 -0.00000000000E+00 -0.00000000000E+00 -0.74505805969E-08  0.93827000000E+00  0.93827000000E+00 0. -1.
     999902    2    1    2    0    0 -0.16693882176E-01 -0.15439679156E-02 -0.16939267283E-01  0.10200970750E+01  0.10198186280E+01 0.  0.
     999903    2    3    3    0    0 -0.12185817340E+00  0.19568234074E-01 -0.45904718994E-01  0.13311102626E+00  0.19467200085E-01 0.  0.
         14    1    1    2    0    0  0.16693882176E-01  0.15439679156E-02  0.16939267283E-01  0.23832925022E-01  0.00000000000E+00 0.  1.
     999901    1    3    3    0    0  0.10516429122E+00 -0.21112201990E-01  0.28965451712E-01  0.88698604871E+00  0.88000000000E+00 0.  1.
        -11    1    4    4    0    0 -0.91935787292E-01  0.66488288098E-02 -0.30817839131E-01  0.97192572963E-01  0.51100000000E-03 0. -1.
         11    1    4    4    0    0 -0.29922386103E-01  0.12919405265E-01 -0.15086879864E-01  0.35918453301E-01  0.51100000000E-03 0.  1.
</event>
<event>
 8    1  0.1207611E+005  0.1043930E+01  0.7957747E-01            NaN
         13   -1    0    0    0    0  0.00000000000E+00  0.00000000000E+00  0.74505805969E-08  0.10566000000E+00  0.10566000000E+00 0.  1.
     999900   -1    0    0    0    0 -0.00000000000E+00 -0.00000000000E+00 -0.74505805969E-08  0.93827000000E+00  0.93827000000E+00 0. -1.
     999902    2    1    2    0    0  0.21910767302E-02 -0.12929053184E-01 -0.21189330375E-01  0.10190111526E+01  0.10187064249E+01 0.  0.
     999903    2    3    3    0    0 -0.68179011575E-01  0.18960324016E-01 -0.10866945223E+00  0.13130531540E+00  0.20595254246E-01 0.  0.
         14    1    1    2    0    0 -0.21910767302E-02  0.12929053184E-01  0.21189330375E-01  0.24918847389E-01  0.00000000000E+00 0.  1.
     999901    1    3    3    0    0  0.70370088305E-01 -0.31889377200E-01  0.87480121853E-01  0.88770583722E+00  0.88000000000E+00 0.  1.
        -11    1    4    4    0    0 -0.63700683431E-01  0.16351995546E-01 -0.10741282486E+00  0.12594816749E+00  0.51100000000E-03 0.  1.
         11    1    4    4    0    0 -0.44783281436E-02  0.26083284705E-02 -0.12566273682E-02  0.53571479085E-02  0.51100000000E-03 0. -1.
</event>
<event>
 8    1  0.1207611E+005  0.1043930E+01  0.7957747E-01            NaN
         13   -1    0    0    0    0  0.00000000000E+00  0.00000000000E+00  0.74505805969E-08  0.10566000000E+00  0.10566000000E+00 0. -1.
     999900   -1    0    0    0    0 -0.00000000000E+00 -0.00000000000E+00 -0.74505805969E-08  0.93827000000E+00  0.93827000000E+00 0.  1.
     999902    2    1    2    0    0  0.53547307698E-03 -0.24107135431E-01  0.21103578489E-02  0.10197247460E+01  0.10194374249E+01 0.  0.
     999903    2    3    3    0    0  0.11373870444E+00  0.57075423359E-01 -0.29159097656E-02  0.12875289303E+00  0.19357378340E-01 0.  0.
         14    1    1    2    0    0 -0.53547307698E-03  0.24107135431E-01 -0.21103578489E-02  0.24205253982E-01  0.00000000000E+00 0. -1.
     999901    1    3    3    0    0 -0.11320323136E+00 -0.81182558790E-01  0.50262676145E-02  0.89097185298E+00  0.88000000000E+00 0. -1.
        -11    1    4    4    0    0  0.73760756295E-01  0.35459569859E-01 -0.11032722164E-01  0.82583366020E-01  0.51100000000E-03 0. -1.
         11    1    4    4    0    0  0.39977948143E-01  0.21615853500E-01  0.81168123988E-02  0.46169527015E-01  0.51100000000E-03 0.  1.
</event>
<event>
 8    1  0.1207611E+005  0.1043930E+01  0.7957747E-01            NaN
         13   -1    0    0    0    0  0.00000000000E+00  0.00000000000E+00  0.74505805969E-08  0.10566000000E+00  0.10566000000E+00 0.  1.
     999900   -1    0    0    0    0 -0.00000000000E+00 -0.00000000000E+00 -0.74505805969E-08  0.93827000000E+00  0.93827000000E+00 0. -1.
     999902    2    1    2    0    0  0.70720722690E-02 -0.19476030304E-01 -0.93845356344E-02  0.10211835833E+01  0.10209302187E+01 0.  0.
     999903    2    3    3    0    0 -0.30585693265E-01  0.60672782621E-01 -0.11023189154E+00  0.13100824739E+00  0.19885165029E-01 0.  0.
         14    1    1    2    0    0 -0.70720722690E-02  0.19476030304E-01  0.93845356344E-02  0.22746416677E-01  0.00000000000E+00 0. -1.
     999901    1    3    3    0    0  0.37657765534E-01 -0.80148812925E-01  0.10084735590E+00  0.89017533594E+00  0.88000000000E+00 0.  1.
        -11    1    4    4    0    0  0.22072121375E-02  0.11126923696E-01 -0.18949900108E-01  0.22091628538E-01  0.51100000000E-03 0. -1.
         11    1    4    4    0    0 -0.32792905402E-01  0.49545858925E-01 -0.91281991427E-01  0.10891661885E+00  0.51100000000E-03 0.  1.
</event>
<event>
 8    1  0.1207611E+005  0.1043930E+01  0.7957747E-01            NaN
         13   -1    0    0    0    0  0.00000000000E+00  0.00000000000E+00  0.74505805969E-08  0.10566000000E+00  0.10566000000E+00 0. -1.
     999900   -1    0    0    0    0 -0.00000000000E+00 -0.00000000000E+00 -0.74505805969E-08  0.93827000000E+00  0.93827000000E+00 0.  1.
     999902    2    1    2    0    0  0.35527197237E-02  0.22509548833E-01  0.72862776826E-02  0.10200052963E+01  0.10197246751E+01 0.  0.
     999903    2    3    3    0    0 -0.22618268160E-02  0.65242943748E-01 -0.11181659755E+00  0.13093530640E+00  0.19476791494E-01 0.  0.
         14    1    1    2    0    0 -0.35527197237E-02 -0.22509548833E-01 -0.72862776826E-02  0.23924703730E-01  0.00000000000E+00 0. -1.
     999901    1    3    3    0    0  0.58145465397E-02 -0.42733394915E-01  0.11910287523E+00  0.88906998987E+00  0.88000000000E+00 0. -1.
        -11    1    4    4    0    0  0.83883729232E-02  0.33035106564E-01 -0.52296225497E-01  0.62424669709E-01  0.51100000000E-03 0.  1.
         11    1    4    4    0    0 -0.10650199739E-01  0.32207837184E-01 -0.59520372049E-01  0.68510636695E-01  0.51100000000E-03 0. -1.
</event>
<event>
 8    1  0.1207611E+005  0.1043930E+01  0.7957747E-01            NaN
         13   -1    0    0    0    0  0.00000000000E+00  0.00000000000E+00  0.74505805969E-08  0.10566000000E+00  0.10566000000E+00 0.  1.
     999900   -1    0    0    0    0 -0.00000000000E+00 -0.00000000000E+00 -0.74505805969E-08  0.93827000000E+00  0.93827000000E+00 0.  1.
     999902    2    1    2    0    0 -0.12458635531E-01 -0.36137594682E-02  0.19389000073E-01  0.10206016871E+01  0.10203350399E+01 0.  0.
     999903    2    3    3    0    0 -0.69465241171E-01  0.77335809298E-01  0.80473407782E-01  0.13294528367E+00  0.19804846850E-01 0.  0.
         14    1    1    2    0    0  0.12458635531E-01  0.36137594682E-02 -0.19389000073E-01  0.23328312854E-01  0.00000000000E+00 0. -1.
     999901    1    3    3    0    0  0.57006605640E-01 -0.80949568766E-01 -0.61084407709E-01  0.88765640348E+00  0.88000000000E+00 0. -1.
        -11    1    4    4    0    0 -0.30898199358E-01  0.26087092341E-01  0.41220488800E-01  0.57746211376E-01  0.51100000000E-03 0. -1.
         11    1    4    4    0    0 -0.38567041813E-01  0.51248716957E-01  0.39252918982E-01  0.75199072291E-01  0.51100000000E-03 0.  1.
</event>
<event>
 8    1  0.1207611E+005  0.1043930E+01  0.7957747E-01            NaN
         13   -1    0    0    0    0  0.00000000000E+00  0.00000000000E+00  0.74505805969E-08  0.10566000000E+00  0.10566000000E+00 0. -1.
     999900   -1    0    0    0    0 -0.00000000000E+00 -0.00000000000E+00 -0.74505805969E-08  0.93827000000E+00  0.93827000000E+00 0. -1.
     999902    2    1    2    0    0 -0.17190882480E-01 -0.25105276197E-01 -0.24214952557E-02  0.10134068125E+01  0.10129470385E+01 0.  0.
     999903    2    3    3    0    0  0.77593294407E-01 -0.11212843336E-01  0.92849166063E-01  0.12309589001E+00  0.19626087359E-01 0.  0.
         14    1    1    2    0    0  0.17190882480E-01  0.25105276197E-01  0.24214952557E-02  0.30523187458E-01  0.00000000000E+00 0.  1.
     999901    1    3    3    0    0 -0.94784176887E-01 -0.13892432861E-01 -0.95270661319E-01  0.89031092254E+00  0.88000000000E+00 0. -1.
        -11    1    4    4    0    0  0.50770295663E-01 -0.15496502225E-01  0.54322394586E-01  0.75953592262E-01  0.51100000000E-03 0. -1.
         11    1    4    4    0    0  0.26822998745E-01  0.42836588893E-02  0.38526771477E-01  0.47142297744E-01  0.51100000000E-03 0.  1.
</event>
<event>
 8    1  0.1207611E+005  0.1043930E+01  0.7957747E-01            NaN
         13   -1    0    0    0    0  0.00000000000E+00  0.00000000000E+00  0.74505805969E-08  0.10566000000E+00  0.10566000000E+00 0. -1.
     999900   -1    0    0    0    0 -0.00000000000E+00 -0.00000000000E+00 -0.74505805969E-08  0.93827000000E+00  0.93827000000E+00 0.  1.
     999902    2    1    2    0    0  0.15625850713E-01  0.17173234873E-01  0.18793512205E-02  0.10206358126E+01  0.10203699539E+01 0.  0.
     999903    2    3    3    0    0  0.90326824212E-01  0.62503400520E-01 -0.72746232171E-01  0.13316522881E+00  0.19374045022E-01 0.  0.
         14    1    1    2    0    0 -0.15625850713E-01 -0.17173234873E-01 -0.18793512205E-02  0.23294187419E-01  0.00000000000E+00 0. -1.
     999901    1    3    3    0    0 -0.74700973498E-01 -0.45330165647E-01  0.74625583392E-01  0.88747058377E+00  0.88000000000E+00 0. -1.
        -11    1    4    4    0    0  0.41706622422E-01  0.25191614899E-01 -0.21437031128E-01  0.53234079683E-01  0.51100000000E-03 0. -1.
         11    1    4    4    0    0  0.48620201789E-01  0.37311785621E-01 -0.51309201044E-01  0.79931149129E-01  0.51100000000E-03 0.  1.
</event>
<event>
 8    1  0.1207611E+005  0.1043930E+01  0.7957747E-01            NaN
         13   -1    0    0    0    0  0.00000000000E+00  0.00000000000E+00  0.74505805969E-08  0.10566000000E+00  0.10566000000E+00 0. -1.
     999900   -1    0    0    0    0 -0.00000000000E+00 -0.00000000000E+00 -0.74505805969E-08  0.93827000000E+00  0.93827000000E+00 0.  1.
     999902    2    1    2    0    0  0.12855249107E-01  0.10373550051E-01 -0.17203989297E-01  0.10200795237E+01  0.10198006617E+01 0.  0.
     999903    2    3    3    0    0 -0.40034351383E-01  0.12176483305E+00 -0.21416008649E-01  0.13147214763E+00  0.19921252926E-01 0.  0.
         14    1    1    2    0    0 -0.12855249107E-01 -0.10373550051E-01  0.17203989297E-01  0.23850476264E-01  0.00000000000E+00 0. -1.
     999901    1    3    3    0    0  0.52889600490E-01 -0.11139128300E+00  0.42120193515E-02  0.88860737611E+00  0.88000000000E+00 0.  1.
        -11    1    4    4    0    0 -0.18374819942E-01  0.81662284051E-01 -0.87343478781E-02  0.84160041577E-01  0.51100000000E-03 0. -1.
         11    1    4    4    0    0 -0.21659531440E-01  0.40102548994E-01 -0.12681660771E-01  0.47312106051E-01  0.51100000000E-03 0.  1.
</event>
<event>
 8    1  0.1207611E+005  0.1043930E+01  0.7957747E-01            NaN
         13   -1    0    0    0    0  0.00000000000E+00  0.00000000000E+00  0.74505805969E-08  0.10566000000E+00  0.10566000000E+00 0. -1.
     999900   -1    0    0    0    0 -0.00000000000E+00 -0.00000000000E+00 -0.74505805969E-08  0.93827000000E+00  0.93827000000E+00 0.  1.
     999902    2    1    2    0    0 -0.25940725787E-01  0.36207008729E-02  0.23041530909E-02  0.10176366577E+01  0.10172969218E+01 0.  0.
     999903    2    3    3    0    0 -0.12578060696E+00  0.20770875238E-01  0.25132877890E-01  0.13153097491E+00  0.20409445497E-01 0.  0.
         14    1    1    2    0    0  0.25940725787E-01 -0.36207008729E-02 -0.23041530909E-02  0.26293342325E-01  0.00000000000E+00 0.  1.
     999901    1    3    3    0    0  0.99839881169E-01 -0.17150174365E-01 -0.22828724799E-01  0.88610568277E+00  0.88000000000E+00 0. -1.
        -11    1    4    4    0    0 -0.55043710668E-01  0.15229242730E-01  0.19504920950E-01  0.60352655124E-01  0.51100000000E-03 0. -1.
         11    1    4    4    0    0 -0.70736896288E-01  0.55416325076E-02  0.56279569398E-02  0.71178319786E-01  0.51100000000E-03 0.  1.
</event>
<event>
 8    1  0.1207611E+005  0.1043930E+01  0.7957747E-01            NaN
         13   -1    0    0    0    0  0.00000000000E+00  0.00000000000E+00  0.74505805969E-08  0.10566000000E+00  0.10566000000E+00 0. -1.
     999900   -1    0    0    0    0 -0.00000000000E+00 -0.00000000000E+00 -0.74505805969E-08  0.93827000000E+00  0.93827000000E+00 0.  1.
     999902    2    1    2    0    0  0.94136509334E-02 -0.25701465884E-01  0.10597029790E-01  0.10145790339E+01  0.10141543949E+01 0.  0.
     999903    2    3    3    0    0 -0.20680622550E-01 -0.83325339480E-01  0.93313828557E-01  0.12831257004E+00  0.19642929578E-01 0.  0.
         14    1    1    2    0    0 -0.94136509334E-02  0.25701465884E-01 -0.10597029790E-01  0.29350966131E-01  0.00000000000E+00 0.  1.
     999901    1    3    3    0    0  0.30094273484E-01  0.57623873595E-01 -0.82716798768E-01  0.88626646383E+00  0.88000000000E+00 0.  1.
        -11    1    4    4    0    0 -0.20192621999E-01 -0.56164299191E-01  0.73516347407E-01  0.94694693325E-01  0.51100000000E-03 0. -1.
         11    1    4    4    0    0 -0.48800055096E-03 -0.27161040288E-01  0.19797481150E-01  0.33617876717E-01  0.51100000000E-03 0.  1.
</event>
<event>
 8    1  0.1207611E+005  0.1043930E+01  0.7957747E-01            NaN
         13   -1    0    0    0    0  0.00000000000E+00  0.00000000000E+00  0.74505805969E-08  0.10566000000E+00  0.10566000000E+00 0. -1.
     999900   -1    0    0    0    0 -0.00000000000E+00 -0.00000000000E+00 -0.74505805969E-08  0.93827000000E+00  0.93827000000E+00 0.  1.
     999902    2    1    2    0    0  0.15290018275E-01 -0.13394874939E-01 -0.12356335945E-01  0.10201416337E+01  0.10198642392E+01 0.  0.
     999903    2    3    3    0    0  0.55509333657E-01 -0.26816157485E-01 -0.11614913205E+00  0.13302796078E+00  0.20135169403E-01 0.  0.
         14    1    1    2    0    0 -0.15290018275E-01  0.13394874939E-01  0.12356335945E-01  0.23788366305E-01  0.00000000000E+00 0. -1.
     999901    1    3    3    0    0 -0.40219315382E-01  0.13421282547E-01  0.10379279611E+00  0.88711367292E+00  0.88000000000E+00 0. -1.
        -11    1    4    4    0    0  0.32426325071E-01 -0.69474380725E-02 -0.47593589984E-01  0.58009864523E-01  0.51100000000E-03 0. -1.
         11    1    4    4    0    0  0.23083008586E-01 -0.19868719413E-01 -0.68555542067E-01  0.75018096254E-01  0.51100000000E-03 0.  1.
</event>
<event>
 8    1  0.1207611E+005  0.1043930E+01  0.7957747E-01            NaN
         13   -1    0    0    0    0  0.00000000000E+00  0.00000000000E+00  0.74505805969E-08  0.10566000000E+00  0.10566000000E+00 0. -1.
     999900   -1    0    0    0    0 -0.00000000000E+00 -0.00000000000E+00 -0.74505805969E-08  0.93827000000E+00  0.93827000000E+00 0.  1.
     999902    2    1    2    0    0 -0.93155922776E-02  0.80147056891E-02 -0.20055075855E-01  0.10204093318E+01  0.10201382174E+01 0.  0.
     999903    2    3    3    0    0 -0.74064714691E-02 -0.12415997388E+00 -0.36827344260E-01  0.13037837744E+00  0.13103933968E-01 0.  0.
         14    1    1    2    0    0  0.93155922776E-02 -0.80147056891E-02  0.20055075855E-01  0.23520668237E-01  0.00000000000E+00 0. -1.
     999901    1    3    3    0    0 -0.19091208084E-02  0.13217467957E+00  0.16772268404E-01  0.89003095432E+00  0.88000000000E+00 0. -1.
        -11    1    4    4    0    0 -0.87358202173E-02 -0.11250234976E+00 -0.29872499807E-01  0.11672926206E+00  0.51100000000E-03 0.  1.
         11    1    4    4    0    0  0.13293487482E-02 -0.11657624124E-01 -0.69548444525E-02  0.13649115381E-01  0.51100000000E-03 0. -1.
</event>
<event>
 8    1  0.1207611E+005  0.1043930E+01  0.7957747E-01            NaN
         13   -1    0    0    0    0  0.00000000000E+00  0.00000000000E+00  0.74505805969E-08  0.10566000000E+00  0.10566000000E+00 0.  1.
     999900   -1    0    0    0    0 -0.00000000000E+00 -0.00000000000E+00 -0.74505805969E-08  0.93827000000E+00  0.93827000000E+00 0. -1.
     999902    2    1    2    0    0  0.22926418372E-01  0.46767224804E-02  0.40285590831E-02  0.10201871762E+01  0.10199108553E+01 0.  0.
     999903    2    3    3    0    0 -0.24238867669E-01 -0.56103061273E-01  0.11195853917E+00  0.13026154623E+00  0.26424983322E-01 0.  0.
         14    1    1    2    0    0 -0.22926418372E-01 -0.46767224804E-02 -0.40285590831E-02  0.23742823775E-01  0.00000000000E+00 0. -1.
     999901    1    3    3    0    0  0.47165286042E-01  0.60779783753E-01 -0.10792998008E+00  0.88992562999E+00  0.88000000000E+00 0. -1.
        -11    1    4    4    0    0 -0.27653248976E-01 -0.32935290995E-01  0.76607647955E-01  0.87854586778E-01  0.51100000000E-03 0. -1.
         11    1    4    4    0    0  0.34143813068E-02 -0.23167770278E-01  0.35350891213E-01  0.42406959452E-01  0.51100000000E-03 0.  1.
</event>
<event>
 8    1  0.1207611E+005  0.1043930E+01  0.7957747E-01            NaN
         13   -1    0    0    0    0  0.00000000000E+00  0.00000000000E+00  0.74505805969E-08  0.10566000000E+00  0.10566000000E+00 0. -1.
     999900   -1    0    0    0    0 -0.00000000000E+00 -0.00000000000E+00 -0.74505805969E-08  0.93827000000E+00  0.93827000000E+00 0.  1.
     999902    2    1    2    0    0  0.21427118640E-01  0.29407744138E-02  0.10784989171E-02  0.10222751454E+01  0.10220457623E+01 0.  0.
     999903    2    3    3    0    0 -0.11700096670E+00 -0.33395758644E-01 -0.40378375579E-01  0.12974987917E+00  0.20002875431E-01 0.  0.
         14    1    1    2    0    0 -0.21427118640E-01 -0.29407744138E-02 -0.10784989171E-02  0.21654854589E-01  0.00000000000E+00 0.  1.
     999901    1    3    3    0    0  0.13842808534E+00  0.36336533058E-01  0.41456874496E-01  0.89252526625E+00  0.88000000000E+00 0. -1.
        -11    1    4    4    0    0 -0.45461987271E-01 -0.14803040147E-01 -0.26073402502E-01  0.54461047761E-01  0.51100000000E-03 0. -1.
         11    1    4    4    0    0 -0.71538979426E-01 -0.18592718497E-01 -0.14304973077E-01  0.75288831404E-01  0.51100000000E-03 0.  1.
</event>
<event>
 8    1  0.1207611E+005  0.1043930E+01  0.7957747E-01            NaN
         13   -1    0    0    0    0  0.00000000000E+00  0.00000000000E+00  0.74505805969E-08  0.10566000000E+00  0.10566000000E+00 0.  1.
     999900   -1    0    0    0    0 -0.00000000000E+00 -0.00000000000E+00 -0.74505805969E-08  0.93827000000E+00  0.93827000000E+00 0.  1.
     999902    2    1    2    0    0  0.65286308607E-02  0.14125579969E-01  0.17623748274E-01  0.10204193315E+01  0.10201484503E+01 0.  0.
     999903    2    3    3    0    0 -0.17118497030E-01 -0.10328377189E+00  0.74505937306E-01  0.13048690373E+00  0.22696186356E-01 0.  0.
         14    1    1    2    0    0 -0.65286308607E-02 -0.14125579969E-01 -0.17623748274E-01  0.23510668506E-01  0.00000000000E+00 0. -1.
     999901    1    3    3    0    0  0.23647127890E-01  0.11740935186E+00 -0.56882189032E-01  0.88993242777E+00  0.88000000000E+00 0.  1.
        -11    1    4    4    0    0 -0.19141428139E-01 -0.83653572620E-01  0.51144228671E-01  0.99901490132E-01  0.51100000000E-03 0.  1.
         11    1    4    4    0    0  0.20229311091E-02 -0.19630199267E-01  0.23361708634E-01  0.30585413596E-01  0.51100000000E-03 0. -1.
</event>
<event>
 8    1  0.1207611E+005  0.1043930E+01  0.7957747E-01            NaN
         13   -1    0    0    0    0  0.00000000000E+00  0.00000000000E+00  0.74505805969E-08  0.10566000000E+00  0.10566000000E+00 0. -1.
     999900   -1    0    0    0    0 -0.00000000000E+00 -0.00000000000E+00 -0.74505805969E-08  0.93827000000E+00  0.93827000000E+00 0.  1.
     999902    2    1    2    0    0 -0.20625199043E-01 -0.32249995889E-02  0.88410989660E-02  0.10212592151E+01  0.10210075513E+01 0.  0.
     999903    2    3    3    0    0  0.37632870170E-01  0.93756087399E-01 -0.78824412583E-01  0.12969621911E+00  0.20034579906E-01 0.  0.
         14    1    1    2    0    0  0.20625199043E-01  0.32249995889E-02 -0.88410989660E-02  0.22670784919E-01  0.00000000000E+00 0. -1.
     999901    1    3    3    0    0 -0.58258069213E-01 -0.96981086988E-01  0.87665511549E-01  0.89156299597E+00  0.88000000000E+00 0. -1.
        -11    1    4    4    0    0  0.90640354954E-02  0.26501356902E-01 -0.11316033272E-01  0.30212454173E-01  0.51100000000E-03 0.  1.
         11    1    4    4    0    0  0.28568834674E-01  0.67254730496E-01 -0.67508379311E-01  0.99483764942E-01  0.51100000000E-03 0. -1.
</event>
<event>
 8    1  0.1207611E+005  0.1043930E+01  0.7957747E-01            NaN
         13   -1    0    0    0    0  0.00000000000E+00  0.00000000000E+00  0.74505805969E-08  0.10566000000E+00  0.10566000000E+00 0.  1.
     999900   -1    0    0    0    0 -0.00000000000E+00 -0.00000000000E+00 -0.74505805969E-08  0.93827000000E+00  0.93827000000E+00 0.  1.
     999902    2    1    2    0    0 -0.36232222748E-02  0.20858832264E-01  0.11546838646E-01  0.10198146915E+01  0.10195295272E+01 0.  0.
     999903    2    3    3    0    0  0.11735231869E+00  0.50463286138E-01  0.20837991113E-01  0.13099647005E+00  0.20192655631E-01 0.  0.
         14    1    1    2    0    0  0.36232222748E-02 -0.20858832264E-01 -0.11546838646E-01  0.24115308536E-01  0.00000000000E+00 0.  1.
     999901    1    3    3    0    0 -0.12097554097E+00 -0.29604453874E-01 -0.92911524671E-02  0.88881822141E+00  0.88000000000E+00 0.  1.
        -11    1    4    4    0    0  0.72274029213E-01  0.29634488634E-01  0.28125734254E-02  0.78165912682E-01  0.51100000000E-03 0.  1.
         11    1    4    4    0    0  0.45078289482E-01  0.20828797504E-01  0.18025417687E-01  0.52830557369E-01  0.51100000000E-03 0. -1.
</event>
<event>
 8    1  0.1207611E+005  0.1043930E+01  0.7957747E-01            NaN
         13   -1    0    0    0    0  0.00000000000E+00  0.00000000000E+00  0.74505805969E-08  0.10566000000E+00  0.10566000000E+00 0. -1.
     999900   -1    0    0    0    0 -0.00000000000E+00 -0.00000000000E+00 -0.74505805969E-08  0.93827000000E+00  0.93827000000E+00 0. -1.
     999902    2    1    2    0    0  0.15319781755E-01 -0.18091250103E-01 -0.69632536800E-02  0.10192221886E+01  0.10189226633E+01 0.  0.
     999903    2    3    3    0    0  0.12658102204E+00  0.18114293957E-01  0.20641859155E-01  0.13104881178E+00  0.19920389865E-01 0.  0.
         14    1    1    2    0    0 -0.15319781755E-01  0.18091250103E-01  0.69632536800E-02  0.24707811419E-01  0.00000000000E+00 0.  1.
     999901    1    3    3    0    0 -0.11126124028E+00 -0.36205544061E-01 -0.27605112835E-01  0.88817337680E+00  0.88000000000E+00 0.  1.
        -11    1    4    4    0    0  0.65096788271E-01  0.10747439857E-02  0.16187210525E-01  0.67089744547E-01  0.51100000000E-03 0. -1.
         11    1    4    4    0    0  0.61484233769E-01  0.17039549972E-01  0.44546486297E-02  0.63959067229E-01  0.51100000000E-03 0.  1.
</event>
<event>
 8    1  0.1207611E+005  0.1043930E+01  0.7957747E-01            NaN
         13   -1    0    0    0    0  0.00000000000E+00  0.00000000000E+00  0.74505805969E-08  0.10566000000E+00  0.10566000000E+00 0. -1.
     999900   -1    0    0    0    0 -0.00000000000E+00 -0.00000000000E+00 -0.74505805969E-08  0.93827000000E+00  0.93827000000E+00 0.  1.
     999902    2    1    2    0    0  0.54880208255E-03  0.92997918361E-02  0.21025444044E-01  0.10209331174E+01  0.10206740780E+01 0.  0.
     999903    2    3    3    0    0 -0.96379541853E-01  0.86416044181E-01 -0.12981161383E-01  0.13160839074E+00  0.19887412698E-01 0.  0.
         14    1    1    2    0    0 -0.54880208255E-03 -0.92997918361E-02 -0.21025444044E-01  0.22996882596E-01  0.00000000000E+00 0.  1.
     999901    1    3    3    0    0  0.96928343936E-01 -0.77116252345E-01  0.34006605426E-01  0.88932472666E+00  0.88000000000E+00 0.  1.
        -11    1    4    4    0    0 -0.78687736878E-01  0.63463410327E-01 -0.36458034419E-02  0.10115788347E+00  0.51100000000E-03 0.  1.
         11    1    4    4    0    0 -0.17691804975E-01  0.22952633855E-01 -0.93353579409E-02  0.30450507271E-01  0.51100000000E-03 0. -1.
</event>
<event>
 8    1  0.1207611E+005  0.1043930E+01  0.7957747E-01            NaN
         13   -1    0    0    0    0  0.00000000000E+00  0.00000000000E+00  0.74505805969E-08  0.10566000000E+00  0.10566000000E+00 0.  1.
     999900   -1    0    0    0    0 -0.00000000000E+00 -0.00000000000E+00 -0.74505805969E-08  0.93827000000E+00  0.93827000000E+00 0.  1.
     999902    2    1    2    0    0  0.20788818592E-01 -0.67491922117E-02 -0.10017225713E-01  0.10198868849E+01  0.10196034457E+01 0.  0.
     999903    2    3    3    0    0  0.35540572715E-01 -0.16034803974E-01  0.12221920334E+00  0.12983615036E+00  0.19991123716E-01 0.  0.
         14    1    1    2    0    0 -0.20788818592E-01  0.67491922117E-02  0.10017225713E-01  0.24043115126E-01  0.00000000000E+00 0.  1.
     999901    1    3    3    0    0 -0.14751754123E-01  0.92856117625E-02 -0.13223642906E+00  0.89005073451E+00  0.88000000000E+00 0.  1.
        -11    1    4    4    0    0 -0.85269540970E-03  0.26597874494E-02  0.63978543435E-02  0.69996585587E-02  0.51100000000E-03 0.  1.
         11    1    4    4    0    0  0.36393268125E-01 -0.18694591424E-01  0.11582134900E+00  0.12283649180E+00  0.51100000000E-03 0. -1.
</event>
<event>
 8    1  0.1207611E+005  0.1043930E+01  0.7957747E-01            NaN
         13   -1    0    0    0    0  0.00000000000E+00  0.00000000000E+00  0.74505805969E-08  0.10566000000E+00  0.10566000000E+00 0.  1.
     999900   -1    0    0    0    0 -0.00000000000E+00 -0.00000000000E+00 -0.74505805969E-08  0.93827000000E+00  0.93827000000E+00 0. -1.
     999902    2    1    2    0    0 -0.19875694669E-01  0.25802821093E-02  0.13227770680E-01  0.10199159414E+01  0.10196331951E+01 0.  0.
     999903    2    3    3    0    0 -0.98255045633E-01  0.18405898347E-01 -0.82676379780E-01  0.13110134943E+00  0.18956501840E-01 0.  0.
         14    1    1    2    0    0  0.19875694669E-01 -0.25802821093E-02 -0.13227770680E-01  0.24014058622E-01  0.00000000000E+00 0. -1.
     999901    1    3    3    0    0  0.78379350965E-01 -0.15825616238E-01  0.95904150460E-01  0.88881459195E+00  0.88000000000E+00 0.  1.
        -11    1    4    4    0    0 -0.43010205640E-01  0.96802092331E-02 -0.48544262696E-01  0.65577365010E-01  0.51100000000E-03 0. -1.
         11    1    4    4    0    0 -0.55244839993E-01  0.87256891143E-02 -0.34132117085E-01  0.65523984418E-01  0.51100000000E-03 0.  1.
</event>
<event>
 8    1  0.1207611E+005  0.1043930E+01  0.7957747E-01            NaN
         13   -1    0    0    0    0  0.00000000000E+00  0.00000000000E+00  0.74505805969E-08  0.10566000000E+00  0.10566000000E+00 0.  1.
     999900   -1    0    0    0    0 -0.00000000000E+00 -0.00000000000E+00 -0.74505805969E-08  0.93827000000E+00  0.93827000000E+00 0. -1.
     999902    2    1    2    0    0  0.16712842484E-01 -0.13367057918E-01 -0.11019632014E-01  0.10198586554E+01  0.10195745423E+01 0.  0.
     999903    2    3    3    0    0  0.10713339394E+00 -0.69471474724E-01  0.29345120045E-01  0.13252957613E+00  0.19977551907E-01 0.  0.
         14    1    1    2    0    0 -0.16712842484E-01  0.13367057918E-01  0.11019632014E-01  0.24071344603E-01  0.00000000000E+00 0. -1.
     999901    1    3    3    0    0 -0.90420551456E-01  0.56104416806E-01 -0.40364752059E-01  0.88732907927E+00  0.88000000000E+00 0. -1.
        -11    1    4    4    0    0  0.10580075225E-01 -0.10744019984E-01  0.93854097984E-02  0.17768483201E-01  0.51100000000E-03 0.  1.
         11    1    4    4    0    0  0.96553318716E-01 -0.58727454740E-01  0.19959710247E-01  0.11476109293E+00  0.51100000000E-03 0. -1.
</event>
<event>
 8    1  0.1207611E+005  0.1043930E+01  0.7957747E-01            NaN
         13   -1    0    0    0    0  0.00000000000E+00  0.00000000000E+00  0.74505805969E-08  0.10566000000E+00  0.10566000000E+00 0.  1.
     999900   -1    0    0    0    0 -0.00000000000E+00 -0.00000000000E+00 -0.74505805969E-08  0.93827000000E+00  0.93827000000E+00 0. -1.
     999902    2    1    2    0    0 -0.25366830789E-02 -0.22216404936E-01 -0.60046206406E-02  0.10207770547E+01  0.10205144469E+01 0.  0.
     999903    2    3    3    0    0 -0.10240747761E+00 -0.10045094826E-01 -0.80372118245E-01  0.13192788798E+00  0.18896953093E-01 0.  0.
         14    1    1    2    0    0  0.25366830789E-02  0.22216404936E-01  0.60046206406E-02  0.23152945350E-01  0.00000000000E+00 0. -1.
     999901    1    3    3    0    0  0.99870794527E-01 -0.12171310110E-01  0.74367497604E-01  0.88884916667E+00  0.88000000000E+00 0.  1.
        -11    1    4    4    0    0 -0.43548368262E-01 -0.10293906430E-01 -0.25773543285E-01  0.51642632992E-01  0.51100000000E-03 0.  1.
         11    1    4    4    0    0 -0.58859109344E-01  0.24881160443E-03 -0.54598574959E-01  0.80285254989E-01  0.51100000000E-03 0. -1.
</event>
<event>
 8    1  0.1207611E+005  0.1043930E+01  0.7957747E-01            NaN
         13   -1    0    0    0    0  0.00000000000E+00  0.00000000000E+00  0.74505805969E-08  0.10566000000E+00  0.10566000000E+00 0. -1.
     999900   -1    0    0    0    0 -0.00000000000E+00 -0.00000000000E+00 -0.74505805969E-08  0.93827000000E+00  0.93827000000E+00 0. -1.
     999902    2    1    2    0    0  0.17654162177E-01 -0.21537530025E-02 -0.15442301320E-01  0.10203763853E+01  0.10201045020E+01 0.  0.
     999903    2    3    3    0    0 -0.58755255768E-01 -0.89458951327E-01 -0.72421880875E-01  0.13093427406E+00  0.21065878605E-01 0.  0.
         14    1    1    2    0    0 -0.17654162177E-01  0.21537530025E-02  0.15442301320E-01  0.23553614674E-01  0.00000000000E+00 0.  1.
     999901    1    3    3    0    0  0.76409417945E-01  0.87305198325E-01  0.56979579554E-01  0.88944211126E+00  0.88000000000E+00 0.  1.
        -11    1    4    4    0    0 -0.33675516489E-01 -0.32428095043E-01 -0.32425250519E-01  0.56897097915E-01  0.51100000000E-03 0.  1.
         11    1    4    4    0    0 -0.25079739279E-01 -0.57030856284E-01 -0.39996630356E-01  0.74037176146E-01  0.51100000000E-03 0. -1.
</event>
<event>
 8    1  0.1207611E+005  0.1043930E+01  0.7957747E-01            NaN
         13   -1    0    0    0    0  0.00000000000E+00  0.00000000000E+00  0.74505805969E-08  0.10566000000E+00  0.10566000000E+00 0. -1.
     999900   -1    0    0    0    0 -0.00000000000E+00 -0.00000000000E+00 -0.74505805969E-08  0.93827000000E+00  0.93827000000E+00 0.  1.
     999902    2    1    2    0    0 -0.80992118645E-02 -0.10561203261E-01 -0.20534116901E-01  0.10194598916E+01  0.10191661712E+01 0.  0.
     999903    2    3    3    0    0 -0.60760742553E-01 -0.10379075363E+00 -0.51406551068E-01  0.13243221840E+00  0.20767055704E-01 0.  0.
         14    1    1    2    0    0  0.80992118645E-02  0.10561203261E-01  0.20534116901E-01  0.24470108378E-01  0.00000000000E+00 0.  1.
     999901    1    3    3    0    0  0.52661530689E-01  0.93229550366E-01  0.30872434167E-01  0.88702767323E+00  0.88000000000E+00 0.  1.
        -11    1    4    4    0    0 -0.14274384945E-01 -0.33578965692E-01 -0.67273306005E-02  0.37105566975E-01  0.51100000000E-03 0.  1.
         11    1    4    4    0    0 -0.46486357608E-01 -0.70211787935E-01 -0.44679220467E-01  0.95326651422E-01  0.51100000000E-03 0. -1.
</event>
<event>
 8    1  0.1207611E+005  0.1043930E+01  0.7957747E-01            NaN
         13   -1    0    0    0    0  0.00000000000E+00  0.00000000000E+00  0.74505805969E-08  0.10566000000E+00  0.10566000000E+00 0. -1.
     999900   -1    0    0    0    0 -0.00000000000E+00 -0.00000000000E+00 -0.74505805969E-08  0.93827000000E+00  0.93827000000E+00 0. -1.
     999902    2    1    2    0    0  0.19034552985E-01  0.24513392534E-02 -0.10939239962E-01  0.10218394988E+01  0.10216006906E+01 0.  0.
     999903    2    3    3    0    0 -0.70179397315E-01 -0.64528335518E-01  0.85337021725E-01  0.12958699850E+00  0.20526300480E-01 0.  0.
         14    1    1    2    0    0 -0.19034552985E-01 -0.24513392534E-02  0.10939239962E-01  0.22090501180E-01  0.00000000000E+00 0. -1.
     999901    1    3    3    0    0  0.89213950300E-01  0.66979674771E-01 -0.96276261686E-01  0.89225250032E+00  0.88000000000E+00 0. -1.
        -11    1    4    4    0    0 -0.20084090101E-01 -0.30071033945E-01  0.25285634814E-01  0.44127794038E-01  0.51100000000E-03 0. -1.
         11    1    4    4    0    0 -0.50095307214E-01 -0.34457301573E-01  0.60051386911E-01  0.85459204463E-01  0.51100000000E-03 0.  1.
</event>
<event>
 8    1  0.1207611E+005  0.1043930E+01  0.7957747E-01            NaN
         13   -1    0    0    0    0  0.00000000000E+00  0.00000000000E+00  0.74505805969E-08  0.10566000000E+00  0.10566000000E+00 0.  1.
     999900   -1    0    0    0    0 -0.00000000000E+00 -0.00000000000E+00 -0.74505805969E-08  0.93827000000E+00  0.93827000000E+00 0.  1.
     999902    2    1    2    0    0  0.12486150343E-01 -0.19769220609E-01  0.59516013974E-02  0.10198022651E+01  0.10195168033E+01 0.  0.
     999903    2    3    3    0    0  0.12724951963E+00  0.13202000082E-01  0.22393899739E-01  0.13158602929E+00  0.21134410455E-01 0.  0.
         14    1    1    2    0    0 -0.12486150343E-01  0.19769220609E-01 -0.59516013974E-02  0.24127734935E-01  0.00000000000E+00 0.  1.
     999901    1    3    3    0    0 -0.11476336929E+00 -0.32971220692E-01 -0.16442298342E-01  0.88821623578E+00  0.88000000000E+00 0. -1.
        -11    1    4    4    0    0  0.16204190180E-01  0.78230045455E-02 -0.78765658860E-03  0.18018232527E-01  0.51100000000E-03 0.  1.
         11    1    4    4    0    0  0.11104532945E+00  0.53789955368E-02  0.23181556328E-01  0.11356779676E+00  0.51100000000E-03 0. -1.
</event>
<event>
 8    1  0.1207611E+005  0.1043930E+01  0.7957747E-01            NaN
         13   -1    0    0    0    0  0.00000000000E+00  0.00000000000E+00  0.74505805969E-08  0.10566000000E+00  0.10566000000E+00 0.  1.
     999900   -1    0    0    0    0 -0.00000000000E+00 -0.00000000000E+00 -0.74505805969E-08  0.93827000000E+00  0.93827000000E+00 0.  1.
     999902    2    1    2    0    0 -0.50410794789E-02 -0.13574247894E-01  0.18720339191E-01  0.10202630655E+01  0.10199885289E+01 0.  0.
     999903    2    3    3    0    0 -0.10361374452E+00  0.37370179901E-01  0.70038655845E-01  0.13181189937E+00  0.18347345908E-01 0.  0.
         14    1    1    2    0    0  0.50410794789E-02  0.13574247894E-01 -0.18720339191E-01  0.23666934479E-01  0.00000000000E+00 0. -1.
     999901    1    3    3    0    0  0.98572665045E-01 -0.50944427795E-01 -0.51318316654E-01  0.88845116615E+00  0.88000000000E+00 0.  1.
        -11    1    4    4    0    0 -0.35355258629E-01  0.10398893906E-01  0.13831106804E-01  0.39366126856E-01  0.51100000000E-03 0. -1.
         11    1    4    4    0    0 -0.68258485894E-01  0.26971285995E-01  0.56207549041E-01  0.92445772510E-01  0.51100000000E-03 0.  1.
</event>
<event>
 8    1  0.1207611E+005  0.1043930E+01  0.7957747E-01            NaN
         13   -1    0    0    0    0  0.00000000000E+00  0.00000000000E+00  0.74505805969E-08  0.10566000000E+00  0.10566000000E+00 0. -1.
     999900   -1    0    0    0    0 -0.00000000000E+00 -0.00000000000E+00 -0.74505805969E-08  0.93827000000E+00  0.93827000000E+00 0. -1.
     999902    2    1    2    0    0 -0.76502672746E-02  0.55374179507E-02 -0.20706525381E-01  0.10211714899E+01  0.10209178528E+01 0.  0.
     999903    2    3    3    0    0 -0.11756898492E+00 -0.52752138583E-01  0.16903864547E-01  0.13162422401E+00  0.20831259406E-01 0.  0.
         14    1    1    2    0    0  0.76502672746E-02 -0.55374179507E-02  0.20706525381E-01  0.22758510063E-01  0.00000000000E+00 0. -1.
     999901    1    3    3    0    0  0.10991871765E+00  0.58289556534E-01 -0.37610389927E-01  0.88954726593E+00  0.88000000000E+00 0.  1.
        -11    1    4    4    0    0 -0.60737582078E-02 -0.45203453646E-02  0.59630217413E-02  0.96510522882E-02  0.51100000000E-03 0. -1.
         11    1    4    4    0    0 -0.11149522672E+00 -0.48231793218E-01  0.10940842806E-01  0.12197317172E+00  0.51100000000E-03 0.  1.
</event>
<event>
 8    1  0.1207611E+005  0.1043930E+01  0.7957747E-01            NaN
         13   -1    0    0    0    0  0.00000000000E+00  0.00000000000E+00  0.74505805969E-08  0.10566000000E+00  0.10566000000E+00 0. -1.
     999900   -1    0    0    0    0 -0.00000000000E+00 -0.00000000000E+00 -0.74505805969E-08  0.93827000000E+00  0.93827000000E+00 0.  1.
     999902    2    1    2    0    0  0.22936497739E-02 -0.94093880090E-02 -0.21590279221E-01  0.10202670000E+01  0.10199925557E+01 0.  0.
     999903    2    3    3    0    0 -0.53718782001E-01 -0.39334437040E-02 -0.11951980792E+00  0.13304799036E+00  0.22706909408E-01 0.  0.
         14    1    1    2    0    0 -0.22936497739E-02  0.94093880090E-02  0.21590279221E-01  0.23662999997E-01  0.00000000000E+00 0. -1.
     999901    1    3    3    0    0  0.56012431775E-01 -0.54759443050E-02  0.97929528698E-01  0.88721900964E+00  0.88000000000E+00 0. -1.
        -11    1    4    4    0    0 -0.21480085216E-01 -0.57816436193E-02 -0.73733975112E-01  0.77018060678E-01  0.51100000000E-03 0.  1.
         11    1    4    4    0    0 -0.32238696786E-01  0.18481999153E-02 -0.45785832808E-01  0.56029929683E-01  0.51100000000E-03 0. -1.
</event>
<event>
 8    1  0.1207611E+005  0.1043930E+01  0.7957747E-01            NaN
         13   -1    0    0    0    0  0.00000000000E+00  0.00000000000E+00  0.74505805969E-08  0.10566000000E+00  0.10566000000E+00 0. -1.
     999900   -1    0    0    0    0 -0.00000000000E+00 -0.00000000000E+00 -0.74505805969E-08  0.93827000000E+00  0.93827000000E+00 0. -1.
     999902    2    1    2    0    0 -0.18011051850E-01  0.20917037591E-02 -0.13807788711E-01  0.10211390316E+01  0.10208846622E+01 0.  0.
     999903    2    3    3    0    0 -0.71340078694E-01 -0.89980457667E-01  0.61406770896E-01  0.13154446211E+00  0.18635031806E-01 0.  0.
         14    1    1    2    0    0  0.18011051850E-01 -0.20917037591E-02  0.13807788711E-01  0.22790968441E-01  0.00000000000E+00 0. -1.
     999901    1    3    3    0    0  0.53329026844E-01  0.92072161426E-01 -0.75214559607E-01  0.88959456945E+00  0.88000000000E+00 0. -1.
        -11    1    4    4    0    0 -0.39610493965E-01 -0.36110724142E-01  0.32270537455E-01  0.62566958843E-01  0.51100000000E-03 0. -1.
         11    1    4    4    0    0 -0.31729584730E-01 -0.53869733524E-01  0.29136233440E-01  0.68977503269E-01  0.51100000000E-03 0.  1.
</event>
<event>
 8    1  0.1207611E+005  0.1043930E+01  0.7957747E-01            NaN
         13   -1    0    0    0    0  0.00000000000E+00  0.00000000000E+00  0.74505805969E-08  0.10566000000E+00  0.10566000000E+00 0. -1.
     999900   -1    0    0    0    0 -0.00000000000E+00 -0.00000000000E+00 -0.74505805969E-08  0.93827000000E+00  0.93827000000E+00 0.  1.
     999902    2    1    2    0    0  0.23543190391E-01 -0.50550207427E-02  0.58709764675E-03  0.10198430796E+01  0.10195585944E+01 0.  0.
     999903    2    3    3    0    0  0.35176281633E-01  0.10488966778E+00  0.66200116286E-01  0.13050162016E+00  0.20223854020E-01 0.  0.
         14    1    1    2    0    0 -0.23543190391E-01  0.50550207427E-02 -0.58709764675E-03  0.24086920354E-01  0.00000000000E+00 0.  1.
     999901    1    3    3    0    0 -0.11633091243E-01 -0.10994468852E+00 -0.65613018639E-01  0.88934145949E+00  0.88000000000E+00 0.  1.
        -11    1    4    4    0    0  0.25651224305E-01  0.59025805091E-01  0.28582512655E-01  0.70421957696E-01  0.51100000000E-03 0. -1.
         11    1    4    4    0    0  0.95250573278E-02  0.45863862690E-01  0.37617603630E-01  0.60079662464E-01  0.51100000000E-03 0.  1.
</event>
<event>
 8    1  0.1207611E+005  0.1043930E+01  0.7957747E-01            NaN
         13   -1    0    0    0    0  0.00000000000E+00  0.00000000000E+00  0.74505805969E-08  0.10566000000E+00  0.10566000000E+00 0.  1.
     999900   -1    0    0    0    0 -0.00000000000E+00 -0.00000000000E+00 -0.74505805969E-08  0.93827000000E+00  0.93827000000E+00 0.  1.
     999902    2    1    2    0    0 -0.45181755791E-02 -0.16626803781E-01 -0.15806186743E-01  0.10205483821E+01  0.10202805008E+01 0.  0.
     999903    2    3    3    0    0 -0.34662304680E-01 -0.77333725989E-01 -0.10162934853E+00  0.13377918216E+00  0.19656158241E-01 0.  0.
         14    1    1    2    0    0  0.45181755791E-02  0.16626803781E-01  0.15806186743E-01  0.23381617862E-01  0.00000000000E+00 0.  1.
     999901    1    3    3    0    0  0.30144129101E-01  0.60706922209E-01  0.85823161786E-01  0.88676919997E+00  0.88000000000E+00 0. -1.
        -11    1    4    4    0    0 -0.83179375981E-02 -0.40111977439E-01 -0.41537543383E-01  0.58341987035E-01  0.51100000000E-03 0.  1.
         11    1    4    4    0    0 -0.26344367082E-01 -0.37221748551E-01 -0.60091805146E-01  0.75437195129E-01  0.51100000000E-03 0. -1.
</event>
<event>
 8    1  0.1389039E+005  0.1043930E+01  0.7957747E-01            NaN
         13   -1    0    0    0    0  0.00000000000E+00  0.00000000000E+00  0.74505805969E-08  0.10566000000E+00  0.10566000000E+00 0.  1.
     999900   -1    0    0    0    0 -0.00000000000E+00 -0.00000000000E+00 -0.74505805969E-08  0.93827000000E+00  0.93827000000E+00 0. -1.
     999902    2    1    2    0    0  0.50119180200E-02 -0.37106914836E-03 -0.22697047080E-01  0.10206832161E+01  0.10204184508E+01 0.  0.
     999903    2    3    3    0    0  0.50801903968E-01 -0.11905489424E+00 -0.11317022512E-01  0.13146328938E+00  0.19990501919E-01 0.  0.
         14    1    1    2    0    0 -0.50119180200E-02  0.37106914836E-03  0.22697047080E-01  0.23246783879E-01  0.00000000000E+00 0.  1.
     999901    1    3    3    0    0 -0.45789985948E-01  0.11868382509E+00 -0.11380024569E-01  0.88921992674E+00  0.88000000000E+00 0. -1.
        -11    1    4    4    0    0  0.18419140391E-01 -0.67698003862E-01 -0.86070793416E-02  0.70686826180E-01  0.51100000000E-03 0. -1.
         11    1    4    4    0    0  0.32382763577E-01 -0.51356890379E-01 -0.27099431700E-02  0.60776463201E-01  0.51100000000E-03 0.  1.
</event>
<event>
 8    1  0.1207611E+005  0.1043930E+01  0.7957747E-01            NaN
         13   -1    0    0    0    0  0.00000000000E+00  0.00000000000E+00  0.74505805969E-08  0.10566000000E+00  0.10566000000E+00 0.  1.
     999900   -1    0    0    0    0 -0.00000000000E+00 -0.00000000000E+00 -0.74505805969E-08  0.93827000000E+00  0.93827000000E+00 0.  1.
     999902    2    1    2    0    0  0.21858188264E-01 -0.78072763229E-02 -0.15766032974E-02  0.10206658723E+01  0.10204007072E+01 0.  0.
     999903    2    3    3    0    0 -0.23175503785E-01 -0.12754541501E+00  0.68184123030E-02  0.13137641915E+00  0.20207322796E-01 0.  0.
         14    1    1    2    0    0 -0.21858188264E-01  0.78072763229E-02  0.15766032974E-02  0.23264127659E-01  0.00000000000E+00 0.  1.
     999901    1    3    3    0    0  0.45033692050E-01  0.11973813869E+00 -0.83950156004E-02  0.88928945319E+00  0.88000000000E+00 0.  1.
        -11    1    4    4    0    0 -0.10770076785E-01 -0.37342134752E-01  0.10457904104E-01  0.40249949827E-01  0.51100000000E-03 0.  1.
         11    1    4    4    0    0 -0.12405427000E-01 -0.90203280262E-01 -0.36394918013E-02  0.91126469319E-01  0.51100000000E-03 0. -1.
</event>
<event>
 8    1  0.1207611E+005  0.1043930E+01  0.7957747E-01            NaN
         13   -1    0    0    0    0  0.00000000000E+00  0.00000000000E+00  0.74505805969E-08  0.10566000000E+00  0.10566000000E+00 0.  1.
     999900   -1    0    0    0    0 -0.00000000000E+00 -0.00000000000E+00 -0.74505805969E-08  0.93827000000E+00  0.93827000000E+00 0.  1.
     999902    2    1    2    0    0  0.15719268154E-01  0.17726448685E-01 -0.65530490175E-02  0.10193482013E+01  0.10190517606E+01 0.  0.
     999903    2    3    3    0    0 -0.68454153679E-01 -0.31336516182E-01  0.10220825066E+00  0.12731604957E+00  0.97417439222E-02 0.  0.
         14    1    1    2    0    0 -0.15719268154E-01 -0.17726448685E-01  0.65530490175E-02  0.24581798667E-01  0.00000000000E+00 0.  1.
     999901    1    3    3    0    0  0.84173421834E-01  0.49062964868E-01 -0.10876129967E+00  0.89203215176E+00  0.88000000000E+00 0.  1.
        -11    1    4    4    0    0 -0.45654468281E-01 -0.24107587421E-01  0.75422533589E-01  0.91402001834E-01  0.51100000000E-03 0. -1.
         11    1    4    4    0    0 -0.22799685398E-01 -0.72289287619E-02  0.26785717066E-01  0.35914047740E-01  0.51100000000E-03 0.  1.
</event>
<event>
 8    1  0.1207611E+005  0.1043930E+01  0.7957747E-01            NaN
         13   -1    0    0    0    0  0.00000000000E+00  0.00000000000E+00  0.74505805969E-08  0.10566000000E+00  0.10566000000E+00 0. -1.
     999900   -1    0    0    0    0 -0.00000000000E+00 -0.00000000000E+00 -0.74505805969E-08  0.93827000000E+00  0.93827000000E+00 0. -1.
     999902    2    1    2    0    0 -0.28848544693E-02  0.80922362750E-02 -0.21487031201E-01  0.10207891447E+01  0.10205268143E+01 0.  0.
     999903    2    3    3    0    0  0.91388121771E-01 -0.51115285452E-01 -0.77803302606E-01  0.13198970328E+00  0.20083990347E-01 0.  0.
         14    1    1    2    0    0  0.28848544693E-02 -0.80922362750E-02  0.21487031201E-01  0.23140855279E-01  0.00000000000E+00 0. -1.
     999901    1    3    3    0    0 -0.94272976240E-01  0.59207521727E-01  0.56316271405E-01  0.88879944144E+00  0.88000000000E+00 0.  1.
        -11    1    4    4    0    0  0.47172120017E-01 -0.20463892033E-01 -0.27407189420E-01  0.58270017479E-01  0.51100000000E-03 0.  1.
         11    1    4    4    0    0  0.44216001753E-01 -0.30651393419E-01 -0.50396113186E-01  0.73719685802E-01  0.51100000000E-03 0. -1.
</event>
<event>
 8    1  0.1207611E+005  0.1043930E+01  0.7957747E-01            NaN
         13   -1    0    0    0    0  0.00000000000E+00  0.00000000000E+00  0.74505805969E-08  0.10566000000E+00  0.10566000000E+00 0. -1.
     999900   -1    0    0    0    0 -0.00000000000E+00 -0.00000000000E+00 -0.74505805969E-08  0.93827000000E+00  0.93827000000E+00 0.  1.
     999902    2    1    2    0    0 -0.66883119362E-02  0.12129329750E-01  0.19219520380E-01  0.10202394086E+01  0.10199643164E+01 0.  0.
     999903    2    3    3    0    0  0.10813015197E+00 -0.58777884974E-02 -0.66870866615E-01  0.12843276438E+00  0.17221614381E-01 0.  0.
         14    1    1    2    0    0  0.66883119362E-02 -0.12129329750E-01 -0.19219520380E-01  0.23690591389E-01  0.00000000000E+00 0.  1.
     999901    1    3    3    0    0 -0.11481846391E+00  0.18007118247E-01  0.86090386996E-01  0.89180664423E+00  0.88000000000E+00 0. -1.
        -11    1    4    4    0    0  0.45917479692E-01 -0.10013362877E-01 -0.33460478637E-01  0.57693562284E-01  0.51100000000E-03 0.  1.
         11    1    4    4    0    0  0.62212672277E-01  0.41355743801E-02 -0.33410387978E-01  0.70739202096E-01  0.51100000000E-03 0. -1.
</event>
<event>
 8    1  0.1207611E+005  0.1043930E+01  0.7957747E-01            NaN
         13   -1    0    0    0    0  0.00000000000E+00  0.00000000000E+00  0.74505805969E-08  0.10566000000E+00  0.10566000000E+00 0.  1.
     999900   -1    0    0    0    0 -0.00000000000E+00 -0.00000000000E+00 -0.74505805969E-08  0.93827000000E+00  0.93827000000E+00 0. -1.
     999902    2    1    2    0    0 -0.27519381880E-02 -0.97229749278E-03 -0.22371889616E-01  0.10213685291E+01  0.10211193134E+01 0.  0.
     999903    2    3    3    0    0 -0.36560563894E-01 -0.12234350010E+00 -0.28828452087E-01  0.13237152164E+00  0.19660448713E-01 0.  0.
         14    1    1    2    0    0  0.27519381880E-02  0.97229749278E-03  0.22371889616E-01  0.22561470945E-01  0.00000000000E+00 0.  1.
     999901    1    3    3    0    0  0.33808625706E-01  0.12137120260E+00  0.64565624706E-02  0.88899700741E+00  0.88000000000E+00 0.  1.
        -11    1    4    4    0    0 -0.18463220301E-01 -0.72521410076E-01 -0.26223282345E-01  0.79297963916E-01  0.51100000000E-03 0.  1.
         11    1    4    4    0    0 -0.18097343593E-01 -0.49822090020E-01 -0.26051697418E-02  0.53073557724E-01  0.51100000000E-03 0. -1.
</event>
<event>
 8    1  0.1207611E+005  0.1043930E+01  0.7957747E-01            NaN
         13   -1    0    0    0    0  0.00000000000E+00  0.00000000000E+00  0.74505805969E-08  0.10566000000E+00  0.10566000000E+00 0. -1.
     999900   -1    0    0    0    0 -0.00000000000E+00 -0.00000000000E+00 -0.74505805969E-08  0.93827000000E+00  0.93827000000E+00 0. -1.
     999902    2    1    2    0    0 -0.16005934801E-01 -0.12565352606E-01 -0.11598179140E-01  0.10205078781E+01  0.10202390570E+01 0.  0.
     999903    2    3    3    0    0 -0.17875437484E-01 -0.56909095138E-01 -0.11757700814E+00  0.13303879428E+00  0.17798639421E-01 0.  0.
         14    1    1    2    0    0  0.16005934801E-01  0.12565352606E-01  0.11598179140E-01  0.23422121901E-01  0.00000000000E+00 0.  1.
     999901    1    3    3    0    0  0.18695026833E-02  0.44343742532E-01  0.10597882900E+00  0.88746908382E+00  0.88000000000E+00 0.  1.
        -11    1    4    4    0    0 -0.57484732051E-02 -0.51991075443E-02 -0.74071244227E-02  0.10733232349E-01  0.51100000000E-03 0. -1.
         11    1    4    4    0    0 -0.12126964279E-01 -0.51709987594E-01 -0.11016988372E+00  0.12230556193E+00  0.51100000000E-03 0.  1.
</event>
<event>
 8    1  0.1207611E+005  0.1043930E+01  0.7957747E-01            NaN
         13   -1    0    0    0    0  0.00000000000E+00  0.00000000000E+00  0.74505805969E-08  0.10566000000E+00  0.10566000000E+00 0.  1.
     999900   -1    0    0    0    0 -0.00000000000E+00 -0.00000000000E+00 -0.74505805969E-08  0.93827000000E+00  0.93827000000E+00 0. -1.
     999902    2    1    2    0    0  0.10129001466E-01 -0.16782168968E-01  0.14033049345E-01  0.10198226497E+01  0.10195376758E+01 0.  0.
     999903    2    3    3    0    0  0.10428162889E+00  0.14680844673E-01 -0.73570518929E-01  0.12991870898E+00  0.19392379049E-01 0.  0.
         14    1    1    2    0    0 -0.10129001466E-01  0.16782168968E-01 -0.14033049345E-01  0.24107350329E-01  0.00000000000E+00 0. -1.
     999901    1    3    3    0    0 -0.94152627420E-01 -0.31463013641E-01  0.87603568273E-01  0.88990394069E+00  0.88000000000E+00 0.  1.
        -11    1    4    4    0    0  0.86519273545E-01  0.45829995243E-02 -0.59590968820E-01  0.10515670813E+00  0.51100000000E-03 0.  1.
         11    1    4    4    0    0  0.17762355340E-01  0.10097845149E-01 -0.13979550108E-01  0.24762000850E-01  0.51100000000E-03 0. -1.
</event>
<event>
 8    1  0.1207611E+005  0.1043930E+01  0.7957747E-01            NaN
         13   -1    0    0    0    0  0.00000000000E+00  0.00000000000E+00  0.74505805969E-08  0.10566000000E+00  0.10566000000E+00 0. -1.
     999900   -1    0    0    0    0 -0.00000000000E+00 -0.00000000000E+00 -0.74505805969E-08  0.93827000000E+00  0.93827000000E+00 0.  1.
     999902    2    1    2    0    0 -0.11852804779E-01  0.19936849488E-01 -0.30954229299E-02  0.10205302438E+01  0.10202619418E+01 0.  0.
     999903    2    3    3    0    0 -0.65472191627E-01 -0.52005213414E-01  0.97684349492E-01  0.13024531096E+00  0.20747500856E-01 0.  0.
         14    1    1    2    0    0  0.11852804779E-01 -0.19936849488E-01  0.30954229299E-02  0.23399756233E-01  0.00000000000E+00 0. -1.
     999901    1    3    3    0    0  0.53619386848E-01  0.71942062902E-01 -0.10077977242E+00  0.89028493281E+00  0.88000000000E+00 0.  1.
        -11    1    4    4    0    0 -0.35200809229E-01 -0.30177286781E-01  0.69178774708E-01  0.83281027845E-01  0.51100000000E-03 0. -1.
         11    1    4    4    0    0 -0.30271382398E-01 -0.21827926633E-01  0.28505574784E-01  0.46964283111E-01  0.51100000000E-03 0.  1.
</event>
<event>
 8    1  0.1207611E+005  0.1043930E+01  0.7957747E-01            NaN
         13   -1    0    0    0    0  0.00000000000E+00  0.00000000000E+00  0.74505805969E-08  0.10566000000E+00  0.10566000000E+00 0.  1.
     999900   -1    0    0    0    0 -0.00000000000E+00 -0.00000000000E+00 -0.74505805969E-08  0.93827000000E+00  0.93827000000E+00 0.  1.
     999902    2    1    2    0    0  0.22711780613E-01  0.82652605607E-02 -0.56102165959E-02  0.10191184293E+01  0.10188163519E+01 0.  0.
     999903    2    3    3    0    0  0.63751345804E-02 -0.30984153708E-01  0.12325791116E+00  0.12871717319E+00  0.19363312942E-01 0.  0.
         14    1    1    2    0    0 -0.22711780613E-01 -0.82652605607E-02  0.56102165959E-02  0.24811570708E-01  0.00000000000E+00 0.  1.
     999901    1    3    3    0    0  0.16336646032E-01  0.39249414269E-01 -0.12886812775E+00  0.89040125611E+00  0.88000000000E+00 0.  1.
        -11    1    4    4    0    0  0.41892939993E-02 -0.24052450585E-01  0.56351101473E-01  0.61414805394E-01  0.51100000000E-03 0. -1.
         11    1    4    4    0    0  0.21858405811E-02 -0.69317031233E-02  0.66906809685E-01  0.67302367793E-01  0.51100000000E-03 0.  1.
</event>
<event>
 8    1  0.1207611E+005  0.1043930E+01  0.7957747E-01            NaN
         13   -1    0    0    0    0  0.00000000000E+00  0.00000000000E+00  0.74505805969E-08  0.10566000000E+00  0.10566000000E+00 0.  1.
     999900   -1    0    0    0    0 -0.00000000000E+00 -0.00000000000E+00 -0.74505805969E-08  0.93827000000E+00  0.93827000000E+00 0.  1.
     999902    2    1    2    0    0  0.17362550142E-01 -0.13101865721E-01  0.75180730570E-02  0.10209161247E+01  0.10206566980E+01 0.  0.
     999903    2    3    3    0    0  0.10374782356E+00 -0.74882907829E-01  0.34604218061E-01  0.13411683972E+00  0.20464945892E-01 0.  0.
         14    1    1    2    0    0 -0.17362550142E-01  0.13101865721E-01 -0.75180730570E-02  0.23013875278E-01  0.00000000000E+00 0. -1.
     999901    1    3    3    0    0 -0.86385273420E-01  0.61781042108E-01 -0.27086145004E-01  0.88679928500E+00  0.88000000000E+00 0.  1.
        -11    1    4    4    0    0  0.86385146682E-01 -0.52514690826E-01  0.29754219368E-01  0.10538387453E+00  0.51100000000E-03 0.  1.
         11    1    4    4    0    0  0.17362676880E-01 -0.22368217003E-01  0.48499986932E-02  0.28732965191E-01  0.51100000000E-03 0. -1.
</event>
<event>
 8    1  0.1207611E+005  0.1043930E+01  0.7957747E-01            NaN
         13   -1    0    0    0    0  0.00000000000E+00  0.00000000000E+00  0.74505805969E-08  0.10566000000E+00  0.10566000000E+00 0. -1.
     999900   -1    0    0    0    0 -0.00000000000E+00 -0.00000000000E+00 -0.74505805969E-08  0.93827000000E+00  0.93827000000E+00 0.  1.
     999902    2    1    2    0    0  0.81793395109E-02  0.59115925208E-03  0.21968083717E-01  0.10204811671E+01  0.10202117254E+01 0.  0.
     999903    2    3    3    0    0  0.15404498872E-01 -0.12249560510E+00  0.41312536834E-01  0.13167479762E+00  0.19724471467E-01 0.  0.
         14    1    1    2    0    0 -0.81793395109E-02 -0.59115925208E-03 -0.21968083717E-01  0.23448832941E-01  0.00000000000E+00 0.  1.
     999901    1    3    3    0    0 -0.72251593610E-02  0.12308676435E+00 -0.19344453117E-01  0.88880636944E+00  0.88000000000E+00 0.  1.
        -11    1    4    4    0    0  0.37315187541E-02 -0.57058511120E-01  0.94406383841E-02  0.57956748507E-01  0.51100000000E-03 0.  1.
         11    1    4    4    0    0  0.11672980118E-01 -0.65437093980E-01  0.31871898450E-01  0.73718049114E-01  0.51100000000E-03 0. -1.
</event>
<event>
 8    1  0.1207611E+005  0.1043930E+01  0.7957747E-01            NaN
         13   -1    0    0    0    0  0.00000000000E+00  0.00000000000E+00  0.74505805969E-08  0.10566000000E+00  0.10566000000E+00 0. -1.
     999900   -1    0    0    0    0 -0.00000000000E+00 -0.00000000000E+00 -0.74505805969E-08  0.93827000000E+00  0.93827000000E+00 0.  1.
     999902    2    1    2    0    0  0.18152318931E-01  0.18425158911E-01 -0.18118308288E-01  0.10123504772E+01  0.10118578074E+01 0.  0.
     999903    2    3    3    0    0  0.92581556406E-01 -0.53432733912E-01 -0.62024418084E-01  0.12520279243E+00  0.20057645795E-01 0.  0.
         14    1    1    2    0    0 -0.18152318931E-01 -0.18425158911E-01  0.18118308288E-01  0.31579522774E-01  0.00000000000E+00 0. -1.
     999901    1    3    3    0    0 -0.74429237476E-01  0.71857892823E-01  0.43906109796E-01  0.88714768479E+00  0.88000000000E+00 0. -1.
        -11    1    4    4    0    0  0.80875684579E-01 -0.49791920009E-01 -0.47505935189E-01  0.10619409896E+00  0.51100000000E-03 0. -1.
         11    1    4    4    0    0  0.11705871827E-01 -0.36408139032E-02 -0.14518482896E-01  0.19008693477E-01  0.51100000000E-03 0.  1.
</event>
<event>
 8    1  0.1207611E+005  0.1043930E+01  0.7957747E-01            NaN
         13   -1    0    0    0    0  0.00000000000E+00  0.00000000000E+00  0.74505805969E-08  0.10566000000E+00  0.10566000000E+00 0. -1.
     999900   -1    0    0    0    0 -0.00000000000E+00 -0.00000000000E+00 -0.74505805969E-08  0.93827000000E+00  0.93827000000E+00 0.  1.
     999902    2    1    2    0    0  0.21518748851E-01 -0.52044850197E-02 -0.90949920588E-02  0.10199954623E+01  0.10197146076E+01 0.  0.
     999903    2    3    3    0    0  0.38282586654E-01  0.11570603540E+00  0.40784274330E-01  0.13017057981E+00  0.20678001507E-01 0.  0.
         14    1    1    2    0    0 -0.21518748851E-01  0.52044850197E-02  0.90949920588E-02  0.23934537743E-01  0.00000000000E+00 0.  1.
     999901    1    3    3    0    0 -0.16763837803E-01 -0.12091052042E+00 -0.49879266389E-01  0.88982488245E+00  0.88000000000E+00 0. -1.
        -11    1    4    4    0    0  0.29310936857E-01  0.55888168953E-01  0.21912898437E-01  0.66806097680E-01  0.51100000000E-03 0. -1.
         11    1    4    4    0    0  0.89716497965E-02  0.59817866448E-01  0.18871375893E-01  0.63364482130E-01  0.51100000000E-03 0.  1.
</event>
<event>
 8    1  0.1207611E+005  0.1043930E+01  0.7957747E-01            NaN
         13   -1    0    0    0    0  0.00000000000E+00  0.00000000000E+00  0.74505805969E-08  0.10566000000E+00  0.10566000000E+00 0. -1.
     999900   -1    0    0    0    0 -0.00000000000E+00 -0.00000000000E+00 -0.74505805969E-08  0.93827000000E+00  0.93827000000E+00 0. -1.
     999902    2    1    2    0    0  0.26227658260E-02 -0.15784671704E-01  0.40384609558E-02  0.10274271539E+01  0.10272946085E+01 0.  0.
     999903    2    3    3    0    0  0.11490974567E+00 -0.55634843351E-01 -0.47968011679E-01  0.13787610131E+00  0.20233727388E-01 0.  0.
         14    1    1    2    0    0 -0.26227658260E-02  0.15784671704E-01 -0.40384609558E-02  0.16502846066E-01  0.00000000000E+00 0.  1.
     999901    1    3    3    0    0 -0.11228697984E+00  0.39850171646E-01  0.52006472635E-01  0.88955105262E+00  0.88000000000E+00 0.  1.
        -11    1    4    4    0    0  0.22831746662E-01 -0.13951357288E-01 -0.18703912597E-01  0.32650061152E-01  0.51100000000E-03 0.  1.
         11    1    4    4    0    0  0.92077999009E-01 -0.41683486063E-01 -0.29264099083E-01  0.10522604016E+00  0.51100000000E-03 0. -1.
</event>
<event>
 8    1  0.1207611E+005  0.1043930E+01  0.7957747E-01            NaN
         13   -1    0    0    0    0  0.00000000000E+00  0.00000000000E+00  0.74505805969E-08  0.10566000000E+00  0.10566000000E+00 0.  1.
     999900   -1    0    0    0    0 -0.00000000000E+00 -0.00000000000E+00 -0.74505805969E-08  0.93827000000E+00  0.93827000000E+00 0. -1.
     999902    2    1    2    0    0  0.91464178156E-02 -0.67449850006E-02 -0.20264646885E-01  0.10206962380E+01  0.10204317727E+01 0.  0.
     999903    2    3    3    0    0 -0.15471326807E-02  0.10207380916E+00 -0.81063145102E-01  0.13184735360E+00  0.19774605451E-01 0.  0.
         14    1    1    2    0    0 -0.91464178156E-02  0.67449850006E-02  0.20264646885E-01  0.23233761962E-01  0.00000000000E+00 0.  1.
     999901    1    3    3    0    0  0.10693550496E-01 -0.10881879416E+00  0.60798498217E-01  0.88884888444E+00  0.88000000000E+00 0.  1.
        -11    1    4    4    0    0  0.65032111112E-02  0.29496865339E-01 -0.31164459417E-01  0.43403242636E-01  0.51100000000E-03 0.  1.
         11    1    4    4    0    0 -0.80503437919E-02  0.72576943822E-01 -0.49898685685E-01  0.88444110962E-01  0.51100000000E-03 0. -1.
</event>
<event>
 8    1  0.1207611E+005  0.1043930E+01  0.7957747E-01            NaN
         13   -1    0    0    0    0  0.00000000000E+00  0.00000000000E+00  0.74505805969E-08  0.10566000000E+00  0.10566000000E+00 0. -1.
     999900   -1    0    0    0    0 -0.00000000000E+00 -0.00000000000E+00 -0.74505805969E-08  0.93827000000E+00  0.93827000000E+00 0. -1.
     999902    2    1    2    0    0  0.13039839226E-01  0.93438700801E-02 -0.19845853906E-01  0.10184113160E+01  0.10180915506E+01 0.  0.
     999903    2    3    3    0    0 -0.10282831798E+00 -0.53042590860E-01 -0.51784431917E-01  0.12805320091E+00  0.18133269194E-01 0.  0.
         14    1    1    2    0    0 -0.13039839226E-01 -0.93438700801E-02  0.19845853906E-01  0.25518683986E-01  0.00000000000E+00 0. -1.
     999901    1    3    3    0    0  0.11586815720E+00  0.62386460940E-01  0.31938578011E-01  0.89035811510E+00  0.88000000000E+00 0.  1.
        -11    1    4    4    0    0 -0.89190924496E-01 -0.46837622193E-01 -0.37948461159E-01  0.10765282481E+00  0.51100000000E-03 0. -1.
         11    1    4    4    0    0 -0.13637393481E-01 -0.62049686665E-02 -0.13835970757E-01  0.20400376097E-01  0.51100000000E-03 0.  1.
</event>
<event>
 8    1  0.1207611E+005  0.1043930E+01  0.7957747E-01            NaN
         13   -1    0    0    0    0  0.00000000000E+00  0.00000000000E+00  0.74505805969E-08  0.10566000000E+00  0.10566000000E+00 0. -1.
     999900   -1    0    0    0    0 -0.00000000000E+00 -0.00000000000E+00 -0.74505805969E-08  0.93827000000E+00  0.93827000000E+00 0.  1.
     999902    2    1    2    0    0 -0.18828012810E-02 -0.22669885796E-01 -0.62395856015E-02  0.10203418443E+01  0.10200691536E+01 0.  0.
     999903    2    3    3    0    0  0.10638431368E-02  0.12373257142E+00 -0.25724989040E-01  0.12802909464E+00  0.20464433052E-01 0.  0.
         14    1    1    2    0    0  0.18828012810E-02  0.22669885796E-01  0.62395856015E-02  0.23588155738E-01  0.00000000000E+00 0.  1.
     999901    1    3    3    0    0 -0.29466444178E-02 -0.14640245722E+00  0.19485403438E-01  0.89231274962E+00  0.88000000000E+00 0.  1.
        -11    1    4    4    0    0  0.49948657167E-02  0.70140641580E-02 -0.20940102045E-02  0.88764733581E-02  0.51100000000E-03 0.  1.
         11    1    4    4    0    0 -0.39310225799E-02  0.11671850726E+00 -0.23630978835E-01  0.11915262128E+00  0.51100000000E-03 0. -1.
</event>
<event>
 7    1  0.1207611E+005  0.1043930E+01  0.7957747E-01            NaN
         13   -1    0    0    0    0  0.00000000000E+00  0.00000000000E+00  0.74505805969E-08  0.10566000000E+00  0.10566000000E+00 0.  1.
     999900   -1    0    0    0    0 -0.00000000000E+00 -0.00000000000E+00 -0.74505805969E-08  0.93827000000E+00  0.93827000000E+00 0.  1.
     999902    2    1    2    0    0  0.97352097427E-02  0.13540472245E-01 -0.15592265627E-01  0.10210993749E+01  0.10208441095E+01 0.  0.
         14    1    1    2    0    0 -0.97352097427E-02 -0.13540472245E-01  0.15592265627E-01  0.22830625150E-01  0.00000000000E+00 0.  1.
     999901    1    3    3    0    0 -0.10185348499E+00  0.62262542358E-01  0.58307183415E-04  0.88806011057E+00  0.88000000000E+00 0. -1.
        -11    1    3    3    0    0  0.94392856784E-01 -0.20120327980E-01 -0.22177903315E-01  0.99030094044E-01  0.51100000000E-03 0. -1.
         11    1    3    3    0    0  0.17195837946E-01 -0.28601742133E-01  0.65273305048E-02  0.34009170237E-01  0.51100000000E-03 0.  1.
</event>
<event>
 8    1  0.1207611E+005  0.1043930E+01  0.7957747E-01            NaN
         13   -1    0    0    0    0  0.00000000000E+00  0.00000000000E+00  0.74505805969E-08  0.10566000000E+00  0.10566000000E+00 0.  1.
     999900   -1    0    0    0    0 -0.00000000000E+00 -0.00000000000E+00 -0.74505805969E-08  0.93827000000E+00  0.93827000000E+00 0. -1.
     999902    2    1    2    0    0 -0.83155735257E-02 -0.73425724908E-02  0.21006301179E-01  0.10201744360E+01  0.10198978150E+01 0.  0.
     999903    2    3    3    0    0  0.12570395665E+00  0.21747213125E-01 -0.37552593004E-02  0.12920833953E+00  0.20156066995E-01 0.  0.
         14    1    1    2    0    0  0.83155735257E-02  0.73425724908E-02 -0.21006301179E-01  0.23755564044E-01  0.00000000000E+00 0. -1.
     999901    1    3    3    0    0 -0.13401953018E+00 -0.29089785616E-01  0.24761560479E-01  0.89096609642E+00  0.88000000000E+00 0.  1.
        -11    1    4    4    0    0  0.43030521727E-01  0.16217952365E-01  0.29160948412E-02  0.46080500314E-01  0.51100000000E-03 0.  1.
         11    1    4    4    0    0  0.82673434922E-01  0.55292607600E-02 -0.66713541416E-02  0.83127839220E-01  0.51100000000E-03 0. -1.
</event>
<event>
 8    1  0.1207611E+005  0.1043930E+01  0.7957747E-01            NaN
         13   -1    0    0    0    0  0.00000000000E+00  0.00000000000E+00  0.74505805969E-08  0.10566000000E+00  0.10566000000E+00 0.  1.
     999900   -1    0    0    0    0 -0.00000000000E+00 -0.00000000000E+00 -0.74505805969E-08  0.93827000000E+00  0.93827000000E+00 0.  1.
     999902    2    1    2    0    0 -0.14865689294E-01  0.78030290833E-02 -0.16954728077E-01  0.10200691789E+01  0.10197900720E+01 0.  0.
     999903    2    3    3    0    0  0.77316437201E-01  0.39329469470E-01  0.91959342866E-01  0.12801887998E+00  0.20190945031E-01 0.  0.
         14    1    1    2    0    0  0.14865689294E-01 -0.78030290833E-02  0.16954728077E-01  0.23860821135E-01  0.00000000000E+00 0.  1.
     999901    1    3    3    0    0 -0.92182126495E-01 -0.31526440386E-01 -0.10891407094E+00  0.89205029888E+00  0.88000000000E+00 0.  1.
        -11    1    4    4    0    0  0.48130032389E-01  0.30211057049E-01  0.47547485110E-01  0.74096102779E-01  0.51100000000E-03 0.  1.
         11    1    4    4    0    0  0.29186404812E-01  0.91184124209E-02  0.44411857756E-01  0.53922777203E-01  0.51100000000E-03 0. -1.
</event>
<event>
 8    1  0.1207611E+005  0.1043930E+01  0.7957747E-01            NaN
         13   -1    0    0    0    0  0.00000000000E+00  0.00000000000E+00  0.74505805969E-08  0.10566000000E+00  0.10566000000E+00 0.  1.
     999900   -1    0    0    0    0 -0.00000000000E+00 -0.00000000000E+00 -0.74505805969E-08  0.93827000000E+00  0.93827000000E+00 0.  1.
     999902    2    1    2    0    0  0.57743435222E-02  0.11411011115E-01 -0.19149048015E-01  0.10209030537E+01  0.10206433288E+01 0.  0.
     999903    2    3    3    0    0  0.78841843912E-01 -0.28795024579E-01  0.96625890856E-01  0.12941036082E+00  0.19112532849E-01 0.  0.
         14    1    1    2    0    0 -0.57743435222E-02 -0.11411011115E-01  0.19149048015E-01  0.23026946338E-01  0.00000000000E+00 0. -1.
     999901    1    3    3    0    0 -0.73067500390E-01  0.40206035694E-01 -0.11577493887E+00  0.89149269284E+00  0.88000000000E+00 0.  1.
        -11    1    4    4    0    0  0.32601236796E-01 -0.50109049786E-02  0.27745404843E-01  0.43104737794E-01  0.51100000000E-03 0.  1.
         11    1    4    4    0    0  0.46240607116E-01 -0.23784119600E-01  0.68880486013E-01  0.86305623026E-01  0.51100000000E-03 0. -1.
</event>
<event>
 8    1  0.1207611E+005  0.1043930E+01  0.7957747E-01            NaN
         13   -1    0    0    0    0  0.00000000000E+00  0.00000000000E+00  0.74505805969E-08  0.10566000000E+00  0.10566000000E+00 0. -1.
     999900   -1    0    0    0    0 -0.00000000000E+00 -0.00000000000E+00 -0.74505805969E-08  0.93827000000E+00  0.93827000000E+00 0. -1.
     999902    2    1    2    0    0  0.91246186845E-02  0.14300788600E-01 -0.16517284986E-01  0.10202531775E+01  0.10199784087E+01 0.  0.
     999903    2    3    3    0    0 -0.11901116391E+00  0.16317517044E-01 -0.46707968766E-01  0.13045863752E+00  0.20196615043E-01 0.  0.
         14    1    1    2    0    0 -0.91246186845E-02 -0.14300788600E-01  0.16517284986E-01  0.23676822506E-01  0.00000000000E+00 0. -1.
     999901    1    3    3    0    0  0.12813578260E+00 -0.20167284448E-02  0.30190683781E-01  0.88979453997E+00  0.88000000000E+00 0.  1.
        -11    1    4    4    0    0 -0.86750482841E-01  0.16474734506E-01 -0.42240985078E-01  0.97885775736E-01  0.51100000000E-03 0.  1.
         11    1    4    4    0    0 -0.32260681073E-01 -0.15721746121E-03 -0.44669836881E-02  0.32572861786E-01  0.51100000000E-03 0. -1.
</event>
<event>
 8    1  0.1207611E+005  0.1043930E+01  0.7957747E-01            NaN
         13   -1    0    0    0    0  0.00000000000E+00  0.00000000000E+00  0.74505805969E-08  0.10566000000E+00  0.10566000000E+00 0. -1.
     999900   -1    0    0    0    0 -0.00000000000E+00 -0.00000000000E+00 -0.74505805969E-08  0.93827000000E+00  0.93827000000E+00 0. -1.
     999902    2    1    2    0    0  0.23210993131E-01 -0.42705361345E-03  0.41754369656E-02  0.10203425701E+01  0.10200698964E+01 0.  0.
     999903    2    3    3    0    0  0.10904747445E+00  0.35211979504E-01  0.65219800456E-01  0.13334513122E+00  0.19901418664E-01 0.  0.
         14    1    1    2    0    0 -0.23210993131E-01  0.42705361345E-03 -0.41754369656E-02  0.23587429931E-01  0.00000000000E+00 0. -1.
     999901    1    3    3    0    0 -0.85836481318E-01 -0.35639033117E-01 -0.61044363491E-01  0.88699743885E+00  0.88000000000E+00 0.  1.
        -11    1    4    4    0    0  0.64809362781E-01  0.18181074006E-01  0.27298121645E-01  0.72637824323E-01  0.51100000000E-03 0. -1.
         11    1    4    4    0    0  0.44238111668E-01  0.17030905497E-01  0.37921678812E-01  0.60707306899E-01  0.51100000000E-03 0.  1.
</event>
<event>
 8    1  0.1207611E+005  0.1043930E+01  0.7957747E-01            NaN
         13   -1    0    0    0    0  0.00000000000E+00  0.00000000000E+00  0.74505805969E-08  0.10566000000E+00  0.10566000000E+00 0.  1.
     999900   -1    0    0    0    0 -0.00000000000E+00 -0.00000000000E+00 -0.74505805969E-08  0.93827000000E+00  0.93827000000E+00 0. -1.
     999902    2    1    2    0    0  0.10060557483E-01 -0.75113754041E-02  0.20686387489E-01  0.10197316074E+01  0.10194444511E+01 0.  0.
     999903    2    3    3    0    0 -0.10414465296E+00 -0.74547426629E-01  0.38345846177E-02  0.12966383160E+00  0.19863978153E-01 0.  0.
         14    1    1    2    0    0 -0.10060557483E-01  0.75113754041E-02 -0.20686387489E-01  0.24198392605E-01  0.00000000000E+00 0. -1.
     999901    1    3    3    0    0  0.11420521044E+00  0.67036051225E-01  0.16851802871E-01  0.89006777580E+00  0.88000000000E+00 0. -1.
        -11    1    4    4    0    0 -0.15933814498E-01 -0.10049378741E-01  0.76057050381E-02  0.20322015837E-01  0.51100000000E-03 0.  1.
         11    1    4    4    0    0 -0.88210838460E-01 -0.64498047888E-01 -0.37711204205E-02  0.10934181576E+00  0.51100000000E-03 0. -1.
</event>
<event>
 8    1  0.1207611E+005  0.1043930E+01  0.7957747E-01            NaN
         13   -1    0    0    0    0  0.00000000000E+00  0.00000000000E+00  0.74505805969E-08  0.10566000000E+00  0.10566000000E+00 0. -1.
     999900   -1    0    0    0    0 -0.00000000000E+00 -0.00000000000E+00 -0.74505805969E-08  0.93827000000E+00  0.93827000000E+00 0. -1.
     999902    2    1    2    0    0  0.19432254316E-01  0.11061605518E-02 -0.14434750036E-01  0.10196978291E+01  0.10194098609E+01 0.  0.
     999903    2    3    3    0    0 -0.42156963494E-01  0.16613368920E-01  0.11785669756E+00  0.12754608617E+00  0.18016363123E-01 0.  0.
         14    1    1    2    0    0 -0.19432254316E-01 -0.11061605518E-02  0.14434750036E-01  0.24232170922E-01  0.00000000000E+00 0. -1.
     999901    1    3    3    0    0  0.61589217810E-01 -0.15507208368E-01 -0.13229144760E+00  0.89215174291E+00  0.88000000000E+00 0. -1.
        -11    1    4    4    0    0 -0.22932482623E-01  0.42229163207E-02  0.79837665572E-01  0.83174790331E-01  0.51100000000E-03 0.  1.
         11    1    4    4    0    0 -0.19224480871E-01  0.12390452599E-01  0.38019031988E-01  0.44371295842E-01  0.51100000000E-03 0. -1.
</event>
<event>
 8    1  0.1207611E+005  0.1043930E+01  0.7957747E-01            NaN
         13   -1    0    0    0    0  0.00000000000E+00  0.00000000000E+00  0.74505805969E-08  0.10566000000E+00  0.10566000000E+00 0.  1.
     999900   -1    0    0    0    0 -0.00000000000E+00 -0.00000000000E+00 -0.74505805969E-08  0.93827000000E+00  0.93827000000E+00 0.  1.
     999902    2    1    2    0    0  0.44742548116E-04  0.23655127294E-01  0.43638412335E-02  0.10198756831E+01  0.10195919767E+01 0.  0.
     999903    2    3    3    0    0  0.94439638315E-01 -0.14740655637E-02 -0.86704855491E-01  0.12979963010E+00  0.20228540564E-01 0.  0.
         14    1    1    2    0    0 -0.44742548116E-04 -0.23655127294E-01 -0.43638412335E-02  0.24054316858E-01  0.00000000000E+00 0. -1.
     999901    1    3    3    0    0 -0.94394895767E-01  0.25129192858E-01  0.91068696724E-01  0.89007605304E+00  0.88000000000E+00 0. -1.
        -11    1    4    4    0    0  0.33711276673E-01  0.91616585225E-02 -0.31167887062E-01  0.46819701694E-01  0.51100000000E-03 0. -1.
         11    1    4    4    0    0  0.60728361642E-01 -0.10635724086E-01 -0.55536968428E-01  0.82979928403E-01  0.51100000000E-03 0.  1.
</event>
<event>
 8    1  0.1207611E+005  0.1043930E+01  0.7957747E-01            NaN
         13   -1    0    0    0    0  0.00000000000E+00  0.00000000000E+00  0.74505805969E-08  0.10566000000E+00  0.10566000000E+00 0.  1.
     999900   -1    0    0    0    0 -0.00000000000E+00 -0.00000000000E+00 -0.74505805969E-08  0.93827000000E+00  0.93827000000E+00 0. -1.
     999902    2    1    2    0    0  0.85586511196E-02 -0.16072380760E-01  0.14750398885E-01  0.10204961314E+01  0.10202270374E+01 0.  0.
     999903    2    3    3    0    0  0.81207548014E-01  0.90493799793E-01 -0.39568453913E-01  0.12943791170E+00  0.20117574007E-01 0.  0.
         14    1    1    2    0    0 -0.85586511196E-02  0.16072380760E-01 -0.14750398885E-01  0.23433868642E-01  0.00000000000E+00 0. -1.
     999901    1    3    3    0    0 -0.72648896894E-01 -0.10656618055E+00  0.54318852797E-01  0.89105821966E+00  0.88000000000E+00 0.  1.
        -11    1    4    4    0    0  0.11856480737E-01  0.11308108629E-01  0.14705983477E-02  0.16458227023E-01  0.51100000000E-03 0.  1.
         11    1    4    4    0    0  0.69351067276E-01  0.79185691164E-01 -0.41039052261E-01  0.11297968467E+00  0.51100000000E-03 0. -1.
</event>
<event>
 8    1  0.1207611E+005  0.1043930E+01  0.7957747E-01            NaN
         13   -1    0    0    0    0  0.00000000000E+00  0.00000000000E+00  0.74505805969E-08  0.10566000000E+00  0.10566000000E+00 0.  1.
     999900   -1    0    0    0    0 -0.00000000000E+00 -0.00000000000E+00 -0.74505805969E-08  0.93827000000E+00  0.93827000000E+00 0. -1.
     999902    2    1    2    0    0  0.13047562942E-01 -0.19226558947E-01  0.25306138787E-02  0.10205568643E+01  0.10202891795E+01 0.  0.
     999903    2    3    3    0    0  0.54513429959E-01 -0.98876320043E-01 -0.67484934308E-01  0.13322058102E+00  0.21101330228E-01 0.  0.
         14    1    1    2    0    0 -0.13047562942E-01  0.19226558947E-01 -0.25306138787E-02  0.23373135739E-01  0.00000000000E+00 0.  1.
     999901    1    3    3    0    0 -0.41465867017E-01  0.79649761096E-01  0.70015548186E-01  0.88733628324E+00  0.88000000000E+00 0. -1.
        -11    1    4    4    0    0  0.11960356009E-01 -0.26960192285E-01 -0.28473623232E-01  0.40998907605E-01  0.51100000000E-03 0. -1.
         11    1    4    4    0    0  0.42553073950E-01 -0.71916127759E-01 -0.39011311076E-01  0.92221673414E-01  0.51100000000E-03 0.  1.
</event>
<event>
 8    1  0.1207611E+005  0.1043930E+01  0.7957747E-01            NaN
         13   -1    0    0    0    0  0.00000000000E+00  0.00000000000E+00  0.74505805969E-08  0.10566000000E+00  0.10566000000E+00 0. -1.
     999900   -1    0    0    0    0 -0.00000000000E+00 -0.00000000000E+00 -0.74505805969E-08  0.93827000000E+00  0.93827000000E+00 0. -1.
     999902    2    1    2    0    0  0.18365044161E-01 -0.51489292347E-02  0.14169811674E-01  0.10201693207E+01  0.10198925791E+01 0.  0.
     999903    2    3    3    0    0 -0.20876653181E-01  0.12395921278E+00 -0.54260840667E-02  0.12966787638E+00  0.31346366559E-01 0.  0.
         14    1    1    2    0    0 -0.18365044161E-01  0.51489292347E-02 -0.14169811674E-01  0.23760679329E-01  0.00000000000E+00 0.  1.
     999901    1    3    3    0    0  0.39241697342E-01 -0.12910814202E+00  0.19595895741E-01  0.89050144429E+00  0.88000000000E+00 0. -1.
        -11    1    4    4    0    0  0.59795030779E-02  0.45473943821E-01 -0.85330171362E-02  0.46655198275E-01  0.51100000000E-03 0.  1.
         11    1    4    4    0    0 -0.26856156259E-01  0.78485268961E-01  0.31069330695E-02  0.83012678110E-01  0.51100000000E-03 0. -1.
</event>
<event>
 8    1  0.1207611E+005  0.1043930E+01  0.7957747E-01            NaN
         13   -1    0    0    0    0  0.00000000000E+00  0.00000000000E+00  0.74505805969E-08  0.10566000000E+00  0.10566000000E+00 0.  1.
     999900   -1    0    0    0    0 -0.00000000000E+00 -0.00000000000E+00 -0.74505805969E-08  0.93827000000E+00  0.93827000000E+00 0.  1.
     999902    2    1    2    0    0 -0.17778592534E-01 -0.12929877758E-01  0.10500955897E-01  0.10195675255E+01  0.10192764143E+01 0.  0.
     999903    2    3    3    0    0 -0.25612933797E-02  0.95972371304E-01 -0.81712671690E-01  0.12794281788E+00  0.21797881878E-01 0.  0.
         14    1    1    2    0    0  0.17778592534E-01  0.12929877758E-01 -0.10500955897E-01  0.24362474548E-01  0.00000000000E+00 0. -1.
     999901    1    3    3    0    0 -0.15217299154E-01 -0.10890224906E+00  0.92213627587E-01  0.89162470757E+00  0.88000000000E+00 0. -1.
        -11    1    4    4    0    0  0.68026013943E-02  0.58550690506E-01 -0.57786310083E-01  0.82546820039E-01  0.51100000000E-03 0.  1.
         11    1    4    4    0    0 -0.93638947740E-02  0.37421680798E-01 -0.23926361607E-01  0.45395997840E-01  0.51100000000E-03 0. -1.
</event>
<event>
 8    1  0.1207611E+005  0.1043930E+01  0.7957747E-01            NaN
         13   -1    0    0    0    0  0.00000000000E+00  0.00000000000E+00  0.74505805969E-08  0.10566000000E+00  0.10566000000E+00 0. -1.
     999900   -1    0    0    0    0 -0.00000000000E+00 -0.00000000000E+00 -0.74505805969E-08  0.93827000000E+00  0.93827000000E+00 0. -1.
     999902    2    1    2    0    0 -0.20863133064E-01  0.66363228216E-02 -0.99843570523E-02  0.10198676126E+01  0.10195837135E+01 0.  0.
     999903    2    3    3    0    0  0.60746016548E-01 -0.73850131587E-01 -0.84604384860E-01  0.12930247113E+00  0.20428084615E-01 0.  0.
         14    1    1    2    0    0  0.20863133064E-01 -0.66363228216E-02  0.99843570523E-02  0.24062387404E-01  0.00000000000E+00 0.  1.
     999901    1    3    3    0    0 -0.81609149612E-01  0.80486454409E-01  0.74620027807E-01  0.89056514147E+00  0.88000000000E+00 0.  1.
        -11    1    4    4    0    0  0.17549142129E-01 -0.35541569794E-01 -0.40255244068E-01  0.56497091685E-01  0.51100000000E-03 0.  1.
         11    1    4    4    0    0  0.43196874419E-01 -0.38308561793E-01 -0.44349140792E-01  0.72805379445E-01  0.51100000000E-03 0. -1.
</event>
<event>
 8    1  0.1207611E+005  0.1043930E+01  0.7957747E-01            NaN
         13   -1    0    0    0    0  0.00000000000E+00  0.00000000000E+00  0.74505805969E-08  0.10566000000E+00  0.10566000000E+00 0. -1.
     999900   -1    0    0    0    0 -0.00000000000E+00 -0.00000000000E+00 -0.74505805969E-08  0.93827000000E+00  0.93827000000E+00 0.  1.
     999902    2    1    2    0    0 -0.42211260058E-03  0.21303767480E-01 -0.92462162545E-02  0.10207024043E+01  0.10204380809E+01 0.  0.
     999903    2    3    3    0    0 -0.17718900003E-01  0.98586215118E-01 -0.86367419839E-01  0.13378671741E+00  0.20158207216E-01 0.  0.
         14    1    1    2    0    0  0.42211260058E-03 -0.21303767480E-01  0.92462162545E-02  0.23227595720E-01  0.00000000000E+00 0. -1.
     999901    1    3    3    0    0  0.17296787402E-01 -0.77282447637E-01  0.77121203584E-01  0.88691568687E+00  0.88000000000E+00 0. -1.
        -11    1    4    4    0    0 -0.15442507428E-01  0.33439575349E-01 -0.27747669922E-01  0.46118006704E-01  0.51100000000E-03 0. -1.
         11    1    4    4    0    0 -0.22763925746E-02  0.65146639769E-01 -0.58619749916E-01  0.87668710710E-01  0.51100000000E-03 0.  1.
</event>
<event>
 8    1  0.1207611E+005  0.1043930E+01  0.7957747E-01            NaN
         13   -1    0    0    0    0  0.00000000000E+00  0.00000000000E+00  0.74505805969E-08  0.10566000000E+00  0.10566000000E+00 0. -1.
     999900   -1    0    0    0    0 -0.00000000000E+00 -0.00000000000E+00 -0.74505805969E-08  0.93827000000E+00  0.93827000000E+00 0.  1.
     999902    2    1    2    0    0  0.94633410490E-02 -0.14903371475E-01 -0.13106830611E-01  0.10219424055E+01  0.10217058411E+01 0.  0.
     999903    2    3    3    0    0 -0.77445782987E-01 -0.12579688120E-01  0.10201711894E+00  0.13019573790E+00  0.19680949024E-01 0.  0.
         14    1    1    2    0    0 -0.94633410490E-02  0.14903371475E-01  0.13106830611E-01  0.21987594543E-01  0.00000000000E+00 0. -1.
     999901    1    3    3    0    0  0.86909124036E-01 -0.23236833549E-02 -0.11512394955E+00  0.89174666756E+00  0.88000000000E+00 0.  1.
        -11    1    4    4    0    0 -0.19576274829E-01  0.47343017281E-02  0.30885608879E-01  0.36875820070E-01  0.51100000000E-03 0.  1.
         11    1    4    4    0    0 -0.57869508158E-01 -0.17313989848E-01  0.71131510059E-01  0.93319917827E-01  0.51100000000E-03 0. -1.
</event>
<event>
 8    1  0.1207611E+005  0.1043930E+01  0.7957747E-01            NaN
         13   -1    0    0    0    0  0.00000000000E+00  0.00000000000E+00  0.74505805969E-08  0.10566000000E+00  0.10566000000E+00 0. -1.
     999900   -1    0    0    0    0 -0.00000000000E+00 -0.00000000000E+00 -0.74505805969E-08  0.93827000000E+00  0.93827000000E+00 0.  1.
     999902    2    1    2    0    0 -0.11435850716E-01 -0.19516387969E-02  0.20325611943E-01  0.10205266225E+01  0.10202582365E+01 0.  0.
     999903    2    3    3    0    0  0.56833835495E-01 -0.30465147825E-02  0.11797581924E+00  0.13249649254E+00  0.19941426709E-01 0.  0.
         14    1    1    2    0    0  0.11435850716E-01  0.19516387969E-02 -0.20325611943E-01  0.23403377459E-01  0.00000000000E+00 0.  1.
     999901    1    3    3    0    0 -0.68269686211E-01  0.10948759856E-02 -0.97650207300E-01  0.88803013000E+00  0.88000000000E+00 0.  1.
        -11    1    4    4    0    0  0.40633165016E-01 -0.10526962967E-01  0.90031303336E-01  0.99336638508E-01  0.51100000000E-03 0. -1.
         11    1    4    4    0    0  0.16200670479E-01  0.74804481846E-02  0.27944515907E-01  0.33159854030E-01  0.51100000000E-03 0.  1.
</event>
<event>
 8    1  0.1207611E+005  0.1043930E+01  0.7957747E-01            NaN
         13   -1    0    0    0    0  0.00000000000E+00  0.00000000000E+00  0.74505805969E-08  0.10566000000E+00  0.10566000000E+00 0.  1.
     999900   -1    0    0    0    0 -0.00000000000E+00 -0.00000000000E+00 -0.74505805969E-08  0.93827000000E+00  0.93827000000E+00 0.  1.
     999902    2    1    2    0    0  0.11025522993E-01 -0.87819286426E-02 -0.18883251370E-01  0.10203660103E+01  0.10200938846E+01 0.  0.
     999903    2    3    3    0    0 -0.57022793164E-02  0.12750148128E+00  0.51155609026E-02  0.12939523066E+00  0.20683641768E-01 0.  0.
         14    1    1    2    0    0 -0.11025522993E-01  0.87819286426E-02  0.18883251370E-01  0.23563989693E-01  0.00000000000E+00 0.  1.
     999901    1    3    3    0    0  0.16727802309E-01 -0.13628340992E+00 -0.23998812272E-01  0.89097077964E+00  0.88000000000E+00 0.  1.
        -11    1    4    4    0    0 -0.11423079741E-01  0.88207069995E-01 -0.24040690279E-02  0.88977607389E-01  0.51100000000E-03 0.  1.
         11    1    4    4    0    0  0.57208004241E-02  0.39294411286E-01  0.75196299305E-02  0.40417623274E-01  0.51100000000E-03 0. -1.
</event>
<event>
 8    1  0.1207611E+005  0.1043930E+01  0.7957747E-01            NaN
         13   -1    0    0    0    0  0.00000000000E+00  0.00000000000E+00  0.74505805969E-08  0.10566000000E+00  0.10566000000E+00 0.  1.
     999900   -1    0    0    0    0 -0.00000000000E+00 -0.00000000000E+00 -0.74505805969E-08  0.93827000000E+00  0.93827000000E+00 0.  1.
     999902    2    1    2    0    0 -0.13427537980E-01  0.14506958095E-01 -0.13236718503E-01  0.10201400583E+01  0.10198626266E+01 0.  0.
     999903    2    3    3    0    0  0.17517938611E-01  0.10358401743E+00 -0.78323930174E-01  0.13271192592E+00  0.21006913181E-01 0.  0.
         14    1    1    2    0    0  0.13427537980E-01 -0.14506958095E-01  0.13236718503E-01  0.23789941701E-01  0.00000000000E+00 0.  1.
     999901    1    3    3    0    0 -0.30945476591E-01 -0.89077059339E-01  0.65087211671E-01  0.88742813238E+00  0.88000000000E+00 0. -1.
        -11    1    4    4    0    0  0.58807495821E-02  0.27469712783E-01 -0.10166639914E-01  0.29879592102E-01  0.51100000000E-03 0. -1.
         11    1    4    4    0    0  0.11637189029E-01  0.76114304651E-01 -0.68157290260E-01  0.10283233381E+00  0.51100000000E-03 0.  1.
</event>
<event>
 8    1  0.1207611E+005  0.1043930E+01  0.7957747E-01            NaN
         13   -1    0    0    0    0  0.00000000000E+00  0.00000000000E+00  0.74505805969E-08  0.10566000000E+00  0.10566000000E+00 0.  1.
     999900   -1    0    0    0    0 -0.00000000000E+00 -0.00000000000E+00 -0.74505805969E-08  0.93827000000E+00  0.93827000000E+00 0.  1.
     999902    2    1    2    0    0  0.84462943626E-02  0.15995438553E-01 -0.14349906132E-01  0.10208407439E+01  0.10205795954E+01 0.  0.
     999903    2    3    3    0    0  0.11627144941E+00  0.23167136054E-01 -0.57882782140E-01  0.13316241891E+00  0.18056777124E-01 0.  0.
         14    1    1    2    0    0 -0.84462943626E-02 -0.15995438553E-01  0.14349906132E-01  0.23089256136E-01  0.00000000000E+00 0.  1.
     999901    1    3    3    0    0 -0.10782515505E+00 -0.71716975017E-02  0.43532876009E-01  0.88767832496E+00  0.88000000000E+00 0.  1.
        -11    1    4    4    0    0  0.43667181109E-01  0.25345363064E-02 -0.28253107386E-01  0.52074425376E-01  0.51100000000E-03 0. -1.
         11    1    4    4    0    0  0.72604268299E-01  0.20632599748E-01 -0.29629674754E-01  0.81087993530E-01  0.51100000000E-03 0.  1.
</event>
<event>
 8    1  0.1207611E+005  0.1043930E+01  0.7957747E-01            NaN
         13   -1    0    0    0    0  0.00000000000E+00  0.00000000000E+00  0.74505805969E-08  0.10566000000E+00  0.10566000000E+00 0.  1.
     999900   -1    0    0    0    0 -0.00000000000E+00 -0.00000000000E+00 -0.74505805969E-08  0.93827000000E+00  0.93827000000E+00 0. -1.
     999902    2    1    2    0    0 -0.22795993389E-01  0.83827617897E-02 -0.53452087626E-02  0.10190603545E+01  0.10187568438E+01 0.  0.
     999903    2    3    3    0    0  0.11295791023E-01 -0.11648263985E+00 -0.49923731181E-01  0.12847579202E+00  0.17828345930E-01 0.  0.
         14    1    1    2    0    0  0.22795993389E-01 -0.83827617897E-02  0.53452087626E-02  0.24869645484E-01  0.00000000000E+00 0. -1.
     999901    1    3    3    0    0 -0.34091784411E-01  0.12486540164E+00  0.44578522418E-01  0.89058456249E+00  0.88000000000E+00 0. -1.
        -11    1    4    4    0    0  0.72426321744E-02 -0.72262416431E-01 -0.40220125471E-01  0.83019468579E-01  0.51100000000E-03 0. -1.
         11    1    4    4    0    0  0.40531588484E-02 -0.44220223422E-01 -0.97036057101E-02  0.45456323442E-01  0.51100000000E-03 0.  1.
</event>
<event>
 8    1  0.1207611E+005  0.1043930E+01  0.7957747E-01            NaN
         13   -1    0    0    0    0  0.00000000000E+00  0.00000000000E+00  0.74505805969E-08  0.10566000000E+00  0.10566000000E+00 0.  1.
     999900   -1    0    0    0    0 -0.00000000000E+00 -0.00000000000E+00 -0.74505805969E-08  0.93827000000E+00  0.93827000000E+00 0.  1.
     999902    2    1    2    0    0 -0.41860089236E-02 -0.20854914068E-01 -0.10082494273E-01  0.10203905267E+01  0.10201189736E+01 0.  0.
     999903    2    3    3    0    0  0.73263682015E-01 -0.14235224645E-01  0.10406863701E+00  0.12961964951E+00  0.20019081062E-01 0.  0.
         14    1    1    2    0    0  0.41860089236E-02  0.20854914068E-01  0.10082494273E-01  0.23539473279E-01  0.00000000000E+00 0.  1.
     999901    1    3    3    0    0 -0.77449690939E-01 -0.66196894227E-02 -0.11415113128E+00  0.89077087721E+00  0.88000000000E+00 0.  1.
        -11    1    4    4    0    0  0.48879046853E-01 -0.14792197382E-01  0.56507475748E-01  0.76166437892E-01  0.51100000000E-03 0.  1.
         11    1    4    4    0    0  0.24384635162E-01  0.55697273688E-03  0.47561161263E-01  0.53453211618E-01  0.51100000000E-03 0. -1.
</event>
<event>
 8    1  0.1207611E+005  0.1043930E+01  0.7957747E-01            NaN
         13   -1    0    0    0    0  0.00000000000E+00  0.00000000000E+00  0.74505805969E-08  0.10566000000E+00  0.10566000000E+00 0.  1.
     999900   -1    0    0    0    0 -0.00000000000E+00 -0.00000000000E+00 -0.74505805969E-08  0.93827000000E+00  0.93827000000E+00 0.  1.
     999902    2    1    2    0    0  0.11706947588E-02  0.66370075498E-02  0.22206830210E-01  0.10207230247E+01  0.10204591758E+01 0.  0.
     999903    2    3    3    0    0 -0.16358721687E-01  0.12713607109E+00 -0.19969831142E-01  0.13133774511E+00  0.20484647575E-01 0.  0.
         14    1    1    2    0    0 -0.11706947588E-02 -0.66370075498E-02 -0.22206830210E-01  0.23206975318E-01  0.00000000000E+00 0. -1.
     999901    1    3    3    0    0  0.17529416445E-01 -0.12049906354E+00  0.42176661352E-01  0.88938527957E+00  0.88000000000E+00 0.  1.
        -11    1    4    4    0    0 -0.14491290421E-01  0.45666074020E-01 -0.24047578603E-02  0.47973240414E-01  0.51100000000E-03 0. -1.
         11    1    4    4    0    0 -0.18674312653E-02  0.81469997075E-01 -0.17565073282E-01  0.83364504696E-01  0.51100000000E-03 0.  1.
</event>
<event>
 8    1  0.1207611E+005  0.1043930E+01  0.7957747E-01            NaN
         13   -1    0    0    0    0  0.00000000000E+00  0.00000000000E+00  0.74505805969E-08  0.10566000000E+00  0.10566000000E+00 0.  1.
     999900   -1    0    0    0    0 -0.00000000000E+00 -0.00000000000E+00 -0.74505805969E-08  0.93827000000E+00  0.93827000000E+00 0. -1.
     999902    2    1    2    0    0  0.70779454967E-02  0.69770718216E-03 -0.21923820398E-01  0.10208813990E+01  0.10206211799E+01 0.  0.
     999903    2    3    3    0    0  0.27366062495E-02 -0.12943129561E+00 -0.91199394000E-02  0.13120935606E+00  0.19307317975E-01 0.  0.
         14    1    1    2    0    0 -0.70779454967E-02 -0.69770718216E-03  0.21923820398E-01  0.23048601012E-01  0.00000000000E+00 0.  1.
     999901    1    3    3    0    0  0.43413392471E-02  0.13012900279E+00 -0.12803880998E-01  0.88967204292E+00  0.88000000000E+00 0. -1.
        -11    1    4    4    0    0  0.10826178099E-01 -0.62408463273E-01 -0.28300349437E-02  0.63405777647E-01  0.51100000000E-03 0.  1.
         11    1    4    4    0    0 -0.80895718491E-02 -0.67022832335E-01 -0.62899044562E-02  0.67803578416E-01  0.51100000000E-03 0. -1.
</event>
<event>
 8    1  0.1207611E+005  0.1043930E+01  0.7957747E-01            NaN
         13   -1    0    0    0    0  0.00000000000E+00  0.00000000000E+00  0.74505805969E-08  0.10566000000E+00  0.10566000000E+00 0. -1.
     999900   -1    0    0    0    0 -0.00000000000E+00 -0.00000000000E+00 -0.74505805969E-08  0.93827000000E+00  0.93827000000E+00 0. -1.
     999902    2    1    2    0    0 -0.21240755340E-01 -0.40324445446E-02  0.10320041858E-01  0.10199730895E+01  0.10196917033E+01 0.  0.
     999903    2    3    3    0    0  0.47031333679E-01  0.11597033173E+00 -0.21189253383E-01  0.12865127325E+00  0.21002415591E-01 0.  0.
         14    1    1    2    0    0  0.21240755340E-01  0.40324445446E-02 -0.10320041858E-01  0.23956910493E-01  0.00000000000E+00 0. -1.
     999901    1    3    3    0    0 -0.68272089018E-01 -0.12000277627E+00  0.31509295240E-01  0.89132181626E+00  0.88000000000E+00 0. -1.
        -11    1    4    4    0    0  0.26161889366E-01  0.59482477378E-01 -0.21439280915E-01  0.68428893439E-01  0.51100000000E-03 0. -1.
         11    1    4    4    0    0  0.20869444313E-01  0.56487854351E-01  0.25002753216E-03  0.60222379809E-01  0.51100000000E-03 0.  1.
</event>
<event>
 8    1  0.1207611E+005  0.1043930E+01  0.7957747E-01            NaN
         13   -1    0    0    0    0  0.00000000000E+00  0.00000000000E+00  0.74505805969E-08  0.10566000000E+00  0.10566000000E+00 0. -1.
     999900   -1    0    0    0    0 -0.00000000000E+00 -0.00000000000E+00 -0.74505805969E-08  0.93827000000E+00  0.93827000000E+00 0. -1.
     999902    2    1    2    0    0  0.16167038618E-01 -0.67238121238E-02 -0.17183264270E-01  0.10193974225E+01  0.10191021822E+01 0.  0.
     999903    2    3    3    0    0 -0.25124841639E-01  0.10565411207E+00  0.63976458466E-01  0.12758986602E+00  0.19802464686E-01 0.  0.
         14    1    1    2    0    0 -0.16167038618E-01  0.67238121238E-02  0.17183264270E-01  0.24532577487E-01  0.00000000000E+00 0. -1.
     999901    1    3    3    0    0  0.41291880257E-01 -0.11237792420E+00 -0.81159722736E-01  0.89180755649E+00  0.88000000000E+00 0. -1.
        -11    1    4    4    0    0 -0.16650347413E-01  0.35369468397E-01  0.28651060142E-01  0.48470379944E-01  0.51100000000E-03 0. -1.
         11    1    4    4    0    0 -0.84744942263E-02  0.70284643677E-01  0.35325398324E-01  0.79119486076E-01  0.51100000000E-03 0.  1.
</event>
<event>
 8    1  0.1207611E+005  0.1043930E+01  0.7957747E-01            NaN
         13   -1    0    0    0    0  0.00000000000E+00  0.00000000000E+00  0.74505805969E-08  0.10566000000E+00  0.10566000000E+00 0. -1.
     999900   -1    0    0    0    0 -0.00000000000E+00 -0.00000000000E+00 -0.74505805969E-08  0.93827000000E+00  0.93827000000E+00 0.  1.
     999902    2    1    2    0    0  0.17370033353E-01 -0.17105926167E-01 -0.19601738525E-02  0.10194724235E+01  0.10191790074E+01 0.  0.
     999903    2    3    3    0    0 -0.65230836945E-01  0.84058248725E-01  0.66685347688E-01  0.12718922756E+00  0.20231479029E-01 0.  0.
         14    1    1    2    0    0 -0.17370033353E-01  0.17105926167E-01  0.19601738525E-02  0.24457576541E-01  0.00000000000E+00 0.  1.
     999901    1    3    3    0    0  0.82600870299E-01 -0.10116417489E+00 -0.68645521540E-01  0.89228319590E+00  0.88000000000E+00 0.  1.
        -11    1    4    4    0    0 -0.76080317581E-02  0.94218080743E-02  0.77818539857E-03  0.12145752679E-01  0.51100000000E-03 0.  1.
         11    1    4    4    0    0 -0.57622805187E-01  0.74636440651E-01  0.65907162289E-01  0.11504347488E+00  0.51100000000E-03 0. -1.
</event>
<event>
 8    1  0.1207611E+005  0.1043930E+01  0.7957747E-01            NaN
         13   -1    0    0    0    0  0.00000000000E+00  0.00000000000E+00  0.74505805969E-08  0.10566000000E+00  0.10566000000E+00 0. -1.
     999900   -1    0    0    0    0 -0.00000000000E+00 -0.00000000000E+00 -0.74505805969E-08  0.93827000000E+00  0.93827000000E+00 0. -1.
     999902    2    1    2    0    0 -0.11154063578E-01 -0.21043416161E-01  0.10370234241E-02  0.10200906645E+01  0.10198120660E+01 0.  0.
     999903    2    3    3    0    0 -0.52985049015E-01  0.52445953649E-01  0.10457946147E+00  0.12999429037E+00  0.20091249174E-01 0.  0.
         14    1    1    2    0    0  0.11154063578E-01  0.21043416161E-01 -0.10370234241E-02  0.23839335469E-01  0.00000000000E+00 0. -1.
     999901    1    3    3    0    0  0.41830985438E-01 -0.73489369810E-01 -0.10354243805E+00  0.89009637416E+00  0.88000000000E+00 0. -1.
        -11    1    4    4    0    0 -0.31661088047E-01  0.34668516518E-01  0.48998907469E-01  0.67863720706E-01  0.51100000000E-03 0. -1.
         11    1    4    4    0    0 -0.21323960968E-01  0.17777437131E-01  0.55580554005E-01  0.62130569664E-01  0.51100000000E-03 0.  1.
</event>
<event>
 8    1  0.1207611E+005  0.1043930E+01  0.7957747E-01            NaN
         13   -1    0    0    0    0  0.00000000000E+00  0.00000000000E+00  0.74505805969E-08  0.10566000000E+00  0.10566000000E+00 0. -1.
     999900   -1    0    0    0    0 -0.00000000000E+00 -0.00000000000E+00 -0.74505805969E-08  0.93827000000E+00  0.93827000000E+00 0.  1.
     999902    2    1    2    0    0 -0.56753290966E-02 -0.22674683258E-01  0.52304681825E-02  0.10199777889E+01  0.10196965143E+01 0.  0.
     999903    2    3    3    0    0 -0.47549893377E-01 -0.10260564106E+00  0.67812830875E-01  0.13315255846E+00  0.18496320029E-01 0.  0.
         14    1    1    2    0    0  0.56753290966E-02  0.22674683258E-01 -0.52304681825E-02  0.23952211143E-01  0.00000000000E+00 0.  1.
     999901    1    3    3    0    0  0.41874564281E-01  0.79930957806E-01 -0.62582362693E-01  0.88682523040E+00  0.88000000000E+00 0.  1.
        -11    1    4    4    0    0 -0.33321358880E-01 -0.52469144832E-01  0.31962176442E-01  0.69893962264E-01  0.51100000000E-03 0.  1.
         11    1    4    4    0    0 -0.14228534498E-01 -0.50136496232E-01  0.35850654433E-01  0.63258596196E-01  0.51100000000E-03 0. -1.
</event>
<event>
 8    1  0.1207611E+005  0.1043930E+01  0.7957747E-01            NaN
         13   -1    0    0    0    0  0.00000000000E+00  0.00000000000E+00  0.74505805969E-08  0.10566000000E+00  0.10566000000E+00 0. -1.
     999900   -1    0    0    0    0 -0.00000000000E+00 -0.00000000000E+00 -0.74505805969E-08  0.93827000000E+00  0.93827000000E+00 0. -1.
     999902    2    1    2    0    0 -0.20963761829E-01  0.24648150538E-02  0.11259270199E-01  0.10200066685E+01  0.10197260799E+01 0.  0.
     999903    2    3    3    0    0  0.60178406646E-01 -0.93661786416E-01 -0.60429556122E-01  0.12817503485E+00  0.19573897002E-01 0.  0.
         14    1    1    2    0    0  0.20963761829E-01 -0.24648150538E-02 -0.11259270199E-01  0.23923331472E-01  0.00000000000E+00 0. -1.
     999901    1    3    3    0    0 -0.81142168475E-01  0.96126601470E-01  0.71688826322E-01  0.89183163368E+00  0.88000000000E+00 0. -1.
        -11    1    4    4    0    0  0.28501089067E-01 -0.27224122447E-01 -0.22027488528E-01  0.45154582191E-01  0.51100000000E-03 0.  1.
         11    1    4    4    0    0  0.31677317579E-01 -0.66437663970E-01 -0.38402067595E-01  0.83020452656E-01  0.51100000000E-03 0. -1.
</event>
<event>
 8    1  0.1207611E+005  0.1043930E+01  0.7957747E-01            NaN
         13   -1    0    0    0    0  0.00000000000E+00  0.00000000000E+00  0.74505805969E-08  0.10566000000E+00  0.10566000000E+00 0. -1.
     999900   -1    0    0    0    0 -0.00000000000E+00 -0.00000000000E+00 -0.74505805969E-08  0.93827000000E+00  0.93827000000E+00 0. -1.
     999902    2    1    2    0    0 -0.15529659601E-01 -0.57675783692E-02  0.16897430407E-01  0.10202665590E+01  0.10199921043E+01 0.  0.
     999903    2    3    3    0    0  0.56029813616E-01 -0.10985428649E+00 -0.34719389588E-01  0.12975036196E+00  0.20552764780E-01 0.  0.
         14    1    1    2    0    0  0.15529659601E-01  0.57675783692E-02 -0.16897430407E-01  0.23663441042E-01  0.00000000000E+00 0.  1.
     999901    1    3    3    0    0 -0.71559473217E-01  0.10408670812E+00  0.51616819995E-01  0.89051619700E+00  0.88000000000E+00 0.  1.
        -11    1    4    4    0    0  0.21354887020E-01 -0.52368230209E-01 -0.25294499239E-01  0.61955916163E-01  0.51100000000E-03 0. -1.
         11    1    4    4    0    0  0.34674926596E-01 -0.57486056284E-01 -0.94248903492E-02  0.67794445794E-01  0.51100000000E-03 0.  1.
</event>
<event>
 8    1  0.1207611E+005  0.1043930E+01  0.7957747E-01            NaN
         13   -1    0    0    0    0  0.00000000000E+00  0.00000000000E+00  0.74505805969E-08  0.10566000000E+00  0.10566000000E+00 0. -1.
     999900   -1    0    0    0    0 -0.00000000000E+00 -0.00000000000E+00 -0.74505805969E-08  0.93827000000E+00  0.93827000000E+00 0. -1.
     999902    2    1    2    0    0  0.21374269691E-01 -0.12437230007E-01  0.35600293325E-03  0.10191980200E+01  0.10188979013E+01 0.  0.
     999903    2    3    3    0    0 -0.19338400847E-01 -0.96919220121E-01 -0.82503518186E-01  0.13034458530E+00  0.20385569105E-01 0.  0.
         14    1    1    2    0    0 -0.21374269691E-01  0.12437230007E-01 -0.35600293325E-03  0.24731979968E-01  0.00000000000E+00 0.  1.
     999901    1    3    3    0    0  0.40712670538E-01  0.84481990114E-01  0.82859521119E-01  0.88885343473E+00  0.88000000000E+00 0.  1.
        -11    1    4    4    0    0 -0.71469376925E-02 -0.51332133501E-01 -0.55648706091E-01  0.76046737331E-01  0.51100000000E-03 0.  1.
         11    1    4    4    0    0 -0.12191463154E-01 -0.45587086620E-01 -0.26854812095E-01  0.54297847968E-01  0.51100000000E-03 0. -1.
</event>
<event>
 8    1  0.1207611E+005  0.1043930E+01  0.7957747E-01            NaN
         13   -1    0    0    0    0  0.00000000000E+00  0.00000000000E+00  0.74505805969E-08  0.10566000000E+00  0.10566000000E+00 0.  1.
     999900   -1    0    0    0    0 -0.00000000000E+00 -0.00000000000E+00 -0.74505805969E-08  0.93827000000E+00  0.93827000000E+00 0. -1.
     999902    2    1    2    0    0 -0.91643931239E-02  0.11103824340E-01  0.18812635751E-01  0.10202404183E+01  0.10199653498E+01 0.  0.
     999903    2    3    3    0    0  0.28843429433E-01  0.23244200999E-01  0.12616450922E+00  0.13281920601E+00  0.18740912352E-01 0.  0.
         14    1    1    2    0    0  0.91643931239E-02 -0.11103824340E-01 -0.18812635751E-01  0.23689581680E-01  0.00000000000E+00 0. -1.
     999901    1    3    3    0    0 -0.38007822557E-01 -0.12140376659E-01 -0.10735187347E+00  0.88742121231E+00  0.88000000000E+00 0. -1.
        -11    1    4    4    0    0  0.11677723870E-01  0.84601330196E-02  0.22666722641E-01  0.26869769664E-01  0.51100000000E-03 0.  1.
         11    1    4    4    0    0  0.17165705563E-01  0.14784067979E-01  0.10349778658E+00  0.10594943635E+00  0.51100000000E-03 0. -1.
</event>
<event>
 8    1  0.1207611E+005  0.1043930E+01  0.7957747E-01            NaN
         13   -1    0    0    0    0  0.00000000000E+00  0.00000000000E+00  0.74505805969E-08  0.10566000000E+00  0.10566000000E+00 0.  1.
     999900   -1    0    0    0    0 -0.00000000000E+00 -0.00000000000E+00 -0.74505805969E-08  0.93827000000E+00  0.93827000000E+00 0.  1.
     999902    2    1    2    0    0  0.65418005393E-05 -0.12243904861E-03  0.23494588395E-01  0.10204350917E+01  0.10201645777E+01 0.  0.
     999903    2    3    3    0    0 -0.10192025937E+00  0.28953965281E-01  0.76593965314E-01  0.13248573842E+00  0.21442107786E-01 0.  0.
         14    1    1    2    0    0 -0.65418005393E-05  0.12243904861E-03 -0.23494588395E-01  0.23494908341E-01  0.00000000000E+00 0. -1.
     999901    1    3    3    0    0  0.10192680117E+00 -0.29076404330E-01 -0.53099376920E-01  0.88794935324E+00  0.88000000000E+00 0.  1.
        -11    1    4    4    0    0 -0.79214942415E-01  0.20361768678E-01  0.69100949423E-01  0.10707385796E+00  0.51100000000E-03 0. -1.
         11    1    4    4    0    0 -0.22705316957E-01  0.85921966031E-02  0.74930158918E-02  0.25411880465E-01  0.51100000000E-03 0.  1.
</event>
<event>
 8    1  0.1207611E+005  0.1043930E+01  0.7957747E-01            NaN
         13   -1    0    0    0    0  0.00000000000E+00  0.00000000000E+00  0.74505805969E-08  0.10566000000E+00  0.10566000000E+00 0. -1.
     999900   -1    0    0    0    0 -0.00000000000E+00 -0.00000000000E+00 -0.74505805969E-08  0.93827000000E+00  0.93827000000E+00 0. -1.
     999902    2    1    2    0    0 -0.84875707182E-02  0.20638427367E-01  0.72629649260E-02  0.10204622732E+01  0.10201923921E+01 0.  0.
     999903    2    3    3    0    0 -0.49676433919E-01  0.12248035029E+00  0.51687145276E-03  0.13360613522E+00  0.19523010034E-01 0.  0.
         14    1    1    2    0    0  0.84875707182E-02 -0.20638427367E-01 -0.72629649260E-02  0.23467726784E-01  0.00000000000E+00 0. -1.
     999901    1    3    3    0    0  0.41188863200E-01 -0.10184192292E+00  0.67460934733E-02  0.88685613799E+00  0.88000000000E+00 0. -1.
        -11    1    4    4    0    0 -0.32333779248E-02  0.94220253721E-03 -0.75657042781E-03  0.34894123055E-02  0.51100000000E-03 0. -1.
         11    1    4    4    0    0 -0.46443055994E-01  0.12153814775E+00  0.12734418806E-02  0.13011672292E+00  0.51100000000E-03 0.  1.
</event>
<event>
 8    1  0.1207611E+005  0.1043930E+01  0.7957747E-01            NaN
         13   -1    0    0    0    0  0.00000000000E+00  0.00000000000E+00  0.74505805969E-08  0.10566000000E+00  0.10566000000E+00 0. -1.
     999900   -1    0    0    0    0 -0.00000000000E+00 -0.00000000000E+00 -0.74505805969E-08  0.93827000000E+00  0.93827000000E+00 0. -1.
     999902    2    1    2    0    0 -0.16495476169E-01 -0.74897760050E-02  0.14959545051E-01  0.10204356290E+01  0.10201651276E+01 0.  0.
     999903    2    3    3    0    0  0.10140734261E+00  0.47612889119E-01 -0.58773991088E-01  0.12781364145E+00  0.18207376731E-01 0.  0.
         14    1    1    2    0    0  0.16495476169E-01  0.74897760050E-02 -0.14959545051E-01  0.23494370960E-01  0.00000000000E+00 0.  1.
     999901    1    3    3    0    0 -0.11790281877E+00 -0.55102665124E-01  0.73733536140E-01  0.89262198759E+00  0.88000000000E+00 0.  1.
        -11    1    4    4    0    0  0.78538367563E-01  0.28124927293E-01 -0.44369601863E-01  0.94489202585E-01  0.51100000000E-03 0.  1.
         11    1    4    4    0    0  0.22868975043E-01  0.19487961827E-01 -0.14404389226E-01  0.33324438865E-01  0.51100000000E-03 0. -1.
</event>
<event>
 8    1  0.1207611E+005  0.1043930E+01  0.7957747E-01            NaN
         13   -1    0    0    0    0  0.00000000000E+00  0.00000000000E+00  0.74505805969E-08  0.10566000000E+00  0.10566000000E+00 0. -1.
     999900   -1    0    0    0    0 -0.00000000000E+00 -0.00000000000E+00 -0.74505805969E-08  0.93827000000E+00  0.93827000000E+00 0. -1.
     999902    2    1    2    0    0 -0.22541206590E-01 -0.81811348700E-02  0.42408096324E-02  0.10195779687E+01  0.10192871101E+01 0.  0.
     999903    2    3    3    0    0  0.92821537939E-01 -0.82998861088E-01 -0.24384907771E-01  0.12844066913E+00  0.19943242268E-01 0.  0.
         14    1    1    2    0    0  0.22541206590E-01  0.81811348700E-02 -0.42408096324E-02  0.24352031304E-01  0.00000000000E+00 0. -1.
     999901    1    3    3    0    0 -0.11536274453E+00  0.74817726218E-01  0.28625717403E-01  0.89113729957E+00  0.88000000000E+00 0. -1.
        -11    1    4    4    0    0  0.44214027849E-01 -0.43489194240E-01 -0.24446267889E-02  0.62067927268E-01  0.51100000000E-03 0.  1.
         11    1    4    4    0    0  0.48607510090E-01 -0.39509666849E-01 -0.21940280982E-01  0.66372741861E-01  0.51100000000E-03 0. -1.
</event>
<event>
 8    1  0.1207611E+005  0.1043930E+01  0.7957747E-01            NaN
         13   -1    0    0    0    0  0.00000000000E+00  0.00000000000E+00  0.74505805969E-08  0.10566000000E+00  0.10566000000E+00 0.  1.
     999900   -1    0    0    0    0 -0.00000000000E+00 -0.00000000000E+00 -0.74505805969E-08  0.93827000000E+00  0.93827000000E+00 0. -1.
     999902    2    1    2    0    0  0.19719567229E-01  0.45545187914E-02 -0.11293598886E-01  0.10207534958E+01  0.10204903472E+01 0.  0.
     999903    2    3    3    0    0  0.72573598753E-01 -0.55593517192E-01 -0.94709681134E-01  0.13318965148E+00  0.20297614944E-01 0.  0.
         14    1    1    2    0    0 -0.19719567229E-01 -0.45545187914E-02  0.11293598886E-01  0.23176504243E-01  0.00000000000E+00 0.  1.
     999901    1    3    3    0    0 -0.52854031524E-01  0.60148035984E-01  0.83416082247E-01  0.88756384427E+00  0.88000000000E+00 0.  1.
        -11    1    4    4    0    0  0.30977151260E-01 -0.11568322193E-01 -0.32786898727E-01  0.46568785981E-01  0.51100000000E-03 0.  1.
         11    1    4    4    0    0  0.41596447493E-01 -0.44025194999E-01 -0.61922782407E-01  0.86620865504E-01  0.51100000000E-03 0. -1.
</event>
<event>
 8    1  0.1207611E+005  0.1043930E+01  0.7957747E-01            NaN
         13   -1    0    0    0    0  0.00000000000E+00  0.00000000000E+00  0.74505805969E-08  0.10566000000E+00  0.10566000000E+00 0. -1.
     999900   -1    0    0    0    0 -0.00000000000E+00 -0.00000000000E+00 -0.74505805969E-08  0.93827000000E+00  0.93827000000E+00 0.  1.
     999902    2    1    2    0    0 -0.20853975673E-01  0.81783783926E-02  0.98491237862E-02  0.10194600304E+01  0.10191663133E+01 0.  0.
     999903    2    3    3    0    0  0.18262315557E-01  0.10119295965E+00 -0.75907790832E-01  0.12955214470E+00  0.21171637521E-01 0.  0.
         14    1    1    2    0    0  0.20853975673E-01 -0.81783783926E-02 -0.98491237862E-02  0.24469969633E-01  0.00000000000E+00 0.  1.
     999901    1    3    3    0    0 -0.39116291230E-01 -0.93014581258E-01  0.85756914618E-01  0.88990788567E+00  0.88000000000E+00 0. -1.
        -11    1    4    4    0    0  0.92460312924E-02  0.28247652097E-01 -0.33115203634E-01  0.44500525574E-01  0.51100000000E-03 0. -1.
         11    1    4    4    0    0  0.90162842651E-02  0.72945307553E-01 -0.42792587198E-01  0.85051619127E-01  0.51100000000E-03 0.  1.
</event>
<event>
 8    1  0.1207611E+005  0.1043930E+01  0.7957747E-01            NaN
         13   -1    0    0    0    0  0.00000000000E+00  0.00000000000E+00  0.74505805969E-08  0.10566000000E+00  0.10566000000E+00 0. -1.
     999900   -1    0    0    0    0 -0.00000000000E+00 -0.00000000000E+00 -0.74505805969E-08  0.93827000000E+00  0.93827000000E+00 0. -1.
     999902    2    1    2    0    0  0.20314454953E-01  0.11291897656E-01 -0.86867130865E-02  0.10191178454E+01  0.10188157536E+01 0.  0.
     999903    2    3    3    0    0  0.36185696796E-03  0.12467200577E+00 -0.35220266220E-01  0.13122304050E+00  0.20875326149E-01 0.  0.
         14    1    1    2    0    0 -0.20314454953E-01 -0.11291897656E-01  0.86867130865E-02  0.24812154622E-01  0.00000000000E+00 0.  1.
     999901    1    3    3    0    0  0.19952597985E-01 -0.11338010812E+00  0.26533553134E-01  0.88789480488E+00  0.88000000000E+00 0.  1.
        -11    1    4    4    0    0  0.21324023549E-02  0.36394328629E-01 -0.84323930268E-03  0.36470076360E-01  0.51100000000E-03 0.  1.
         11    1    4    4    0    0 -0.17705453869E-02  0.88277677146E-01 -0.34377026918E-01  0.94752964143E-01  0.51100000000E-03 0. -1.
</event>
<event>
 8    1  0.1207611E+005  0.1043930E+01  0.7957747E-01            NaN
         13   -1    0    0    0    0  0.00000000000E+00  0.00000000000E+00  0.74505805969E-08  0.10566000000E+00  0.10566000000E+00 0.  1.
     999900   -1    0    0    0    0 -0.00000000000E+00 -0.00000000000E+00 -0.74505805969E-08  0.93827000000E+00  0.93827000000E+00 0.  1.
     999902    2    1    2    0    0 -0.17486476150E-01 -0.14501416891E-01 -0.57298062103E-02  0.10205014145E+01  0.10202324433E+01 0.  0.
     999903    2    3    3    0    0 -0.11089348135E+00 -0.71957687868E-01 -0.11947145739E-01  0.13367293783E+00  0.15825516357E-01 0.  0.
         14    1    1    2    0    0  0.17486476150E-01  0.14501416891E-01  0.57298062103E-02  0.23428585514E-01  0.00000000000E+00 0.  1.
     999901    1    3    3    0    0  0.93407005199E-01  0.57456270978E-01  0.62173395288E-02  0.88682847665E+00  0.88000000000E+00 0. -1.
        -11    1    4    4    0    0 -0.51493522990E-01 -0.28578144132E-01 -0.12064385637E-01  0.60117416393E-01  0.51100000000E-03 0. -1.
         11    1    4    4    0    0 -0.59399958359E-01 -0.43379543737E-01  0.11723989790E-03  0.73555521438E-01  0.51100000000E-03 0.  1.
</event>
<event>
 8    1  0.1207611E+005  0.1043930E+01  0.7957747E-01            NaN
         13   -1    0    0    0    0  0.00000000000E+00  0.00000000000E+00  0.74505805969E-08  0.10566000000E+00  0.10566000000E+00 0.  1.
     999900   -1    0    0    0    0 -0.00000000000E+00 -0.00000000000E+00 -0.74505805969E-08  0.93827000000E+00  0.93827000000E+00 0.  1.
     999902    2    1    2    0    0 -0.97036987901E-02 -0.18407516413E-01  0.11038762868E-01  0.10203746881E+01  0.10201027652E+01 0.  0.
     999903    2    3    3    0    0  0.11365456461E+00 -0.21151374570E-01 -0.54655822749E-01  0.12934126089E+00  0.19420661835E-01 0.  0.
         14    1    1    2    0    0  0.97036987901E-02  0.18407516413E-01 -0.11038762868E-01  0.23555311850E-01  0.00000000000E+00 0. -1.
     999901    1    3    3    0    0 -0.12335826340E+00  0.27438581568E-02  0.65694585616E-01  0.89103342726E+00  0.88000000000E+00 0. -1.
        -11    1    4    4    0    0  0.57650842075E-01 -0.28283453010E-02 -0.33452549957E-01  0.66715465589E-01  0.51100000000E-03 0.  1.
         11    1    4    4    0    0  0.56003722536E-01 -0.18323029269E-01 -0.21203272792E-01  0.62625795305E-01  0.51100000000E-03 0. -1.
</event>
<event>
 8    1  0.1207611E+005  0.1043930E+01  0.7957747E-01            NaN
         13   -1    0    0    0    0  0.00000000000E+00  0.00000000000E+00  0.74505805969E-08  0.10566000000E+00  0.10566000000E+00 0. -1.
     999900   -1    0    0    0    0 -0.00000000000E+00 -0.00000000000E+00 -0.74505805969E-08  0.93827000000E+00  0.93827000000E+00 0.  1.
     999902    2    1    2    0    0  0.89035304360E-02  0.24736983679E-01  0.23153380847E-01  0.10088975827E+01  0.10082891759E+01 0.  0.
     999903    2    3    3    0    0 -0.94979455245E-01  0.72019357128E-01  0.11922243122E-01  0.12145550799E+00  0.20035364224E-01 0.  0.
         14    1    1    2    0    0 -0.89035304360E-02 -0.24736983679E-01 -0.23153380847E-01  0.35032417279E-01  0.00000000000E+00 0.  1.
     999901    1    3    3    0    0  0.10388298568E+00 -0.47282373449E-01  0.11231137725E-01  0.88744207473E+00  0.88000000000E+00 0. -1.
        -11    1    4    4    0    0 -0.82670037405E-01  0.54210518237E-01  0.61863268693E-02  0.99053758804E-01  0.51100000000E-03 0. -1.
         11    1    4    4    0    0 -0.12309417840E-01  0.17808838892E-01  0.57359162528E-02  0.22401749184E-01  0.51100000000E-03 0.  1.
</event>
<event>
 8    1  0.1207611E+005  0.1043930E+01  0.7957747E-01            NaN
         13   -1    0    0    0    0  0.00000000000E+00  0.00000000000E+00  0.74505805969E-08  0.10566000000E+00  0.10566000000E+00 0.  1.
     999900   -1    0    0    0    0 -0.00000000000E+00 -0.00000000000E+00 -0.74505805969E-08  0.93827000000E+00  0.93827000000E+00 0.  1.
     999902    2    1    2    0    0 -0.56191316578E-03 -0.66600362240E-02  0.22172215003E-01  0.10207723026E+01  0.10205095859E+01 0.  0.
     999903    2    3    3    0    0  0.34691898240E-01 -0.16137378425E-01  0.12663445390E+00  0.13384219796E+00  0.20334853170E-01 0.  0.
         14    1    1    2    0    0  0.56191316578E-03  0.66600362240E-02 -0.22172215003E-01  0.23157697361E-01  0.00000000000E+00 0. -1.
     999901    1    3    3    0    0 -0.35253811406E-01  0.94773422009E-02 -0.10446223890E+00  0.88693010468E+00  0.88000000000E+00 0.  1.
        -11    1    4    4    0    0 -0.20515670482E-02  0.12914192474E-02  0.10627929849E-01  0.10912868775E-01  0.51100000000E-03 0.  1.
         11    1    4    4    0    0  0.36743465288E-01 -0.17428797672E-01  0.11600652405E+00  0.12292932918E+00  0.51100000000E-03 0. -1.
</event>
<event>
 8    1  0.1207611E+005  0.1043930E+01  0.7957747E-01            NaN
         13   -1    0    0    0    0  0.00000000000E+00  0.00000000000E+00  0.74505805969E-08  0.10566000000E+00  0.10566000000E+00 0. -1.
     999900   -1    0    0    0    0 -0.00000000000E+00 -0.00000000000E+00 -0.74505805969E-08  0.93827000000E+00  0.93827000000E+00 0. -1.
     999902    2    1    2    0    0  0.15269530197E-02 -0.88018243256E-02 -0.19649446309E-01  0.10223451804E+01  0.10221172944E+01 0.  0.
     999903    2    3    3    0    0  0.90721499378E-01 -0.47450517868E-01 -0.85092571539E-01  0.13457708497E+00  0.19705430058E-01 0.  0.
         14    1    1    2    0    0 -0.15269530197E-02  0.88018243256E-02  0.19649446309E-01  0.21584819601E-01  0.00000000000E+00 0. -1.
     999901    1    3    3    0    0 -0.89194546358E-01  0.38648693543E-01  0.65443125231E-01  0.88776809542E+00  0.88000000000E+00 0. -1.
        -11    1    4    4    0    0  0.38033350017E-01 -0.30741213967E-01 -0.37357147826E-01  0.61541657147E-01  0.51100000000E-03 0. -1.
         11    1    4    4    0    0  0.52688149361E-01 -0.16709303902E-01 -0.47735423713E-01  0.73035427828E-01  0.51100000000E-03 0.  1.
</event>
<event>
 8    1  0.1207611E+005  0.1043930E+01  0.7957747E-01            NaN
         13   -1    0    0    0    0  0.00000000000E+00  0.00000000000E+00  0.74505805969E-08  0.10566000000E+00  0.10566000000E+00 0.  1.
     999900   -1    0    0    0    0 -0.00000000000E+00 -0.00000000000E+00 -0.74505805969E-08  0.93827000000E+00  0.93827000000E+00 0. -1.
     999902    2    1    2    0    0  0.15965096668E-01 -0.16874064719E-01  0.85856369305E-02  0.10191644688E+01  0.10188635252E+01 0.  0.
     999903    2    3    3    0    0 -0.41922290612E-01 -0.72025643831E-01  0.98892727126E-01  0.13093701103E+00  0.20483104235E-01 0.  0.
         14    1    1    2    0    0 -0.15965096668E-01  0.16874064719E-01 -0.85856369305E-02  0.24765531152E-01  0.00000000000E+00 0. -1.
     999901    1    3    3    0    0  0.57887387280E-01  0.55151579113E-01 -0.90307090196E-01  0.88822745782E+00  0.88000000000E+00 0. -1.
        -11    1    4    4    0    0 -0.24831736755E-01 -0.40711793930E-01  0.71549594207E-01  0.85986457466E-01  0.51100000000E-03 0. -1.
         11    1    4    4    0    0 -0.17090553857E-01 -0.31313849901E-01  0.27343132919E-01  0.44950553563E-01  0.51100000000E-03 0.  1.
</event>
<event>
 8    1  0.1207611E+005  0.1043930E+01  0.7957747E-01            NaN
         13   -1    0    0    0    0  0.00000000000E+00  0.00000000000E+00  0.74505805969E-08  0.10566000000E+00  0.10566000000E+00 0.  1.
     999900   -1    0    0    0    0 -0.00000000000E+00 -0.00000000000E+00 -0.74505805969E-08  0.93827000000E+00  0.93827000000E+00 0.  1.
     999902    2    1    2    0    0 -0.14495147639E-01  0.12182982550E-01 -0.14337859041E-01  0.10201790301E+01  0.10199025174E+01 0.  0.
     999903    2    3    3    0    0 -0.22422886566E-01  0.11565684252E-01 -0.12879671325E+00  0.13273096999E+00  0.19808234559E-01 0.  0.
         14    1    1    2    0    0  0.14495147639E-01 -0.12182982550E-01  0.14337859041E-01  0.23750969891E-01  0.00000000000E+00 0. -1.
     999901    1    3    3    0    0  0.79277389270E-02  0.61729829811E-03  0.11445885421E+00  0.88744806012E+00  0.88000000000E+00 0. -1.
        -11    1    4    4    0    0 -0.91285355718E-02  0.15550262639E-01 -0.66340526043E-01  0.68749307971E-01  0.51100000000E-03 0. -1.
         11    1    4    4    0    0 -0.13294350994E-01 -0.39845783876E-02 -0.62456187207E-01  0.63981662019E-01  0.51100000000E-03 0.  1.
</event>
<event>
 8    1  0.1207611E+005  0.1043930E+01  0.7957747E-01            NaN
         13   -1    0    0    0    0  0.00000000000E+00  0.00000000000E+00  0.74505805969E-08  0.10566000000E+00  0.10566000000E+00 0.  1.
     999900   -1    0    0    0    0 -0.00000000000E+00 -0.00000000000E+00 -0.74505805969E-08  0.93827000000E+00  0.93827000000E+00 0.  1.
     999902    2    1    2    0    0  0.95370509824E-02  0.84918215392E-02  0.17855780633E-01  0.10219778867E+01  0.10217420935E+01 0.  0.
     999903    2    3    3    0    0 -0.23107657043E-01  0.80319469103E-01 -0.98694541203E-01  0.13079391840E+00  0.19525770024E-01 0.  0.
         14    1    1    2    0    0 -0.95370509824E-02 -0.84918215392E-02 -0.17855780633E-01  0.21952113259E-01  0.00000000000E+00 0.  1.
     999901    1    3    3    0    0  0.32644708026E-01 -0.71827647563E-01  0.11655032184E+00  0.89118396835E+00  0.88000000000E+00 0. -1.
        -11    1    4    4    0    0 -0.15026998317E-01  0.73800344801E-01 -0.84395752542E-01  0.11311589517E+00  0.51100000000E-03 0. -1.
         11    1    4    4    0    0 -0.80806587265E-02  0.65191243010E-02 -0.14298788661E-01  0.17678023229E-01  0.51100000000E-03 0.  1.
</event>
<event>
 8    1  0.1207611E+005  0.1043930E+01  0.7957747E-01            NaN
         13   -1    0    0    0    0  0.00000000000E+00  0.00000000000E+00  0.74505805969E-08  0.10566000000E+00  0.10566000000E+00 0. -1.
     999900   -1    0    0    0    0 -0.00000000000E+00 -0.00000000000E+00 -0.74505805969E-08  0.93827000000E+00  0.93827000000E+00 0.  1.
     999902    2    1    2    0    0  0.13997493567E-01 -0.17265339606E-01  0.75262899955E-02  0.10204637089E+01  0.10201938611E+01 0.  0.
     999903    2    3    3    0    0  0.11384101167E+00  0.89692797091E-02  0.64456645122E-01  0.13260220578E+00  0.19709438356E-01 0.  0.
         14    1    1    2    0    0 -0.13997493567E-01  0.17265339606E-01 -0.75262899955E-02  0.23466291121E-01  0.00000000000E+00 0. -1.
     999901    1    3    3    0    0 -0.99843518101E-01 -0.26234619315E-01 -0.56930355127E-01  0.88786150310E+00  0.88000000000E+00 0. -1.
        -11    1    4    4    0    0  0.58040647962E-01 -0.40984065631E-02  0.27088958050E-01  0.64184005184E-01  0.51100000000E-03 0. -1.
         11    1    4    4    0    0  0.55800363706E-01  0.13067686272E-01  0.37367687072E-01  0.68418200592E-01  0.51100000000E-03 0.  1.
</event>
<event>
 8    1  0.1207611E+005  0.1043930E+01  0.7957747E-01            NaN
         13   -1    0    0    0    0  0.00000000000E+00  0.00000000000E+00  0.74505805969E-08  0.10566000000E+00  0.10566000000E+00 0.  1.
     999900   -1    0    0    0    0 -0.00000000000E+00 -0.00000000000E+00 -0.74505805969E-08  0.93827000000E+00  0.93827000000E+00 0.  1.
     999902    2    1    2    0    0 -0.10515864170E-01 -0.91608948659E-02  0.11168451232E-01  0.10260627199E+01  0.10259071427E+01 0.  0.
     999903    2    3    3    0    0 -0.68664559385E-01  0.55580391591E-01 -0.10034548695E+00  0.13476699834E+00  0.16997807085E-01 0.  0.
         14    1    1    2    0    0  0.10515864170E-01  0.91608948659E-02 -0.11168451232E-01  0.17867280064E-01  0.00000000000E+00 0. -1.
     999901    1    3    3    0    0  0.58148695215E-01 -0.64741286457E-01  0.11151393818E+00  0.89129572160E+00  0.88000000000E+00 0. -1.
        -11    1    4    4    0    0 -0.46403582050E-01  0.45885855723E-01 -0.67175949437E-01  0.93657212676E-01  0.51100000000E-03 0.  1.
         11    1    4    4    0    0 -0.22260977335E-01  0.96945358679E-02 -0.33169537511E-01  0.41109785663E-01  0.51100000000E-03 0. -1.
</event>
<event>
 8    1  0.1207611E+005  0.1043930E+01  0.7957747E-01            NaN
         13   -1    0    0    0    0  0.00000000000E+00  0.00000000000E+00  0.74505805969E-08  0.10566000000E+00  0.10566000000E+00 0. -1.
     999900   -1    0    0    0    0 -0.00000000000E+00 -0.00000000000E+00 -0.74505805969E-08  0.93827000000E+00  0.93827000000E+00 0.  1.
     999902    2    1    2    0    0 -0.18841907077E-02 -0.90075297102E-02  0.20750572664E-01  0.10212303958E+01  0.10209780846E+01 0.  0.
     999903    2    3    3    0    0 -0.78367789614E-01  0.93657351846E-01  0.44473678589E-01  0.13165037995E+00  0.20992961891E-01 0.  0.
         14    1    1    2    0    0  0.18841907077E-02  0.90075297102E-02 -0.20750572664E-01  0.22699604225E-01  0.00000000000E+00 0.  1.
     999901    1    3    3    0    0  0.76483598906E-01 -0.10266488156E+00 -0.23723105926E-01  0.88958001583E+00  0.88000000000E+00 0.  1.
        -11    1    4    4    0    0 -0.32825824520E-01  0.27964505129E-01  0.83323330010E-02  0.43923082733E-01  0.51100000000E-03 0. -1.
         11    1    4    4    0    0 -0.45541965094E-01  0.65692846718E-01  0.36141345588E-01  0.87727297214E-01  0.51100000000E-03 0.  1.
</event>
<event>
 8    1  0.1207611E+005  0.1043930E+01  0.7957747E-01            NaN
         13   -1    0    0    0    0  0.00000000000E+00  0.00000000000E+00  0.74505805969E-08  0.10566000000E+00  0.10566000000E+00 0.  1.
     999900   -1    0    0    0    0 -0.00000000000E+00 -0.00000000000E+00 -0.74505805969E-08  0.93827000000E+00  0.93827000000E+00 0.  1.
     999902    2    1    2    0    0  0.26052388729E-01 -0.26792628630E-03  0.65989875277E-02  0.10170535162E+01  0.10166983375E+01 0.  0.
     999903    2    3    3    0    0 -0.11388141941E+00  0.80934806731E-02  0.47133990010E-01  0.12503643669E+00  0.19442617307E-01 0.  0.
         14    1    1    2    0    0 -0.26052388729E-01  0.26792628630E-03 -0.65989875277E-02  0.26876483761E-01  0.00000000000E+00 0. -1.
     999901    1    3    3    0    0  0.13993380814E+00 -0.83614069594E-02 -0.40535002482E-01  0.89201707955E+00  0.88000000000E+00 0.  1.
        -11    1    4    4    0    0 -0.51307912543E-01 -0.32413950505E-03  0.30697052195E-01  0.59792784601E-01  0.51100000000E-03 0. -1.
         11    1    4    4    0    0 -0.62573506871E-01  0.84176201781E-02  0.16436937815E-01  0.65243652084E-01  0.51100000000E-03 0.  1.
</event>
<event>
 8    1  0.1207611E+005  0.1043930E+01  0.7957747E-01            NaN
         13   -1    0    0    0    0  0.00000000000E+00  0.00000000000E+00  0.74505805969E-08  0.10566000000E+00  0.10566000000E+00 0. -1.
     999900   -1    0    0    0    0 -0.00000000000E+00 -0.00000000000E+00 -0.74505805969E-08  0.93827000000E+00  0.93827000000E+00 0.  1.
     999902    2    1    2    0    0 -0.23781258461E-01 -0.40451717719E-02 -0.10364354030E-03  0.10198069320E+01  0.10195215820E+01 0.  0.
     999903    2    3    3    0    0 -0.11487985956E+00  0.43107445762E-01  0.46118359642E-01  0.13264358849E+00  0.20292472942E-01 0.  0.
         14    1    1    2    0    0  0.23781258461E-01  0.40451717719E-02  0.10364354030E-03  0.24123068018E-01  0.00000000000E+00 0.  1.
     999901    1    3    3    0    0  0.91098601099E-01 -0.47152617534E-01 -0.46222003182E-01  0.88716334349E+00  0.88000000000E+00 0.  1.
        -11    1    4    4    0    0 -0.47192158265E-01  0.19492407748E-01  0.29791528177E-01  0.59117256649E-01  0.51100000000E-03 0.  1.
         11    1    4    4    0    0 -0.67687701294E-01  0.23615038015E-01  0.16326831465E-01  0.73526331838E-01  0.51100000000E-03 0. -1.
</event>
<event>
 8    1  0.1207611E+005  0.1043930E+01  0.7957747E-01            NaN
         13   -1    0    0    0    0  0.00000000000E+00  0.00000000000E+00  0.74505805969E-08  0.10566000000E+00  0.10566000000E+00 0.  1.
     999900   -1    0    0    0    0 -0.00000000000E+00 -0.00000000000E+00 -0.74505805969E-08  0.93827000000E+00  0.93827000000E+00 0. -1.
     999902    2    1    2    0    0 -0.16592725878E-01  0.14637985251E-02  0.18048123384E-01  0.10193699508E+01  0.10190740408E+01 0.  0.
     999903    2    3    3    0    0  0.12442634787E+00 -0.19108429368E-01  0.10623161350E-01  0.12787417080E+00  0.19796562461E-01 0.  0.
         14    1    1    2    0    0  0.16592725878E-01 -0.14637985251E-02 -0.18048123384E-01  0.24560049183E-01  0.00000000000E+00 0. -1.
     999901    1    3    3    0    0 -0.14101907375E+00  0.20572227893E-01  0.74249620341E-02  0.89149578001E+00  0.88000000000E+00 0.  1.
        -11    1    4    4    0    0  0.72174257048E-01 -0.19138293068E-01  0.11852234766E-01  0.75605120408E-01  0.51100000000E-03 0.  1.
         11    1    4    4    0    0  0.52252090819E-01  0.29863700398E-04 -0.12290734164E-02  0.52269050396E-01  0.51100000000E-03 0. -1.
</event>
<event>
 8    1  0.1207611E+005  0.1043930E+01  0.7957747E-01            NaN
         13   -1    0    0    0    0  0.00000000000E+00  0.00000000000E+00  0.74505805969E-08  0.10566000000E+00  0.10566000000E+00 0. -1.
     999900   -1    0    0    0    0 -0.00000000000E+00 -0.00000000000E+00 -0.74505805969E-08  0.93827000000E+00  0.93827000000E+00 0.  1.
     999902    2    1    2    0    0  0.45058736510E-02 -0.16922509178E-01  0.14419238676E-01  0.10212454533E+01  0.10209934805E+01 0.  0.
     999903    2    3    3    0    0 -0.45445541824E-01  0.11840912548E+00 -0.13065942037E-01  0.12907661817E+00  0.20100652942E-01 0.  0.
         14    1    1    2    0    0 -0.45058736510E-02  0.16922509178E-01 -0.14419238676E-01  0.22684546683E-01  0.00000000000E+00 0.  1.
     999901    1    3    3    0    0  0.49951415475E-01 -0.13533163466E+00  0.27485180713E-01  0.89216883515E+00  0.88000000000E+00 0.  1.
        -11    1    4    4    0    0 -0.59818758250E-02  0.44175053457E-02 -0.29722707275E-02  0.80245065981E-02  0.51100000000E-03 0.  1.
         11    1    4    4    0    0 -0.39463665999E-01  0.11399162013E+00 -0.10093671309E-01  0.12105211157E+00  0.51100000000E-03 0. -1.
</event>
<event>
 8    1  0.1207611E+005  0.1043930E+01  0.7957747E-01            NaN
         13   -1    0    0    0    0  0.00000000000E+00  0.00000000000E+00  0.74505805969E-08  0.10566000000E+00  0.10566000000E+00 0. -1.
     999900   -1    0    0    0    0 -0.00000000000E+00 -0.00000000000E+00 -0.74505805969E-08  0.93827000000E+00  0.93827000000E+00 0. -1.
     999902    2    1    2    0    0 -0.15740706472E-01  0.55412142424E-02 -0.14798866135E-01  0.10216257104E+01  0.10213822060E+01 0.  0.
     999903    2    3    3    0    0  0.99158584687E-01 -0.64011749822E-01  0.46200808723E-01  0.12934749020E+00  0.25813358203E-01 0.  0.
         14    1    1    2    0    0  0.15740706472E-01 -0.55412142424E-02  0.14798866135E-01  0.22304289596E-01  0.00000000000E+00 0.  1.
     999901    1    3    3    0    0 -0.11489929116E+00  0.69552964064E-01 -0.60999674858E-01  0.89227822020E+00  0.88000000000E+00 0.  1.
        -11    1    4    4    0    0  0.56099613935E-01 -0.51030094994E-01  0.28908815397E-01  0.81161678195E-01  0.51100000000E-03 0. -1.
         11    1    4    4    0    0  0.43058970752E-01 -0.12981654828E-01  0.17291993325E-01  0.48185812004E-01  0.51100000000E-03 0.  1.
</event>
<event>
 8    1  0.1207611E+005  0.1043930E+01  0.7957747E-01            NaN
         13   -1    0    0    0    0  0.00000000000E+00  0.00000000000E+00  0.74505805969E-08  0.10566000000E+00  0.10566000000E+00 0. -1.
     999900   -1    0    0    0    0 -0.00000000000E+00 -0.00000000000E+00 -0.74505805969E-08  0.93827000000E+00  0.93827000000E+00 0. -1.
     999902    2    1    2    0    0  0.88830774707E-02 -0.11912925051E-01 -0.18730243384E-01  0.10200208205E+01  0.10197405677E+01 0.  0.
     999903    2    3    3    0    0  0.34733655278E-02 -0.12107503737E+00  0.45556239165E-01  0.13093230767E+00  0.19916559049E-01 0.  0.
         14    1    1    2    0    0 -0.88830774707E-02  0.11912925051E-01  0.18730243384E-01  0.23909179531E-01  0.00000000000E+00 0. -1.
     999901    1    3    3    0    0  0.54097119428E-02  0.10916211231E+00 -0.64286482549E-01  0.88908851280E+00  0.88000000000E+00 0. -1.
        -11    1    4    4    0    0 -0.12093734387E-02 -0.62832803503E-01  0.33690369509E-01  0.71307263998E-01  0.51100000000E-03 0. -1.
         11    1    4    4    0    0  0.46827389665E-02 -0.58242233863E-01  0.11865869656E-01  0.59625043675E-01  0.51100000000E-03 0.  1.
</event>
<event>
 8    1  0.1207611E+005  0.1043930E+01  0.7957747E-01            NaN
         13   -1    0    0    0    0  0.00000000000E+00  0.00000000000E+00  0.74505805969E-08  0.10566000000E+00  0.10566000000E+00 0.  1.
     999900   -1    0    0    0    0 -0.00000000000E+00 -0.00000000000E+00 -0.74505805969E-08  0.93827000000E+00  0.93827000000E+00 0.  1.
     999902    2    1    2    0    0 -0.11033212855E-01 -0.12357718212E-01 -0.15500465777E-01  0.10212427916E+01  0.10209907590E+01 0.  0.
     999903    2    3    3    0    0 -0.12806840580E+00  0.19229087036E-01 -0.21815250177E-01  0.13291017420E+00  0.20443456438E-01 0.  0.
         14    1    1    2    0    0  0.11033212855E-01  0.12357718212E-01  0.15500465777E-01  0.22687208392E-01  0.00000000000E+00 0.  1.
     999901    1    3    3    0    0  0.11703519295E+00 -0.31586805248E-01  0.63147843995E-02  0.88833261741E+00  0.88000000000E+00 0. -1.
        -11    1    4    4    0    0 -0.41367017983E-01  0.23836122404E-02  0.18185813897E-02  0.41478670945E-01  0.51100000000E-03 0. -1.
         11    1    4    4    0    0 -0.86701387822E-01  0.16845474795E-01 -0.23633831567E-01  0.91431503251E-01  0.51100000000E-03 0.  1.
</event>
<event>
 8    1  0.1207611E+005  0.1043930E+01  0.7957747E-01            NaN
         13   -1    0    0    0    0  0.00000000000E+00  0.00000000000E+00  0.74505805969E-08  0.10566000000E+00  0.10566000000E+00 0. -1.
     999900   -1    0    0    0    0 -0.00000000000E+00 -0.00000000000E+00 -0.74505805969E-08  0.93827000000E+00  0.93827000000E+00 0. -1.
     999902    2    1    2    0    0 -0.11808232998E-01  0.94771746130E-03  0.26959464014E-01  0.10144826702E+01  0.10140551971E+01 0.  0.
     999903    2    3    3    0    0  0.53092331110E-01 -0.10345461072E+00 -0.36491862168E-01  0.12367517123E+00  0.21029500054E-01 0.  0.
         14    1    1    2    0    0  0.11808232998E-01 -0.94771746130E-03 -0.26959464014E-01  0.29447329843E-01  0.00000000000E+00 0. -1.
     999901    1    3    3    0    0 -0.64900564108E-01  0.10440232818E+00  0.63451326182E-01  0.89080749893E+00  0.88000000000E+00 0.  1.
        -11    1    4    4    0    0  0.45660433120E-02 -0.28332541901E-01 -0.10116278066E-01  0.30433236518E-01  0.51100000000E-03 0.  1.
         11    1    4    4    0    0  0.48526287798E-01 -0.75122068819E-01 -0.26375584103E-01  0.93241934712E-01  0.51100000000E-03 0. -1.
</event>
<event>
 8    1  0.1207611E+005  0.1043930E+01  0.7957747E-01            NaN
         13   -1    0    0    0    0  0.00000000000E+00  0.00000000000E+00  0.74505805969E-08  0.10566000000E+00  0.10566000000E+00 0. -1.
     999900   -1    0    0    0    0 -0.00000000000E+00 -0.00000000000E+00 -0.74505805969E-08  0.93827000000E+00  0.93827000000E+00 0. -1.
     999902    2    1    2    0    0  0.10638031957E-01  0.34259946289E-02 -0.21313923889E-01  0.10198636643E+01  0.10195796709E+01 0.  0.
     999903    2    3    3    0    0  0.46962140329E-01  0.10901293382E+00 -0.56669346551E-01  0.13210353425E+00  0.12274630653E-01 0.  0.
         14    1    1    2    0    0 -0.10638031957E-01 -0.34259946289E-02  0.21313923889E-01  0.24066335714E-01  0.00000000000E+00 0. -1.
     999901    1    3    3    0    0 -0.36324108372E-01 -0.10558693919E+00  0.35355422662E-01  0.88776013004E+00  0.88000000000E+00 0. -1.
        -11    1    4    4    0    0  0.14947084393E-01  0.45528940721E-01 -0.18199605124E-01  0.51261940294E-01  0.51100000000E-03 0.  1.
         11    1    4    4    0    0  0.32015055936E-01  0.63483993098E-01 -0.38469741428E-01  0.80841593952E-01  0.51100000000E-03 0. -1.
</event>
<event>
 8    1  0.1207611E+005  0.1043930E+01  0.7957747E-01            NaN
         13   -1    0    0    0    0  0.00000000000E+00  0.00000000000E+00  0.74505805969E-08  0.10566000000E+00  0.10566000000E+00 0. -1.
     999900   -1    0    0    0    0 -0.00000000000E+00 -0.00000000000E+00 -0.74505805969E-08  0.93827000000E+00  0.93827000000E+00 0.  1.
     999902    2    1    2    0    0 -0.16802608947E-01  0.13559323452E-01 -0.10283139991E-01  0.10200150280E+01  0.10197346377E+01 0.  0.
     999903    2    3    3    0    0  0.84074530611E-01  0.92731967044E-01 -0.30686040082E-01  0.13048662306E+00  0.20429912694E-01 0.  0.
         14    1    1    2    0    0  0.16802608947E-01 -0.13559323452E-01  0.10283139991E-01  0.23914972046E-01  0.00000000000E+00 0.  1.
     999901    1    3    3    0    0 -0.10087713956E+00 -0.79172643591E-01  0.20402900091E-01  0.88952840489E+00  0.88000000000E+00 0. -1.
        -11    1    4    4    0    0  0.40051196737E-01  0.54953544557E-01 -0.91948411311E-02  0.68620672132E-01  0.51100000000E-03 0.  1.
         11    1    4    4    0    0  0.44023333875E-01  0.37778422487E-01 -0.21491198951E-01  0.61865950929E-01  0.51100000000E-03 0. -1.
</event>
<event>
 8    1  0.1207611E+005  0.1043930E+01  0.7957747E-01            NaN
         13   -1    0    0    0    0  0.00000000000E+00  0.00000000000E+00  0.74505805969E-08  0.10566000000E+00  0.10566000000E+00 0.  1.
     999900   -1    0    0    0    0 -0.00000000000E+00 -0.00000000000E+00 -0.74505805969E-08  0.93827000000E+00  0.93827000000E+00 0. -1.
     999902    2    1    2    0    0 -0.12034587008E-01 -0.11735275245E-01  0.15947997874E-01  0.10207591863E+01  0.10204961685E+01 0.  0.
     999903    2    3    3    0    0  0.11884267603E-01 -0.45539127412E-02  0.13081021110E+00  0.13294332052E+00  0.20016023711E-01 0.  0.
         14    1    1    2    0    0  0.12034587008E-01  0.11735275245E-01 -0.15947997874E-01  0.23170813661E-01  0.00000000000E+00 0. -1.
     999901    1    3    3    0    0 -0.23918854611E-01 -0.71813625043E-02 -0.11486221323E+00  0.88781586582E+00  0.88000000000E+00 0. -1.
        -11    1    4    4    0    0 -0.61537499218E-03 -0.88235337715E-02  0.30335311712E-01  0.31602621605E-01  0.51100000000E-03 0.  1.
         11    1    4    4    0    0  0.12499642596E-01  0.42696210303E-02  0.10047489939E+00  0.10134069891E+00  0.51100000000E-03 0. -1.
</event>
<event>
 8    1  0.1207611E+005  0.1043930E+01  0.7957747E-01            NaN
         13   -1    0    0    0    0  0.00000000000E+00  0.00000000000E+00  0.74505805969E-08  0.10566000000E+00  0.10566000000E+00 0. -1.
     999900   -1    0    0    0    0 -0.00000000000E+00 -0.00000000000E+00 -0.74505805969E-08  0.93827000000E+00  0.93827000000E+00 0.  1.
     999902    2    1    2    0    0  0.14560887431E-01  0.12854121853E-01 -0.13957488699E-01  0.10200122371E+01  0.10197317806E+01 0.  0.
     999903    2    3    3    0    0  0.90420862212E-01 -0.88702194121E-01 -0.26673107895E-01  0.13083840254E+00  0.19058366410E-01 0.  0.
         14    1    1    2    0    0 -0.14560887431E-01 -0.12854121853E-01  0.13957488699E-01  0.23917762901E-01  0.00000000000E+00 0. -1.
     999901    1    3    3    0    0 -0.75859974781E-01  0.10155631597E+00  0.12715619196E-01  0.88917383456E+00  0.88000000000E+00 0. -1.
        -11    1    4    4    0    0  0.65049282127E-01 -0.54363568467E-01 -0.23749777980E-01  0.88040443869E-01  0.51100000000E-03 0.  1.
         11    1    4    4    0    0  0.25371580085E-01 -0.34338625654E-01 -0.29233299150E-02  0.42797958674E-01  0.51100000000E-03 0. -1.
</event>
<event>
 8    1  0.1207611E+005  0.1043930E+01  0.7957747E-01            NaN
         13   -1    0    0    0    0  0.00000000000E+00  0.00000000000E+00  0.74505805969E-08  0.10566000000E+00  0.10566000000E+00 0.  1.
     999900   -1    0    0    0    0 -0.00000000000E+00 -0.00000000000E+00 -0.74505805969E-08  0.93827000000E+00  0.93827000000E+00 0.  1.
     999902    2    1    2    0    0 -0.24124014705E-02  0.17967210253E-01  0.15253525830E-01  0.10202380103E+01  0.10199628853E+01 0.  0.
     999903    2    3    3    0    0 -0.92677711800E-01 -0.55930345656E-01 -0.66579846637E-01  0.12877551762E+00  0.20806156097E-01 0.  0.
         14    1    1    2    0    0  0.24124014705E-02 -0.17967210253E-01 -0.15253525830E-01  0.23691989688E-01  0.00000000000E+00 0. -1.
     999901    1    3    3    0    0  0.90265310330E-01  0.73897555910E-01  0.81833372467E-01  0.89146249269E+00  0.88000000000E+00 0. -1.
        -11    1    4    4    0    0 -0.65850173959E-01 -0.29863951494E-01 -0.37902067168E-01  0.81639015341E-01  0.51100000000E-03 0.  1.
         11    1    4    4    0    0 -0.26827537841E-01 -0.26066394162E-01 -0.28677779469E-01  0.47136502284E-01  0.51100000000E-03 0. -1.
</event>
<event>
 8    1  0.1207611E+005  0.1043930E+01  0.7957747E-01            NaN
         13   -1    0    0    0    0  0.00000000000E+00  0.00000000000E+00  0.74505805969E-08  0.10566000000E+00  0.10566000000E+00 0.  1.
     999900   -1    0    0    0    0 -0.00000000000E+00 -0.00000000000E+00 -0.74505805969E-08  0.93827000000E+00  0.93827000000E+00 0. -1.
     999902    2    1    2    0    0 -0.23799404417E-01 -0.53784899472E-02 -0.22228555709E-03  0.10195294013E+01  0.10192373673E+01 0.  0.
     999903    2    3    3    0    0  0.41424446182E-01 -0.10423160975E+00  0.61523747341E-01  0.12945150442E+00  0.19806748758E-01 0.  0.
         14    1    1    2    0    0  0.23799404417E-01  0.53784899472E-02  0.22228555709E-03  0.24400598673E-01  0.00000000000E+00 0. -1.
     999901    1    3    3    0    0 -0.65223850599E-01  0.98853119807E-01 -0.61746032898E-01  0.89007789691E+00  0.88000000000E+00 0.  1.
        -11    1    4    4    0    0  0.28192565888E-01 -0.88889373448E-01  0.46375368403E-01  0.10414930340E+00  0.51100000000E-03 0. -1.
         11    1    4    4    0    0  0.13231880294E-01 -0.15342236307E-01  0.15148378938E-01  0.25302201020E-01  0.51100000000E-03 0.  1.
</event>
<event>
 8    1  0.1207611E+005  0.1043930E+01  0.7957747E-01            NaN
         13   -1    0    0    0    0  0.00000000000E+00  0.00000000000E+00  0.74505805969E-08  0.10566000000E+00  0.10566000000E+00 0. -1.
     999900   -1    0    0    0    0 -0.00000000000E+00 -0.00000000000E+00 -0.74505805969E-08  0.93827000000E+00  0.93827000000E+00 0.  1.
     999902    2    1    2    0    0 -0.83114125695E-02 -0.10469016721E-01 -0.19904303217E-01  0.10199537372E+01  0.10196718908E+01 0.  0.
     999903    2    3    3    0    0  0.49224785639E-01  0.97201646318E-01 -0.68518607911E-01  0.13019717703E+00  0.19628186610E-01 0.  0.
         14    1    1    2    0    0  0.83114125695E-02  0.10469016721E-01  0.19904303217E-01  0.23976262773E-01  0.00000000000E+00 0. -1.
     999901    1    3    3    0    0 -0.57536198209E-01 -0.10767066304E+00  0.48614304694E-01  0.88975656019E+00  0.88000000000E+00 0. -1.
        -11    1    4    4    0    0  0.38656707376E-01  0.58193929046E-01 -0.48841967138E-01  0.85244784462E-01  0.51100000000E-03 0.  1.
         11    1    4    4    0    0  0.10568078263E-01  0.39007717272E-01 -0.19676640773E-01  0.44952392573E-01  0.51100000000E-03 0. -1.
</event>
<event>
 7    1  0.1207611E+005  0.1043930E+01  0.7957747E-01            NaN
         13   -1    0    0    0    0  0.00000000000E+00  0.00000000000E+00  0.74505805969E-08  0.10566000000E+00  0.10566000000E+00 0. -1.
     999900   -1    0    0    0    0 -0.00000000000E+00 -0.00000000000E+00 -0.74505805969E-08  0.93827000000E+00  0.93827000000E+00 0. -1.
     999902    2    1    2    0    0 -0.15845756475E-01 -0.19693911567E-01  0.64261610102E-03  0.10186446069E+01  0.10183307341E+01 0.  0.
         14    1    1    2    0    0  0.15845756475E-01  0.19693911567E-01 -0.64261610102E-03  0.25285393146E-01  0.00000000000E+00 0.  1.
     999901    1    3    3    0    0  0.54781276845E-01  0.91390942559E-02  0.10644414572E+00  0.88815250239E+00  0.88000000000E+00 0.  1.
        -11    1    3    3    0    0 -0.54766320585E-01 -0.21049023760E-01 -0.79676007045E-01  0.98949171251E-01  0.51100000000E-03 0. -1.
         11    1    3    3    0    0 -0.15860712736E-01 -0.77839820628E-02 -0.26125522573E-01  0.31542933217E-01  0.51100000000E-03 0.  1.
</event>
<event>
 8    1  0.1207611E+005  0.1043930E+01  0.7957747E-01            NaN
         13   -1    0    0    0    0  0.00000000000E+00  0.00000000000E+00  0.74505805969E-08  0.10566000000E+00  0.10566000000E+00 0.  1.
     999900   -1    0    0    0    0 -0.00000000000E+00 -0.00000000000E+00 -0.74505805969E-08  0.93827000000E+00  0.93827000000E+00 0.  1.
     999902    2    1    2    0    0  0.39078146020E-02 -0.96573333386E-02 -0.20865921023E-01  0.10206078697E+01  0.10203413654E+01 0.  0.
     999903    2    3    3    0    0 -0.95031526594E-01 -0.17124286406E-01 -0.88358473133E-01  0.13246374106E+00  0.20376228547E-01 0.  0.
         14    1    1    2    0    0 -0.39078146020E-02  0.96573333386E-02  0.20865921023E-01  0.23322130312E-01  0.00000000000E+00 0.  1.
     999901    1    3    3    0    0  0.98939341196E-01  0.74669530675E-02  0.67492552110E-01  0.88814412863E+00  0.88000000000E+00 0. -1.
        -11    1    4    4    0    0 -0.62366383840E-01 -0.48209029165E-02 -0.46415303352E-01  0.77893828026E-01  0.51100000000E-03 0. -1.
         11    1    4    4    0    0 -0.32665142754E-01 -0.12303383490E-01 -0.41943169780E-01  0.54569913035E-01  0.51100000000E-03 0.  1.
</event>
<event>
 8    1  0.1207611E+005  0.1043930E+01  0.7957747E-01            NaN
         13   -1    0    0    0    0  0.00000000000E+00  0.00000000000E+00  0.74505805969E-08  0.10566000000E+00  0.10566000000E+00 0. -1.
     999900   -1    0    0    0    0 -0.00000000000E+00 -0.00000000000E+00 -0.74505805969E-08  0.93827000000E+00  0.93827000000E+00 0.  1.
     999902    2    1    2    0    0 -0.14535065319E-01 -0.13953832168E-01 -0.12137023272E-01  0.10204079914E+01  0.10201368457E+01 0.  0.
     999903    2    3    3    0    0  0.40378961081E-01 -0.44469993745E-02 -0.12365092614E+00  0.13162158244E+00  0.19607476292E-01 0.  0.
         14    1    1    2    0    0  0.14535065319E-01  0.13953832168E-01  0.12137023272E-01  0.23522008628E-01  0.00000000000E+00 0. -1.
     999901    1    3    3    0    0 -0.54914026400E-01 -0.95068327932E-02  0.11151390287E+00  0.88878640893E+00  0.88000000000E+00 0. -1.
        -11    1    4    4    0    0  0.27505889656E-01 -0.16203312621E-02 -0.52860168417E-01  0.59612565498E-01  0.51100000000E-03 0. -1.
         11    1    4    4    0    0  0.12873071425E-01 -0.28266681123E-02 -0.70790757728E-01  0.72009016944E-01  0.51100000000E-03 0.  1.
</event>
<event>
 8    1  0.1207611E+005  0.1043930E+01  0.7957747E-01            NaN
         13   -1    0    0    0    0  0.00000000000E+00  0.00000000000E+00  0.74505805969E-08  0.10566000000E+00  0.10566000000E+00 0.  1.
     999900   -1    0    0    0    0 -0.00000000000E+00 -0.00000000000E+00 -0.74505805969E-08  0.93827000000E+00  0.93827000000E+00 0.  1.
     999902    2    1    2    0    0  0.19464792869E-01  0.12956796123E-01  0.17681247307E-02  0.10204804159E+01  0.10202109568E+01 0.  0.
     999903    2    3    3    0    0 -0.55716838420E-01  0.98389451939E-01  0.62898077643E-01  0.13104920022E+00  0.20805633161E-01 0.  0.
         14    1    1    2    0    0 -0.19464792869E-01 -0.12956796123E-01 -0.17681247307E-02  0.23449584053E-01  0.00000000000E+00 0.  1.
     999901    1    3    3    0    0  0.75181631289E-01 -0.85432655817E-01 -0.61129952912E-01  0.88943121573E+00  0.88000000000E+00 0.  1.
        -11    1    4    4    0    0 -0.10652471968E-01  0.76692380531E-02  0.11496616902E-01  0.17456394030E-01  0.51100000000E-03 0.  1.
         11    1    4    4    0    0 -0.45064366452E-01  0.90720213886E-01  0.51401460741E-01  0.11359280619E+00  0.51100000000E-03 0. -1.
</event>
<event>
 8    1  0.1207611E+005  0.1043930E+01  0.7957747E-01            NaN
         13   -1    0    0    0    0  0.00000000000E+00  0.00000000000E+00  0.74505805969E-08  0.10566000000E+00  0.10566000000E+00 0. -1.
     999900   -1    0    0    0    0 -0.00000000000E+00 -0.00000000000E+00 -0.74505805969E-08  0.93827000000E+00  0.93827000000E+00 0. -1.
     999902    2    1    2    0    0 -0.68014860621E-02  0.21398148644E-01 -0.68921123158E-02  0.10204429357E+01  0.10201726044E+01 0.  0.
     999903    2    3    3    0    0 -0.26474079551E-01  0.59234976316E-02 -0.12795546993E+00  0.13180194388E+00  0.16222990235E-01 0.  0.
         14    1    1    2    0    0  0.68014860621E-02 -0.21398148644E-01  0.68921123158E-02  0.23487064317E-01  0.00000000000E+00 0. -1.
     999901    1    3    3    0    0  0.19672593489E-01  0.15474651012E-01  0.12106335762E+00  0.88864099180E+00  0.88000000000E+00 0.  1.
        -11    1    4    4    0    0 -0.36951644025E-02  0.38332456696E-03 -0.55931528631E-01  0.56057097621E-01  0.51100000000E-03 0.  1.
         11    1    4    4    0    0 -0.22778915149E-01  0.55401730647E-02 -0.72023941301E-01  0.75744846257E-01  0.51100000000E-03 0. -1.
</event>
<event>
 8    1  0.1207611E+005  0.1043930E+01  0.7957747E-01            NaN
         13   -1    0    0    0    0  0.00000000000E+00  0.00000000000E+00  0.74505805969E-08  0.10566000000E+00  0.10566000000E+00 0. -1.
     999900   -1    0    0    0    0 -0.00000000000E+00 -0.00000000000E+00 -0.74505805969E-08  0.93827000000E+00  0.93827000000E+00 0.  1.
     999902    2    1    2    0    0 -0.24508081013E-03  0.95586703110E-02 -0.20634245266E-01  0.10211879614E+01  0.10209346953E+01 0.  0.
     999903    2    3    3    0    0  0.71439883104E-01 -0.91102054938E-01 -0.59738955594E-01  0.13169344536E+00  0.19266017353E-01 0.  0.
         14    1    1    2    0    0  0.24508081013E-03 -0.95586703110E-02  0.20634245266E-01  0.22742038616E-01  0.00000000000E+00 0. -1.
     999901    1    3    3    0    0 -0.71684963914E-01  0.10066072525E+00  0.39104710329E-01  0.88949451602E+00  0.88000000000E+00 0. -1.
        -11    1    4    4    0    0  0.26285636261E-01 -0.48675262720E-01 -0.25729425362E-01  0.61012132605E-01  0.51100000000E-03 0.  1.
         11    1    4    4    0    0  0.45154246842E-01 -0.42426792218E-01 -0.34009530232E-01  0.70681312760E-01  0.51100000000E-03 0. -1.
</event>
<event>
 8    1  0.1207611E+005  0.1043930E+01  0.7957747E-01            NaN
         13   -1    0    0    0    0  0.00000000000E+00  0.00000000000E+00  0.74505805969E-08  0.10566000000E+00  0.10566000000E+00 0.  1.
     999900   -1    0    0    0    0 -0.00000000000E+00 -0.00000000000E+00 -0.74505805969E-08  0.93827000000E+00  0.93827000000E+00 0.  1.
     999902    2    1    2    0    0 -0.86892463068E-02 -0.21895705478E-01  0.89092076140E-02  0.10187447087E+01  0.10184333471E+01 0.  0.
     999903    2    3    3    0    0 -0.10224135694E+00 -0.26614537823E-01 -0.73177778698E-01  0.12997446945E+00  0.19409964450E-01 0.  0.
         14    1    1    2    0    0  0.86892463068E-02  0.21895705478E-01 -0.89092076140E-02  0.25185291344E-01  0.00000000000E+00 0. -1.
     999901    1    3    3    0    0  0.93552110635E-01  0.47188323450E-02  0.82086986312E-01  0.88877023921E+00  0.88000000000E+00 0.  1.
        -11    1    4    4    0    0 -0.14467249368E-01 -0.77072290780E-02 -0.19031176583E-01  0.25122688699E-01  0.51100000000E-03 0.  1.
         11    1    4    4    0    0 -0.87774107574E-01 -0.18907308745E-01 -0.54146602115E-01  0.10485178075E+00  0.51100000000E-03 0. -1.
</event>
<event>
 8    1  0.1207611E+005  0.1043930E+01  0.7957747E-01            NaN
         13   -1    0    0    0    0  0.00000000000E+00  0.00000000000E+00  0.74505805969E-08  0.10566000000E+00  0.10566000000E+00 0. -1.
     999900   -1    0    0    0    0 -0.00000000000E+00 -0.00000000000E+00 -0.74505805969E-08  0.93827000000E+00  0.93827000000E+00 0. -1.
     999902    2    1    2    0    0  0.21336763869E-01  0.68071053112E-02 -0.30497318790E-02  0.10213270126E+01  0.10210768686E+01 0.  0.
     999903    2    3    3    0    0  0.12512645218E+00  0.42483336691E-01 -0.14866707537E-01  0.13443088914E+00  0.19727697036E-01 0.  0.
         14    1    1    2    0    0 -0.21336763869E-01 -0.68071053112E-02  0.30497318790E-02  0.22602987406E-01  0.00000000000E+00 0.  1.
     999901    1    3    3    0    0 -0.10378968831E+00 -0.35676231379E-01  0.11816975658E-01  0.88689612345E+00  0.88000000000E+00 0.  1.
        -11    1    4    4    0    0  0.87871923440E-01  0.37346339769E-01 -0.53237150908E-02  0.95628589274E-01  0.51100000000E-03 0. -1.
         11    1    4    4    0    0  0.37254528740E-01  0.51369969216E-02 -0.95429924467E-02  0.38802299866E-01  0.51100000000E-03 0.  1.
</event>
<event>
 8    1  0.1207611E+005  0.1043930E+01  0.7957747E-01            NaN
         13   -1    0    0    0    0  0.00000000000E+00  0.00000000000E+00  0.74505805969E-08  0.10566000000E+00  0.10566000000E+00 0.  1.
     999900   -1    0    0    0    0 -0.00000000000E+00 -0.00000000000E+00 -0.74505805969E-08  0.93827000000E+00  0.93827000000E+00 0.  1.
     999902    2    1    2    0    0  0.24304493414E-02 -0.18439625015E-01  0.14644570744E-01  0.10202574356E+01  0.10199827668E+01 0.  0.
     999903    2    3    3    0    0  0.97172999452E-01  0.65616902434E-01  0.53436103713E-01  0.13034371298E+00  0.19644251746E-01 0.  0.
         14    1    1    2    0    0 -0.24304493414E-02  0.18439625015E-01 -0.14644570744E-01  0.23672564436E-01  0.00000000000E+00 0. -1.
     999901    1    3    3    0    0 -0.94742550111E-01 -0.84056527449E-01 -0.38791532969E-01  0.88991372258E+00  0.88000000000E+00 0.  1.
        -11    1    4    4    0    0  0.39234794818E-01  0.21226684445E-01  0.29688361831E-01  0.53587323185E-01  0.51100000000E-03 0.  1.
         11    1    4    4    0    0  0.57938204634E-01  0.44390217989E-01  0.23747741882E-01  0.76756389798E-01  0.51100000000E-03 0. -1.
</event>
<event>
 8    1  0.1207611E+005  0.1043930E+01  0.7957747E-01            NaN
         13   -1    0    0    0    0  0.00000000000E+00  0.00000000000E+00  0.74505805969E-08  0.10566000000E+00  0.10566000000E+00 0.  1.
     999900   -1    0    0    0    0 -0.00000000000E+00 -0.00000000000E+00 -0.74505805969E-08  0.93827000000E+00  0.93827000000E+00 0.  1.
     999902    2    1    2    0    0 -0.18896352038E-01 -0.28195806784E-03  0.11656439414E-01  0.10217258517E+01  0.10214845529E+01 0.  0.
     999903    2    3    3    0    0  0.48194181617E-01 -0.95718584248E-01  0.73838554492E-01  0.13185175684E+00  0.21166651585E-01 0.  0.
         14    1    1    2    0    0  0.18896352038E-01  0.28195806784E-03 -0.11656439414E-01  0.22204148272E-01  0.00000000000E+00 0. -1.
     999901    1    3    3    0    0 -0.67090533655E-01  0.95436626180E-01 -0.62182115077E-01  0.88987409489E+00  0.88000000000E+00 0. -1.
        -11    1    4    4    0    0  0.35271322126E-01 -0.82784331817E-01  0.67516510124E-01  0.11249912008E+00  0.51100000000E-03 0.  1.
         11    1    4    4    0    0  0.12922859491E-01 -0.12934252431E-01  0.63220443680E-02  0.19352636755E-01  0.51100000000E-03 0. -1.
</event>
<event>
 8    1  0.1207611E+005  0.1043930E+01  0.7957747E-01            NaN
         13   -1    0    0    0    0  0.00000000000E+00  0.00000000000E+00  0.74505805969E-08  0.10566000000E+00  0.10566000000E+00 0.  1.
     999900   -1    0    0    0    0 -0.00000000000E+00 -0.00000000000E+00 -0.74505805969E-08  0.93827000000E+00  0.93827000000E+00 0. -1.
     999902    2    1    2    0    0  0.20768114876E-01 -0.71196507663E-03  0.10172522846E-01  0.10207934119E+01  0.10205311793E+01 0.  0.
     999903    2    3    3    0    0 -0.61770869111E-01 -0.71189602130E-02  0.11399717598E+00  0.13083088902E+00  0.15970144800E-01 0.  0.
         14    1    1    2    0    0 -0.20768114876E-01  0.71196507663E-03 -0.10172522846E-01  0.23136588141E-01  0.00000000000E+00 0. -1.
     999901    1    3    3    0    0  0.82538983986E-01  0.64069951364E-02 -0.10382465313E+00  0.88996252284E+00  0.88000000000E+00 0. -1.
        -11    1    4    4    0    0 -0.16770017470E-01  0.30958297063E-02  0.41764172709E-01  0.45114575146E-01  0.51100000000E-03 0.  1.
         11    1    4    4    0    0 -0.45000851641E-01 -0.10214789919E-01  0.72233003269E-01  0.85716313872E-01  0.51100000000E-03 0. -1.
</event>
<event>
 8    1  0.1207611E+005  0.1043930E+01  0.7957747E-01            NaN
         13   -1    0    0    0    0  0.00000000000E+00  0.00000000000E+00  0.74505805969E-08  0.10566000000E+00  0.10566000000E+00 0.  1.
     999900   -1    0    0    0    0 -0.00000000000E+00 -0.00000000000E+00 -0.74505805969E-08  0.93827000000E+00  0.93827000000E+00 0.  1.
     999902    2    1    2    0    0  0.14153704728E-01 -0.15984940970E-01  0.11219687930E-01  0.10198109807E+01  0.10195257276E+01 0.  0.
     999903    2    3    3    0    0  0.12065412126E+00 -0.85931797944E-02  0.48180355194E-01  0.13258887333E+00  0.25044021046E-01 0.  0.
         14    1    1    2    0    0 -0.14153704728E-01  0.15984940970E-01 -0.11219687930E-01  0.24119019312E-01  0.00000000000E+00 0.  1.
     999901    1    3    3    0    0 -0.10650041653E+00 -0.73917611756E-02 -0.36960667264E-01  0.88722210735E+00  0.88000000000E+00 0.  1.
        -11    1    4    4    0    0  0.34895647351E-01  0.88615718656E-02  0.14080023045E-01  0.38661891184E-01  0.51100000000E-03 0.  1.
         11    1    4    4    0    0  0.85758473905E-01 -0.17454751660E-01  0.34100332149E-01  0.93926982149E-01  0.51100000000E-03 0. -1.
</event>
<event>
 8    1  0.1207611E+005  0.1043930E+01  0.7957747E-01            NaN
         13   -1    0    0    0    0  0.00000000000E+00  0.00000000000E+00  0.74505805969E-08  0.10566000000E+00  0.10566000000E+00 0. -1.
     999900   -1    0    0    0    0 -0.00000000000E+00 -0.00000000000E+00 -0.74505805969E-08  0.93827000000E+00  0.93827000000E+00 0. -1.
     999902    2    1    2    0    0  0.18792244328E-01 -0.36493228126E-02 -0.15175248772E-01  0.10195014475E+01  0.10192087358E+01 0.  0.
     999903    2    3    3    0    0  0.11040207588E+00 -0.20136880418E-01 -0.68571860639E-01  0.13298275113E+00  0.19702784416E-01 0.  0.
         14    1    1    2    0    0 -0.18792244328E-01  0.36493228126E-02  0.15175248772E-01  0.24428552539E-01  0.00000000000E+00 0. -1.
     999901    1    3    3    0    0 -0.91609831552E-01  0.16487557605E-01  0.53396611868E-01  0.88651869634E+00  0.88000000000E+00 0. -1.
        -11    1    4    4    0    0  0.68908622112E-01 -0.14005538588E-01 -0.31701754210E-01  0.77135048152E-01  0.51100000000E-03 0.  1.
         11    1    4    4    0    0  0.41493453769E-01 -0.61313418294E-02 -0.36870106429E-01  0.55847702973E-01  0.51100000000E-03 0. -1.
</event>
<event>
 8    1  0.1207611E+005  0.1043930E+01  0.7957747E-01            NaN
         13   -1    0    0    0    0  0.00000000000E+00  0.00000000000E+00  0.74505805969E-08  0.10566000000E+00  0.10566000000E+00 0. -1.
     999900   -1    0    0    0    0 -0.00000000000E+00 -0.00000000000E+00 -0.74505805969E-08  0.93827000000E+00  0.93827000000E+00 0. -1.
     999902    2    1    2    0    0 -0.95626655497E-02  0.16082541814E-01  0.15971505307E-01  0.10193295588E+01  0.10190326628E+01 0.  0.
     999903    2    3    3    0    0  0.43312637322E-02 -0.11287253628E+00 -0.53597728327E-01  0.12710630667E+00  0.22898196929E-01 0.  0.
         14    1    1    2    0    0  0.95626655497E-02 -0.16082541814E-01 -0.15971505307E-01  0.24600441162E-01  0.00000000000E+00 0.  1.
     999901    1    3    3    0    0 -0.13893929282E-01  0.12895507809E+00  0.69569233634E-01  0.89222325217E+00  0.88000000000E+00 0.  1.
        -11    1    4    4    0    0  0.13248470397E-01 -0.57033993228E-01 -0.30506073876E-01  0.66024843928E-01  0.51100000000E-03 0.  1.
         11    1    4    4    0    0 -0.89172066647E-02 -0.55838543050E-01 -0.23091654451E-01  0.61081462744E-01  0.51100000000E-03 0. -1.
</event>
<event>
 8    1  0.1207611E+005  0.1043930E+01  0.7957747E-01            NaN
         13   -1    0    0    0    0  0.00000000000E+00  0.00000000000E+00  0.74505805969E-08  0.10566000000E+00  0.10566000000E+00 0.  1.
     999900   -1    0    0    0    0 -0.00000000000E+00 -0.00000000000E+00 -0.74505805969E-08  0.93827000000E+00  0.93827000000E+00 0.  1.
     999902    2    1    2    0    0 -0.16330498168E-01 -0.54600648506E-02 -0.16392631936E-01  0.10201557311E+01  0.10198786692E+01 0.  0.
     999903    2    3    3    0    0 -0.10534164568E-01 -0.12749355347E+00 -0.24022092200E-01  0.13168289615E+00  0.19943656308E-01 0.  0.
         14    1    1    2    0    0  0.16330498168E-01  0.54600648506E-02  0.16392631936E-01  0.23774268871E-01  0.00000000000E+00 0.  1.
     999901    1    3    3    0    0 -0.57963335999E-02  0.12203348862E+00  0.76294602637E-02  0.88847283498E+00  0.88000000000E+00 0. -1.
        -11    1    4    4    0    0 -0.77858437380E-02 -0.53433071920E-01 -0.19568268509E-01  0.57435971228E-01  0.51100000000E-03 0.  1.
         11    1    4    4    0    0 -0.27483208297E-02 -0.74060481546E-01 -0.44538236912E-02  0.74246924924E-01  0.51100000000E-03 0. -1.
</event>
<event>
 8    1  0.1207611E+005  0.1043930E+01  0.7957747E-01            NaN
         13   -1    0    0    0    0  0.00000000000E+00  0.00000000000E+00  0.74505805969E-08  0.10566000000E+00  0.10566000000E+00 0. -1.
     999900   -1    0    0    0    0 -0.00000000000E+00 -0.00000000000E+00 -0.74505805969E-08  0.93827000000E+00  0.93827000000E+00 0. -1.
     999902    2    1    2    0    0 -0.69951023110E-02 -0.17077402381E-01  0.18048349196E-01  0.10181169793E+01  0.10177896991E+01 0.  0.
     999903    2    3    3    0    0  0.93808768884E-01 -0.51370348725E-01  0.71348302479E-01  0.13009765991E+00  0.19895300918E-01 0.  0.
         14    1    1    2    0    0  0.69951023110E-02  0.17077402381E-01 -0.18048349196E-01  0.25813020690E-01  0.00000000000E+00 0.  1.
     999901    1    3    3    0    0 -0.10080387119E+00  0.34292946343E-01 -0.53299953283E-01  0.88801931941E+00  0.88000000000E+00 0.  1.
        -11    1    4    4    0    0  0.47830703409E-01 -0.30135799753E-01  0.48694903863E-01  0.74614994462E-01  0.51100000000E-03 0. -1.
         11    1    4    4    0    0  0.45978065475E-01 -0.21234548971E-01  0.22653398616E-01  0.55482665443E-01  0.51100000000E-03 0.  1.
</event>
<event>
 8    1  0.1207611E+005  0.1043930E+01  0.7957747E-01            NaN
         13   -1    0    0    0    0  0.00000000000E+00  0.00000000000E+00  0.74505805969E-08  0.10566000000E+00  0.10566000000E+00 0.  1.
     999900   -1    0    0    0    0 -0.00000000000E+00 -0.00000000000E+00 -0.74505805969E-08  0.93827000000E+00  0.93827000000E+00 0. -1.
     999902    2    1    2    0    0 -0.63436199208E-02 -0.86796615957E-02 -0.23883021223E-01  0.10177388423E+01  0.10174017763E+01 0.  0.
     999903    2    3    3    0    0 -0.11564445346E+00 -0.40728377964E-01 -0.38993564857E-01  0.13026933805E+00  0.20424542800E-01 0.  0.
         14    1    1    2    0    0  0.63436199208E-02  0.86796615957E-02  0.23883021223E-01  0.26191157704E-01  0.00000000000E+00 0.  1.
     999901    1    3    3    0    0  0.10930083354E+00  0.32048716368E-01  0.15110543634E-01  0.88746950424E+00  0.88000000000E+00 0.  1.
        -11    1    4    4    0    0 -0.67520526176E-01 -0.32887368451E-01 -0.28902338687E-01  0.80474882798E-01  0.51100000000E-03 0.  1.
         11    1    4    4    0    0 -0.48123927285E-01 -0.78410095121E-02 -0.10091226170E-01  0.49794455255E-01  0.51100000000E-03 0. -1.
</event>
<event>
 8    1  0.1207611E+005  0.1043930E+01  0.7957747E-01            NaN
         13   -1    0    0    0    0  0.00000000000E+00  0.00000000000E+00  0.74505805969E-08  0.10566000000E+00  0.10566000000E+00 0. -1.
     999900   -1    0    0    0    0 -0.00000000000E+00 -0.00000000000E+00 -0.74505805969E-08  0.93827000000E+00  0.93827000000E+00 0.  1.
     999902    2    1    2    0    0  0.11759736459E-01  0.17560427495E-01 -0.11009798968E-01  0.10200998576E+01  0.10198214764E+01 0.  0.
     999903    2    3    3    0    0  0.65249881665E-01  0.60586781607E-01  0.94324476591E-01  0.13116354241E+00  0.19454120664E-01 0.  0.
         14    1    1    2    0    0 -0.11759736459E-01 -0.17560427495E-01  0.11009798968E-01  0.23830142440E-01  0.00000000000E+00 0.  1.
     999901    1    3    3    0    0 -0.53490145207E-01 -0.43026354112E-01 -0.10533427556E+00  0.88893631515E+00  0.88000000000E+00 0.  1.
        -11    1    4    4    0    0  0.29018392981E-01  0.25641021877E-01  0.27492956037E-01  0.47493714182E-01  0.51100000000E-03 0.  1.
         11    1    4    4    0    0  0.36231488684E-01  0.34945759730E-01  0.66831520554E-01  0.83669828229E-01  0.51100000000E-03 0. -1.
</event>
<event>
 8    1  0.1207611E+005  0.1043930E+01  0.7957747E-01            NaN
         13   -1    0    0    0    0  0.00000000000E+00  0.00000000000E+00  0.74505805969E-08  0.10566000000E+00  0.10566000000E+00 0.  1.
     999900   -1    0    0    0    0 -0.00000000000E+00 -0.00000000000E+00 -0.74505805969E-08  0.93827000000E+00  0.93827000000E+00 0. -1.
     999902    2    1    2    0    0 -0.24162778952E-01 -0.45183636266E-02 -0.15071723453E-02  0.10193022298E+01  0.10190046656E+01 0.  0.
     999903    2    3    3    0    0  0.25745006980E-01 -0.12093742912E+00  0.33170761704E-01  0.12955690387E+00  0.19900370901E-01 0.  0.
         14    1    1    2    0    0  0.24162778952E-01  0.45183636266E-02  0.15071723453E-02  0.24627770200E-01  0.00000000000E+00 0.  1.
     999901    1    3    3    0    0 -0.49907785932E-01  0.11641906549E+00 -0.34677934049E-01  0.88974532593E+00  0.88000000000E+00 0. -1.
        -11    1    4    4    0    0  0.72844098647E-02 -0.62997211902E-01  0.87301500872E-02  0.64017091281E-01  0.51100000000E-03 0.  1.
         11    1    4    4    0    0  0.18460597116E-01 -0.57940217216E-01  0.24440611616E-01  0.65539812588E-01  0.51100000000E-03 0. -1.
</event>
<event>
 8    1  0.1207611E+005  0.1043930E+01  0.7957747E-01            NaN
         13   -1    0    0    0    0  0.00000000000E+00  0.00000000000E+00  0.74505805969E-08  0.10566000000E+00  0.10566000000E+00 0. -1.
     999900   -1    0    0    0    0 -0.00000000000E+00 -0.00000000000E+00 -0.74505805969E-08  0.93827000000E+00  0.93827000000E+00 0. -1.
     999902    2    1    2    0    0  0.99110624154E-02  0.13616261140E-01  0.16892253873E-01  0.10200766990E+01  0.10197977701E+01 0.  0.
     999903    2    3    3    0    0  0.78055756326E-01  0.49466577264E-01  0.93717934090E-01  0.13337994726E+00  0.21622113685E-01 0.  0.
         14    1    1    2    0    0 -0.99110624154E-02 -0.13616261140E-01 -0.16892253873E-01  0.23853300957E-01  0.00000000000E+00 0.  1.
     999901    1    3    3    0    0 -0.68144693911E-01 -0.35850316125E-01 -0.76825680218E-01  0.88669675178E+00  0.88000000000E+00 0. -1.
        -11    1    4    4    0    0  0.21434135354E-01  0.25671173551E-01  0.34870009937E-01  0.48317802349E-01  0.51100000000E-03 0. -1.
         11    1    4    4    0    0  0.56621620973E-01  0.23795403714E-01  0.58847924153E-01  0.85062144916E-01  0.51100000000E-03 0.  1.
</event>
<event>
 8    1  0.1207611E+005  0.1043930E+01  0.7957747E-01            NaN
         13   -1    0    0    0    0  0.00000000000E+00  0.00000000000E+00  0.74505805969E-08  0.10566000000E+00  0.10566000000E+00 0.  1.
     999900   -1    0    0    0    0 -0.00000000000E+00 -0.00000000000E+00 -0.74505805969E-08  0.93827000000E+00  0.93827000000E+00 0. -1.
     999902    2    1    2    0    0  0.21598563208E-01  0.69914616725E-02  0.90235531320E-02  0.10195004486E+01  0.10192077128E+01 0.  0.
     999903    2    3    3    0    0 -0.69325933412E-01  0.11126614652E-01 -0.10461613856E+00  0.12753725258E+00  0.19782005762E-01 0.  0.
         14    1    1    2    0    0 -0.21598563208E-01 -0.69914616725E-02 -0.90235531320E-02  0.24429551369E-01  0.00000000000E+00 0. -1.
     999901    1    3    3    0    0  0.90924496620E-01 -0.41351529793E-02  0.11363969169E+00  0.89196319605E+00  0.88000000000E+00 0.  1.
        -11    1    4    4    0    0 -0.22703078641E-01 -0.49689440088E-02 -0.39733414288E-01  0.46033960468E-01  0.51100000000E-03 0.  1.
         11    1    4    4    0    0 -0.46622854771E-01  0.16095558661E-01 -0.64882724273E-01  0.81503292116E-01  0.51100000000E-03 0. -1.
</event>
<event>
 8    1  0.1207611E+005  0.1043930E+01  0.7957747E-01            NaN
         13   -1    0    0    0    0  0.00000000000E+00  0.00000000000E+00  0.74505805969E-08  0.10566000000E+00  0.10566000000E+00 0. -1.
     999900   -1    0    0    0    0 -0.00000000000E+00 -0.00000000000E+00 -0.74505805969E-08  0.93827000000E+00  0.93827000000E+00 0. -1.
     999902    2    1    2    0    0 -0.67172301863E-02 -0.19605390061E-01  0.11052399161E-01  0.10204428114E+01  0.10201724772E+01 0.  0.
     999903    2    3    3    0    0  0.22512939568E-01  0.54759897193E-01  0.11492130261E+00  0.13073873258E+00  0.19499528621E-01 0.  0.
         14    1    1    2    0    0  0.67172301863E-02  0.19605390061E-01 -0.11052399161E-01  0.23487188593E-01  0.00000000000E+00 0. -1.
     999901    1    3    3    0    0 -0.29230169755E-01 -0.74365287254E-01 -0.10386890344E+00  0.88970407882E+00  0.88000000000E+00 0. -1.
        -11    1    4    4    0    0  0.73649022318E-02  0.26750896228E-02  0.18669376689E-01  0.20253509235E-01  0.51100000000E-03 0.  1.
         11    1    4    4    0    0  0.15148037336E-01  0.52084807570E-01  0.96251925916E-01  0.11048522335E+00  0.51100000000E-03 0. -1.
</event>
<event>
 8    1  0.1207611E+005  0.1043930E+01  0.7957747E-01            NaN
         13   -1    0    0    0    0  0.00000000000E+00  0.00000000000E+00  0.74505805969E-08  0.10566000000E+00  0.10566000000E+00 0. -1.
     999900   -1    0    0    0    0 -0.00000000000E+00 -0.00000000000E+00 -0.74505805969E-08  0.93827000000E+00  0.93827000000E+00 0.  1.
     999902    2    1    2    0    0  0.18273679576E-01 -0.41759419151E-02 -0.15751992438E-01  0.10194454922E+01  0.10191514218E+01 0.  0.
     999903    2    3    3    0    0 -0.94553902967E-01 -0.85188547255E-01 -0.10462508152E-01  0.12853523620E+00  0.14639457622E-01 0.  0.
         14    1    1    2    0    0 -0.18273679576E-01  0.41759419151E-02  0.15751992438E-01  0.24484507794E-01  0.00000000000E+00 0. -1.
     999901    1    3    3    0    0  0.11282758254E+00  0.81012605340E-01 -0.52894842859E-02  0.89091025600E+00  0.88000000000E+00 0.  1.
        -11    1    4    4    0    0 -0.54195524626E-01 -0.45079771591E-01  0.94426724204E-03  0.70501726630E-01  0.51100000000E-03 0.  1.
         11    1    4    4    0    0 -0.40358378341E-01 -0.40108775664E-01 -0.11406775394E-01  0.58033509574E-01  0.51100000000E-03 0. -1.
</event>
<event>
 8    1  0.1207611E+005  0.1043930E+01  0.7957747E-01            NaN
         13   -1    0    0    0    0  0.00000000000E+00  0.00000000000E+00  0.74505805969E-08  0.10566000000E+00  0.10566000000E+00 0. -1.
     999900   -1    0    0    0    0 -0.00000000000E+00 -0.00000000000E+00 -0.74505805969E-08  0.93827000000E+00  0.93827000000E+00 0.  1.
     999902    2    1    2    0    0 -0.13153361523E-04  0.13372087278E-02 -0.23091960703E-01  0.10207993504E+01  0.10205372540E+01 0.  0.
     999903    2    3    3    0    0  0.10343390074E-01  0.14330493873E-01  0.12542378659E+00  0.12820033036E+00  0.19795193561E-01 0.  0.
         14    1    1    2    0    0  0.13153361523E-04 -0.13372087278E-02  0.23091960703E-01  0.23130649565E-01  0.00000000000E+00 0. -1.
     999901    1    3    3    0    0 -0.10356543436E-01 -0.12993285145E-01 -0.14851574729E+00  0.89259902008E+00  0.88000000000E+00 0.  1.
        -11    1    4    4    0    0  0.13616866678E-01  0.49801563000E-02  0.48028331470E-01  0.50171732676E-01  0.51100000000E-03 0.  1.
         11    1    4    4    0    0 -0.32734766042E-02  0.93503375728E-02  0.77395455120E-01  0.78028597680E-01  0.51100000000E-03 0. -1.
</event>
<event>
 8    1  0.1207611E+005  0.1043930E+01  0.7957747E-01            NaN
         13   -1    0    0    0    0  0.00000000000E+00  0.00000000000E+00  0.74505805969E-08  0.10566000000E+00  0.10566000000E+00 0.  1.
     999900   -1    0    0    0    0 -0.00000000000E+00 -0.00000000000E+00 -0.74505805969E-08  0.93827000000E+00  0.93827000000E+00 0. -1.
     999902    2    1    2    0    0 -0.16069099148E-01  0.16596615646E-01 -0.10089462864E-02  0.10208068175E+01  0.10205448922E+01 0.  0.
     999903    2    3    3    0    0 -0.54513604001E-01 -0.89417977325E-01  0.74916912699E-01  0.13036770671E+00  0.20393318900E-01 0.  0.
         14    1    1    2    0    0  0.16069099148E-01 -0.16596615646E-01  0.10089462864E-02  0.23123182543E-01  0.00000000000E+00 0. -1.
     999901    1    3    3    0    0  0.38444504853E-01  0.10601459297E+00 -0.75925858985E-01  0.89043911074E+00  0.88000000000E+00 0. -1.
        -11    1    4    4    0    0 -0.36305124657E-01 -0.71764702193E-01  0.49394800044E-01  0.94384013209E-01  0.51100000000E-03 0. -1.
         11    1    4    4    0    0 -0.18208479344E-01 -0.17653275132E-01  0.25522112655E-01  0.35983693505E-01  0.51100000000E-03 0.  1.
</event>
<event>
 8    1  0.1207611E+005  0.1043930E+01  0.7957747E-01            NaN
         13   -1    0    0    0    0  0.00000000000E+00  0.00000000000E+00  0.74505805969E-08  0.10566000000E+00  0.10566000000E+00 0.  1.
     999900   -1    0    0    0    0 -0.00000000000E+00 -0.00000000000E+00 -0.74505805969E-08  0.93827000000E+00  0.93827000000E+00 0.  1.
     999902    2    1    2    0    0 -0.16547269005E-01 -0.16019065103E-01 -0.80969199393E-02  0.10195172437E+01  0.10192249151E+01 0.  0.
     999903    2    3    3    0    0  0.40474273014E-01 -0.11303873267E+00  0.47066945200E-01  0.13063742945E+00  0.20854706495E-01 0.  0.
         14    1    1    2    0    0  0.16547269005E-01  0.16019065103E-01  0.80969199393E-02  0.24412756313E-01  0.00000000000E+00 0. -1.
     999901    1    3    3    0    0 -0.57021542019E-01  0.97019667562E-01 -0.55163865140E-01  0.88887981424E+00  0.88000000000E+00 0.  1.
        -11    1    4    4    0    0  0.25322191813E-01 -0.76359713233E-01  0.41613583903E-01  0.90575773193E-01  0.51100000000E-03 0.  1.
         11    1    4    4    0    0  0.15152081201E-01 -0.36679019432E-01  0.54533612972E-02  0.40061656252E-01  0.51100000000E-03 0. -1.
</event>
<event>
 8    1  0.1207611E+005  0.1043930E+01  0.7957747E-01            NaN
         13   -1    0    0    0    0  0.00000000000E+00  0.00000000000E+00  0.74505805969E-08  0.10566000000E+00  0.10566000000E+00 0. -1.
     999900   -1    0    0    0    0 -0.00000000000E+00 -0.00000000000E+00 -0.74505805969E-08  0.93827000000E+00  0.93827000000E+00 0.  1.
     999902    2    1    2    0    0 -0.14639097480E-01 -0.18037424098E-01  0.37779806546E-02  0.10203943891E+01  0.10201229261E+01 0.  0.
     999903    2    3    3    0    0 -0.72754320692E-01 -0.61300986929E-01 -0.89890544023E-01  0.13246257439E+00  0.20372077257E-01 0.  0.
         14    1    1    2    0    0  0.14639097480E-01  0.18037424098E-01 -0.37779806546E-02  0.23535610911E-01  0.00000000000E+00 0.  1.
     999901    1    3    3    0    0  0.58115223212E-01  0.43263562831E-01  0.93668524678E-01  0.88793181470E+00  0.88000000000E+00 0. -1.
        -11    1    4    4    0    0 -0.42673896675E-01 -0.47513816395E-01 -0.53911515756E-01  0.83578327681E-01  0.51100000000E-03 0. -1.
         11    1    4    4    0    0 -0.30080424017E-01 -0.13787170534E-01 -0.35979028267E-01  0.48884246710E-01  0.51100000000E-03 0.  1.
</event>
<event>
 8    1  0.1207611E+005  0.1043930E+01  0.7957747E-01            NaN
         13   -1    0    0    0    0  0.00000000000E+00  0.00000000000E+00  0.74505805969E-08  0.10566000000E+00  0.10566000000E+00 0. -1.
     999900   -1    0    0    0    0 -0.00000000000E+00 -0.00000000000E+00 -0.74505805969E-08  0.93827000000E+00  0.93827000000E+00 0. -1.
     999902    2    1    2    0    0 -0.21028304335E-02 -0.86606720599E-02 -0.21942382894E-01  0.10202467295E+01  0.10199718093E+01 0.  0.
     999903    2    3    3    0    0 -0.61244694056E-02 -0.12109981398E+00 -0.50049509242E-01  0.13263828833E+00  0.19628756556E-01 0.  0.
         14    1    1    2    0    0  0.21028304335E-02  0.86606720599E-02  0.21942382894E-01  0.23683270539E-01  0.00000000000E+00 0. -1.
     999901    1    3    3    0    0  0.40216389721E-02  0.11243914192E+00  0.28107126347E-01  0.88760844113E+00  0.88000000000E+00 0. -1.
        -11    1    4    4    0    0 -0.29892193495E-02 -0.36694818115E-01 -0.57652776974E-02  0.37268547822E-01  0.51100000000E-03 0.  1.
         11    1    4    4    0    0 -0.31352500561E-02 -0.84404995865E-01 -0.44284231544E-01  0.95369740507E-01  0.51100000000E-03 0. -1.
</event>
<event>
 8    1  0.1207611E+005  0.1043930E+01  0.7957747E-01            NaN
         13   -1    0    0    0    0  0.00000000000E+00  0.00000000000E+00  0.74505805969E-08  0.10566000000E+00  0.10566000000E+00 0.  1.
     999900   -1    0    0    0    0 -0.00000000000E+00 -0.00000000000E+00 -0.74505805969E-08  0.93827000000E+00  0.93827000000E+00 0. -1.
     999902    2    1    2    0    0 -0.22321376185E-01  0.72889396136E-02  0.32918376555E-02  0.10202190601E+01  0.10199434896E+01 0.  0.
     999903    2    3    3    0    0 -0.11737228000E+00 -0.57357941937E-01 -0.11394023209E-01  0.13262142147E+00  0.19809897790E-01 0.  0.
         14    1    1    2    0    0  0.22321376185E-01 -0.72889396136E-02 -0.32918376555E-02  0.23710939893E-01  0.00000000000E+00 0. -1.
     999901    1    3    3    0    0  0.95050903818E-01  0.64646881550E-01  0.14685860865E-01  0.88759763864E+00  0.88000000000E+00 0.  1.
        -11    1    4    4    0    0 -0.40617827764E-01 -0.18374889357E-01 -0.13257271029E-01  0.46513018041E-01  0.51100000000E-03 0.  1.
         11    1    4    4    0    0 -0.76754452239E-01 -0.38983052580E-01  0.18632478201E-02  0.86108403425E-01  0.51100000000E-03 0. -1.
</event>
<event>
 8    1  0.1207611E+005  0.1043930E+01  0.7957747E-01            NaN
         13   -1    0    0    0    0  0.00000000000E+00  0.00000000000E+00  0.74505805969E-08  0.10566000000E+00  0.10566000000E+00 0. -1.
     999900   -1    0    0    0    0 -0.00000000000E+00 -0.00000000000E+00 -0.74505805969E-08  0.93827000000E+00  0.93827000000E+00 0. -1.
     999902    2    1    2    0    0 -0.10798541856E-01  0.21860063462E-01 -0.23119302419E-02  0.10194388607E+01  0.10191446290E+01 0.  0.
     999903    2    3    3    0    0 -0.11411731886E+00  0.30994926310E-01 -0.54442487920E-01  0.13181517333E+00  0.20683508133E-01 0.  0.
         14    1    1    2    0    0  0.10798541856E-01 -0.21860063462E-01  0.23119302419E-02  0.24491139260E-01  0.00000000000E+00 0.  1.
     999901    1    3    3    0    0  0.10331877701E+00 -0.91348628472E-02  0.52130557678E-01  0.88762368741E+00  0.88000000000E+00 0.  1.
        -11    1    4    4    0    0 -0.27047905059E-01  0.11954584575E-01 -0.53354112210E-02  0.30053768388E-01  0.51100000000E-03 0. -1.
         11    1    4    4    0    0 -0.87069413804E-01  0.19040341734E-01 -0.49107076699E-01  0.10176140495E+00  0.51100000000E-03 0.  1.
</event>
<event>
 8    1  0.1207611E+005  0.1043930E+01  0.7957747E-01            NaN
         13   -1    0    0    0    0  0.00000000000E+00  0.00000000000E+00  0.74505805969E-08  0.10566000000E+00  0.10566000000E+00 0.  1.
     999900   -1    0    0    0    0 -0.00000000000E+00 -0.00000000000E+00 -0.74505805969E-08  0.93827000000E+00  0.93827000000E+00 0.  1.
     999902    2    1    2    0    0  0.80195337228E-02 -0.20290850949E-01 -0.83854050767E-02  0.10205559423E+01  0.10202882362E+01 0.  0.
     999903    2    3    3    0    0 -0.12266947432E+00 -0.39822310009E-01 -0.42512890563E-04  0.13065106058E+00  0.20882564985E-01 0.  0.
         14    1    1    2    0    0 -0.80195337228E-02  0.20290850949E-01  0.83854050767E-02  0.23374057664E-01  0.00000000000E+00 0.  1.
     999901    1    3    3    0    0  0.13068900804E+00  0.19531459060E-01 -0.83428921862E-02  0.88990488175E+00  0.88000000000E+00 0. -1.
        -11    1    4    4    0    0 -0.30291523924E-01 -0.19421077668E-01 -0.17728061437E-02  0.36029968665E-01  0.51100000000E-03 0. -1.
         11    1    4    4    0    0 -0.92377950395E-01 -0.20401232341E-01  0.17302932531E-02  0.94621091919E-01  0.51100000000E-03 0.  1.
</event>
<event>
 8    1  0.1207611E+005  0.1043930E+01  0.7957747E-01            NaN
         13   -1    0    0    0    0  0.00000000000E+00  0.00000000000E+00  0.74505805969E-08  0.10566000000E+00  0.10566000000E+00 0. -1.
     999900   -1    0    0    0    0 -0.00000000000E+00 -0.00000000000E+00 -0.74505805969E-08  0.93827000000E+00  0.93827000000E+00 0. -1.
     999902    2    1    2    0    0  0.80052017703E-02 -0.20751718373E-01 -0.85364510016E-02  0.10201058932E+01  0.10198276547E+01 0.  0.
     999903    2    3    3    0    0 -0.31020276830E-01 -0.67558244636E-01  0.10567123808E+00  0.13063569404E+00  0.19310619017E-01 0.  0.
         14    1    1    2    0    0 -0.80052017703E-02  0.20751718373E-01  0.85364510016E-02  0.23824106836E-01  0.00000000000E+00 0. -1.
     999901    1    3    3    0    0  0.39025478600E-01  0.46806526263E-01 -0.11420768909E+00  0.88947019912E+00  0.88000000000E+00 0. -1.
        -11    1    4    4    0    0 -0.37058712080E-02 -0.13756884160E-02  0.12568160655E-01  0.13185059093E-01  0.51100000000E-03 0. -1.
         11    1    4    4    0    0 -0.27314405622E-01 -0.66182556220E-01  0.93103077428E-01  0.11745063495E+00  0.51100000000E-03 0.  1.
</event>
<event>
 8    1  0.1207611E+005  0.1043930E+01  0.7957747E-01            NaN
         13   -1    0    0    0    0  0.00000000000E+00  0.00000000000E+00  0.74505805969E-08  0.10566000000E+00  0.10566000000E+00 0.  1.
     999900   -1    0    0    0    0 -0.00000000000E+00 -0.00000000000E+00 -0.74505805969E-08  0.93827000000E+00  0.93827000000E+00 0. -1.
     999902    2    1    2    0    0 -0.16936645334E-02  0.19289990471E-01  0.13315161333E-01  0.10204296648E+01  0.10201590244E+01 0.  0.
     999903    2    3    3    0    0  0.12662325939E+00  0.16465571717E-01  0.21306626998E-01  0.13108323411E+00  0.20597986276E-01 0.  0.
         14    1    1    2    0    0  0.16936645334E-02 -0.19289990471E-01 -0.13315161333E-01  0.23500335173E-01  0.00000000000E+00 0. -1.
     999901    1    3    3    0    0 -0.12831692393E+00  0.28244187541E-02 -0.79914656643E-02  0.88934643072E+00  0.88000000000E+00 0.  1.
        -11    1    4    4    0    0  0.11188044761E+00  0.76292730375E-02  0.18175569193E-01  0.11360480976E+00  0.51100000000E-03 0. -1.
         11    1    4    4    0    0  0.14742811784E-01  0.88362986793E-02  0.31310578047E-02  0.17478424346E-01  0.51100000000E-03 0.  1.
</event>
<event>
 8    1  0.1207611E+005  0.1043930E+01  0.7957747E-01            NaN
         13   -1    0    0    0    0  0.00000000000E+00  0.00000000000E+00  0.74505805969E-08  0.10566000000E+00  0.10566000000E+00 0. -1.
     999900   -1    0    0    0    0 -0.00000000000E+00 -0.00000000000E+00 -0.74505805969E-08  0.93827000000E+00  0.93827000000E+00 0. -1.
     999902    2    1    2    0    0 -0.23972371624E-01 -0.23964425476E-01 -0.91767261428E-02  0.10088133289E+01  0.10082019400E+01 0.  0.
     999903    2    3    3    0    0  0.22295483229E-01 -0.11046650179E+00  0.41435534172E-01  0.12191709789E+00  0.21140924230E-01 0.  0.
         14    1    1    2    0    0  0.23972371624E-01  0.23964425476E-01  0.91767261428E-02  0.35116671146E-01  0.00000000000E+00 0. -1.
     999901    1    3    3    0    0 -0.46267854853E-01  0.86502076310E-01 -0.50612260315E-01  0.88689623096E+00  0.88000000000E+00 0. -1.
        -11    1    4    4    0    0  0.91444244414E-02 -0.78377871571E-01  0.20984140005E-01  0.81653576181E-01  0.51100000000E-03 0.  1.
         11    1    4    4    0    0  0.13151058788E-01 -0.32088630215E-01  0.20451394167E-01  0.40263521712E-01  0.51100000000E-03 0. -1.
</event>
<event>
 8    1  0.1207611E+005  0.1043930E+01  0.7957747E-01            NaN
         13   -1    0    0    0    0  0.00000000000E+00  0.00000000000E+00  0.74505805969E-08  0.10566000000E+00  0.10566000000E+00 0.  1.
     999900   -1    0    0    0    0 -0.00000000000E+00 -0.00000000000E+00 -0.74505805969E-08  0.93827000000E+00  0.93827000000E+00 0. -1.
     999902    2    1    2    0    0 -0.20955874269E-01  0.88723974863E-02 -0.49727457477E-02  0.10206363033E+01  0.10203704560E+01 0.  0.
     999903    2    3    3    0    0 -0.16438931123E-01 -0.11814513412E+00  0.49096931144E-01  0.12986282705E+00  0.15011130186E-01 0.  0.
         14    1    1    2    0    0  0.20955874269E-01 -0.88723974863E-02  0.49727457477E-02  0.23293696654E-01  0.00000000000E+00 0.  1.
     999901    1    3    3    0    0 -0.45169431457E-02  0.12701753161E+00 -0.54069676892E-01  0.89077347629E+00  0.88000000000E+00 0.  1.
        -11    1    4    4    0    0 -0.14901040050E-01 -0.10686349316E+00  0.48903482041E-01  0.11846374484E+00  0.51100000000E-03 0. -1.
         11    1    4    4    0    0 -0.15378910733E-02 -0.11281640959E-01  0.19344910251E-03  0.11399082210E-01  0.51100000000E-03 0.  1.
</event>
<event>
 8    1  0.1207611E+005  0.1043930E+01  0.7957747E-01            NaN
         13   -1    0    0    0    0  0.00000000000E+00  0.00000000000E+00  0.74505805969E-08  0.10566000000E+00  0.10566000000E+00 0.  1.
     999900   -1    0    0    0    0 -0.00000000000E+00 -0.00000000000E+00 -0.74505805969E-08  0.93827000000E+00  0.93827000000E+00 0.  1.
     999902    2    1    2    0    0  0.11761883308E-01  0.19144836482E-02 -0.16800145404E-01  0.10233326207E+01  0.10231253103E+01 0.  0.
     999903    2    3    3    0    0 -0.56667073222E-01 -0.11805134650E+00 -0.33881926354E-02  0.13245990089E+00  0.19668957692E-01 0.  0.
         14    1    1    2    0    0 -0.11761883308E-01 -0.19144836482E-02  0.16800145404E-01  0.20597379255E-01  0.00000000000E+00 0.  1.
     999901    1    3    3    0    0  0.68428956530E-01  0.11996583015E+00 -0.13411952768E-01  0.89087271985E+00  0.88000000000E+00 0.  1.
        -11    1    4    4    0    0 -0.31825363286E-01 -0.86627979613E-01 -0.43793524844E-03  0.92291459564E-01  0.51100000000E-03 0. -1.
         11    1    4    4    0    0 -0.24841709935E-01 -0.31423366891E-01 -0.29502573870E-02  0.40168441331E-01  0.51100000000E-03 0.  1.
</event>
<event>
 8    1  0.1207611E+005  0.1043930E+01  0.7957747E-01            NaN
         13   -1    0    0    0    0  0.00000000000E+00  0.00000000000E+00  0.74505805969E-08  0.10566000000E+00  0.10566000000E+00 0.  1.
     999900   -1    0    0    0    0 -0.00000000000E+00 -0.00000000000E+00 -0.74505805969E-08  0.93827000000E+00  0.93827000000E+00 0.  1.
     999902    2    1    2    0    0 -0.21869071800E-01 -0.48648490155E-02 -0.83175227845E-02  0.10200322126E+01  0.10197522300E+01 0.  0.
     999903    2    3    3    0    0 -0.13167748365E+00 -0.19382349769E-02  0.14808515082E-03  0.13316236933E+00  0.19735202584E-01 0.  0.
         14    1    1    2    0    0  0.21869071800E-01  0.48648490155E-02  0.83175227845E-02  0.23897787400E-01  0.00000000000E+00 0.  1.
     999901    1    3    3    0    0  0.10980841185E+00 -0.29266140386E-02 -0.84656079353E-02  0.88686984327E+00  0.88000000000E+00 0. -1.
        -11    1    4    4    0    0 -0.73202671966E-01 -0.22312849917E-02 -0.96431057234E-02  0.73870565347E-01  0.51100000000E-03 0. -1.
         11    1    4    4    0    0 -0.58474811685E-01  0.29305001482E-03  0.97911908743E-02  0.59291803984E-01  0.51100000000E-03 0.  1.
</event>
<event>
 8    1  0.1207611E+005  0.1043930E+01  0.7957747E-01            NaN
         13   -1    0    0    0    0  0.00000000000E+00  0.00000000000E+00  0.74505805969E-08  0.10566000000E+00  0.10566000000E+00 0.  1.
     999900   -1    0    0    0    0 -0.00000000000E+00 -0.00000000000E+00 -0.74505805969E-08  0.93827000000E+00  0.93827000000E+00 0.  1.
     999902    2    1    2    0    0  0.20841555203E-01 -0.97112130173E-02 -0.66677750341E-02  0.10199897138E+01  0.10197087226E+01 0.  0.
     999903    2    3    3    0    0 -0.10313928261E+00  0.13504366756E-01  0.71304937608E-01  0.12758288097E+00  0.19311081039E-01 0.  0.
         14    1    1    2    0    0 -0.20841555203E-01  0.97112130173E-02  0.66677750341E-02  0.23940286244E-01  0.00000000000E+00 0.  1.
     999901    1    3    3    0    0  0.12398083781E+00 -0.23215579773E-01 -0.77972712642E-01  0.89240683279E+00  0.88000000000E+00 0. -1.
        -11    1    4    4    0    0 -0.43975746321E-01  0.12449656482E-01  0.22849933182E-01  0.51100301158E-01  0.51100000000E-03 0. -1.
         11    1    4    4    0    0 -0.59163536286E-01  0.10547102742E-02  0.48455004426E-01  0.76482579811E-01  0.51100000000E-03 0.  1.
</event>
<event>
 8    1  0.1207611E+005  0.1043930E+01  0.7957747E-01            NaN
         13   -1    0    0    0    0  0.00000000000E+00  0.00000000000E+00  0.74505805969E-08  0.10566000000E+00  0.10566000000E+00 0.  1.
     999900   -1    0    0    0    0 -0.00000000000E+00 -0.00000000000E+00 -0.74505805969E-08  0.93827000000E+00  0.93827000000E+00 0. -1.
     999902    2    1    2    0    0  0.97255965404E-02 -0.19515523177E-01  0.84205898281E-02  0.10205558860E+01  0.10202881785E+01 0.  0.
     999903    2    3    3    0    0 -0.12573061499E+00  0.57273007157E-02  0.25100432790E-01  0.12967777841E+00  0.18582383223E-01 0.  0.
         14    1    1    2    0    0 -0.97255965404E-02  0.19515523177E-01 -0.84205898281E-02  0.23374114015E-01  0.00000000000E+00 0. -1.
     999901    1    3    3    0    0  0.13545621153E+00 -0.25242823892E-01 -0.16679842962E-01  0.89087810758E+00  0.88000000000E+00 0.  1.
        -11    1    4    4    0    0 -0.51679834117E-01 -0.64419220813E-02  0.77930016064E-02  0.52662088921E-01  0.51100000000E-03 0.  1.
         11    1    4    4    0    0 -0.74050780876E-01  0.12169222797E-01  0.17307431183E-01  0.77015689486E-01  0.51100000000E-03 0. -1.
</event>
<event>
 8    1  0.1207611E+005  0.1043930E+01  0.7957747E-01            NaN
         13   -1    0    0    0    0  0.00000000000E+00  0.00000000000E+00  0.74505805969E-08  0.10566000000E+00  0.10566000000E+00 0. -1.
     999900   -1    0    0    0    0 -0.00000000000E+00 -0.00000000000E+00 -0.74505805969E-08  0.93827000000E+00  0.93827000000E+00 0.  1.
     999902    2    1    2    0    0 -0.65359722420E-02  0.14890660023E-01  0.14470474529E-01  0.10221620115E+01  0.10219301994E+01 0.  0.
     999903    2    3    3    0    0 -0.71996180347E-01  0.49213717155E-01 -0.96626707263E-01  0.13210263435E+00  0.22559820593E-01 0.  0.
         14    1    1    2    0    0  0.65359722420E-02 -0.14890660023E-01 -0.14470474529E-01  0.21767988473E-01  0.00000000000E+00 0.  1.
     999901    1    3    3    0    0  0.65460208105E-01 -0.34323057132E-01  0.11109718179E+00  0.89005937718E+00  0.88000000000E+00 0. -1.
        -11    1    4    4    0    0 -0.34462660060E-01  0.36624860573E-01 -0.49717780085E-01  0.70718979970E-01  0.51100000000E-03 0. -1.
         11    1    4    4    0    0 -0.37533520287E-01  0.12588856582E-01 -0.46908927178E-01  0.61383654381E-01  0.51100000000E-03 0.  1.
</event>
<event>
 8    1  0.1207611E+005  0.1043930E+01  0.7957747E-01            NaN
         13   -1    0    0    0    0  0.00000000000E+00  0.00000000000E+00  0.74505805969E-08  0.10566000000E+00  0.10566000000E+00 0. -1.
     999900   -1    0    0    0    0 -0.00000000000E+00 -0.00000000000E+00 -0.74505805969E-08  0.93827000000E+00  0.93827000000E+00 0.  1.
     999902    2    1    2    0    0 -0.14682013446E-02 -0.18628793366E-01 -0.17569642935E-01  0.10182808302E+01  0.10179577444E+01 0.  0.
     999903    2    3    3    0    0  0.41307268615E-02  0.30384277581E-01  0.12074965768E+00  0.12611164333E+00  0.19580590516E-01 0.  0.
         14    1    1    2    0    0  0.14682013446E-02  0.18628793366E-01  0.17569642935E-01  0.25649169778E-01  0.00000000000E+00 0. -1.
     999901    1    3    3    0    0 -0.55989282061E-02 -0.49013070947E-01 -0.13831930061E+00  0.89216918689E+00  0.88000000000E+00 0.  1.
        -11    1    4    4    0    0 -0.36741195902E-02  0.16356700988E-01  0.34280053308E-01  0.38163123532E-01  0.51100000000E-03 0.  1.
         11    1    4    4    0    0  0.78048464517E-02  0.14027576593E-01  0.86469604371E-01  0.87948519796E-01  0.51100000000E-03 0. -1.
</event>
<event>
 8    1  0.1207611E+005  0.1043930E+01  0.7957747E-01            NaN
         13   -1    0    0    0    0  0.00000000000E+00  0.00000000000E+00  0.74505805969E-08  0.10566000000E+00  0.10566000000E+00 0. -1.
     999900   -1    0    0    0    0 -0.00000000000E+00 -0.00000000000E+00 -0.74505805969E-08  0.93827000000E+00  0.93827000000E+00 0.  1.
     999902    2    1    2    0    0 -0.23433935611E-01  0.26722302122E-02  0.97215467012E-04  0.10203439956E+01  0.10200713552E+01 0.  0.
     999903    2    3    3    0    0 -0.47152863408E-01  0.46897918672E-01 -0.11214562913E+00  0.13179632934E+00  0.19256764830E-01 0.  0.
         14    1    1    2    0    0  0.23433935611E-01 -0.26722302122E-02 -0.97215467012E-04  0.23586004397E-01  0.00000000000E+00 0.  1.
     999901    1    3    3    0    0  0.23718927796E-01 -0.44225688460E-01  0.11224284460E+00  0.88854766626E+00  0.88000000000E+00 0. -1.
        -11    1    4    4    0    0 -0.12895144568E-01  0.25271717572E-01 -0.52748316365E-01  0.59896497918E-01  0.51100000000E-03 0.  1.
         11    1    4    4    0    0 -0.34257718839E-01  0.21626201100E-01 -0.59397312765E-01  0.71899831424E-01  0.51100000000E-03 0. -1.
</event>
<event>
 8    1  0.1207611E+005  0.1043930E+01  0.7957747E-01            NaN
         13   -1    0    0    0    0  0.00000000000E+00  0.00000000000E+00  0.74505805969E-08  0.10566000000E+00  0.10566000000E+00 0.  1.
     999900   -1    0    0    0    0 -0.00000000000E+00 -0.00000000000E+00 -0.74505805969E-08  0.93827000000E+00  0.93827000000E+00 0. -1.
     999902    2    1    2    0    0  0.79519932950E-02 -0.11767076739E-01  0.18866420510E-01  0.10203155952E+01  0.10200422901E+01 0.  0.
     999903    2    3    3    0    0 -0.71923498548E-01 -0.44769143145E-01  0.99815799960E-01  0.13238427316E+00  0.19624883112E-01 0.  0.
         14    1    1    2    0    0 -0.79519932950E-02  0.11767076739E-01 -0.18866420510E-01  0.23614404824E-01  0.00000000000E+00 0. -1.
     999901    1    3    3    0    0  0.79875491843E-01  0.33002066405E-01 -0.80949379450E-01  0.88793132202E+00  0.88000000000E+00 0. -1.
        -11    1    4    4    0    0 -0.48773541475E-01 -0.22492306299E-01  0.72383131305E-01  0.90135126389E-01  0.51100000000E-03 0.  1.
         11    1    4    4    0    0 -0.23149957073E-01 -0.22276836846E-01  0.27432668655E-01  0.42249146771E-01  0.51100000000E-03 0. -1.
</event>
<event>
 8    1  0.1207611E+005  0.1043930E+01  0.7957747E-01            NaN
         13   -1    0    0    0    0  0.00000000000E+00  0.00000000000E+00  0.74505805969E-08  0.10566000000E+00  0.10566000000E+00 0. -1.
     999900   -1    0    0    0    0 -0.00000000000E+00 -0.00000000000E+00 -0.74505805969E-08  0.93827000000E+00  0.93827000000E+00 0.  1.
     999902    2    1    2    0    0  0.12940952515E-01 -0.13414833132E-01 -0.16093180652E-01  0.10193044754E+01  0.10190069661E+01 0.  0.
     999903    2    3    3    0    0  0.32389150741E-01  0.25002765338E-02  0.12202121202E+00  0.12817759967E+00  0.22022997167E-01 0.  0.
         14    1    1    2    0    0 -0.12940952515E-01  0.13414833132E-01  0.16093180652E-01  0.24625524633E-01  0.00000000000E+00 0. -1.
     999901    1    3    3    0    0 -0.19448198225E-01 -0.15915109666E-01 -0.13811439268E+00  0.89112687570E+00  0.88000000000E+00 0.  1.
        -11    1    4    4    0    0  0.34367248322E-02  0.87447286516E-02  0.35498432262E-01  0.36724394764E-01  0.51100000000E-03 0. -1.
         11    1    4    4    0    0  0.28952425908E-01 -0.62444521178E-02  0.86522779762E-01  0.91453204903E-01  0.51100000000E-03 0.  1.
</event>
<event>
 8    1  0.1220074E+005  0.1043930E+01  0.7957747E-01            NaN
         13   -1    0    0    0    0  0.00000000000E+00  0.00000000000E+00  0.74505805969E-08  0.10566000000E+00  0.10566000000E+00 0. -1.
     999900   -1    0    0    0    0 -0.00000000000E+00 -0.00000000000E+00 -0.74505805969E-08  0.93827000000E+00  0.93827000000E+00 0. -1.
     999902    2    1    2    0    0  0.12102728348E-01 -0.72163359336E-02 -0.17856746182E-01  0.10211832437E+01  0.10209298714E+01 0.  0.
     999903    2    3    3    0    0  0.92465593367E-01  0.91834492939E-01 -0.26334315251E-02  0.13185709089E+00  0.19897170791E-01 0.  0.
         14    1    1    2    0    0 -0.12102728348E-01  0.72163359336E-02  0.17856746182E-01  0.22746756296E-01  0.00000000000E+00 0. -1.
     999901    1    3    3    0    0 -0.80362865019E-01 -0.99050828873E-01 -0.15223314657E-01  0.88932615282E+00  0.88000000000E+00 0. -1.
        -11    1    4    4    0    0  0.17986615760E-01  0.29797707206E-01 -0.28316733096E-02  0.34924220764E-01  0.51100000000E-03 0.  1.
         11    1    4    4    0    0  0.74478977607E-01  0.62036785733E-01  0.19824178450E-03  0.96932870123E-01  0.51100000000E-03 0. -1.
</event>
<event>
 8    1  0.1207611E+005  0.1043930E+01  0.7957747E-01            NaN
         13   -1    0    0    0    0  0.00000000000E+00  0.00000000000E+00  0.74505805969E-08  0.10566000000E+00  0.10566000000E+00 0.  1.
     999900   -1    0    0    0    0 -0.00000000000E+00 -0.00000000000E+00 -0.74505805969E-08  0.93827000000E+00  0.93827000000E+00 0.  1.
     999902    2    1    2    0    0 -0.24314405508E-02 -0.18102062292E-01 -0.13155749009E-01  0.10214206621E+01  0.10211726096E+01 0.  0.
     999903    2    3    3    0    0 -0.10572031688E+00  0.22006381016E-01  0.70464103365E-01  0.13053932377E+00  0.20353353070E-01 0.  0.
         14    1    1    2    0    0  0.24314405508E-02  0.18102062292E-01  0.13155749009E-01  0.22509337937E-01  0.00000000000E+00 0.  1.
     999901    1    3    3    0    0  0.10328887633E+00 -0.40108443308E-01 -0.83619852375E-01  0.89088133829E+00  0.88000000000E+00 0.  1.
        -11    1    4    4    0    0 -0.86745698052E-01  0.17315803305E-01  0.66303881508E-01  0.11054917005E+00  0.51100000000E-03 0. -1.
         11    1    4    4    0    0 -0.18974618831E-01  0.46905777108E-02  0.41602218570E-02  0.19990153725E-01  0.51100000000E-03 0.  1.
</event>
<event>
 8    1  0.1207611E+005  0.1043930E+01  0.7957747E-01            NaN
         13   -1    0    0    0    0  0.00000000000E+00  0.00000000000E+00  0.74505805969E-08  0.10566000000E+00  0.10566000000E+00 0.  1.
     999900   -1    0    0    0    0 -0.00000000000E+00 -0.00000000000E+00 -0.74505805969E-08  0.93827000000E+00  0.93827000000E+00 0. -1.
     999902    2    1    2    0    0 -0.71519474489E-02  0.21491286424E-01 -0.66081501250E-02  0.10203356491E+01  0.10200628135E+01 0.  0.
     999903    2    3    3    0    0 -0.76629458549E-02 -0.12459410514E+00 -0.21382270868E-01  0.12817003817E+00  0.19696329653E-01 0.  0.
         14    1    1    2    0    0  0.71519474489E-02 -0.21491286424E-01  0.66081501250E-02  0.23594350861E-01  0.00000000000E+00 0. -1.
     999901    1    3    3    0    0  0.51099840606E-03  0.14608539157E+00  0.14774120743E-01  0.89216561097E+00  0.88000000000E+00 0. -1.
        -11    1    4    4    0    0 -0.61539193716E-02 -0.60702371263E-01 -0.78261907421E-03  0.61020670385E-01  0.51100000000E-03 0.  1.
         11    1    4    4    0    0 -0.15090264833E-02 -0.63891733881E-01 -0.20599651794E-01  0.67149367787E-01  0.51100000000E-03 0. -1.
</event>
<event>
 8    1  0.1207611E+005  0.1043930E+01  0.7957747E-01            NaN
         13   -1    0    0    0    0  0.00000000000E+00  0.00000000000E+00  0.74505805969E-08  0.10566000000E+00  0.10566000000E+00 0.  1.
     999900   -1    0    0    0    0 -0.00000000000E+00 -0.00000000000E+00 -0.74505805969E-08  0.93827000000E+00  0.93827000000E+00 0. -1.
     999902    2    1    2    0    0 -0.21065678129E-01  0.12085665392E-01  0.15080834603E-01  0.10153422810E+01  0.10149397470E+01 0.  0.
     999903    2    3    3    0    0 -0.56665277585E-01  0.94292154923E-01 -0.61298142032E-01  0.12750277613E+00  0.19938193026E-01 0.  0.
         14    1    1    2    0    0  0.21065678129E-01 -0.12085665392E-01 -0.15080834603E-01  0.28587718960E-01  0.00000000000E+00 0. -1.
     999901    1    3    3    0    0  0.35599599456E-01 -0.82206489531E-01  0.76378976635E-01  0.88783950491E+00  0.88000000000E+00 0.  1.
        -11    1    4    4    0    0 -0.40241384139E-01  0.61078876861E-01 -0.30229717426E-01  0.79146036747E-01  0.51100000000E-03 0.  1.
         11    1    4    4    0    0 -0.16423893445E-01  0.33213278062E-01 -0.31068424606E-01  0.48356739386E-01  0.51100000000E-03 0. -1.
</event>
<event>
 8    1  0.1207611E+005  0.1043930E+01  0.7957747E-01            NaN
         13   -1    0    0    0    0  0.00000000000E+00  0.00000000000E+00  0.74505805969E-08  0.10566000000E+00  0.10566000000E+00 0.  1.
     999900   -1    0    0    0    0 -0.00000000000E+00 -0.00000000000E+00 -0.74505805969E-08  0.93827000000E+00  0.93827000000E+00 0. -1.
     999902    2    1    2    0    0  0.88171279692E-02  0.41859041177E-02 -0.20608126428E-01  0.10211274034E+01  0.10208727714E+01 0.  0.
     999903    2    3    3    0    0 -0.61390031119E-01  0.95201150285E-02  0.11081433287E+00  0.12858644530E+00  0.19881877068E-01 0.  0.
         14    1    1    2    0    0 -0.88171279692E-02 -0.41859041177E-02  0.20608126428E-01  0.22802596646E-01  0.00000000000E+00 0.  1.
     999901    1    3    3    0    0  0.70207159088E-01 -0.53342109108E-02 -0.13142245930E+00  0.89254095805E+00  0.88000000000E+00 0. -1.
        -11    1    4    4    0    0 -0.48584950150E-01  0.12589803431E-01  0.98497634548E-01  0.11054883837E+00  0.51100000000E-03 0. -1.
         11    1    4    4    0    0 -0.12805080969E-01 -0.30696884021E-02  0.12316698319E-01  0.18037606937E-01  0.51100000000E-03 0.  1.
</event>
<event>
 8    1  0.1207611E+005  0.1043930E+01  0.7957747E-01            NaN
         13   -1    0    0    0    0  0.00000000000E+00  0.00000000000E+00  0.74505805969E-08  0.10566000000E+00  0.10566000000E+00 0. -1.
     999900   -1    0    0    0    0 -0.00000000000E+00 -0.00000000000E+00 -0.74505805969E-08  0.93827000000E+00  0.93827000000E+00 0. -1.
     999902    2    1    2    0    0 -0.55527328575E-02  0.21517327602E-01  0.91977920855E-02  0.10198794780E+01  0.10195958621E+01 0.  0.
     999903    2    3    3    0    0  0.94715562622E-01  0.58316261320E-01  0.67302210042E-01  0.13151918173E+00  0.19896822589E-01 0.  0.
         14    1    1    2    0    0  0.55527328575E-02 -0.21517327602E-01 -0.91977920855E-02  0.24050522002E-01  0.00000000000E+00 0.  1.
     999901    1    3    3    0    0 -0.10026829548E+00 -0.36798933718E-01 -0.58104417956E-01  0.88836029627E+00  0.88000000000E+00 0. -1.
        -11    1    4    4    0    0  0.49088383319E-01  0.19721167531E-01  0.26627783292E-01  0.59227474956E-01  0.51100000000E-03 0. -1.
         11    1    4    4    0    0  0.45627179303E-01  0.38595093789E-01  0.40674426750E-01  0.72291706773E-01  0.51100000000E-03 0.  1.
</event>
<event>
 8    1  0.1207611E+005  0.1043930E+01  0.7957747E-01            NaN
         13   -1    0    0    0    0  0.00000000000E+00  0.00000000000E+00  0.74505805969E-08  0.10566000000E+00  0.10566000000E+00 0. -1.
     999900   -1    0    0    0    0 -0.00000000000E+00 -0.00000000000E+00 -0.74505805969E-08  0.93827000000E+00  0.93827000000E+00 0. -1.
     999902    2    1    2    0    0 -0.16509342535E-01  0.12315481159E-01 -0.13235972284E-01  0.10194469359E+01  0.10191529005E+01 0.  0.
     999903    2    3    3    0    0  0.98337625600E-01  0.78242046482E-01  0.21847987390E-01  0.12884768686E+00  0.18228697413E-01 0.  0.
         14    1    1    2    0    0  0.16509342535E-01 -0.12315481159E-01  0.13235972284E-01  0.24483064135E-01  0.00000000000E+00 0. -1.
     999901    1    3    3    0    0 -0.11484696814E+00 -0.65926565323E-01 -0.35083959674E-01  0.89059924901E+00  0.88000000000E+00 0.  1.
        -11    1    4    4    0    0  0.44218739734E-01  0.43586241361E-01  0.17118272930E-01  0.64407715134E-01  0.51100000000E-03 0.  1.
         11    1    4    4    0    0  0.54118885867E-01  0.34655805121E-01  0.47297144594E-02  0.64439971725E-01  0.51100000000E-03 0. -1.
</event>
<event>
 8    1  0.1207611E+005  0.1043930E+01  0.7957747E-01            NaN
         13   -1    0    0    0    0  0.00000000000E+00  0.00000000000E+00  0.74505805969E-08  0.10566000000E+00  0.10566000000E+00 0. -1.
     999900   -1    0    0    0    0 -0.00000000000E+00 -0.00000000000E+00 -0.74505805969E-08  0.93827000000E+00  0.93827000000E+00 0. -1.
     999902    2    1    2    0    0  0.42773154532E-02 -0.18646233303E-01  0.14426631247E-01  0.10199695089E+01  0.10196880376E+01 0.  0.
     999903    2    3    3    0    0 -0.39588451236E-01 -0.13108757643E-01  0.12348207605E+00  0.13213621422E+00  0.21750195551E-01 0.  0.
         14    1    1    2    0    0 -0.42773154532E-02  0.18646233303E-01 -0.14426631247E-01  0.23960491085E-01  0.00000000000E+00 0.  1.
     999901    1    3    3    0    0  0.43865766689E-01 -0.55374756597E-02 -0.10905544480E+00  0.88783329469E+00  0.88000000000E+00 0. -1.
        -11    1    4    4    0    0 -0.19599596901E-01  0.41858329015E-02  0.43485688859E-01  0.47884565909E-01  0.51100000000E-03 0. -1.
         11    1    4    4    0    0 -0.19988854335E-01 -0.17294590545E-01  0.79996387186E-01  0.84251648314E-01  0.51100000000E-03 0.  1.
</event>
<event>
 8    1  0.1207611E+005  0.1043930E+01  0.7957747E-01            NaN
         13   -1    0    0    0    0  0.00000000000E+00  0.00000000000E+00  0.74505805969E-08  0.10566000000E+00  0.10566000000E+00 0.  1.
     999900   -1    0    0    0    0 -0.00000000000E+00 -0.00000000000E+00 -0.74505805969E-08  0.93827000000E+00  0.93827000000E+00 0.  1.
     999902    2    1    2    0    0 -0.82226919202E-02  0.11219454100E-01 -0.19208739899E-01  0.10202136659E+01  0.10199379685E+01 0.  0.
     999903    2    3    3    0    0  0.12508498336E+00  0.97613903293E-02 -0.28254950473E-01  0.13012664988E+00  0.19825866424E-01 0.  0.
         14    1    1    2    0    0  0.82226919202E-02 -0.11219454100E-01  0.19208739899E-01  0.23716334060E-01  0.00000000000E+00 0.  1.
     999901    1    3    3    0    0 -0.13330767528E+00  0.14580637705E-02  0.90462105736E-02  0.89008701606E+00  0.88000000000E+00 0.  1.
        -11    1    4    4    0    0  0.56172902431E-01  0.46295054980E-02 -0.22815246994E-01  0.60808090786E-01  0.51100000000E-03 0. -1.
         11    1    4    4    0    0  0.68912080927E-01  0.51318848314E-02 -0.54397034783E-02  0.69318559091E-01  0.51100000000E-03 0.  1.
</event>
<event>
 8    1  0.1207611E+005  0.1043930E+01  0.7957747E-01            NaN
         13   -1    0    0    0    0  0.00000000000E+00  0.00000000000E+00  0.74505805969E-08  0.10566000000E+00  0.10566000000E+00 0. -1.
     999900   -1    0    0    0    0 -0.00000000000E+00 -0.00000000000E+00 -0.74505805969E-08  0.93827000000E+00  0.93827000000E+00 0.  1.
     999902    2    1    2    0    0 -0.65711253627E-02 -0.12173644802E-01 -0.18750109002E-01  0.10206288433E+01  0.10203628236E+01 0.  0.
     999903    2    3    3    0    0  0.21661291538E-01 -0.11284968347E+00  0.59622301257E-01  0.13098005370E+00  0.19917154712E-01 0.  0.
         14    1    1    2    0    0  0.65711253627E-02  0.12173644802E-01  0.18750109002E-01  0.23301156707E-01  0.00000000000E+00 0. -1.
     999901    1    3    3    0    0 -0.28232416901E-01  0.10067603866E+00 -0.78372410259E-01  0.88964878959E+00  0.88000000000E+00 0.  1.
        -11    1    4    4    0    0 -0.29992682162E-03 -0.30773928437E-01  0.23171024558E-01  0.38526382229E-01  0.51100000000E-03 0. -1.
         11    1    4    4    0    0  0.21961218360E-01 -0.82075755029E-01  0.36451276699E-01  0.92453671476E-01  0.51100000000E-03 0.  1.
</event>
<event>
 8    1  0.1207611E+005  0.1043930E+01  0.7957747E-01            NaN
         13   -1    0    0    0    0  0.00000000000E+00  0.00000000000E+00  0.74505805969E-08  0.10566000000E+00  0.10566000000E+00 0. -1.
     999900   -1    0    0    0    0 -0.00000000000E+00 -0.00000000000E+00 -0.74505805969E-08  0.93827000000E+00  0.93827000000E+00 0.  1.
     999902    2    1    2    0    0  0.96155990328E-02 -0.82736421773E-02  0.20284750039E-01  0.10200054523E+01  0.10197248348E+01 0.  0.
     999903    2    3    3    0    0 -0.93541374947E-01 -0.81620828854E-01  0.35729656819E-01  0.13081496862E+00  0.20591238662E-01 0.  0.
         14    1    1    2    0    0 -0.96155990328E-02  0.82736421773E-02 -0.20284750039E-01  0.23924547724E-01  0.00000000000E+00 0. -1.
     999901    1    3    3    0    0  0.10315697398E+00  0.73347186676E-01 -0.15444906780E-01  0.88919048365E+00  0.88000000000E+00 0. -1.
        -11    1    4    4    0    0 -0.44641316542E-01 -0.46635727435E-01  0.27314391358E-01  0.70100465849E-01  0.51100000000E-03 0. -1.
         11    1    4    4    0    0 -0.48900058405E-01 -0.34985101419E-01  0.84152654614E-02  0.60714502774E-01  0.51100000000E-03 0.  1.
</event>
<event>
 8    1  0.1207611E+005  0.1043930E+01  0.7957747E-01            NaN
         13   -1    0    0    0    0  0.00000000000E+00  0.00000000000E+00  0.74505805969E-08  0.10566000000E+00  0.10566000000E+00 0.  1.
     999900   -1    0    0    0    0 -0.00000000000E+00 -0.00000000000E+00 -0.74505805969E-08  0.93827000000E+00  0.93827000000E+00 0.  1.
     999902    2    1    2    0    0 -0.11944816918E-01  0.14626390347E-01  0.13655170741E-01  0.10206260597E+01  0.10203599757E+01 0.  0.
     999903    2    3    3    0    0  0.34222380033E-01 -0.96060250786E-01  0.78520232526E-01  0.13012596489E+00  0.19198873592E-01 0.  0.
         14    1    1    2    0    0  0.11944816918E-01 -0.14626390347E-01 -0.13655170741E-01  0.23303940306E-01  0.00000000000E+00 0. -1.
     999901    1    3    3    0    0 -0.46167196951E-01  0.11068664113E+00 -0.64865061785E-01  0.89050009480E+00  0.88000000000E+00 0.  1.
        -11    1    4    4    0    0  0.32193571834E-01 -0.71619547469E-01  0.53053453932E-01  0.94766638340E-01  0.51100000000E-03 0.  1.
         11    1    4    4    0    0  0.20288081989E-02 -0.24440703317E-01  0.25466778594E-01  0.35359326553E-01  0.51100000000E-03 0. -1.
</event>
<event>
 8    1  0.1207611E+005  0.1043930E+01  0.7957747E-01            NaN
         13   -1    0    0    0    0  0.00000000000E+00  0.00000000000E+00  0.74505805969E-08  0.10566000000E+00  0.10566000000E+00 0. -1.
     999900   -1    0    0    0    0 -0.00000000000E+00 -0.00000000000E+00 -0.74505805969E-08  0.93827000000E+00  0.93827000000E+00 0.  1.
     999902    2    1    2    0    0  0.24927865749E-01 -0.20597418015E-01  0.14940632446E-01  0.10083087336E+01  0.10076793278E+01 0.  0.
     999903    2    3    3    0    0  0.93580125211E-02  0.30458980693E-01 -0.11146092812E+00  0.11767607608E+00  0.20218765618E-01 0.  0.
         14    1    1    2    0    0 -0.24927865749E-01  0.20597418015E-01 -0.14940632446E-01  0.35621266367E-01  0.00000000000E+00 0. -1.
     999901    1    3    3    0    0  0.15569853228E-01 -0.51056398708E-01  0.12640156056E+00  0.89063265755E+00  0.88000000000E+00 0. -1.
        -11    1    4    4    0    0  0.12487834030E-01  0.11198996918E-01 -0.67878469809E-01  0.69922180425E-01  0.51100000000E-03 0. -1.
         11    1    4    4    0    0 -0.31298215085E-02  0.19259983774E-01 -0.43582458306E-01  0.47753895660E-01  0.51100000000E-03 0.  1.
</event>
<event>
 8    1  0.1207611E+005  0.1043930E+01  0.7957747E-01            NaN
         13   -1    0    0    0    0  0.00000000000E+00  0.00000000000E+00  0.74505805969E-08  0.10566000000E+00  0.10566000000E+00 0.  1.
     999900   -1    0    0    0    0 -0.00000000000E+00 -0.00000000000E+00 -0.74505805969E-08  0.93827000000E+00  0.93827000000E+00 0.  1.
     999902    2    1    2    0    0  0.11867019871E-01  0.20233349105E-01  0.62095382023E-02  0.10196653561E+01  0.10193766064E+01 0.  0.
     999903    2    3    3    0    0  0.60348666133E-01 -0.22582361017E-01  0.11217101320E+00  0.13095196633E+00  0.20350841537E-01 0.  0.
         14    1    1    2    0    0 -0.11867019871E-01 -0.20233349105E-01 -0.62095382023E-02  0.24264643853E-01  0.00000000000E+00 0.  1.
     999901    1    3    3    0    0 -0.48481646262E-01  0.42815710122E-01 -0.10596147499E+00  0.88871338982E+00  0.88000000000E+00 0.  1.
        -11    1    4    4    0    0  0.18012039533E-01 -0.17166522800E-01  0.41032808661E-01  0.47990369667E-01  0.51100000000E-03 0.  1.
         11    1    4    4    0    0  0.42336626600E-01 -0.54158382168E-02  0.71138204535E-01  0.82961596663E-01  0.51100000000E-03 0. -1.
</event>
<event>
 8    1  0.1207611E+005  0.1043930E+01  0.7957747E-01            NaN
         13   -1    0    0    0    0  0.00000000000E+00  0.00000000000E+00  0.74505805969E-08  0.10566000000E+00  0.10566000000E+00 0. -1.
     999900   -1    0    0    0    0 -0.00000000000E+00 -0.00000000000E+00 -0.74505805969E-08  0.93827000000E+00  0.93827000000E+00 0.  1.
     999902    2    1    2    0    0  0.22173253501E-01  0.70152569211E-03 -0.94729434236E-02  0.10198077703E+01  0.10195224403E+01 0.  0.
     999903    2    3    3    0    0 -0.54483567373E-01 -0.91913587722E-01 -0.70327925954E-01  0.12955097794E+00  0.20515165012E-01 0.  0.
         14    1    1    2    0    0 -0.22173253501E-01 -0.70152569211E-03  0.94729434236E-02  0.24122229711E-01  0.00000000000E+00 0.  1.
     999901    1    3    3    0    0  0.76656820874E-01  0.92615113414E-01  0.60854982530E-01  0.89025679235E+00  0.88000000000E+00 0. -1.
        -11    1    4    4    0    0 -0.47739706114E-01 -0.68069815439E-01 -0.60782313648E-01  0.10299189331E+00  0.51100000000E-03 0.  1.
         11    1    4    4    0    0 -0.67438612586E-02 -0.23843772283E-01 -0.95456123055E-02  0.26559084635E-01  0.51100000000E-03 0. -1.
</event>
<event>
 8    1  0.1207611E+005  0.1043930E+01  0.7957747E-01            NaN
         13   -1    0    0    0    0  0.00000000000E+00  0.00000000000E+00  0.74505805969E-08  0.10566000000E+00  0.10566000000E+00 0.  1.
     999900   -1    0    0    0    0 -0.00000000000E+00 -0.00000000000E+00 -0.74505805969E-08  0.93827000000E+00  0.93827000000E+00 0.  1.
     999902    2    1    2    0    0  0.14569365981E-01 -0.17555086356E-01 -0.14456383057E-02  0.10210709241E+01  0.10208150149E+01 0.  0.
     999903    2    3    3    0    0 -0.77485779368E-01  0.17259395868E-01 -0.10090627756E+00  0.13001614645E+00  0.20498505744E-01 0.  0.
         14    1    1    2    0    0 -0.14569365981E-01  0.17555086356E-01  0.14456383057E-02  0.22859075926E-01  0.00000000000E+00 0. -1.
     999901    1    3    3    0    0  0.92055145349E-01 -0.34814482224E-01  0.99460639255E-01  0.89105477762E+00  0.88000000000E+00 0. -1.
        -11    1    4    4    0    0 -0.38907892810E-01  0.18642152144E-01 -0.58161114030E-01  0.72417748278E-01  0.51100000000E-03 0. -1.
         11    1    4    4    0    0 -0.38577886558E-01 -0.13827562763E-02 -0.42745163531E-01  0.57598398176E-01  0.51100000000E-03 0.  1.
</event>
<event>
 8    1  0.1207611E+005  0.1043930E+01  0.7957747E-01            NaN
         13   -1    0    0    0    0  0.00000000000E+00  0.00000000000E+00  0.74505805969E-08  0.10566000000E+00  0.10566000000E+00 0. -1.
     999900   -1    0    0    0    0 -0.00000000000E+00 -0.00000000000E+00 -0.74505805969E-08  0.93827000000E+00  0.93827000000E+00 0. -1.
     999902    2    1    2    0    0  0.18064724468E-01 -0.94964673753E-02 -0.84111090719E-02  0.10218559447E+01  0.10216174958E+01 0.  0.
     999903    2    3    3    0    0 -0.40112888838E-01  0.66604688125E-01  0.10208549040E+00  0.12978783121E+00  0.19447504998E-01 0.  0.
         14    1    1    2    0    0 -0.18064724468E-01  0.94964673753E-02  0.84111090719E-02  0.22074055326E-01  0.00000000000E+00 0.  1.
     999901    1    3    3    0    0  0.58177613306E-01 -0.76101155500E-01 -0.11049659947E+00  0.89206811346E+00  0.88000000000E+00 0. -1.
        -11    1    4    4    0    0 -0.46883481877E-02  0.18379792339E-01  0.35582565474E-01  0.40325890714E-01  0.51100000000E-03 0.  1.
         11    1    4    4    0    0 -0.35424540650E-01  0.48224895786E-01  0.66502924922E-01  0.89461940500E-01  0.51100000000E-03 0. -1.
</event>
<event>
 8    1  0.1207611E+005  0.1043930E+01  0.7957747E-01            NaN
         13   -1    0    0    0    0  0.00000000000E+00  0.00000000000E+00  0.74505805969E-08  0.10566000000E+00  0.10566000000E+00 0.  1.
     999900   -1    0    0    0    0 -0.00000000000E+00 -0.00000000000E+00 -0.74505805969E-08  0.93827000000E+00  0.93827000000E+00 0.  1.
     999902    2    1    2    0    0  0.44072229554E-02  0.15834062589E-01  0.16892713454E-01  0.10203608481E+01  0.10200886018E+01 0.  0.
     999903    2    3    3    0    0  0.14503225960E-01  0.12798742621E+00  0.26497498526E-01  0.13313339243E+00  0.20766750348E-01 0.  0.
         14    1    1    2    0    0 -0.44072229554E-02 -0.15834062589E-01 -0.16892713454E-01  0.23569151874E-01  0.00000000000E+00 0. -1.
     999901    1    3    3    0    0 -0.10096003004E-01 -0.11215336362E+00 -0.96047850719E-02  0.88722745570E+00  0.88000000000E+00 0.  1.
        -11    1    4    4    0    0  0.13407667544E-01  0.84672631815E-01  0.26734866401E-01  0.89801082009E-01  0.51100000000E-03 0.  1.
         11    1    4    4    0    0  0.10955584157E-02  0.43314794395E-01 -0.23736787525E-03  0.43332310419E-01  0.51100000000E-03 0. -1.
</event>
<event>
 8    1  0.1207611E+005  0.1043930E+01  0.7957747E-01            NaN
         13   -1    0    0    0    0  0.00000000000E+00  0.00000000000E+00  0.74505805969E-08  0.10566000000E+00  0.10566000000E+00 0.  1.
     999900   -1    0    0    0    0 -0.00000000000E+00 -0.00000000000E+00 -0.74505805969E-08  0.93827000000E+00  0.93827000000E+00 0. -1.
     999902    2    1    2    0    0 -0.17254113280E-01  0.15225667018E-01  0.66032852332E-02  0.10199898927E+01  0.10197089058E+01 0.  0.
     999903    2    3    3    0    0  0.60086963629E-01  0.57758635890E-01 -0.97153060638E-01  0.12950908162E+00  0.19682017464E-01 0.  0.
         14    1    1    2    0    0  0.17254113280E-01 -0.15225667018E-01 -0.66032852332E-02  0.23940107290E-01  0.00000000000E+00 0. -1.
     999901    1    3    3    0    0 -0.77341076909E-01 -0.42532968873E-01  0.10375634587E+00  0.89048081109E+00  0.88000000000E+00 0.  1.
        -11    1    4    4    0    0  0.62181240501E-02  0.99906441094E-02 -0.24703187624E-01  0.27367620214E-01  0.51100000000E-03 0. -1.
         11    1    4    4    0    0  0.53868839579E-01  0.47767991781E-01 -0.72449873014E-01  0.10214146140E+00  0.51100000000E-03 0.  1.
</event>
<event>
 8    1  0.1207611E+005  0.1043930E+01  0.7957747E-01            NaN
         13   -1    0    0    0    0  0.00000000000E+00  0.00000000000E+00  0.74505805969E-08  0.10566000000E+00  0.10566000000E+00 0. -1.
     999900   -1    0    0    0    0 -0.00000000000E+00 -0.00000000000E+00 -0.74505805969E-08  0.93827000000E+00  0.93827000000E+00 0.  1.
     999902    2    1    2    0    0 -0.21428142142E-01  0.10754307586E-01 -0.39334694382E-02  0.10196340623E+01  0.10193445582E+01 0.  0.
     999903    2    3    3    0    0 -0.72638101173E-01  0.70007941903E-01 -0.84547873733E-01  0.13248574591E+00  0.15057365117E-01 0.  0.
         14    1    1    2    0    0  0.21428142142E-01 -0.10754307586E-01  0.39334694382E-02  0.24295937709E-01  0.00000000000E+00 0.  1.
     999901    1    3    3    0    0  0.51209959031E-01 -0.59253634317E-01  0.80614404294E-01  0.88714831638E+00  0.88000000000E+00 0. -1.
        -11    1    4    4    0    0 -0.17400361995E-01  0.24347601014E-01 -0.19684149618E-01  0.35823248595E-01  0.51100000000E-03 0. -1.
         11    1    4    4    0    0 -0.55237739178E-01  0.45660340888E-01 -0.64863724114E-01  0.96662497312E-01  0.51100000000E-03 0.  1.
</event>
<event>
 8    1  0.1207611E+005  0.1043930E+01  0.7957747E-01            NaN
         13   -1    0    0    0    0  0.00000000000E+00  0.00000000000E+00  0.74505805969E-08  0.10566000000E+00  0.10566000000E+00 0.  1.
     999900   -1    0    0    0    0 -0.00000000000E+00 -0.00000000000E+00 -0.74505805969E-08  0.93827000000E+00  0.93827000000E+00 0.  1.
     999902    2    1    2    0    0  0.93216704616E-02  0.10560987714E-01  0.19051800234E-01  0.10202361381E+01  0.10199609690E+01 0.  0.
     999903    2    3    3    0    0  0.64697716400E-01 -0.68392477596E-01  0.90568587525E-01  0.13208366972E+00  0.19496185806E-01 0.  0.
         14    1    1    2    0    0 -0.93216704616E-02 -0.10560987714E-01 -0.19051800234E-01  0.23693861944E-01  0.00000000000E+00 0. -1.
     999901    1    3    3    0    0 -0.55376045939E-01  0.78953465310E-01 -0.71516787291E-01  0.88815246834E+00  0.88000000000E+00 0.  1.
        -11    1    4    4    0    0  0.42612182435E-01 -0.48894697737E-01  0.49755150074E-01  0.81745493077E-01  0.51100000000E-03 0. -1.
         11    1    4    4    0    0  0.22085533966E-01 -0.19497779859E-01  0.40813437451E-01  0.50338176642E-01  0.51100000000E-03 0.  1.
</event>
<event>
 8    1  0.1207611E+005  0.1043930E+01  0.7957747E-01            NaN
         13   -1    0    0    0    0  0.00000000000E+00  0.00000000000E+00  0.74505805969E-08  0.10566000000E+00  0.10566000000E+00 0.  1.
     999900   -1    0    0    0    0 -0.00000000000E+00 -0.00000000000E+00 -0.74505805969E-08  0.93827000000E+00  0.93827000000E+00 0. -1.
     999902    2    1    2    0    0 -0.11329002026E-01 -0.20479137988E-01 -0.58210325143E-02  0.10198130806E+01  0.10195278778E+01 0.  0.
     999903    2    3    3    0    0 -0.67091781182E-01  0.93806991690E-01 -0.55093261422E-01  0.12930841501E+00  0.19604589924E-01 0.  0.
         14    1    1    2    0    0  0.11329002026E-01  0.20479137988E-01  0.58210325143E-02  0.24116919355E-01  0.00000000000E+00 0.  1.
     999901    1    3    3    0    0  0.55762779157E-01 -0.11428612968E+00  0.49272228908E-01  0.89050466564E+00  0.88000000000E+00 0.  1.
        -11    1    4    4    0    0 -0.10985223951E-01  0.29340781896E-01 -0.11584667116E-01  0.33406919354E-01  0.51100000000E-03 0.  1.
         11    1    4    4    0    0 -0.56106557231E-01  0.64466209794E-01 -0.43508594306E-01  0.95901495656E-01  0.51100000000E-03 0. -1.
</event>
<event>
 8    1  0.1207611E+005  0.1043930E+01  0.7957747E-01            NaN
         13   -1    0    0    0    0  0.00000000000E+00  0.00000000000E+00  0.74505805969E-08  0.10566000000E+00  0.10566000000E+00 0. -1.
     999900   -1    0    0    0    0 -0.00000000000E+00 -0.00000000000E+00 -0.74505805969E-08  0.93827000000E+00  0.93827000000E+00 0.  1.
     999902    2    1    2    0    0 -0.17519446339E-01  0.47789532879E-02 -0.15433755268E-01  0.10200978747E+01  0.10198194467E+01 0.  0.
     999903    2    3    3    0    0 -0.21931804893E-01 -0.12680361918E+00  0.20380106122E-03  0.13016643046E+00  0.19572842904E-01 0.  0.
         14    1    1    2    0    0  0.17519446339E-01 -0.47789532879E-02  0.15433755268E-01  0.23832125298E-01  0.00000000000E+00 0. -1.
     999901    1    3    3    0    0  0.44123585541E-02  0.13158257247E+00 -0.15637556329E-01  0.88993144424E+00  0.88000000000E+00 0.  1.
        -11    1    4    4    0    0 -0.13127421762E-02 -0.62507514748E-01  0.28850996410E-02  0.62589916224E-01  0.51100000000E-03 0. -1.
         11    1    4    4    0    0 -0.20619062717E-01 -0.64296104435E-01 -0.26812985798E-02  0.67576514233E-01  0.51100000000E-03 0.  1.
</event>
<event>
 8    1  0.1207611E+005  0.1043930E+01  0.7957747E-01            NaN
         13   -1    0    0    0    0  0.00000000000E+00  0.00000000000E+00  0.74505805969E-08  0.10566000000E+00  0.10566000000E+00 0.  1.
     999900   -1    0    0    0    0 -0.00000000000E+00 -0.00000000000E+00 -0.74505805969E-08  0.93827000000E+00  0.93827000000E+00 0. -1.
     999902    2    1    2    0    0  0.73535676223E-02  0.17769841631E-01 -0.13932579495E-01  0.10201821791E+01  0.10199057405E+01 0.  0.
     999903    2    3    3    0    0 -0.12507591345E+00 -0.16348576836E-01  0.18119714140E-01  0.12904302973E+00  0.20310573361E-01 0.  0.
         14    1    1    2    0    0 -0.73535676223E-02 -0.17769841631E-01  0.13932579495E-01  0.23747820948E-01  0.00000000000E+00 0.  1.
     999901    1    3    3    0    0  0.13242948107E+00  0.34118418468E-01 -0.32052293635E-01  0.89113914933E+00  0.88000000000E+00 0. -1.
        -11    1    4    4    0    0 -0.87911488838E-01 -0.60628339529E-02  0.48357880451E-02  0.88254369819E-01  0.51100000000E-03 0.  1.
         11    1    4    4    0    0 -0.37164424612E-01 -0.10285742883E-01  0.13283926095E-01  0.40788659906E-01  0.51100000000E-03 0. -1.
</event>
<event>
 8    1  0.1207611E+005  0.1043930E+01  0.7957747E-01            NaN
         13   -1    0    0    0    0  0.00000000000E+00  0.00000000000E+00  0.74505805969E-08  0.10566000000E+00  0.10566000000E+00 0.  1.
     999900   -1    0    0    0    0 -0.00000000000E+00 -0.00000000000E+00 -0.74505805969E-08  0.93827000000E+00  0.93827000000E+00 0. -1.
     999902    2    1    2    0    0  0.73115013636E-02  0.22252841392E-01 -0.31654386621E-02  0.10202938623E+01  0.10200200481E+01 0.  0.
     999903    2    3    3    0    0  0.61902556497E-01  0.17976146015E-01  0.11219530053E+00  0.13107703074E+00  0.20936432357E-01 0.  0.
         14    1    1    2    0    0 -0.73115013636E-02 -0.22252841392E-01  0.31654386621E-02  0.23636137674E-01  0.00000000000E+00 0.  1.
     999901    1    3    3    0    0 -0.54591055133E-01  0.42766953772E-02 -0.11536073920E+00  0.88921683158E+00  0.88000000000E+00 0. -1.
        -11    1    4    4    0    0  0.25902737232E-01  0.17807848782E-01  0.58811417670E-01  0.66686694653E-01  0.51100000000E-03 0. -1.
         11    1    4    4    0    0  0.35999819265E-01  0.16829723251E-03  0.53383882865E-01  0.64390336090E-01  0.51100000000E-03 0.  1.
</event>
<event>
 8    1  0.1207611E+005  0.1043930E+01  0.7957747E-01            NaN
         13   -1    0    0    0    0  0.00000000000E+00  0.00000000000E+00  0.74505805969E-08  0.10566000000E+00  0.10566000000E+00 0. -1.
     999900   -1    0    0    0    0 -0.00000000000E+00 -0.00000000000E+00 -0.74505805969E-08  0.93827000000E+00  0.93827000000E+00 0.  1.
     999902    2    1    2    0    0 -0.24193436804E-01  0.31693401969E-02  0.87207879814E-02  0.10180182412E+01  0.10176884200E+01 0.  0.
     999903    2    3    3    0    0 -0.26823205574E-01 -0.62005863389E-01 -0.10698299997E+00  0.12805077583E+00  0.19683177003E-01 0.  0.
         14    1    1    2    0    0  0.24193436804E-01 -0.31693401969E-02 -0.87207879814E-02  0.25911758811E-01  0.00000000000E+00 0.  1.
     999901    1    3    3    0    0  0.26297687701E-02  0.65175203586E-01  0.11570378795E+00  0.88996746536E+00  0.88000000000E+00 0. -1.
        -11    1    4    4    0    0 -0.26040195277E-02 -0.25018100383E-01 -0.49537877019E-01  0.55560315379E-01  0.51100000000E-03 0. -1.
         11    1    4    4    0    0 -0.24219186047E-01 -0.36987763006E-01 -0.57445122951E-01  0.72490460453E-01  0.51100000000E-03 0.  1.
</event>
<event>
 8    1  0.1207611E+005  0.1043930E+01  0.7957747E-01            NaN
         13   -1    0    0    0    0  0.00000000000E+00  0.00000000000E+00  0.74505805969E-08  0.10566000000E+00  0.10566000000E+00 0.  1.
     999900   -1    0    0    0    0 -0.00000000000E+00 -0.00000000000E+00 -0.74505805969E-08  0.93827000000E+00  0.93827000000E+00 0.  1.
     999902    2    1    2    0    0  0.21784632073E-02 -0.73467416250E-02  0.24353028983E-01  0.10183998152E+01  0.10180797578E+01 0.  0.
     999903    2    3    3    0    0  0.26128695549E-01 -0.11842474464E+00  0.44854822265E-01  0.13085699376E+00  0.20111411247E-01 0.  0.
         14    1    1    2    0    0 -0.21784632073E-02  0.73467416250E-02 -0.24353028983E-01  0.25530184784E-01  0.00000000000E+00 0.  1.
     999901    1    3    3    0    0 -0.23950232342E-01  0.11107800302E+00 -0.20501793281E-01  0.88754282145E+00  0.88000000000E+00 0. -1.
        -11    1    4    4    0    0  0.12786500514E-03 -0.16318530208E-01  0.12728012183E-01  0.20702033541E-01  0.51100000000E-03 0.  1.
         11    1    4    4    0    0  0.26000830544E-01 -0.10210621443E+00  0.32126810082E-01  0.11015496022E+00  0.51100000000E-03 0. -1.
</event>
<event>
 8    1  0.1207611E+005  0.1043930E+01  0.7957747E-01            NaN
         13   -1    0    0    0    0  0.00000000000E+00  0.00000000000E+00  0.74505805969E-08  0.10566000000E+00  0.10566000000E+00 0. -1.
     999900   -1    0    0    0    0 -0.00000000000E+00 -0.00000000000E+00 -0.74505805969E-08  0.93827000000E+00  0.93827000000E+00 0. -1.
     999902    2    1    2    0    0  0.12558072457E-01 -0.47349574413E-02  0.19499850839E-01  0.10202578816E+01  0.10199832233E+01 0.  0.
     999903    2    3    3    0    0 -0.90503124790E-01 -0.36987272614E-02 -0.87849406800E-01  0.12776331734E+00  0.20036237253E-01 0.  0.
         14    1    1    2    0    0 -0.12558072457E-01  0.47349574413E-02 -0.19499850839E-01  0.23672118379E-01  0.00000000000E+00 0.  1.
     999901    1    3    3    0    0  0.10306119725E+00 -0.10362301799E-02  0.10734925764E+00  0.89249456428E+00  0.88000000000E+00 0.  1.
        -11    1    4    4    0    0 -0.49790581864E-01 -0.47460218524E-02 -0.35035252308E-01  0.61068459872E-01  0.51100000000E-03 0.  1.
         11    1    4    4    0    0 -0.40712542926E-01  0.10472945911E-02 -0.52814154491E-01  0.66694857471E-01  0.51100000000E-03 0. -1.
</event>
<event>
 8    1  0.1207611E+005  0.1043930E+01  0.7957747E-01            NaN
         13   -1    0    0    0    0  0.00000000000E+00  0.00000000000E+00  0.74505805969E-08  0.10566000000E+00  0.10566000000E+00 0. -1.
     999900   -1    0    0    0    0 -0.00000000000E+00 -0.00000000000E+00 -0.74505805969E-08  0.93827000000E+00  0.93827000000E+00 0. -1.
     999902    2    1    2    0    0  0.18691233165E-01 -0.93248321272E-03  0.15131351331E-01  0.10198636435E+01  0.10195796496E+01 0.  0.
     999903    2    3    3    0    0  0.11386306160E+00 -0.27545194715E-01  0.57680493968E-01  0.13331057522E+00  0.26853966748E-01 0.  0.
         14    1    1    2    0    0 -0.18691233165E-01  0.93248321272E-03 -0.15131351331E-01  0.24066356502E-01  0.00000000000E+00 0.  1.
     999901    1    3    3    0    0 -0.95171828440E-01  0.26612711502E-01 -0.42549142636E-01  0.88655306828E+00  0.88000000000E+00 0.  1.
        -11    1    4    4    0    0  0.76799943565E-01 -0.12089130580E-01  0.25418733055E-01  0.81797014132E-01  0.51100000000E-03 0. -1.
         11    1    4    4    0    0  0.37063118040E-01 -0.15456064135E-01  0.32261760913E-01  0.51513561084E-01  0.51100000000E-03 0.  1.
</event>
<event>
 8    1  0.1258693E+005  0.1043930E+01  0.7957747E-01            NaN
         13   -1    0    0    0    0  0.00000000000E+00  0.00000000000E+00  0.74505805969E-08  0.10566000000E+00  0.10566000000E+00 0.  1.
     999900   -1    0    0    0    0 -0.00000000000E+00 -0.00000000000E+00 -0.74505805969E-08  0.93827000000E+00  0.93827000000E+00 0. -1.
     999902    2    1    2    0    0  0.20721936270E-01  0.19727634896E-01  0.97171485519E-02  0.10137140903E+01  0.10132636655E+01 0.  0.
     999903    2    3    3    0    0  0.28759765464E-01  0.70026828966E-01 -0.98436642607E-01  0.12563084076E+00  0.19038241972E-01 0.  0.
         14    1    1    2    0    0 -0.20721936270E-01 -0.19727634896E-01 -0.97171485519E-02  0.30215909673E-01  0.00000000000E+00 0. -1.
     999901    1    3    3    0    0 -0.80378291943E-02 -0.50299194070E-01  0.10815379116E+00  0.88808324957E+00  0.88000000000E+00 0.  1.
        -11    1    4    4    0    0  0.24975136097E-01  0.36102618881E-01 -0.56746833325E-01  0.71746921373E-01  0.51100000000E-03 0.  1.
         11    1    4    4    0    0  0.37846293667E-02  0.33924210086E-01 -0.41689809282E-01  0.53883919386E-01  0.51100000000E-03 0. -1.
</event>
<event>
 8    1  0.1207611E+005  0.1043930E+01  0.7957747E-01            NaN
         13   -1    0    0    0    0  0.00000000000E+00  0.00000000000E+00  0.74505805969E-08  0.10566000000E+00  0.10566000000E+00 0.  1.
     999900   -1    0    0    0    0 -0.00000000000E+00 -0.00000000000E+00 -0.74505805969E-08  0.93827000000E+00  0.93827000000E+00 0. -1.
     999902    2    1    2    0    0 -0.88216627801E-03 -0.20469591626E-01  0.98528925584E-02  0.10211954032E+01  0.10209423048E+01 0.  0.
     999903    2    3    3    0    0 -0.70541663496E-01 -0.10203727570E+00 -0.44222560967E-01  0.13303444523E+00  0.18836050457E-01 0.  0.
         14    1    1    2    0    0  0.88216627801E-03  0.20469591626E-01 -0.98528925584E-02  0.22734596773E-01  0.00000000000E+00 0. -1.
     999901    1    3    3    0    0  0.69659497218E-01  0.81567684079E-01  0.54075453525E-01  0.88816095800E+00  0.88000000000E+00 0.  1.
        -11    1    4    4    0    0 -0.46617880399E-01 -0.52338359281E-01 -0.28631769555E-01  0.75713737023E-01  0.51100000000E-03 0. -1.
         11    1    4    4    0    0 -0.23923783097E-01 -0.49698916424E-01 -0.15590791411E-01  0.57320708206E-01  0.51100000000E-03 0.  1.
</event>
<event>
 8    1  0.1207611E+005  0.1043930E+01  0.7957747E-01            NaN
         13   -1    0    0    0    0  0.00000000000E+00  0.00000000000E+00  0.74505805969E-08  0.10566000000E+00  0.10566000000E+00 0.  1.
     999900   -1    0    0    0    0 -0.00000000000E+00 -0.00000000000E+00 -0.74505805969E-08  0.93827000000E+00  0.93827000000E+00 0.  1.
     999902    2    1    2    0    0  0.14339535379E-01  0.14133454032E-01  0.11267147608E-01  0.10208578217E+01  0.10205970638E+01 0.  0.
     999903    2    3    3    0    0 -0.12487545502E+00  0.42241901878E-02  0.28825249919E-01  0.12968595608E+00  0.19386312705E-01 0.  0.
         14    1    1    2    0    0 -0.14339535379E-01 -0.14133454032E-01 -0.11267147608E-01  0.23072178333E-01  0.00000000000E+00 0. -1.
     999901    1    3    3    0    0  0.13921499040E+00  0.99092638446E-02 -0.17558102311E-01  0.89117186559E+00  0.88000000000E+00 0.  1.
        -11    1    4    4    0    0 -0.39503530396E-01 -0.73772142762E-02  0.68470958050E-02  0.40768812175E-01  0.51100000000E-03 0.  1.
         11    1    4    4    0    0 -0.85371924629E-01  0.11601404464E-01  0.21978154114E-01  0.88917143902E-01  0.51100000000E-03 0. -1.
</event>
<event>
 8    1  0.1207611E+005  0.1043930E+01  0.7957747E-01            NaN
         13   -1    0    0    0    0  0.00000000000E+00  0.00000000000E+00  0.74505805969E-08  0.10566000000E+00  0.10566000000E+00 0.  1.
     999900   -1    0    0    0    0 -0.00000000000E+00 -0.00000000000E+00 -0.74505805969E-08  0.93827000000E+00  0.93827000000E+00 0. -1.
     999902    2    1    2    0    0 -0.22141829121E-01 -0.11942387588E-01 -0.68430598081E-02  0.10178587767E+01  0.10175248304E+01 0.  0.
     999903    2    3    3    0    0  0.21472247339E-03 -0.54740954410E-02  0.12481538107E+00  0.12776013087E+00  0.26716284604E-01 0.  0.
         14    1    1    2    0    0  0.22141829121E-01  0.11942387588E-01  0.68430598081E-02  0.26071223324E-01  0.00000000000E+00 0. -1.
     999901    1    3    3    0    0 -0.22356551594E-01 -0.64682921466E-02 -0.13165844088E+00  0.89009864580E+00  0.88000000000E+00 0. -1.
        -11    1    4    4    0    0 -0.65794362540E-02  0.19716808967E-02  0.10748258203E+00  0.10770303185E+00  0.51100000000E-03 0. -1.
         11    1    4    4    0    0  0.67941587273E-02 -0.74457763377E-02  0.17332799035E-01  0.20057099030E-01  0.51100000000E-03 0.  1.
</event>
<event>
 8    1  0.1207611E+005  0.1043930E+01  0.7957747E-01            NaN
         13   -1    0    0    0    0  0.00000000000E+00  0.00000000000E+00  0.74505805969E-08  0.10566000000E+00  0.10566000000E+00 0.  1.
     999900   -1    0    0    0    0 -0.00000000000E+00 -0.00000000000E+00 -0.74505805969E-08  0.93827000000E+00  0.93827000000E+00 0.  1.
     999902    2    1    2    0    0 -0.14536027182E-01 -0.19431029064E-01 -0.35972908446E-03  0.10196608760E+01  0.10193720182E+01 0.  0.
     999903    2    3    3    0    0  0.42006010561E-01  0.10861809161E+00  0.47623075281E-01  0.12730672605E+00  0.19407484391E-01 0.  0.
         14    1    1    2    0    0  0.14536027182E-01  0.19431029064E-01  0.35972908446E-03  0.24269124042E-01  0.00000000000E+00 0. -1.
     999901    1    3    3    0    0 -0.56542037743E-01 -0.12804912068E+00 -0.47982804365E-01  0.89235414991E+00  0.88000000000E+00 0. -1.
        -11    1    4    4    0    0  0.36331027687E-01  0.84664549497E-01  0.45033385831E-01  0.10254899548E+00  0.51100000000E-03 0. -1.
         11    1    4    4    0    0  0.56749828741E-02  0.23953542116E-01  0.25896894499E-02  0.24757730570E-01  0.51100000000E-03 0.  1.
</event>
<event>
 8    1  0.1207611E+005  0.1043930E+01  0.7957747E-01            NaN
         13   -1    0    0    0    0  0.00000000000E+00  0.00000000000E+00  0.74505805969E-08  0.10566000000E+00  0.10566000000E+00 0.  1.
     999900   -1    0    0    0    0 -0.00000000000E+00 -0.00000000000E+00 -0.74505805969E-08  0.93827000000E+00  0.93827000000E+00 0.  1.
     999902    2    1    2    0    0 -0.14713901076E-01 -0.11929692181E-01 -0.14053114901E-01  0.10203438499E+01  0.10200712061E+01 0.  0.
     999903    2    3    3    0    0  0.12008734609E+00 -0.25313025503E-01  0.33225322886E-01  0.12872412119E+00  0.20106151909E-01 0.  0.
         14    1    1    2    0    0  0.14713901076E-01  0.11929692181E-01  0.14053114901E-01  0.23586150149E-01  0.00000000000E+00 0.  1.
     999901    1    3    3    0    0 -0.13480124717E+00  0.13383333321E-01 -0.47278437787E-01  0.89161972866E+00  0.88000000000E+00 0.  1.
        -11    1    4    4    0    0  0.94490380702E-01 -0.26176225529E-01  0.31758821988E-01  0.10306556517E+00  0.51100000000E-03 0.  1.
         11    1    4    4    0    0  0.25596965392E-01  0.86320002596E-03  0.14665008978E-02  0.25658556028E-01  0.51100000000E-03 0. -1.
</event>
<event>
 8    1  0.1207611E+005  0.1043930E+01  0.7957747E-01            NaN
         13   -1    0    0    0    0  0.00000000000E+00  0.00000000000E+00  0.74505805969E-08  0.10566000000E+00  0.10566000000E+00 0. -1.
     999900   -1    0    0    0    0 -0.00000000000E+00 -0.00000000000E+00 -0.74505805969E-08  0.93827000000E+00  0.93827000000E+00 0.  1.
     999902    2    1    2    0    0 -0.21225814084E-01 -0.99942386712E-03 -0.10375309885E-01  0.10202829899E+01  0.10200089207E+01 0.  0.
     999903    2    3    3    0    0 -0.12692566490E+00  0.17286164636E-01  0.29030254117E-01  0.13289377445E+00  0.20225324127E-01 0.  0.
         14    1    1    2    0    0  0.21225814084E-01  0.99942386712E-03  0.10375309885E-01  0.23647010103E-01  0.00000000000E+00 0.  1.
     999901    1    3    3    0    0  0.10569985082E+00 -0.18285588503E-01 -0.39405564003E-01  0.88738921544E+00  0.88000000000E+00 0.  1.
        -11    1    4    4    0    0 -0.77160370500E-01  0.50674627506E-03  0.17347558313E-01  0.79089686230E-01  0.51100000000E-03 0.  1.
         11    1    4    4    0    0 -0.49765294401E-01  0.16779418361E-01  0.11682695805E-01  0.53804088224E-01  0.51100000000E-03 0. -1.
</event>
<event>
 8    1  0.1207611E+005  0.1043930E+01  0.7957747E-01            NaN
         13   -1    0    0    0    0  0.00000000000E+00  0.00000000000E+00  0.74505805969E-08  0.10566000000E+00  0.10566000000E+00 0.  1.
     999900   -1    0    0    0    0 -0.00000000000E+00 -0.00000000000E+00 -0.74505805969E-08  0.93827000000E+00  0.93827000000E+00 0.  1.
     999902    2    1    2    0    0  0.35259902865E-02 -0.54504230681E-02  0.22223189199E-01  0.10207781133E+01  0.10205155299E+01 0.  0.
     999903    2    3    3    0    0  0.11900318751E+00 -0.52780721049E-01  0.33405107427E-02  0.13177209773E+00  0.20128675468E-01 0.  0.
         14    1    1    2    0    0 -0.35259902865E-02  0.54504230681E-02 -0.22223189199E-01  0.23151886690E-01  0.00000000000E+00 0. -1.
     999901    1    3    3    0    0 -0.11547719723E+00  0.47330297981E-01  0.18882678457E-01  0.88900601558E+00  0.88000000000E+00 0.  1.
        -11    1    4    4    0    0  0.47928976987E-01 -0.29020693187E-01 -0.55387455835E-02  0.56305650620E-01  0.51100000000E-03 0. -1.
         11    1    4    4    0    0  0.71074210526E-01 -0.23760027862E-01  0.88792563261E-02  0.75466447113E-01  0.51100000000E-03 0.  1.
</event>
<event>
 8    1  0.1207611E+005  0.1043930E+01  0.7957747E-01            NaN
         13   -1    0    0    0    0  0.00000000000E+00  0.00000000000E+00  0.74505805969E-08  0.10566000000E+00  0.10566000000E+00 0. -1.
     999900   -1    0    0    0    0 -0.00000000000E+00 -0.00000000000E+00 -0.74505805969E-08  0.93827000000E+00  0.93827000000E+00 0. -1.
     999902    2    1    2    0    0 -0.11434597492E-01 -0.20786334878E-01 -0.21367892647E-02  0.10201101006E+01  0.10198319616E+01 0.  0.
     999903    2    3    3    0    0 -0.71270329964E-01 -0.90348112471E-01 -0.63723371592E-01  0.13319857015E+00  0.20951125094E-01 0.  0.
         14    1    1    2    0    0  0.11434597492E-01  0.20786334878E-01  0.21367892647E-02  0.23819899366E-01  0.00000000000E+00 0.  1.
     999901    1    3    3    0    0  0.59835732473E-01  0.69561777594E-01  0.61586582327E-01  0.88691153048E+00  0.88000000000E+00 0.  1.
        -11    1    4    4    0    0 -0.27502090740E-01 -0.45496481279E-01 -0.38505247327E-01  0.65644573246E-01  0.51100000000E-03 0. -1.
         11    1    4    4    0    0 -0.43768239224E-01 -0.44851631192E-01 -0.25218124264E-01  0.67553996905E-01  0.51100000000E-03 0.  1.
</event>
<event>
 8    1  0.1207611E+005  0.1043930E+01  0.7957747E-01            NaN
         13   -1    0    0    0    0  0.00000000000E+00  0.00000000000E+00  0.74505805969E-08  0.10566000000E+00  0.10566000000E+00 0. -1.
     999900   -1    0    0    0    0 -0.00000000000E+00 -0.00000000000E+00 -0.74505805969E-08  0.93827000000E+00  0.93827000000E+00 0.  1.
     999902    2    1    2    0    0  0.22697525271E-01  0.17547558286E-02 -0.55144121835E-02  0.10205063888E+01  0.10202375331E+01 0.  0.
     999903    2    3    3    0    0  0.74700559077E-01 -0.54724039654E-01 -0.93123039119E-01  0.13282996046E+00  0.19924957661E-01 0.  0.
         14    1    1    2    0    0 -0.22697525271E-01 -0.17547558286E-02  0.55144121835E-02  0.23423611233E-01  0.00000000000E+00 0.  1.
     999901    1    3    3    0    0 -0.52003033806E-01  0.56478795482E-01  0.87608626935E-01  0.88767642831E+00  0.88000000000E+00 0. -1.
        -11    1    4    4    0    0  0.22478618205E-01 -0.13241287327E-01 -0.14954359631E-01  0.30075138560E-01  0.51100000000E-03 0. -1.
         11    1    4    4    0    0  0.52221940873E-01 -0.41482752327E-01 -0.78168679488E-01  0.10275482190E+00  0.51100000000E-03 0.  1.
</event>
<event>
 8    1  0.1207611E+005  0.1043930E+01  0.7957747E-01            NaN
         13   -1    0    0    0    0  0.00000000000E+00  0.00000000000E+00  0.74505805969E-08  0.10566000000E+00  0.10566000000E+00 0. -1.
     999900   -1    0    0    0    0 -0.00000000000E+00 -0.00000000000E+00 -0.74505805969E-08  0.93827000000E+00  0.93827000000E+00 0. -1.
     999902    2    1    2    0    0 -0.21525627121E-01 -0.89741632563E-02  0.66915886209E-02  0.10196675684E+01  0.10193788719E+01 0.  0.
     999903    2    3    3    0    0  0.96599600648E-01 -0.26093099106E-02  0.82408391722E-01  0.12852946739E+00  0.19758279722E-01 0.  0.
         14    1    1    2    0    0  0.21525627121E-01  0.89741632563E-02 -0.66915886209E-02  0.24262431604E-01  0.00000000000E+00 0.  1.
     999901    1    3    3    0    0 -0.11812522777E+00 -0.63648533457E-02 -0.75716803101E-01  0.89113810101E+00  0.88000000000E+00 0. -1.
        -11    1    4    4    0    0  0.44621922489E-01  0.59173261856E-02  0.29193258948E-01  0.53652942182E-01  0.51100000000E-03 0.  1.
         11    1    4    4    0    0  0.51977678159E-01 -0.85266360962E-02  0.53215132774E-01  0.74876525207E-01  0.51100000000E-03 0. -1.
</event>
<event>
 8    1  0.1207611E+005  0.1043930E+01  0.7957747E-01            NaN
         13   -1    0    0    0    0  0.00000000000E+00  0.00000000000E+00  0.74505805969E-08  0.10566000000E+00  0.10566000000E+00 0. -1.
     999900   -1    0    0    0    0 -0.00000000000E+00 -0.00000000000E+00 -0.74505805969E-08  0.93827000000E+00  0.93827000000E+00 0.  1.
     999902    2    1    2    0    0 -0.17448948415E-01  0.12122993017E-01 -0.91934521262E-02  0.10207793559E+01  0.10205168010E+01 0.  0.
     999903    2    3    3    0    0 -0.75811770316E-01  0.86016001589E-01  0.62851102871E-01  0.13282844869E+00  0.23387146089E-01 0.  0.
         14    1    1    2    0    0  0.17448948415E-01 -0.12122993017E-01  0.91934521262E-02  0.23150644105E-01  0.00000000000E+00 0. -1.
     999901    1    3    3    0    0  0.58362821901E-01 -0.73893008572E-01 -0.72044554997E-01  0.88795090720E+00  0.88000000000E+00 0.  1.
        -11    1    4    4    0    0 -0.23449723998E-01  0.37795008321E-01  0.14539595141E-01  0.46797576406E-01  0.51100000000E-03 0.  1.
         11    1    4    4    0    0 -0.52362046318E-01  0.48220993268E-01  0.48311507729E-01  0.86030872287E-01  0.51100000000E-03 0. -1.
</event>
<event>
 8    1  0.1207611E+005  0.1043930E+01  0.7957747E-01            NaN
         13   -1    0    0    0    0  0.00000000000E+00  0.00000000000E+00  0.74505805969E-08  0.10566000000E+00  0.10566000000E+00 0.  1.
     999900   -1    0    0    0    0 -0.00000000000E+00 -0.00000000000E+00 -0.74505805969E-08  0.93827000000E+00  0.93827000000E+00 0. -1.
     999902    2    1    2    0    0 -0.41817341193E-02 -0.21950196002E-01  0.73539820845E-02  0.10204059898E+01  0.10201347974E+01 0.  0.
     999903    2    3    3    0    0  0.85336544178E-02 -0.46293582342E-01 -0.12032714375E+00  0.13076743875E+00  0.20139078684E-01 0.  0.
         14    1    1    2    0    0  0.41817341193E-02  0.21950196002E-01 -0.73539820845E-02  0.23524010229E-01  0.00000000000E+00 0. -1.
     999901    1    3    3    0    0 -0.12715388537E-01  0.24343386340E-01  0.12768112584E+00  0.88963855102E+00  0.88000000000E+00 0.  1.
        -11    1    4    4    0    0  0.95277213057E-02 -0.45468923768E-01 -0.98615065002E-01  0.10901097499E+00  0.51100000000E-03 0.  1.
         11    1    4    4    0    0 -0.99406688795E-03 -0.82465857389E-03 -0.21712078751E-01  0.21756463762E-01  0.51100000000E-03 0. -1.
</event>
<event>
 8    1  0.1207611E+005  0.1043930E+01  0.7957747E-01            NaN
         13   -1    0    0    0    0  0.00000000000E+00  0.00000000000E+00  0.74505805969E-08  0.10566000000E+00  0.10566000000E+00 0.  1.
     999900   -1    0    0    0    0 -0.00000000000E+00 -0.00000000000E+00 -0.74505805969E-08  0.93827000000E+00  0.93827000000E+00 0.  1.
     999902    2    1    2    0    0 -0.20330143252E-01  0.31667286009E-02 -0.12034307429E-01  0.10200937367E+01  0.10198152108E+01 0.  0.
     999903    2    3    3    0    0 -0.53163824025E-01  0.11536698867E+00 -0.32446312413E-01  0.13212774694E+00  0.16402562658E-01 0.  0.
         14    1    1    2    0    0  0.20330143252E-01 -0.31667286009E-02  0.12034307429E-01  0.23836263340E-01  0.00000000000E+00 0.  1.
     999901    1    3    3    0    0  0.32833680773E-01 -0.11220026007E+00  0.20412004984E-01  0.88796598972E+00  0.88000000000E+00 0. -1.
        -11    1    4    4    0    0 -0.28863360289E-02  0.16499649005E-01 -0.78963830675E-02  0.18525208218E-01  0.51100000000E-03 0.  1.
         11    1    4    4    0    0 -0.50277487996E-01  0.98867339668E-01 -0.24549929345E-01  0.11360253872E+00  0.51100000000E-03 0. -1.
</event>
<event>
 8    1  0.1207611E+005  0.1043930E+01  0.7957747E-01            NaN
         13   -1    0    0    0    0  0.00000000000E+00  0.00000000000E+00  0.74505805969E-08  0.10566000000E+00  0.10566000000E+00 0.  1.
     999900   -1    0    0    0    0 -0.00000000000E+00 -0.00000000000E+00 -0.74505805969E-08  0.93827000000E+00  0.93827000000E+00 0.  1.
     999902    2    1    2    0    0 -0.56272584617E-02 -0.21986845822E-01  0.66612679917E-02  0.10202770949E+01  0.10200028875E+01 0.  0.
     999903    2    3    3    0    0  0.31636825354E-01  0.18696997349E-01 -0.12225039066E+00  0.12917552789E+00  0.19765944472E-01 0.  0.
         14    1    1    2    0    0  0.56272584617E-02  0.21986845822E-01 -0.66612679917E-02  0.23652905070E-01  0.00000000000E+00 0.  1.
     999901    1    3    3    0    0 -0.37264083815E-01 -0.40683843171E-01  0.12891165865E+00  0.89110156704E+00  0.88000000000E+00 0. -1.
        -11    1    4    4    0    0  0.14413314403E-01  0.90638000164E-02 -0.88084938996E-01  0.89716852941E-01  0.51100000000E-03 0.  1.
         11    1    4    4    0    0  0.17223510951E-01  0.96331973326E-02 -0.34165451667E-01  0.39458674952E-01  0.51100000000E-03 0. -1.
</event>
<event>
 8    1  0.1207611E+005  0.1043930E+01  0.7957747E-01            NaN
         13   -1    0    0    0    0  0.00000000000E+00  0.00000000000E+00  0.74505805969E-08  0.10566000000E+00  0.10566000000E+00 0.  1.
     999900   -1    0    0    0    0 -0.00000000000E+00 -0.00000000000E+00 -0.74505805969E-08  0.93827000000E+00  0.93827000000E+00 0.  1.
     999902    2    1    2    0    0 -0.99095220340E-02 -0.73859155531E-02  0.20314544768E-01  0.10201512047E+01  0.10198740360E+01 0.  0.
     999903    2    3    3    0    0  0.72364503191E-01 -0.97055236982E-01 -0.41728732160E-01  0.12961262014E+00  0.20045045850E-01 0.  0.
         14    1    1    2    0    0  0.99095220340E-02  0.73859155531E-02 -0.20314544768E-01  0.23778795273E-01  0.00000000000E+00 0. -1.
     999901    1    3    3    0    0 -0.82274025225E-01  0.89669321429E-01  0.62043276929E-01  0.89053858459E+00  0.88000000000E+00 0. -1.
        -11    1    4    4    0    0  0.54558212094E-01 -0.61899408766E-01 -0.35007838251E-01  0.89632277514E-01  0.51100000000E-03 0.  1.
         11    1    4    4    0    0  0.17806291097E-01 -0.35155828216E-01 -0.67208939093E-02  0.39980342622E-01  0.51100000000E-03 0. -1.
</event>
<event>
 8    1  0.1207611E+005  0.1043930E+01  0.7957747E-01            NaN
         13   -1    0    0    0    0  0.00000000000E+00  0.00000000000E+00  0.74505805969E-08  0.10566000000E+00  0.10566000000E+00 0.  1.
     999900   -1    0    0    0    0 -0.00000000000E+00 -0.00000000000E+00 -0.74505805969E-08  0.93827000000E+00  0.93827000000E+00 0. -1.
     999902    2    1    2    0    0 -0.39605514607E-02 -0.15841240121E-01  0.17634574427E-01  0.10198965011E+01  0.10196132913E+01 0.  0.
     999903    2    3    3    0    0 -0.35134337308E-01  0.74490554899E-01 -0.95587759701E-01  0.12751153084E+00  0.18409406978E-01 0.  0.
         14    1    1    2    0    0  0.39605514607E-02  0.15841240121E-01 -0.17634574427E-01  0.24033498947E-01  0.00000000000E+00 0. -1.
     999901    1    3    3    0    0  0.31173785848E-01 -0.90331795020E-01  0.11322233413E+00  0.89238497021E+00  0.88000000000E+00 0. -1.
        -11    1    4    4    0    0 -0.10441241224E-01  0.19079216802E-01 -0.38427890918E-01  0.44158803805E-01  0.51100000000E-03 0.  1.
         11    1    4    4    0    0 -0.24693096084E-01  0.55411338097E-01 -0.57159868784E-01  0.83352727036E-01  0.51100000000E-03 0. -1.
</event>
<event>
 8    1  0.1207611E+005  0.1043930E+01  0.7957747E-01            NaN
         13   -1    0    0    0    0  0.00000000000E+00  0.00000000000E+00  0.74505805969E-08  0.10566000000E+00  0.10566000000E+00 0. -1.
     999900   -1    0    0    0    0 -0.00000000000E+00 -0.00000000000E+00 -0.74505805969E-08  0.93827000000E+00  0.93827000000E+00 0.  1.
     999902    2    1    2    0    0 -0.26784973610E-02 -0.21880122065E-01  0.90452008813E-02  0.10201029198E+01  0.10198246111E+01 0.  0.
     999903    2    3    3    0    0  0.57642975863E-01  0.63668912409E-01  0.95129150634E-01  0.12972785066E+00  0.20082750349E-01 0.  0.
         14    1    1    2    0    0  0.26784973610E-02  0.21880122065E-01 -0.90452008813E-02  0.23827080154E-01  0.00000000000E+00 0. -1.
     999901    1    3    3    0    0 -0.60321473224E-01 -0.85549034474E-01 -0.86083949753E-01  0.89037506919E+00  0.88000000000E+00 0.  1.
        -11    1    4    4    0    0  0.35042503378E-01  0.25596859733E-01  0.54169956285E-01  0.69410529144E-01  0.51100000000E-03 0. -1.
         11    1    4    4    0    0  0.22600472485E-01  0.38072052676E-01  0.40959194349E-01  0.60317321511E-01  0.51100000000E-03 0.  1.
</event>
<event>
 8    1  0.1207611E+005  0.1043930E+01  0.7957747E-01            NaN
         13   -1    0    0    0    0  0.00000000000E+00  0.00000000000E+00  0.74505805969E-08  0.10566000000E+00  0.10566000000E+00 0. -1.
     999900   -1    0    0    0    0 -0.00000000000E+00 -0.00000000000E+00 -0.74505805969E-08  0.93827000000E+00  0.93827000000E+00 0. -1.
     999902    2    1    2    0    0  0.43384710241E-02 -0.13221454581E-02 -0.24834628364E-01  0.10186846209E+01  0.10183717532E+01 0.  0.
     999903    2    3    3    0    0  0.40413368068E-01  0.56593372445E-01 -0.11015330369E+00  0.13192936619E+00  0.20870007849E-01 0.  0.
         14    1    1    2    0    0 -0.43384710241E-02  0.13221454581E-02  0.24834628364E-01  0.25245379091E-01  0.00000000000E+00 0. -1.
     999901    1    3    3    0    0 -0.36074897044E-01 -0.57915517903E-01  0.85318675322E-01  0.88675525472E+00  0.88000000000E+00 0. -1.
        -11    1    4    4    0    0  0.25557901393E-01  0.20758489431E-01 -0.60889483179E-01  0.69223633897E-01  0.51100000000E-03 0. -1.
         11    1    4    4    0    0  0.14855466675E-01  0.35834883013E-01 -0.49263820507E-01  0.62705732295E-01  0.51100000000E-03 0.  1.
</event>
<event>
 8    1  0.1207611E+005  0.1043930E+01  0.7957747E-01            NaN
         13   -1    0    0    0    0  0.00000000000E+00  0.00000000000E+00  0.74505805969E-08  0.10566000000E+00  0.10566000000E+00 0.  1.
     999900   -1    0    0    0    0 -0.00000000000E+00 -0.00000000000E+00 -0.74505805969E-08  0.93827000000E+00  0.93827000000E+00 0.  1.
     999902    2    1    2    0    0 -0.21015340177E-01 -0.25433585290E-01 -0.92921982162E-02  0.10096538169E+01  0.10090718375E+01 0.  0.
     999903    2    3    3    0    0 -0.45462292840E-01  0.94166576601E-01 -0.55405679775E-01  0.12003125340E+00  0.20088509724E-01 0.  0.
         14    1    1    2    0    0  0.21015340177E-01  0.25433585290E-01  0.92921982162E-02  0.34276183147E-01  0.00000000000E+00 0.  1.
     999901    1    3    3    0    0  0.24446952663E-01 -0.11960016189E+00  0.46113481559E-01  0.88962256345E+00  0.88000000000E+00 0. -1.
        -11    1    4    4    0    0 -0.37830460041E-01  0.63570267905E-01 -0.46033705374E-01  0.87130280729E-01  0.51100000000E-03 0. -1.
         11    1    4    4    0    0 -0.76318327989E-02  0.30596308695E-01 -0.93719744014E-02  0.32900972673E-01  0.51100000000E-03 0.  1.
</event>
<event>
 8    1  0.1207611E+005  0.1043930E+01  0.7957747E-01            NaN
         13   -1    0    0    0    0  0.00000000000E+00  0.00000000000E+00  0.74505805969E-08  0.10566000000E+00  0.10566000000E+00 0.  1.
     999900   -1    0    0    0    0 -0.00000000000E+00 -0.00000000000E+00 -0.74505805969E-08  0.93827000000E+00  0.93827000000E+00 0. -1.
     999902    2    1    2    0    0  0.17602254622E-01  0.13774281482E-01  0.65355944205E-02  0.10206430038E+01  0.10203773111E+01 0.  0.
     999903    2    3    3    0    0 -0.56664118628E-01  0.10958628256E+00 -0.39622188299E-01  0.13113416479E+00  0.20156282006E-01 0.  0.
         14    1    1    2    0    0 -0.17602254622E-01 -0.13774281482E-01 -0.65355944205E-02  0.23286996211E-01  0.00000000000E+00 0.  1.
     999901    1    3    3    0    0  0.74266373250E-01 -0.95812001081E-01  0.46157782720E-01  0.88950883900E+00  0.88000000000E+00 0. -1.
        -11    1    4    4    0    0 -0.30508664341E-01  0.49936025557E-01 -0.28370412752E-01  0.65034811363E-01  0.51100000000E-03 0. -1.
         11    1    4    4    0    0 -0.26155454287E-01  0.59650257006E-01 -0.11251775548E-01  0.66099353430E-01  0.51100000000E-03 0.  1.
</event>
<event>
 8    1  0.1207611E+005  0.1043930E+01  0.7957747E-01            NaN
         13   -1    0    0    0    0  0.00000000000E+00  0.00000000000E+00  0.74505805969E-08  0.10566000000E+00  0.10566000000E+00 0.  1.
     999900   -1    0    0    0    0 -0.00000000000E+00 -0.00000000000E+00 -0.74505805969E-08  0.93827000000E+00  0.93827000000E+00 0.  1.
     999902    2    1    2    0    0  0.21080392128E-01  0.70962067236E-02 -0.46434170738E-03  0.10216824227E+01  0.10214401687E+01 0.  0.
     999903    2    3    3    0    0 -0.88143787724E-01  0.83741074578E-01  0.43285947642E-01  0.13054918629E+00  0.19685575723E-01 0.  0.
         14    1    1    2    0    0 -0.21080392128E-01 -0.70962067236E-02  0.46434170738E-03  0.22247577292E-01  0.00000000000E+00 0.  1.
     999901    1    3    3    0    0  0.10922417985E+00 -0.76644867855E-01 -0.43750289349E-01  0.89113323642E+00  0.88000000000E+00 0.  1.
        -11    1    4    4    0    0 -0.69843154339E-02  0.68924613935E-03  0.22423492650E-02  0.73854568949E-02  0.51100000000E-03 0.  1.
         11    1    4    4    0    0 -0.81159472290E-01  0.83051828439E-01  0.41043598377E-01  0.12316372939E+00  0.51100000000E-03 0. -1.
</event>
<event>
 8    1  0.1207611E+005  0.1043930E+01  0.7957747E-01            NaN
         13   -1    0    0    0    0  0.00000000000E+00  0.00000000000E+00  0.74505805969E-08  0.10566000000E+00  0.10566000000E+00 0. -1.
     999900   -1    0    0    0    0 -0.00000000000E+00 -0.00000000000E+00 -0.74505805969E-08  0.93827000000E+00  0.93827000000E+00 0.  1.
     999902    2    1    2    0    0 -0.16175467217E-01  0.11733750530E-01  0.12821478678E-01  0.10201872757E+01  0.10199109572E+01 0.  0.
     999903    2    3    3    0    0 -0.71498666789E-01  0.33111297495E-01  0.10577202157E+00  0.13330652874E+00  0.19351813437E-01 0.  0.
         14    1    1    2    0    0  0.16175467217E-01 -0.11733750530E-01 -0.12821478678E-01  0.23742724289E-01  0.00000000000E+00 0.  1.
     999901    1    3    3    0    0  0.55323199572E-01 -0.21377546965E-01 -0.92950542891E-01  0.88688074697E+00  0.88000000000E+00 0.  1.
        -11    1    4    4    0    0 -0.42932563088E-01  0.11537913121E-01  0.48759020045E-01  0.65985085961E-01  0.51100000000E-03 0.  1.
         11    1    4    4    0    0 -0.28566103701E-01  0.21573384374E-01  0.57013001524E-01  0.67321442779E-01  0.51100000000E-03 0. -1.
</event>
<event>
 8    1  0.1207611E+005  0.1043930E+01  0.7957747E-01            NaN
         13   -1    0    0    0    0  0.00000000000E+00  0.00000000000E+00  0.74505805969E-08  0.10566000000E+00  0.10566000000E+00 0. -1.
     999900   -1    0    0    0    0 -0.00000000000E+00 -0.00000000000E+00 -0.74505805969E-08  0.93827000000E+00  0.93827000000E+00 0. -1.
     999902    2    1    2    0    0 -0.17183673935E-01  0.66128696681E-02  0.13940865516E-01  0.10208354893E+01  0.10205742206E+01 0.  0.
     999903    2    3    3    0    0 -0.94169611230E-01  0.75144871617E-01 -0.51149393906E-01  0.13243230843E+00  0.20183865074E-01 0.  0.
         14    1    1    2    0    0  0.17183673935E-01 -0.66128696681E-02 -0.13940865516E-01  0.23094510744E-01  0.00000000000E+00 0.  1.
     999901    1    3    3    0    0  0.76985937294E-01 -0.68532001949E-01  0.65090259422E-01  0.88840318083E+00  0.88000000000E+00 0.  1.
        -11    1    4    4    0    0 -0.11536197996E-01  0.32795080314E-02 -0.11945467174E-02  0.12063461361E-01  0.51100000000E-03 0. -1.
         11    1    4    4    0    0 -0.82633413233E-01  0.71865363585E-01 -0.49954847188E-01  0.12036884707E+00  0.51100000000E-03 0.  1.
</event>
<event>
 8    1  0.1207611E+005  0.1043930E+01  0.7957747E-01            NaN
         13   -1    0    0    0    0  0.00000000000E+00  0.00000000000E+00  0.74505805969E-08  0.10566000000E+00  0.10566000000E+00 0.  1.
     999900   -1    0    0    0    0 -0.00000000000E+00 -0.00000000000E+00 -0.74505805969E-08  0.93827000000E+00  0.93827000000E+00 0. -1.
     999902    2    1    2    0    0  0.11319479023E-01 -0.17608818722E-01 -0.10561829674E-01  0.10204831804E+01  0.10202137855E+01 0.  0.
     999903    2    3    3    0    0  0.42047928771E-01  0.10937508532E+00  0.49601042015E-01  0.12880570474E+00  0.19992713731E-01 0.  0.
         14    1    1    2    0    0 -0.11319479023E-01  0.17608818722E-01  0.10561829674E-01  0.23446819575E-01  0.00000000000E+00 0.  1.
     999901    1    3    3    0    0 -0.30728449748E-01 -0.12698390404E+00 -0.60162871689E-01  0.89167747568E+00  0.88000000000E+00 0. -1.
        -11    1    4    4    0    0  0.26898108823E-01  0.54477435058E-01  0.16607807278E-01  0.62987138150E-01  0.51100000000E-03 0.  1.
         11    1    4    4    0    0  0.15149819948E-01  0.54897650263E-01  0.32993234737E-01  0.65818566592E-01  0.51100000000E-03 0. -1.
</event>
<event>
 8    1  0.1207611E+005  0.1043930E+01  0.7957747E-01            NaN
         13   -1    0    0    0    0  0.00000000000E+00  0.00000000000E+00  0.74505805969E-08  0.10566000000E+00  0.10566000000E+00 0.  1.
     999900   -1    0    0    0    0 -0.00000000000E+00 -0.00000000000E+00 -0.74505805969E-08  0.93827000000E+00  0.93827000000E+00 0. -1.
     999902    2    1    2    0    0 -0.12780392678E-01  0.41133558877E-02 -0.20733132056E-01  0.10192293745E+01  0.10189300256E+01 0.  0.
     999903    2    3    3    0    0  0.88557003703E-01 -0.76102591016E-01 -0.52089661389E-01  0.12923662289E+00  0.18836788689E-01 0.  0.
         14    1    1    2    0    0  0.12780392678E-01 -0.41133558877E-02  0.20733132056E-01  0.24700625468E-01  0.00000000000E+00 0.  1.
     999901    1    3    3    0    0 -0.10133739638E+00  0.80215946904E-01  0.31356529333E-01  0.88999275164E+00  0.88000000000E+00 0.  1.
        -11    1    4    4    0    0  0.46954242731E-01 -0.30103845773E-01 -0.30436010887E-01  0.63541752577E-01  0.51100000000E-03 0.  1.
         11    1    4    4    0    0  0.41602760972E-01 -0.45998745243E-01 -0.21653650502E-01  0.65694870314E-01  0.51100000000E-03 0. -1.
</event>
<event>
 8    1  0.1207611E+005  0.1043930E+01  0.7957747E-01            NaN
         13   -1    0    0    0    0  0.00000000000E+00  0.00000000000E+00  0.74505805969E-08  0.10566000000E+00  0.10566000000E+00 0. -1.
     999900   -1    0    0    0    0 -0.00000000000E+00 -0.00000000000E+00 -0.74505805969E-08  0.93827000000E+00  0.93827000000E+00 0.  1.
     999902    2    1    2    0    0  0.63028320358E-02 -0.17685117207E-01  0.14402333715E-01  0.10202674499E+01  0.10199930161E+01 0.  0.
     999903    2    3    3    0    0  0.13239187256E-01 -0.10997733044E+00 -0.67936486610E-01  0.13159110441E+00  0.20750018252E-01 0.  0.
         14    1    1    2    0    0 -0.63028320358E-02  0.17685117207E-01 -0.14402333715E-01  0.23662550132E-01  0.00000000000E+00 0. -1.
     999901    1    3    3    0    0 -0.69363552206E-02  0.92292213229E-01  0.82338820325E-01  0.88867634546E+00  0.88000000000E+00 0. -1.
        -11    1    4    4    0    0  0.67876312665E-02 -0.28135325741E-01 -0.28085538135E-01  0.40332704672E-01  0.51100000000E-03 0.  1.
         11    1    4    4    0    0  0.64515559899E-02 -0.81842004696E-01 -0.39850948474E-01  0.91258399737E-01  0.51100000000E-03 0. -1.
</event>
<event>
 8    1  0.1207611E+005  0.1043930E+01  0.7957747E-01            NaN
         13   -1    0    0    0    0  0.00000000000E+00  0.00000000000E+00  0.74505805969E-08  0.10566000000E+00  0.10566000000E+00 0. -1.
     999900   -1    0    0    0    0 -0.00000000000E+00 -0.00000000000E+00 -0.74505805969E-08  0.93827000000E+00  0.93827000000E+00 0.  1.
     999902    2    1    2    0    0  0.57866145990E-02  0.21448326302E-01 -0.62134391971E-02  0.10208622208E+01  0.10206015635E+01 0.  0.
     999903    2    3    3    0    0 -0.39801697680E-01 -0.17342817094E-01 -0.12104181954E+00  0.13138563093E+00  0.26946493205E-01 0.  0.
         14    1    1    2    0    0 -0.57866145990E-02 -0.21448326302E-01  0.62134391971E-02  0.23067779181E-01  0.00000000000E+00 0.  1.
     999901    1    3    3    0    0  0.45588312279E-01  0.38791143396E-01  0.11482838034E+00  0.88947658989E+00  0.88000000000E+00 0. -1.
        -11    1    4    4    0    0 -0.68904474597E-02 -0.11925269423E-01 -0.15714287740E-01  0.20901920419E-01  0.51100000000E-03 0. -1.
         11    1    4    4    0    0 -0.32911250221E-01 -0.54175476717E-02 -0.10532753180E+00  0.11048371052E+00  0.51100000000E-03 0.  1.
</event>
<event>
 8    1  0.1207611E+005  0.1043930E+01  0.7957747E-01            NaN
         13   -1    0    0    0    0  0.00000000000E+00  0.00000000000E+00  0.74505805969E-08  0.10566000000E+00  0.10566000000E+00 0.  1.
     999900   -1    0    0    0    0 -0.00000000000E+00 -0.00000000000E+00 -0.74505805969E-08  0.93827000000E+00  0.93827000000E+00 0. -1.
     999902    2    1    2    0    0  0.12173446019E-01  0.11034353010E-01  0.18026054439E-01  0.10195396664E+01  0.10192478810E+01 0.  0.
     999903    2    3    3    0    0 -0.19633591408E-01  0.42786296381E-01  0.12224738161E+00  0.13225055987E+00  0.18156079002E-01 0.  0.
         14    1    1    2    0    0 -0.12173446019E-01 -0.11034353010E-01 -0.18026054439E-01  0.24390333597E-01  0.00000000000E+00 0. -1.
     999901    1    3    3    0    0  0.31807037427E-01 -0.31751943371E-01 -0.10422132717E+00  0.88728910653E+00  0.88000000000E+00 0. -1.
        -11    1    4    4    0    0 -0.13925827277E-01  0.18523879257E-01  0.39187440474E-01  0.45529983307E-01  0.51100000000E-03 0. -1.
         11    1    4    4    0    0 -0.57077641314E-02  0.24262417124E-01  0.83059941139E-01  0.86720576561E-01  0.51100000000E-03 0.  1.
</event>
<event>
 8    1  0.1207611E+005  0.1043930E+01  0.7957747E-01            NaN
         13   -1    0    0    0    0  0.00000000000E+00  0.00000000000E+00  0.74505805969E-08  0.10566000000E+00  0.10566000000E+00 0. -1.
     999900   -1    0    0    0    0 -0.00000000000E+00 -0.00000000000E+00 -0.74505805969E-08  0.93827000000E+00  0.93827000000E+00 0.  1.
     999902    2    1    2    0    0 -0.16540459496E-01  0.21860095587E-01  0.48140713582E-02  0.10160978987E+01  0.10157166504E+01 0.  0.
     999903    2    3    3    0    0 -0.65371793002E-01 -0.69069920137E-01  0.80842545134E-01  0.12680992751E+00  0.22385607499E-01 0.  0.
         14    1    1    2    0    0  0.16540459496E-01 -0.21860095587E-01 -0.48140713582E-02  0.27832101294E-01  0.00000000000E+00 0.  1.
     999901    1    3    3    0    0  0.48831333507E-01  0.90930015723E-01 -0.76028473776E-01  0.88928797120E+00  0.88000000000E+00 0. -1.
        -11    1    4    4    0    0 -0.36608342708E-01 -0.23214705244E-01  0.31782733767E-01  0.53754037822E-01  0.51100000000E-03 0.  1.
         11    1    4    4    0    0 -0.28763450294E-01 -0.45855214893E-01  0.49059811367E-01  0.73055889687E-01  0.51100000000E-03 0. -1.
</event>
<event>
 8    1  0.1207611E+005  0.1043930E+01  0.7957747E-01            NaN
         13   -1    0    0    0    0  0.00000000000E+00  0.00000000000E+00  0.74505805969E-08  0.10566000000E+00  0.10566000000E+00 0.  1.
     999900   -1    0    0    0    0 -0.00000000000E+00 -0.00000000000E+00 -0.74505805969E-08  0.93827000000E+00  0.93827000000E+00 0.  1.
     999902    2    1    2    0    0  0.23550781070E-01 -0.23651702741E-02  0.10530669849E-02  0.10202373372E+01  0.10199621964E+01 0.  0.
     999903    2    3    3    0    0 -0.71897695151E-01  0.46419689420E-01  0.94274259639E-01  0.12884485077E+00  0.19730519629E-01 0.  0.
         14    1    1    2    0    0 -0.23550781070E-01  0.23651702741E-02 -0.10530669849E-02  0.23692662778E-01  0.00000000000E+00 0.  1.
     999901    1    3    3    0    0  0.95448476221E-01 -0.48784859695E-01 -0.93221192654E-01  0.89139248645E+00  0.88000000000E+00 0.  1.
        -11    1    4    4    0    0 -0.20060252449E-02  0.72193124685E-02  0.59227935223E-02  0.95646857715E-02  0.51100000000E-03 0. -1.
         11    1    4    4    0    0 -0.69891669906E-01  0.39200376952E-01  0.88351466117E-01  0.11928016500E+00  0.51100000000E-03 0.  1.
</event>
<event>
 8    1  0.1207611E+005  0.1043930E+01  0.7957747E-01            NaN
         13   -1    0    0    0    0  0.00000000000E+00  0.00000000000E+00  0.74505805969E-08  0.10566000000E+00  0.10566000000E+00 0.  1.
     999900   -1    0    0    0    0 -0.00000000000E+00 -0.00000000000E+00 -0.74505805969E-08  0.93827000000E+00  0.93827000000E+00 0. -1.
     999902    2    1    2    0    0  0.87519402665E-02  0.19768118049E-01 -0.80210302657E-02  0.10208711215E+01  0.10206106676E+01 0.  0.
     999903    2    3    3    0    0  0.11335047960E-01  0.34940548769E-02 -0.13017066159E+00  0.13228119924E+00  0.20327882344E-01 0.  0.
         14    1    1    2    0    0 -0.87519402665E-02 -0.19768118049E-01  0.80210302657E-02  0.23058878467E-01  0.00000000000E+00 0. -1.
     999901    1    3    3    0    0 -0.25831076938E-02  0.16274063172E-01  0.12214963132E+00  0.88858992230E+00  0.88000000000E+00 0.  1.
        -11    1    4    4    0    0  0.15943607583E-01 -0.15253669369E-02 -0.75267117557E-01  0.76954047803E-01  0.51100000000E-03 0.  1.
         11    1    4    4    0    0 -0.46085596227E-02  0.50194218139E-02 -0.54903544033E-01  0.55327151432E-01  0.51100000000E-03 0. -1.
</event>
<event>
 8    1  0.1207611E+005  0.1043930E+01  0.7957747E-01            NaN
         13   -1    0    0    0    0  0.00000000000E+00  0.00000000000E+00  0.74505805969E-08  0.10566000000E+00  0.10566000000E+00 0. -1.
     999900   -1    0    0    0    0 -0.00000000000E+00 -0.00000000000E+00 -0.74505805969E-08  0.93827000000E+00  0.93827000000E+00 0.  1.
     999902    2    1    2    0    0 -0.49641354308E-02 -0.22797723794E-01 -0.17226216807E-02  0.10205345672E+01  0.10202663655E+01 0.  0.
     999903    2    3    3    0    0 -0.98353636079E-01 -0.87409963919E-01 -0.40238599164E-02  0.13323437216E+00  0.20524788780E-01 0.  0.
         14    1    1    2    0    0  0.49641354308E-02  0.22797723794E-01  0.17226216807E-02  0.23395432807E-01  0.00000000000E+00 0. -1.
     999901    1    3    3    0    0  0.93389500648E-01  0.64612240124E-01  0.23012382357E-02  0.88730019503E+00  0.88000000000E+00 0. -1.
        -11    1    4    4    0    0 -0.28998242324E-01 -0.37878092544E-01 -0.52733950528E-02  0.47997060004E-01  0.51100000000E-03 0.  1.
         11    1    4    4    0    0 -0.69355393755E-01 -0.49531871374E-01  0.12495351364E-02  0.85237312157E-01  0.51100000000E-03 0. -1.
</event>
<event>
 8    1  0.1207611E+005  0.1043930E+01  0.7957747E-01            NaN
         13   -1    0    0    0    0  0.00000000000E+00  0.00000000000E+00  0.74505805969E-08  0.10566000000E+00  0.10566000000E+00 0.  1.
     999900   -1    0    0    0    0 -0.00000000000E+00 -0.00000000000E+00 -0.74505805969E-08  0.93827000000E+00  0.93827000000E+00 0.  1.
     999902    2    1    2    0    0  0.20749503438E-01  0.40939374912E-02  0.95309216477E-02  0.10207321405E+01  0.10204685012E+01 0.  0.
     999903    2    3    3    0    0 -0.71665146419E-01 -0.86926707643E-01 -0.58745947669E-01  0.12860717380E+00  0.19914142548E-01 0.  0.
         14    1    1    2    0    0 -0.20749503438E-01 -0.40939374912E-02 -0.95309216477E-02  0.23197859483E-01  0.00000000000E+00 0.  1.
     999901    1    3    3    0    0  0.92414649857E-01  0.91020645134E-01  0.68276869317E-01  0.89212496671E+00  0.88000000000E+00 0. -1.
        -11    1    4    4    0    0 -0.48555730906E-01 -0.43996244111E-01 -0.36616984294E-01  0.75062594942E-01  0.51100000000E-03 0. -1.
         11    1    4    4    0    0 -0.23109415513E-01 -0.42930463533E-01 -0.22128963375E-01  0.53544578862E-01  0.51100000000E-03 0.  1.
</event>
<event>
 8    1  0.1207611E+005  0.1043930E+01  0.7957747E-01            NaN
         13   -1    0    0    0    0  0.00000000000E+00  0.00000000000E+00  0.74505805969E-08  0.10566000000E+00  0.10566000000E+00 0.  1.
     999900   -1    0    0    0    0 -0.00000000000E+00 -0.00000000000E+00 -0.74505805969E-08  0.93827000000E+00  0.93827000000E+00 0.  1.
     999902    2    1    2    0    0 -0.55516095050E-02 -0.31142782865E-02 -0.24419010544E-01  0.10186949614E+01  0.10183823531E+01 0.  0.
     999903    2    3    3    0    0  0.53832051014E-01 -0.11421313984E+00  0.15288044136E-01  0.12883765465E+00  0.20564190570E-01 0.  0.
         14    1    1    2    0    0  0.55516095050E-02  0.31142782865E-02  0.24419010544E-01  0.25235038603E-01  0.00000000000E+00 0.  1.
     999901    1    3    3    0    0 -0.59383660519E-01  0.11109886156E+00 -0.39707054680E-01  0.88985730674E+00  0.88000000000E+00 0.  1.
        -11    1    4    4    0    0  0.27334354318E-01 -0.46971147756E-01 -0.24963491159E-02  0.54405408990E-01  0.51100000000E-03 0.  1.
         11    1    4    4    0    0  0.26497696696E-01 -0.67241992087E-01  0.17784393252E-01  0.74432245662E-01  0.51100000000E-03 0. -1.
</event>
<event>
 8    1  0.1207611E+005  0.1043930E+01  0.7957747E-01            NaN
         13   -1    0    0    0    0  0.00000000000E+00  0.00000000000E+00  0.74505805969E-08  0.10566000000E+00  0.10566000000E+00 0. -1.
     999900   -1    0    0    0    0 -0.00000000000E+00 -0.00000000000E+00 -0.74505805969E-08  0.93827000000E+00  0.93827000000E+00 0.  1.
     999902    2    1    2    0    0 -0.23691672592E-02  0.15542709142E-01 -0.17627936793E-01  0.10203093964E+01  0.10200359461E+01 0.  0.
     999903    2    3    3    0    0 -0.34284809719E-01  0.54145053878E-01  0.11069429115E+00  0.12959319945E+00  0.20833535782E-01 0.  0.
         14    1    1    2    0    0  0.23691672592E-02 -0.15542709142E-01  0.17627936793E-01  0.23620603645E-01  0.00000000000E+00 0. -1.
     999901    1    3    3    0    0  0.31915642460E-01 -0.38602344736E-01 -0.12832222794E+00  0.89071619691E+00  0.88000000000E+00 0.  1.
        -11    1    4    4    0    0 -0.10237048964E-01  0.20035890411E-01  0.59041256755E-01  0.63185165951E-01  0.51100000000E-03 0. -1.
         11    1    4    4    0    0 -0.24047760755E-01  0.34109163467E-01  0.51653034392E-01  0.66408033495E-01  0.51100000000E-03 0.  1.
</event>
<event>
 8    1  0.1207611E+005  0.1043930E+01  0.7957747E-01            NaN
         13   -1    0    0    0    0  0.00000000000E+00  0.00000000000E+00  0.74505805969E-08  0.10566000000E+00  0.10566000000E+00 0. -1.
     999900   -1    0    0    0    0 -0.00000000000E+00 -0.00000000000E+00 -0.74505805969E-08  0.93827000000E+00  0.93827000000E+00 0.  1.
     999902    2    1    2    0    0 -0.83582643313E-02 -0.64279869821E-02 -0.20400463595E-01  0.10209657122E+01  0.10207074150E+01 0.  0.
     999903    2    3    3    0    0  0.10806149359E+00  0.17664785612E-01  0.64997970682E-01  0.12887439720E+00  0.19863106797E-01 0.  0.
         14    1    1    2    0    0  0.83582643313E-02  0.64279869821E-02  0.20400463595E-01  0.22964287800E-01  0.00000000000E+00 0. -1.
     999901    1    3    3    0    0 -0.11641975793E+00 -0.24092772594E-01 -0.85398434277E-01  0.89209131500E+00  0.88000000000E+00 0.  1.
        -11    1    4    4    0    0  0.10121499530E+00  0.13225423460E-01  0.54972981478E-01  0.11593824612E+00  0.51100000000E-03 0. -1.
         11    1    4    4    0    0  0.68464982936E-02  0.44393621513E-02  0.10024989204E-01  0.12936151079E-01  0.51100000000E-03 0.  1.
</event>
<event>
 8    1  0.1207611E+005  0.1043930E+01  0.7957747E-01            NaN
         13   -1    0    0    0    0  0.00000000000E+00  0.00000000000E+00  0.74505805969E-08  0.10566000000E+00  0.10566000000E+00 0.  1.
     999900   -1    0    0    0    0 -0.00000000000E+00 -0.00000000000E+00 -0.74505805969E-08  0.93827000000E+00  0.93827000000E+00 0. -1.
     999902    2    1    2    0    0  0.12159592878E-01 -0.17773687608E-01  0.12085482977E-01  0.10192354952E+01  0.10189362964E+01 0.  0.
     999903    2    3    3    0    0  0.18151947264E-01 -0.50338211786E-01  0.11891993216E+00  0.13215604209E+00  0.21443890499E-01 0.  0.
         14    1    1    2    0    0 -0.12159592878E-01  0.17773687608E-01 -0.12085482977E-01  0.24694504832E-01  0.00000000000E+00 0. -1.
     999901    1    3    3    0    0 -0.59923543860E-02  0.32564524179E-01 -0.10683444918E+00  0.88707945308E+00  0.88000000000E+00 0. -1.
        -11    1    4    4    0    0  0.20764561971E-01 -0.28945958049E-01  0.65747302109E-01  0.74779705649E-01  0.51100000000E-03 0. -1.
         11    1    4    4    0    0 -0.26126147067E-02 -0.21392253737E-01  0.53172630051E-01  0.57376336438E-01  0.51100000000E-03 0.  1.
</event>
<event>
 8    1  0.1207611E+005  0.1043930E+01  0.7957747E-01            NaN
         13   -1    0    0    0    0  0.00000000000E+00  0.00000000000E+00  0.74505805969E-08  0.10566000000E+00  0.10566000000E+00 0.  1.
     999900   -1    0    0    0    0 -0.00000000000E+00 -0.00000000000E+00 -0.74505805969E-08  0.93827000000E+00  0.93827000000E+00 0. -1.
     999902    2    1    2    0    0 -0.22090319849E-01 -0.30932174234E-02 -0.12239666097E-01  0.10184867366E+01  0.10181688824E+01 0.  0.
     999903    2    3    3    0    0  0.33415004285E-01  0.11003908074E+00  0.50683218134E-01  0.12728583489E+00  0.20192408481E-01 0.  0.
         14    1    1    2    0    0  0.22090319849E-01  0.30932174234E-02  0.12239666097E-01  0.25443263376E-01  0.00000000000E+00 0.  1.
     999901    1    3    3    0    0 -0.55505324134E-01 -0.11313229817E+00 -0.62922884231E-01  0.89120090174E+00  0.88000000000E+00 0.  1.
        -11    1    4    4    0    0  0.29252921668E-01  0.98998455783E-01  0.38124186281E-01  0.11004609204E+00  0.51100000000E-03 0. -1.
         11    1    4    4    0    0  0.41620826165E-02  0.11040624961E-01  0.12559031852E-01  0.17239742843E-01  0.51100000000E-03 0.  1.
</event>
<event>
 8    1  0.1207611E+005  0.1043930E+01  0.7957747E-01            NaN
         13   -1    0    0    0    0  0.00000000000E+00  0.00000000000E+00  0.74505805969E-08  0.10566000000E+00  0.10566000000E+00 0.  1.
     999900   -1    0    0    0    0 -0.00000000000E+00 -0.00000000000E+00 -0.74505805969E-08  0.93827000000E+00  0.93827000000E+00 0. -1.
     999902    2    1    2    0    0 -0.13464008776E-01  0.15719160215E-01 -0.37103093081E-02  0.10229029240E+01  0.10226867820E+01 0.  0.
     999903    2    3    3    0    0 -0.28156148066E-01  0.13071297371E+00  0.53016123585E-02  0.13525397828E+00  0.19669300339E-01 0.  0.
         14    1    1    2    0    0  0.13464008776E-01 -0.15719160215E-01  0.37103093081E-02  0.21027076005E-01  0.00000000000E+00 0. -1.
     999901    1    3    3    0    0  0.14692139290E-01 -0.11499381350E+00 -0.90119216666E-02  0.88764894572E+00  0.88000000000E+00 0.  1.
        -11    1    4    4    0    0 -0.28056464579E-01  0.93883366708E-01 -0.36089931214E-03  0.97987974356E-01  0.51100000000E-03 0.  1.
         11    1    4    4    0    0 -0.99683486648E-04  0.36829607004E-01  0.56625116706E-02  0.37266003922E-01  0.51100000000E-03 0. -1.
</event>
<event>
 8    1  0.1207611E+005  0.1043930E+01  0.7957747E-01            NaN
         13   -1    0    0    0    0  0.00000000000E+00  0.00000000000E+00  0.74505805969E-08  0.10566000000E+00  0.10566000000E+00 0.  1.
     999900   -1    0    0    0    0 -0.00000000000E+00 -0.00000000000E+00 -0.74505805969E-08  0.93827000000E+00  0.93827000000E+00 0. -1.
     999902    2    1    2    0    0  0.14887004649E-01 -0.17791444250E-01 -0.69688761541E-02  0.10197076213E+01  0.10194198886E+01 0.  0.
     999903    2    3    3    0    0  0.11130749767E+00 -0.42153218609E-01 -0.55344383833E-01  0.13278564204E+00  0.20069206102E-01 0.  0.
         14    1    1    2    0    0 -0.14887004649E-01  0.17791444250E-01  0.69688761541E-02  0.24222378718E-01  0.00000000000E+00 0. -1.
     999901    1    3    3    0    0 -0.96420493018E-01  0.24361774359E-01  0.48375507679E-01  0.88692197924E+00  0.88000000000E+00 0. -1.
        -11    1    4    4    0    0  0.36376495708E-01 -0.69860469480E-02 -0.98472672504E-02  0.38331241634E-01  0.51100000000E-03 0.  1.
         11    1    4    4    0    0  0.74931001959E-01 -0.35167171661E-01 -0.45497116583E-01  0.94454400403E-01  0.51100000000E-03 0. -1.
</event>
<event>
 8    1  0.1207611E+005  0.1043930E+01  0.7957747E-01            NaN
         13   -1    0    0    0    0  0.00000000000E+00  0.00000000000E+00  0.74505805969E-08  0.10566000000E+00  0.10566000000E+00 0.  1.
     999900   -1    0    0    0    0 -0.00000000000E+00 -0.00000000000E+00 -0.74505805969E-08  0.93827000000E+00  0.93827000000E+00 0.  1.
     999902    2    1    2    0    0  0.14060302495E-01  0.10181499789E-01 -0.14933751589E-01  0.10210308301E+01  0.10207740123E+01 0.  0.
     999903    2    3    3    0    0 -0.12450816142E+00  0.64980050028E-02 -0.30564724761E-01  0.13004311156E+00  0.20796685655E-01 0.  0.
         14    1    1    2    0    0 -0.14060302495E-01 -0.10181499789E-01  0.14933751589E-01  0.22899169870E-01  0.00000000000E+00 0.  1.
     999901    1    3    3    0    0  0.13856846392E+00  0.36834947863E-02  0.15630973172E-01  0.89098771857E+00  0.88000000000E+00 0. -1.
        -11    1    4    4    0    0 -0.30788845355E-01  0.52309168820E-02  0.68485654386E-03  0.31241729133E-01  0.51100000000E-03 0.  1.
         11    1    4    4    0    0 -0.93719316067E-01  0.12670881208E-02 -0.31249581304E-01  0.98801382424E-01  0.51100000000E-03 0. -1.
</event>
<event>
 8    1  0.1207611E+005  0.1043930E+01  0.7957747E-01            NaN
         13   -1    0    0    0    0  0.00000000000E+00  0.00000000000E+00  0.74505805969E-08  0.10566000000E+00  0.10566000000E+00 0. -1.
     999900   -1    0    0    0    0 -0.00000000000E+00 -0.00000000000E+00 -0.74505805969E-08  0.93827000000E+00  0.93827000000E+00 0.  1.
     999902    2    1    2    0    0 -0.82323802470E-02 -0.22935453846E-01  0.23243385888E-03  0.10195607334E+01  0.10192694580E+01 0.  0.
     999903    2    3    3    0    0  0.10825123821E-01 -0.10146858740E+00  0.81381028246E-01  0.13213989984E+00  0.20616106231E-01 0.  0.
         14    1    1    2    0    0  0.82323802470E-02  0.22935453846E-01 -0.23243385888E-03  0.24369266570E-01  0.00000000000E+00 0. -1.
     999901    1    3    3    0    0 -0.19057504068E-01  0.78533133551E-01 -0.81148594387E-01  0.88742083359E+00  0.88000000000E+00 0.  1.
        -11    1    4    4    0    0  0.49604393563E-03 -0.58049580626E-01  0.56643394506E-01  0.81109402245E-01  0.51100000000E-03 0.  1.
         11    1    4    4    0    0  0.10329079885E-01 -0.43419006771E-01  0.24737633740E-01  0.51030497590E-01  0.51100000000E-03 0. -1.
</event>
<event>
 8    1  0.1207611E+005  0.1043930E+01  0.7957747E-01            NaN
         13   -1    0    0    0    0  0.00000000000E+00  0.00000000000E+00  0.74505805969E-08  0.10566000000E+00  0.10566000000E+00 0.  1.
     999900   -1    0    0    0    0 -0.00000000000E+00 -0.00000000000E+00 -0.74505805969E-08  0.93827000000E+00  0.93827000000E+00 0.  1.
     999902    2    1    2    0    0 -0.17448924880E-01  0.15956745078E-01 -0.48682780118E-03  0.10202800593E+01  0.10200059214E+01 0.  0.
     999903    2    3    3    0    0  0.99945854180E-02  0.10596018275E+00  0.74587715625E-01  0.13208528782E+00  0.23574220434E-01 0.  0.
         14    1    1    2    0    0  0.17448924880E-01 -0.15956745078E-01  0.48682780118E-03  0.23649940682E-01  0.00000000000E+00 0.  1.
     999901    1    3    3    0    0 -0.27443510298E-01 -0.90003437673E-01 -0.75074543427E-01  0.88819477150E+00  0.88000000000E+00 0.  1.
        -11    1    4    4    0    0  0.14811759405E-01  0.51569945935E-01  0.29252585457E-01  0.61113193480E-01  0.51100000000E-03 0.  1.
         11    1    4    4    0    0 -0.48171739872E-02  0.54390236817E-01  0.45335130169E-01  0.70972094337E-01  0.51100000000E-03 0. -1.
</event>
<event>
 8    1  0.1207611E+005  0.1043930E+01  0.7957747E-01            NaN
         13   -1    0    0    0    0  0.00000000000E+00  0.00000000000E+00  0.74505805969E-08  0.10566000000E+00  0.10566000000E+00 0.  1.
     999900   -1    0    0    0    0 -0.00000000000E+00 -0.00000000000E+00 -0.74505805969E-08  0.93827000000E+00  0.93827000000E+00 0. -1.
     999902    2    1    2    0    0  0.24315325080E-01 -0.73313815865E-02 -0.40530531238E-02  0.10182120796E+01  0.10178872372E+01 0.  0.
     999903    2    3    3    0    0 -0.94404287805E-01 -0.86552533866E-02 -0.81775542285E-01  0.12684409474E+00  0.20374054280E-01 0.  0.
         14    1    1    2    0    0 -0.24315325080E-01  0.73313815865E-02  0.40530531238E-02  0.25717920393E-01  0.00000000000E+00 0. -1.
     999901    1    3    3    0    0  0.11871961289E+00  0.13238718001E-02  0.77722489161E-01  0.89136798486E+00  0.88000000000E+00 0.  1.
        -11    1    4    4    0    0 -0.43341280853E-01 -0.18147189771E-03 -0.49709517252E-01  0.65952989200E-01  0.51100000000E-03 0. -1.
         11    1    4    4    0    0 -0.51063006952E-01 -0.84737814889E-02 -0.32066025033E-01  0.60891105542E-01  0.51100000000E-03 0.  1.
</event>
<event>
 8    1  0.1207611E+005  0.1043930E+01  0.7957747E-01            NaN
         13   -1    0    0    0    0  0.00000000000E+00  0.00000000000E+00  0.74505805969E-08  0.10566000000E+00  0.10566000000E+00 0.  1.
     999900   -1    0    0    0    0 -0.00000000000E+00 -0.00000000000E+00 -0.74505805969E-08  0.93827000000E+00  0.93827000000E+00 0.  1.
     999902    2    1    2    0    0  0.10142988616E-01  0.22051479534E-01 -0.53953135305E-03  0.10196516339E+01  0.10193625535E+01 0.  0.
     999903    2    3    3    0    0 -0.29609621451E-01 -0.11739106327E+00 -0.32845584276E-01  0.12720097764E+00  0.21068101186E-01 0.  0.
         14    1    1    2    0    0 -0.10142988616E-01 -0.22051479534E-01  0.53953135305E-03  0.24278366127E-01  0.00000000000E+00 0. -1.
     999901    1    3    3    0    0  0.39752610067E-01  0.13944254281E+00  0.32306052923E-01  0.89245065623E+00  0.88000000000E+00 0. -1.
        -11    1    4    4    0    0 -0.20357980964E-01 -0.66531833942E-01 -0.86224471410E-02  0.70110912362E-01  0.51100000000E-03 0. -1.
         11    1    4    4    0    0 -0.92516404866E-02 -0.50859229332E-01 -0.24223137135E-01  0.57090065280E-01  0.51100000000E-03 0.  1.
</event>
<event>
 8    1  0.1207611E+005  0.1043930E+01  0.7957747E-01            NaN
         13   -1    0    0    0    0  0.00000000000E+00  0.00000000000E+00  0.74505805969E-08  0.10566000000E+00  0.10566000000E+00 0. -1.
     999900   -1    0    0    0    0 -0.00000000000E+00 -0.00000000000E+00 -0.74505805969E-08  0.93827000000E+00  0.93827000000E+00 0.  1.
     999902    2    1    2    0    0  0.13115352407E-01 -0.10706906758E-01 -0.17925707245E-01  0.10192727232E+01  0.10189744368E+01 0.  0.
     999903    2    3    3    0    0  0.49446290359E-01  0.61954426689E-01  0.98190916521E-01  0.12793514584E+00  0.21039459023E-01 0.  0.
         14    1    1    2    0    0 -0.13115352407E-01  0.10706906758E-01  0.17925707245E-01  0.24657276843E-01  0.00000000000E+00 0.  1.
     999901    1    3    3    0    0 -0.36330937953E-01 -0.72661333447E-01 -0.11611662377E+00  0.89133757732E+00  0.88000000000E+00 0.  1.
        -11    1    4    4    0    0 -0.15859719315E-02  0.53529095365E-02  0.46936171346E-02  0.73116421056E-02  0.51100000000E-03 0.  1.
         11    1    4    4    0    0  0.51032262291E-01  0.56601517152E-01  0.93497299386E-01  0.12062350373E+00  0.51100000000E-03 0. -1.
</event>
<event>
 8    1  0.1207611E+005  0.1043930E+01  0.7957747E-01            NaN
         13   -1    0    0    0    0  0.00000000000E+00  0.00000000000E+00  0.74505805969E-08  0.10566000000E+00  0.10566000000E+00 0. -1.
     999900   -1    0    0    0    0 -0.00000000000E+00 -0.00000000000E+00 -0.74505805969E-08  0.93827000000E+00  0.93827000000E+00 0.  1.
     999902    2    1    2    0    0 -0.18579424055E-01 -0.13495083884E-01 -0.22231701468E-02  0.10208593526E+01  0.10205986297E+01 0.  0.
     999903    2    3    3    0    0 -0.98949108366E-01 -0.59766976950E-01 -0.64174240675E-01  0.13382028388E+00  0.20652303305E-01 0.  0.
         14    1    1    2    0    0  0.18579424055E-01  0.13495083884E-01  0.22231701468E-02  0.23070647428E-01  0.00000000000E+00 0. -1.
     999901    1    3    3    0    0  0.80369684312E-01  0.46271893066E-01  0.61951070528E-01  0.88703906869E+00  0.88000000000E+00 0. -1.
        -11    1    4    4    0    0 -0.61526943466E-01 -0.27524773588E-01 -0.30168272386E-01  0.73848247867E-01  0.51100000000E-03 0. -1.
         11    1    4    4    0    0 -0.37422164900E-01 -0.32242203361E-01 -0.34005968289E-01  0.59972036014E-01  0.51100000000E-03 0.  1.
</event>
<event>
 8    1  0.1207611E+005  0.1043930E+01  0.7957747E-01            NaN
         13   -1    0    0    0    0  0.00000000000E+00  0.00000000000E+00  0.74505805969E-08  0.10566000000E+00  0.10566000000E+00 0. -1.
     999900   -1    0    0    0    0 -0.00000000000E+00 -0.00000000000E+00 -0.74505805969E-08  0.93827000000E+00  0.93827000000E+00 0. -1.
     999902    2    1    2    0    0  0.10206675973E-01 -0.58111847488E-02  0.20655608028E-01  0.10201686817E+01  0.10198919251E+01 0.  0.
     999903    2    3    3    0    0 -0.21991326580E-02  0.12692610779E+00 -0.15292638975E-01  0.12940195056E+00  0.19897913924E-01 0.  0.
         14    1    1    2    0    0 -0.10206675973E-01  0.58111847488E-02 -0.20655608028E-01  0.23761318263E-01  0.00000000000E+00 0.  1.
     999901    1    3    3    0    0  0.12405808631E-01 -0.13273729253E+00  0.35948247003E-01  0.89076673118E+00  0.88000000000E+00 0.  1.
        -11    1    4    4    0    0 -0.28428347895E-02  0.11267188734E+00 -0.70810688964E-02  0.11293112310E+00  0.51100000000E-03 0. -1.
         11    1    4    4    0    0  0.64370213147E-03  0.14254220442E-01 -0.82115700790E-02  0.16470827453E-01  0.51100000000E-03 0.  1.
</event>
<event>
 8    1  0.1207611E+005  0.1043930E+01  0.7957747E-01            NaN
         13   -1    0    0    0    0  0.00000000000E+00  0.00000000000E+00  0.74505805969E-08  0.10566000000E+00  0.10566000000E+00 0.  1.
     999900   -1    0    0    0    0 -0.00000000000E+00 -0.00000000000E+00 -0.74505805969E-08  0.93827000000E+00  0.93827000000E+00 0.  1.
     999902    2    1    2    0    0 -0.15806196331E-01 -0.10070743954E-01 -0.15692461823E-01  0.10194860011E+01  0.10191929146E+01 0.  0.
     999903    2    3    3    0    0 -0.11895523353E+00 -0.33952131064E-01  0.38360509782E-01  0.13149288832E+00  0.22710265972E-01 0.  0.
         14    1    1    2    0    0  0.15806196331E-01  0.10070743954E-01  0.15692461823E-01  0.24443998942E-01  0.00000000000E+00 0.  1.
     999901    1    3    3    0    0  0.10314903720E+00  0.23881387110E-01 -0.54052971605E-01  0.88799311274E+00  0.88000000000E+00 0.  1.
        -11    1    4    4    0    0 -0.22621191304E-01 -0.74201240252E-02 -0.16232407772E-02  0.23867814483E-01  0.51100000000E-03 0.  1.
         11    1    4    4    0    0 -0.96334042227E-01 -0.26532007039E-01  0.39983750559E-01  0.10762507384E+00  0.51100000000E-03 0. -1.
</event>
<event>
 8    1  0.1207611E+005  0.1043930E+01  0.7957747E-01            NaN
         13   -1    0    0    0    0  0.00000000000E+00  0.00000000000E+00  0.74505805969E-08  0.10566000000E+00  0.10566000000E+00 0.  1.
     999900   -1    0    0    0    0 -0.00000000000E+00 -0.00000000000E+00 -0.74505805969E-08  0.93827000000E+00  0.93827000000E+00 0. -1.
     999902    2    1    2    0    0 -0.43336752375E-02  0.13197135418E-01 -0.16254485881E-01  0.10225488533E+01  0.10223252926E+01 0.  0.
     999903    2    3    3    0    0 -0.54286053723E-01 -0.10462873030E+00  0.52575058469E-01  0.13063199564E+00  0.20160225175E-01 0.  0.
         14    1    1    2    0    0  0.43336752375E-02 -0.13197135418E-01  0.16254485881E-01  0.21381146732E-01  0.00000000000E+00 0.  1.
     999901    1    3    3    0    0  0.49952378485E-01  0.11782586572E+00 -0.68829544350E-01  0.89191685763E+00  0.88000000000E+00 0.  1.
        -11    1    4    4    0    0 -0.16600759807E-01 -0.47583770449E-01  0.29890868799E-01  0.58596293354E-01  0.51100000000E-03 0.  1.
         11    1    4    4    0    0 -0.37685293916E-01 -0.57044959849E-01  0.22684189670E-01  0.72035702285E-01  0.51100000000E-03 0. -1.
</event>
<event>
 8    1  0.1207611E+005  0.1043930E+01  0.7957747E-01            NaN
         13   -1    0    0    0    0  0.00000000000E+00  0.00000000000E+00  0.74505805969E-08  0.10566000000E+00  0.10566000000E+00 0. -1.
     999900   -1    0    0    0    0 -0.00000000000E+00 -0.00000000000E+00 -0.74505805969E-08  0.93827000000E+00  0.93827000000E+00 0.  1.
     999902    2    1    2    0    0  0.46240805873E-02  0.24929047708E-01  0.13106496514E-02  0.10185418661E+01  0.10182254051E+01 0.  0.
     999903    2    3    3    0    0  0.78585676081E-02  0.86250328840E-01 -0.96460967320E-01  0.13100028931E+00  0.18854211028E-01 0.  0.
         14    1    1    2    0    0 -0.46240805873E-02 -0.24929047708E-01 -0.13106496514E-02  0.25388133910E-01  0.00000000000E+00 0.  1.
     999901    1    3    3    0    0 -0.32344870208E-02 -0.61321281132E-01  0.97771616972E-01  0.88754157678E+00  0.88000000000E+00 0. -1.
        -11    1    4    4    0    0  0.87104048165E-02  0.83082352931E-01 -0.85455883477E-01  0.11950530391E+00  0.51100000000E-03 0.  1.
         11    1    4    4    0    0 -0.85183720840E-03  0.31679759081E-02 -0.11005083843E-01  0.11494985402E-01  0.51100000000E-03 0. -1.
</event>
<event>
 8    1  0.1207611E+005  0.1043930E+01  0.7957747E-01            NaN
         13   -1    0    0    0    0  0.00000000000E+00  0.00000000000E+00  0.74505805969E-08  0.10566000000E+00  0.10566000000E+00 0.  1.
     999900   -1    0    0    0    0 -0.00000000000E+00 -0.00000000000E+00 -0.74505805969E-08  0.93827000000E+00  0.93827000000E+00 0. -1.
     999902    2    1    2    0    0  0.62262065245E-02  0.18245531488E-01 -0.14968325389E-01  0.10195227095E+01  0.10192305133E+01 0.  0.
     999903    2    3    3    0    0  0.65292154838E-01 -0.30914861748E-01  0.10405087910E+00  0.12819162531E+00  0.19690434205E-01 0.  0.
         14    1    1    2    0    0 -0.62262065245E-02 -0.18245531488E-01  0.14968325389E-01  0.24407290548E-01  0.00000000000E+00 0.  1.
     999901    1    3    3    0    0 -0.59065948314E-01  0.49160393236E-01 -0.11901920449E+00  0.89133108414E+00  0.88000000000E+00 0. -1.
        -11    1    4    4    0    0  0.64802865153E-01 -0.27268579683E-01  0.93354949261E-01  0.11686913383E+00  0.51100000000E-03 0.  1.
         11    1    4    4    0    0  0.48928968565E-03 -0.36462820654E-02  0.10695929837E-01  0.11322491483E-01  0.51100000000E-03 0. -1.
</event>
<event>
 8    1  0.1207611E+005  0.1043930E+01  0.7957747E-01            NaN
         13   -1    0    0    0    0  0.00000000000E+00  0.00000000000E+00  0.74505805969E-08  0.10566000000E+00  0.10566000000E+00 0. -1.
     999900   -1    0    0    0    0 -0.00000000000E+00 -0.00000000000E+00 -0.74505805969E-08  0.93827000000E+00  0.93827000000E+00 0. -1.
     999902    2    1    2    0    0 -0.31085547734E-02  0.42050926809E-02  0.23723391670E-01  0.10196370951E+01  0.10193476642E+01 0.  0.
     999903    2    3    3    0    0 -0.91400784957E-01  0.78637732257E-01 -0.43226998189E-01  0.12957075460E+00  0.19545092746E-01 0.  0.
         14    1    1    2    0    0  0.31085547734E-02 -0.42050926809E-02 -0.23723391670E-01  0.24292904922E-01  0.00000000000E+00 0.  1.
     999901    1    3    3    0    0  0.88292230184E-01 -0.74432639576E-01  0.66950389859E-01  0.89006634048E+00  0.88000000000E+00 0.  1.
        -11    1    4    4    0    0 -0.64185961646E-01  0.46433800576E-01 -0.34999416924E-01  0.86609213219E-01  0.51100000000E-03 0. -1.
         11    1    4    4    0    0 -0.27214823311E-01  0.32203931681E-01 -0.82275812660E-02  0.42961541384E-01  0.51100000000E-03 0.  1.
</event>
<event>
 8    1  0.1207611E+005  0.1043930E+01  0.7957747E-01            NaN
         13   -1    0    0    0    0  0.00000000000E+00  0.00000000000E+00  0.74505805969E-08  0.10566000000E+00  0.10566000000E+00 0. -1.
     999900   -1    0    0    0    0 -0.00000000000E+00 -0.00000000000E+00 -0.74505805969E-08  0.93827000000E+00  0.93827000000E+00 0. -1.
     999902    2    1    2    0    0 -0.92991906713E-02 -0.17755843588E-01 -0.43553073536E-02  0.10234186950E+01  0.10232131311E+01 0.  0.
     999903    2    3    3    0    0 -0.43748531695E-01  0.26793946451E-01 -0.12203401442E+00  0.13380095749E+00  0.19456257536E-01 0.  0.
         14    1    1    2    0    0  0.92991906713E-02  0.17755843588E-01  0.43553073536E-02  0.20511304951E-01  0.00000000000E+00 0.  1.
     999901    1    3    3    0    0  0.34449341024E-01 -0.44549790039E-01  0.11767870706E+00  0.88961773756E+00  0.88000000000E+00 0.  1.
        -11    1    4    4    0    0 -0.61779948612E-02  0.64980933897E-02 -0.43394623390E-01  0.44314188455E-01  0.51100000000E-03 0. -1.
         11    1    4    4    0    0 -0.37570536834E-01  0.20295853062E-01 -0.78639391028E-01  0.89486769032E-01  0.51100000000E-03 0.  1.
</event>
<event>
 8    1  0.1207611E+005  0.1043930E+01  0.7957747E-01            NaN
         13   -1    0    0    0    0  0.00000000000E+00  0.00000000000E+00  0.74505805969E-08  0.10566000000E+00  0.10566000000E+00 0. -1.
     999900   -1    0    0    0    0 -0.00000000000E+00 -0.00000000000E+00 -0.74505805969E-08  0.93827000000E+00  0.93827000000E+00 0.  1.
     999902    2    1    2    0    0  0.14234257538E-01 -0.30866475824E-02 -0.27681375275E-01  0.10126506135E+01  0.10121674096E+01 0.  0.
     999903    2    3    3    0    0  0.50116152353E-01  0.11127761452E+00  0.27366584643E-02  0.12400447946E+00  0.21801041408E-01 0.  0.
         14    1    1    2    0    0 -0.14234257538E-01  0.30866475824E-02  0.27681375275E-01  0.31279386472E-01  0.00000000000E+00 0. -1.
     999901    1    3    3    0    0 -0.35881894814E-01 -0.11436426210E+00 -0.30418033739E-01  0.88864613407E+00  0.88000000000E+00 0.  1.
        -11    1    4    4    0    0  0.31199845189E-02  0.18349436969E-01  0.67089358416E-02  0.19791591185E-01  0.51100000000E-03 0.  1.
         11    1    4    4    0    0  0.46996167834E-01  0.92928177549E-01 -0.39722773773E-02  0.10421288827E+00  0.51100000000E-03 0. -1.
</event>
<event>
 8    1  0.1207611E+005  0.1043930E+01  0.7957747E-01            NaN
         13   -1    0    0    0    0  0.00000000000E+00  0.00000000000E+00  0.74505805969E-08  0.10566000000E+00  0.10566000000E+00 0.  1.
     999900   -1    0    0    0    0 -0.00000000000E+00 -0.00000000000E+00 -0.74505805969E-08  0.93827000000E+00  0.93827000000E+00 0.  1.
     999902    2    1    2    0    0 -0.53892351809E-02  0.19605235214E-01  0.10025639184E-01  0.10212601402E+01  0.10210084972E+01 0.  0.
     999903    2    3    3    0    0 -0.12707195259E+00  0.16813824913E-01  0.28144859274E-01  0.13269794098E+00  0.19662771759E-01 0.  0.
         14    1    1    2    0    0  0.53892351809E-02 -0.19605235214E-01 -0.10025639184E-01  0.22669859829E-01  0.00000000000E+00 0. -1.
     999901    1    3    3    0    0  0.12168271741E+00  0.27914103013E-02 -0.18119220090E-01  0.88856219919E+00  0.88000000000E+00 0.  1.
        -11    1    4    4    0    0 -0.37520708428E-01  0.14639625620E-03  0.58336038829E-03  0.37529007756E-01  0.51100000000E-03 0. -1.
         11    1    4    4    0    0 -0.89551244166E-01  0.16667428656E-01  0.27561498886E-01  0.95168933227E-01  0.51100000000E-03 0.  1.
</event>
<event>
 8    1  0.1207611E+005  0.1043930E+01  0.7957747E-01            NaN
         13   -1    0    0    0    0  0.00000000000E+00  0.00000000000E+00  0.74505805969E-08  0.10566000000E+00  0.10566000000E+00 0. -1.
     999900   -1    0    0    0    0 -0.00000000000E+00 -0.00000000000E+00 -0.74505805969E-08  0.93827000000E+00  0.93827000000E+00 0.  1.
     999902    2    1    2    0    0  0.20066005443E-01 -0.43185838160E-02  0.63518131521E-02  0.10224441844E+01  0.10222184062E+01 0.  0.
     999903    2    3    3    0    0  0.11389665314E+00 -0.59022126535E-01 -0.35822864482E-01  0.13476441589E+00  0.20545343834E-01 0.  0.
         14    1    1    2    0    0 -0.20066005443E-01  0.43185838160E-02 -0.63518131521E-02  0.21485815575E-01  0.00000000000E+00 0. -1.
     999901    1    3    3    0    0 -0.93830647697E-01  0.54703542719E-01  0.42174677634E-01  0.88767976854E+00  0.88000000000E+00 0.  1.
        -11    1    4    4    0    0  0.87617163183E-01 -0.40471857175E-01 -0.34736253461E-01  0.10257488451E+00  0.51100000000E-03 0. -1.
         11    1    4    4    0    0  0.26279489957E-01 -0.18550269360E-01 -0.10866110212E-02  0.32189531377E-01  0.51100000000E-03 0.  1.
</event>
<event>
 8    1  0.1207611E+005  0.1043930E+01  0.7957747E-01            NaN
         13   -1    0    0    0    0  0.00000000000E+00  0.00000000000E+00  0.74505805969E-08  0.10566000000E+00  0.10566000000E+00 0.  1.
     999900   -1    0    0    0    0 -0.00000000000E+00 -0.00000000000E+00 -0.74505805969E-08  0.93827000000E+00  0.93827000000E+00 0. -1.
     999902    2    1    2    0    0 -0.17632239874E-01  0.62320530183E-02  0.13420842249E-01  0.10209114559E+01  0.10206519227E+01 0.  0.
     999903    2    3    3    0    0 -0.12865530405E+00 -0.27802488260E-01  0.63660669590E-02  0.13325485523E+00  0.19777866933E-01 0.  0.
         14    1    1    2    0    0  0.17632239874E-01 -0.62320530183E-02 -0.13420842249E-01  0.23018544143E-01  0.00000000000E+00 0.  1.
     999901    1    3    3    0    0  0.11102306418E+00  0.34034541278E-01  0.70547752902E-02  0.88765660063E+00  0.88000000000E+00 0.  1.
        -11    1    4    4    0    0 -0.62726753752E-01 -0.11217889501E-01  0.12695790752E-01  0.64976387288E-01  0.51100000000E-03 0.  1.
         11    1    4    4    0    0 -0.65928550298E-01 -0.16584598758E-01 -0.63297237932E-02  0.68278467944E-01  0.51100000000E-03 0. -1.
</event>
<event>
 8    1  0.1207611E+005  0.1043930E+01  0.7957747E-01            NaN
         13   -1    0    0    0    0  0.00000000000E+00  0.00000000000E+00  0.74505805969E-08  0.10566000000E+00  0.10566000000E+00 0. -1.
     999900   -1    0    0    0    0 -0.00000000000E+00 -0.00000000000E+00 -0.74505805969E-08  0.93827000000E+00  0.93827000000E+00 0.  1.
     999902    2    1    2    0    0 -0.41467395074E-02 -0.19391309108E-01  0.39001271953E-02  0.10237203659E+01  0.10235208636E+01 0.  0.
     999903    2    3    3    0    0 -0.33039299786E-01  0.12522222058E+00  0.12544634956E-01  0.13140731518E+00  0.18393334669E-01 0.  0.
         14    1    1    2    0    0  0.41467395074E-02  0.19391309108E-01 -0.39001271953E-02  0.20209634079E-01  0.00000000000E+00 0.  1.
     999901    1    3    3    0    0  0.28892560278E-01 -0.14461352968E+00 -0.86445077607E-02  0.89231305074E+00  0.88000000000E+00 0. -1.
        -11    1    4    4    0    0 -0.28325823604E-01  0.12154130537E+00  0.12219740149E-01  0.12539626934E+00  0.51100000000E-03 0.  1.
         11    1    4    4    0    0 -0.47134761822E-02  0.36809152088E-02  0.32489480684E-03  0.60110458433E-02  0.51100000000E-03 0. -1.
</event>
<event>
 8    1  0.1207611E+005  0.1043930E+01  0.7957747E-01            NaN
         13   -1    0    0    0    0  0.00000000000E+00  0.00000000000E+00  0.74505805969E-08  0.10566000000E+00  0.10566000000E+00 0. -1.
     999900   -1    0    0    0    0 -0.00000000000E+00 -0.00000000000E+00 -0.74505805969E-08  0.93827000000E+00  0.93827000000E+00 0.  1.
     999902    2    1    2    0    0  0.11153007179E-01 -0.76103843508E-02  0.19761849350E-01  0.10199959613E+01  0.10197151185E+01 0.  0.
     999903    2    3    3    0    0  0.80789567971E-01 -0.90553842737E-02  0.10356777534E+00  0.13327460041E+00  0.20661092584E-01 0.  0.
         14    1    1    2    0    0 -0.11153007179E-01  0.76103843508E-02 -0.19761849350E-01  0.23934038707E-01  0.00000000000E+00 0.  1.
     999901    1    3    3    0    0 -0.69636560792E-01  0.14449999229E-02 -0.83805925992E-01  0.88672136089E+00  0.88000000000E+00 0.  1.
        -11    1    4    4    0    0  0.37262896139E-01 -0.12023843225E-01  0.38361068579E-01  0.54817232127E-01  0.51100000000E-03 0.  1.
         11    1    4    4    0    0  0.43526671832E-01  0.29684589518E-02  0.65206706763E-01  0.78457368278E-01  0.51100000000E-03 0. -1.
</event>
<event>
 8    1  0.1207611E+005  0.1043930E+01  0.7957747E-01            NaN
         13   -1    0    0    0    0  0.00000000000E+00  0.00000000000E+00  0.74505805969E-08  0.10566000000E+00  0.10566000000E+00 0. -1.
     999900   -1    0    0    0    0 -0.00000000000E+00 -0.00000000000E+00 -0.74505805969E-08  0.93827000000E+00  0.93827000000E+00 0.  1.
     999902    2    1    2    0    0  0.28876286736E-03  0.13965935861E-01 -0.20664071908E-01  0.10189873735E+01  0.10186820568E+01 0.  0.
     999903    2    3    3    0    0  0.36432066711E-01  0.10244723059E+00 -0.72600919079E-01  0.13228972830E+00  0.20172957697E-01 0.  0.
         14    1    1    2    0    0 -0.28876286736E-03 -0.13965935861E-01  0.20664071908E-01  0.24942626491E-01  0.00000000000E+00 0. -1.
     999901    1    3    3    0    0 -0.36143303843E-01 -0.88481294726E-01  0.51936847172E-01  0.88669764521E+00  0.88000000000E+00 0. -1.
        -11    1    4    4    0    0  0.25054162145E-01  0.56940680484E-01 -0.30622721869E-01  0.69339486228E-01  0.51100000000E-03 0. -1.
         11    1    4    4    0    0  0.11377904566E-01  0.45506550103E-01 -0.41978197210E-01  0.62950242069E-01  0.51100000000E-03 0.  1.
</event>
<event>
 8    1  0.1207611E+005  0.1043930E+01  0.7957747E-01            NaN
         13   -1    0    0    0    0  0.00000000000E+00  0.00000000000E+00  0.74505805969E-08  0.10566000000E+00  0.10566000000E+00 0. -1.
     999900   -1    0    0    0    0 -0.00000000000E+00 -0.00000000000E+00 -0.74505805969E-08  0.93827000000E+00  0.93827000000E+00 0.  1.
     999902    2    1    2    0    0 -0.47053402672E-02 -0.96829091780E-02  0.20323552005E-01  0.10209311800E+01  0.10206720965E+01 0.  0.
     999903    2    3    3    0    0  0.10827710624E+00 -0.54560499717E-01  0.48633240757E-01  0.13212272488E+00  0.19759616815E-01 0.  0.
         14    1    1    2    0    0  0.47053402672E-02  0.96829091780E-02 -0.20323552005E-01  0.22998820041E-01  0.00000000000E+00 0.  1.
     999901    1    3    3    0    0 -0.11298244651E+00  0.44877590539E-01 -0.28309688752E-01  0.88880845508E+00  0.88000000000E+00 0.  1.
        -11    1    4    4    0    0  0.67513326164E-01 -0.27478761074E-01  0.20723603739E-01  0.75781662642E-01  0.51100000000E-03 0.  1.
         11    1    4    4    0    0  0.40763780077E-01 -0.27081738643E-01  0.27909637017E-01  0.56341062233E-01  0.51100000000E-03 0. -1.
</event>
<event>
 8    1  0.1207611E+005  0.1043930E+01  0.7957747E-01            NaN
         13   -1    0    0    0    0  0.00000000000E+00  0.00000000000E+00  0.74505805969E-08  0.10566000000E+00  0.10566000000E+00 0.  1.
     999900   -1    0    0    0    0 -0.00000000000E+00 -0.00000000000E+00 -0.74505805969E-08  0.93827000000E+00  0.93827000000E+00 0.  1.
     999902    2    1    2    0    0 -0.91518035389E-02  0.29854759382E-02  0.22148785582E-01  0.10197796941E+01  0.10194936916E+01 0.  0.
     999903    2    3    3    0    0 -0.40315883255E-01  0.98608273417E-01  0.76791056291E-01  0.13236733387E+00  0.16591646092E-01 0.  0.
         14    1    1    2    0    0  0.91518035389E-02 -0.29854759382E-02 -0.22148785582E-01  0.24150305947E-01  0.00000000000E+00 0. -1.
     999901    1    3    3    0    0  0.31164079716E-01 -0.95622797478E-01 -0.54642270710E-01  0.88741236019E+00  0.88000000000E+00 0. -1.
        -11    1    4    4    0    0 -0.16823456812E-01  0.43139630377E-01  0.43529220296E-01  0.63553997111E-01  0.51100000000E-03 0.  1.
         11    1    4    4    0    0 -0.23492426442E-01  0.55468643040E-01  0.33261835995E-01  0.68813336756E-01  0.51100000000E-03 0. -1.
</event>
<event>
 8    1  0.1207611E+005  0.1043930E+01  0.7957747E-01            NaN
         13   -1    0    0    0    0  0.00000000000E+00  0.00000000000E+00  0.74505805969E-08  0.10566000000E+00  0.10566000000E+00 0. -1.
     999900   -1    0    0    0    0 -0.00000000000E+00 -0.00000000000E+00 -0.74505805969E-08  0.93827000000E+00  0.93827000000E+00 0.  1.
     999902    2    1    2    0    0  0.33226386035E-03 -0.25232379711E-02 -0.25242937676E-01  0.10185590908E+01  0.10182430645E+01 0.  0.
     999903    2    3    3    0    0 -0.27853136770E-01 -0.12250268526E+00 -0.26536026087E-01  0.12996967122E+00  0.20130813046E-01 0.  0.
         14    1    1    2    0    0 -0.33226386035E-03  0.25232379711E-02  0.25242937676E-01  0.25370909161E-01  0.00000000000E+00 0. -1.
     999901    1    3    3    0    0  0.28185400630E-01  0.11997944729E+00  0.12930884111E-02  0.88858941962E+00  0.88000000000E+00 0.  1.
        -11    1    4    4    0    0 -0.19133017055E-03 -0.33302525632E-01 -0.17922470118E-02  0.33355180873E-01  0.51100000000E-03 0. -1.
         11    1    4    4    0    0 -0.27661806599E-01 -0.89200159625E-01 -0.24743779075E-01  0.96614490348E-01  0.51100000000E-03 0.  1.
</event>
<event>
 8    1  0.1207611E+005  0.1043930E+01  0.7957747E-01            NaN
         13   -1    0    0    0    0  0.00000000000E+00  0.00000000000E+00  0.74505805969E-08  0.10566000000E+00  0.10566000000E+00 0. -1.
     999900   -1    0    0    0    0 -0.00000000000E+00 -0.00000000000E+00 -0.74505805969E-08  0.93827000000E+00  0.93827000000E+00 0.  1.
     999902    2    1    2    0    0  0.11881877867E-01  0.96711098266E-04  0.19377615511E-01  0.10211993960E+01  0.10209463875E+01 0.  0.
     999903    2    3    3    0    0 -0.29309915352E-01  0.76616361522E-01 -0.97688340763E-01  0.12920362313E+00  0.20528670617E-01 0.  0.
         14    1    1    2    0    0 -0.11881877867E-01 -0.96711098266E-04 -0.19377615511E-01  0.22730603986E-01  0.00000000000E+00 0.  1.
     999901    1    3    3    0    0  0.41191793219E-01 -0.76519650424E-01  0.11706595627E+00  0.89199577289E+00  0.88000000000E+00 0. -1.
        -11    1    4    4    0    0 -0.10393672284E-01  0.11536906758E-01 -0.27817084578E-01  0.31861888779E-01  0.51100000000E-03 0.  1.
         11    1    4    4    0    0 -0.18916243068E-01  0.65079454764E-01 -0.69871256185E-01  0.97341734349E-01  0.51100000000E-03 0. -1.
</event>
<event>
 8    1  0.1207611E+005  0.1043930E+01  0.7957747E-01            NaN
         13   -1    0    0    0    0  0.00000000000E+00  0.00000000000E+00  0.74505805969E-08  0.10566000000E+00  0.10566000000E+00 0. -1.
     999900   -1    0    0    0    0 -0.00000000000E+00 -0.00000000000E+00 -0.74505805969E-08  0.93827000000E+00  0.93827000000E+00 0.  1.
     999902    2    1    2    0    0  0.14107065525E-01 -0.18645823612E-01 -0.10287902594E-02  0.10205262728E+01  0.10202578787E+01 0.  0.
     999903    2    3    3    0    0  0.78684652672E-01  0.96567321097E-01  0.34813223266E-01  0.12994837988E+00  0.12573736533E-01 0.  0.
         14    1    1    2    0    0 -0.14107065525E-01  0.18645823612E-01  0.10287902594E-02  0.23403727167E-01  0.00000000000E+00 0.  1.
     999901    1    3    3    0    0 -0.64577587147E-01 -0.11521314471E+00 -0.35842013526E-01  0.89057789295E+00  0.88000000000E+00 0. -1.
        -11    1    4    4    0    0  0.66020802343E-01  0.76023639567E-01  0.24074009116E-01  0.10352854269E+00  0.51100000000E-03 0.  1.
         11    1    4    4    0    0  0.12663850330E-01  0.20543681529E-01  0.10739214150E-01  0.26419837197E-01  0.51100000000E-03 0. -1.
</event>
<event>
 8    1  0.1207611E+005  0.1043930E+01  0.7957747E-01            NaN
         13   -1    0    0    0    0  0.00000000000E+00  0.00000000000E+00  0.74505805969E-08  0.10566000000E+00  0.10566000000E+00 0. -1.
     999900   -1    0    0    0    0 -0.00000000000E+00 -0.00000000000E+00 -0.74505805969E-08  0.93827000000E+00  0.93827000000E+00 0.  1.
     999902    2    1    2    0    0 -0.13150088651E-02 -0.23072443369E-01  0.53217036172E-02  0.10202152910E+01  0.10199396319E+01 0.  0.
     999903    2    3    3    0    0 -0.38658151499E-01  0.11610090809E+00  0.32102953995E-01  0.12809368082E+00  0.20087754336E-01 0.  0.
         14    1    1    2    0    0  0.13150088651E-02  0.23072443369E-01 -0.53217036172E-02  0.23714708953E-01  0.00000000000E+00 0.  1.
     999901    1    3    3    0    0  0.37343142634E-01 -0.13917335146E+00 -0.26781250377E-01  0.89212161023E+00  0.88000000000E+00 0.  1.
        -11    1    4    4    0    0 -0.29906744611E-01  0.70250544910E-01  0.27631173394E-01  0.81199108970E-01  0.51100000000E-03 0. -1.
         11    1    4    4    0    0 -0.87514068882E-02  0.45850363183E-01  0.44717806001E-02  0.46894571853E-01  0.51100000000E-03 0.  1.
</event>
<event>
 8    1  0.1207611E+005  0.1043930E+01  0.7957747E-01            NaN
         13   -1    0    0    0    0  0.00000000000E+00  0.00000000000E+00  0.74505805969E-08  0.10566000000E+00  0.10566000000E+00 0. -1.
     999900   -1    0    0    0    0 -0.00000000000E+00 -0.00000000000E+00 -0.74505805969E-08  0.93827000000E+00  0.93827000000E+00 0. -1.
     999902    2    1    2    0    0 -0.60873941888E-02  0.59709681298E-02 -0.22174774777E-01  0.10201722757E+01  0.10198956038E+01 0.  0.
     999903    2    3    3    0    0 -0.53272888938E-01  0.38710377731E-01  0.10873906757E+00  0.12863608798E+00  0.19661237910E-01 0.  0.
         14    1    1    2    0    0  0.60873941888E-02 -0.59709681298E-02  0.22174774777E-01  0.23757724319E-01  0.00000000000E+00 0. -1.
     999901    1    3    3    0    0  0.47185494749E-01 -0.32739409602E-01 -0.13091384235E+00  0.89153618770E+00  0.88000000000E+00 0. -1.
        -11    1    4    4    0    0 -0.13516751099E-01  0.27296331216E-02  0.13304216170E-01  0.19168117961E-01  0.51100000000E-03 0. -1.
         11    1    4    4    0    0 -0.39756137839E-01  0.35980744610E-01  0.95434851398E-01  0.10946797002E+00  0.51100000000E-03 0.  1.
</event>
<event>
 8    1  0.1207611E+005  0.1043930E+01  0.7957747E-01            NaN
         13   -1    0    0    0    0  0.00000000000E+00  0.00000000000E+00  0.74505805969E-08  0.10566000000E+00  0.10566000000E+00 0.  1.
     999900   -1    0    0    0    0 -0.00000000000E+00 -0.00000000000E+00 -0.74505805969E-08  0.93827000000E+00  0.93827000000E+00 0.  1.
     999902    2    1    2    0    0  0.69869021966E-02 -0.21769127614E-01  0.76255184838E-02  0.10198289575E+01  0.10195441345E+01 0.  0.
     999903    2    3    3    0    0  0.92439701010E-01  0.86631132005E-01  0.15778383241E-01  0.12903197368E+00  0.18714740139E-01 0.  0.
         14    1    1    2    0    0 -0.69869021966E-02  0.21769127614E-01 -0.76255184838E-02  0.24101042540E-01  0.00000000000E+00 0. -1.
     999901    1    3    3    0    0 -0.85452798813E-01 -0.10840025962E+00 -0.81528647568E-02  0.89079698378E+00  0.88000000000E+00 0.  1.
        -11    1    4    4    0    0  0.70714958182E-01  0.76152110952E-01  0.12029101991E-01  0.10461696674E+00  0.51100000000E-03 0. -1.
         11    1    4    4    0    0  0.21724742827E-01  0.10479021052E-01  0.37492812497E-02  0.24415006943E-01  0.51100000000E-03 0.  1.
</event>
<event>
 8    1  0.1207611E+005  0.1043930E+01  0.7957747E-01            NaN
         13   -1    0    0    0    0  0.00000000000E+00  0.00000000000E+00  0.74505805969E-08  0.10566000000E+00  0.10566000000E+00 0.  1.
     999900   -1    0    0    0    0 -0.00000000000E+00 -0.00000000000E+00 -0.74505805969E-08  0.93827000000E+00  0.93827000000E+00 0. -1.
     999902    2    1    2    0    0 -0.20230817255E-01  0.11643691760E-01 -0.32469727096E-02  0.10203629816E+01  0.10200907851E+01 0.  0.
     999903    2    3    3    0    0 -0.47337773255E-01 -0.96445861880E-01 -0.71780873408E-01  0.13069167476E+00  0.19625264662E-01 0.  0.
         14    1    1    2    0    0  0.20230817255E-01 -0.11643691760E-01  0.32469727096E-02  0.23567018402E-01  0.00000000000E+00 0.  1.
     999901    1    3    3    0    0  0.27106956000E-01  0.10808955364E+00  0.68533900699E-01  0.88967130684E+00  0.88000000000E+00 0. -1.
        -11    1    4    4    0    0 -0.22788184630E-01 -0.34060673860E-01 -0.18089832583E-01  0.44798817244E-01  0.51100000000E-03 0.  1.
         11    1    4    4    0    0 -0.24549588625E-01 -0.62385188020E-01 -0.53691040825E-01  0.85892857514E-01  0.51100000000E-03 0. -1.
</event>
<event>
 8    1  0.1207611E+005  0.1043930E+01  0.7957747E-01            NaN
         13   -1    0    0    0    0  0.00000000000E+00  0.00000000000E+00  0.74505805969E-08  0.10566000000E+00  0.10566000000E+00 0.  1.
     999900   -1    0    0    0    0 -0.00000000000E+00 -0.00000000000E+00 -0.74505805969E-08  0.93827000000E+00  0.93827000000E+00 0. -1.
     999902    2    1    2    0    0  0.25045062157E-02 -0.25017881164E-01  0.47262521049E-02  0.10183467166E+01  0.10180253095E+01 0.  0.
     999903    2    3    3    0    0 -0.31403799831E-01  0.59815700160E-01  0.10643520614E+00  0.12779002496E+00  0.20921776767E-01 0.  0.
         14    1    1    2    0    0 -0.25045062157E-02  0.25017881164E-01 -0.47262521049E-02  0.25583283376E-01  0.00000000000E+00 0. -1.
     999901    1    3    3    0    0  0.33908306047E-01 -0.84833581324E-01 -0.10170895404E+00  0.89055669167E+00  0.88000000000E+00 0. -1.
        -11    1    4    4    0    0 -0.29349412042E-01  0.55716644651E-01  0.84563695429E-01  0.10543724287E+00  0.51100000000E-03 0.  1.
         11    1    4    4    0    0 -0.20543877886E-02  0.40990555082E-02  0.21871510712E-01  0.22352782088E-01  0.51100000000E-03 0. -1.
</event>
<event>
 8    1  0.1207611E+005  0.1043930E+01  0.7957747E-01            NaN
         13   -1    0    0    0    0  0.00000000000E+00  0.00000000000E+00  0.74505805969E-08  0.10566000000E+00  0.10566000000E+00 0. -1.
     999900   -1    0    0    0    0 -0.00000000000E+00 -0.00000000000E+00 -0.74505805969E-08  0.93827000000E+00  0.93827000000E+00 0.  1.
     999902    2    1    2    0    0 -0.16047645557E-01  0.16262884759E-01  0.62896190139E-02  0.10202325812E+01  0.10199573286E+01 0.  0.
     999903    2    3    3    0    0 -0.50988270876E-01 -0.92637078029E-01 -0.71738864812E-01  0.12940796692E+00  0.20457888078E-01 0.  0.
         14    1    1    2    0    0  0.16047645557E-01 -0.16262884759E-01 -0.62896190139E-02  0.23697418761E-01  0.00000000000E+00 0. -1.
     999901    1    3    3    0    0  0.34940625319E-01  0.10889996279E+00  0.78028483826E-01  0.89082461432E+00  0.88000000000E+00 0. -1.
        -11    1    4    4    0    0 -0.26151983456E-01 -0.67367321527E-01 -0.47933413470E-01  0.86718830113E-01  0.51100000000E-03 0. -1.
         11    1    4    4    0    0 -0.24836287420E-01 -0.25269756502E-01 -0.23805451343E-01  0.42689136805E-01  0.51100000000E-03 0.  1.
</event>
<event>
 8    1  0.1207611E+005  0.1043930E+01  0.7957747E-01            NaN
         13   -1    0    0    0    0  0.00000000000E+00  0.00000000000E+00  0.74505805969E-08  0.10566000000E+00  0.10566000000E+00 0.  1.
     999900   -1    0    0    0    0 -0.00000000000E+00 -0.00000000000E+00 -0.74505805969E-08  0.93827000000E+00  0.93827000000E+00 0.  1.
     999902    2    1    2    0    0 -0.14084576300E-01  0.15929607170E-01  0.10251565491E-02  0.10226420076E+01  0.10224204111E+01 0.  0.
     999903    2    3    3    0    0 -0.15121842307E-01  0.82445810131E-02 -0.13009956514E+00  0.13289270124E+00  0.20926776184E-01 0.  0.
         14    1    1    2    0    0  0.14084576300E-01 -0.15929607170E-01 -0.10251565491E-02  0.21287992392E-01  0.00000000000E+00 0.  1.
     999901    1    3    3    0    0  0.10372660075E-02  0.76850261567E-02  0.13112472169E+00  0.88974930637E+00  0.88000000000E+00 0. -1.
        -11    1    4    4    0    0 -0.80295520246E-02 -0.62997331059E-02 -0.36504554590E-01  0.37907835202E-01  0.51100000000E-03 0. -1.
         11    1    4    4    0    0 -0.70922902827E-02  0.14544314119E-01 -0.93595010552E-01  0.94984866036E-01  0.51100000000E-03 0.  1.
</event>
<event>
 8    1  0.1207611E+005  0.1043930E+01  0.7957747E-01            NaN
         13   -1    0    0    0    0  0.00000000000E+00  0.00000000000E+00  0.74505805969E-08  0.10566000000E+00  0.10566000000E+00 0.  1.
     999900   -1    0    0    0    0 -0.00000000000E+00 -0.00000000000E+00 -0.74505805969E-08  0.93827000000E+00  0.93827000000E+00 0. -1.
     999902    2    1    2    0    0 -0.56831165990E-02  0.14071803457E-01  0.17854304789E-01  0.10204973376E+01  0.10202282717E+01 0.  0.
     999903    2    3    3    0    0 -0.10053944165E+00 -0.80251551840E-01  0.54754845099E-02  0.13030193606E+00  0.20003067575E-01 0.  0.
         14    1    1    2    0    0  0.56831165990E-02 -0.14071803457E-01 -0.17854304789E-01  0.23432662382E-01  0.00000000000E+00 0. -1.
     999901    1    3    3    0    0  0.94856325047E-01  0.94323355296E-01  0.12378820279E-01  0.89019540155E+00  0.88000000000E+00 0. -1.
        -11    1    4    4    0    0 -0.26316145537E-01 -0.18952490006E-01  0.99696890171E-02  0.33932170774E-01  0.51100000000E-03 0.  1.
         11    1    4    4    0    0 -0.74223296109E-01 -0.61299061834E-01 -0.44942045072E-02  0.96369765290E-01  0.51100000000E-03 0. -1.
</event>
<event>
 8    1  0.1207611E+005  0.1043930E+01  0.7957747E-01            NaN
         13   -1    0    0    0    0  0.00000000000E+00  0.00000000000E+00  0.74505805969E-08  0.10566000000E+00  0.10566000000E+00 0.  1.
     999900   -1    0    0    0    0 -0.00000000000E+00 -0.00000000000E+00 -0.74505805969E-08  0.93827000000E+00  0.93827000000E+00 0. -1.
     999902    2    1    2    0    0 -0.12794815381E-01  0.63754220559E-02 -0.13263884382E-01  0.10244291299E+01  0.10242435053E+01 0.  0.
     999903    2    3    3    0    0  0.26530320716E-01 -0.18814453429E-01  0.12652027409E+00  0.13217322088E+00  0.20113154575E-01 0.  0.
         14    1    1    2    0    0  0.12794815381E-01 -0.63754220559E-02  0.13263884382E-01  0.19500870132E-01  0.00000000000E+00 0.  1.
     999901    1    3    3    0    0 -0.39325136096E-01  0.25189875485E-01 -0.13978415848E+00  0.89225590898E+00  0.88000000000E+00 0. -1.
        -11    1    4    4    0    0  0.12689905969E-01  0.12469340798E-02  0.29590657258E-01  0.32225093888E-01  0.51100000000E-03 0.  1.
         11    1    4    4    0    0  0.13840414746E-01 -0.20061387509E-01  0.96929616836E-01  0.99948126996E-01  0.51100000000E-03 0. -1.
</event>
<event>
 8    1  0.1207611E+005  0.1043930E+01  0.7957747E-01            NaN
         13   -1    0    0    0    0  0.00000000000E+00  0.00000000000E+00  0.74505805969E-08  0.10566000000E+00  0.10566000000E+00 0.  1.
     999900   -1    0    0    0    0 -0.00000000000E+00 -0.00000000000E+00 -0.74505805969E-08  0.93827000000E+00  0.93827000000E+00 0.  1.
     999902    2    1    2    0    0  0.26988533460E-01 -0.26348058217E-02  0.26628646314E-02  0.10166827251E+01  0.10163175437E+01 0.  0.
     999903    2    3    3    0    0  0.64109166600E-01  0.10494280783E+00 -0.33427036178E-01  0.12862114770E+00  0.17408467187E-01 0.  0.
         14    1    1    2    0    0 -0.26988533460E-01  0.26348058217E-02 -0.26628646314E-02  0.27247274875E-01  0.00000000000E+00 0. -1.
     999901    1    3    3    0    0 -0.37120633140E-01 -0.10757761365E+00  0.36089900809E-01  0.88806157743E+00  0.88000000000E+00 0. -1.
        -11    1    4    4    0    0  0.55248594378E-01  0.85673795373E-01 -0.21167384071E-01  0.10411880552E+00  0.51100000000E-03 0.  1.
         11    1    4    4    0    0  0.88605722216E-02  0.19269012457E-01 -0.12259652106E-01  0.24502342173E-01  0.51100000000E-03 0. -1.
</event>
<event>
 8    1  0.1207611E+005  0.1043930E+01  0.7957747E-01            NaN
         13   -1    0    0    0    0  0.00000000000E+00  0.00000000000E+00  0.74505805969E-08  0.10566000000E+00  0.10566000000E+00 0.  1.
     999900   -1    0    0    0    0 -0.00000000000E+00 -0.00000000000E+00 -0.74505805969E-08  0.93827000000E+00  0.93827000000E+00 0.  1.
     999902    2    1    2    0    0 -0.16070033700E-01  0.10728309138E-01 -0.79872487977E-02  0.10230221368E+01  0.10228084638E+01 0.  0.
     999903    2    3    3    0    0 -0.17167922489E-01 -0.86642547434E-01  0.95612206589E-01  0.13161025881E+00  0.19439588139E-01 0.  0.
         14    1    1    2    0    0  0.16070033700E-01 -0.10728309138E-01  0.79872487977E-02  0.20907863197E-01  0.00000000000E+00 0. -1.
     999901    1    3    3    0    0  0.10978887891E-02  0.97370856573E-01 -0.10359945539E+00  0.89141187799E+00  0.88000000000E+00 0.  1.
        -11    1    4    4    0    0 -0.76881128480E-03 -0.51287173260E-01  0.50326324926E-01  0.71860735547E-01  0.51100000000E-03 0.  1.
         11    1    4    4    0    0 -0.16399111205E-01 -0.35355374174E-01  0.45285881663E-01  0.59749523264E-01  0.51100000000E-03 0. -1.
</event>
<event>
 8    1  0.1207611E+005  0.1043930E+01  0.7957747E-01            NaN
         13   -1    0    0    0    0  0.00000000000E+00  0.00000000000E+00  0.74505805969E-08  0.10566000000E+00  0.10566000000E+00 0.  1.
     999900   -1    0    0    0    0 -0.00000000000E+00 -0.00000000000E+00 -0.74505805969E-08  0.93827000000E+00  0.93827000000E+00 0.  1.
     999902    2    1    2    0    0  0.21768273754E-01  0.92896335144E-02 -0.30618149776E-02  0.10200651777E+01  0.10197859761E+01 0.  0.
     999903    2    3    3    0    0 -0.12220190904E+00 -0.86918535732E-02 -0.30278711253E-01  0.12776953898E+00  0.19984990469E-01 0.  0.
         14    1    1    2    0    0 -0.21768273754E-01 -0.92896335144E-02  0.30618149776E-02  0.23864822313E-01  0.00000000000E+00 0.  1.
     999901    1    3    3    0    0  0.14397018280E+00  0.17981487088E-01  0.27216896275E-01  0.89229563871E+00  0.88000000000E+00 0.  1.
        -11    1    4    4    0    0 -0.96232430907E-01 -0.11945997885E-01 -0.17124511722E-01  0.98472826945E-01  0.51100000000E-03 0.  1.
         11    1    4    4    0    0 -0.25969478136E-01  0.32541443117E-02 -0.13154199531E-01  0.29296712036E-01  0.51100000000E-03 0. -1.
</event>
<event>
 8    1  0.1207611E+005  0.1043930E+01  0.7957747E-01            NaN
         13   -1    0    0    0    0  0.00000000000E+00  0.00000000000E+00  0.74505805969E-08  0.10566000000E+00  0.10566000000E+00 0. -1.
     999900   -1    0    0    0    0 -0.00000000000E+00 -0.00000000000E+00 -0.74505805969E-08  0.93827000000E+00  0.93827000000E+00 0. -1.
     999902    2    1    2    0    0 -0.12340603007E-01 -0.22847477702E-01 -0.30884187435E-02  0.10177797409E+01  0.10174437404E+01 0.  0.
     999903    2    3    3    0    0  0.94299022280E-01 -0.45758971125E-01  0.70892502673E-01  0.12796508440E+00  0.19055887519E-01 0.  0.
         14    1    1    2    0    0  0.12340603007E-01  0.22847477702E-01  0.30884187435E-02  0.26150259085E-01  0.00000000000E+00 0.  1.
     999901    1    3    3    0    0 -0.10663962529E+00  0.22911493424E-01 -0.73980921417E-01  0.88981465651E+00  0.88000000000E+00 0. -1.
        -11    1    4    4    0    0  0.54441767623E-01 -0.22928196760E-01  0.29060584097E-01  0.65836061074E-01  0.51100000000E-03 0.  1.
         11    1    4    4    0    0  0.39857254657E-01 -0.22830774365E-01  0.41831918577E-01  0.62129023328E-01  0.51100000000E-03 0. -1.
</event>
<event>
 8    1  0.1207611E+005  0.1043930E+01  0.7957747E-01            NaN
         13   -1    0    0    0    0  0.00000000000E+00  0.00000000000E+00  0.74505805969E-08  0.10566000000E+00  0.10566000000E+00 0.  1.
     999900   -1    0    0    0    0 -0.00000000000E+00 -0.00000000000E+00 -0.74505805969E-08  0.93827000000E+00  0.93827000000E+00 0.  1.
     999902    2    1    2    0    0 -0.11953590551E-01  0.13296537258E-01 -0.17631329074E-01  0.10188192454E+01  0.10185097471E+01 0.  0.
     999903    2    3    3    0    0  0.60798642036E-01  0.47421545039E-01 -0.10387061701E+00  0.13095967417E+00  0.20397386405E-01 0.  0.
         14    1    1    2    0    0  0.11953590551E-01 -0.13296537258E-01  0.17631329074E-01  0.25110754569E-01  0.00000000000E+00 0.  1.
     999901    1    3    3    0    0 -0.72752232587E-01 -0.34125007781E-01  0.86239287938E-01  0.88785957126E+00  0.88000000000E+00 0. -1.
        -11    1    4    4    0    0  0.24310362045E-01  0.25245810026E-01 -0.32556800780E-01  0.47838802500E-01  0.51100000000E-03 0. -1.
         11    1    4    4    0    0  0.36488279991E-01  0.22175735013E-01 -0.71313816232E-01  0.83120871667E-01  0.51100000000E-03 0.  1.
</event>
<event>
 8    1  0.1207611E+005  0.1043930E+01  0.7957747E-01            NaN
         13   -1    0    0    0    0  0.00000000000E+00  0.00000000000E+00  0.74505805969E-08  0.10566000000E+00  0.10566000000E+00 0. -1.
     999900   -1    0    0    0    0 -0.00000000000E+00 -0.00000000000E+00 -0.74505805969E-08  0.93827000000E+00  0.93827000000E+00 0. -1.
     999902    2    1    2    0    0  0.97135139953E-03  0.22898117872E-01  0.60987402865E-02  0.10202137195E+01  0.10199380234E+01 0.  0.
     999903    2    3    3    0    0 -0.11273659747E+00 -0.67878769626E-02  0.62403920704E-01  0.13061772738E+00  0.20276235004E-01 0.  0.
         14    1    1    2    0    0 -0.97135139953E-03 -0.22898117872E-01 -0.60987402865E-02  0.23716280457E-01  0.00000000000E+00 0.  1.
     999901    1    3    3    0    0  0.11370794886E+00  0.29685994835E-01 -0.56305180417E-01  0.88959599216E+00  0.88000000000E+00 0.  1.
        -11    1    4    4    0    0 -0.64256878129E-01 -0.40997207769E-02  0.24027496653E-01  0.68726529184E-01  0.51100000000E-03 0.  1.
         11    1    4    4    0    0 -0.48479719336E-01 -0.26881561857E-02  0.38376424051E-01  0.61891198199E-01  0.51100000000E-03 0. -1.
</event>
<event>
 8    1  0.1207611E+005  0.1043930E+01  0.7957747E-01            NaN
         13   -1    0    0    0    0  0.00000000000E+00  0.00000000000E+00  0.74505805969E-08  0.10566000000E+00  0.10566000000E+00 0.  1.
     999900   -1    0    0    0    0 -0.00000000000E+00 -0.00000000000E+00 -0.74505805969E-08  0.93827000000E+00  0.93827000000E+00 0. -1.
     999902    2    1    2    0    0 -0.21435473019E-02 -0.21861749853E-01  0.16819226561E-01  0.10162638242E+01  0.10158871704E+01 0.  0.
     999903    2    3    3    0    0 -0.64070206071E-01  0.99958593599E-01  0.33457087590E-01  0.12556077291E+00  0.23439693760E-01 0.  0.
         14    1    1    2    0    0  0.21435473019E-02  0.21861749853E-01 -0.16819226561E-01  0.27666175807E-01  0.00000000000E+00 0. -1.
     999901    1    3    3    0    0  0.61926658769E-01 -0.12182034345E+00 -0.16637861028E-01  0.89070305128E+00  0.88000000000E+00 0.  1.
        -11    1    4    4    0    0 -0.56121945341E-01  0.85479983845E-01  0.19877829848E-01  0.10417240339E+00  0.51100000000E-03 0.  1.
         11    1    4    4    0    0 -0.79482607306E-02  0.14478609754E-01  0.13579257742E-01  0.21388369524E-01  0.51100000000E-03 0. -1.
</event>
<event>
 8    1  0.1207611E+005  0.1043930E+01  0.7957747E-01            NaN
         13   -1    0    0    0    0  0.00000000000E+00  0.00000000000E+00  0.74505805969E-08  0.10566000000E+00  0.10566000000E+00 0.  1.
     999900   -1    0    0    0    0 -0.00000000000E+00 -0.00000000000E+00 -0.74505805969E-08  0.93827000000E+00  0.93827000000E+00 0.  1.
     999902    2    1    2    0    0 -0.16298580309E-01 -0.26514214576E-02  0.16417201541E-01  0.10206448489E+01  0.10203791988E+01 0.  0.
     999903    2    3    3    0    0  0.78891702045E-01 -0.60336493669E-01 -0.78823682020E-01  0.12853522372E+00  0.21065084162E-01 0.  0.
         14    1    1    2    0    0  0.16298580309E-01  0.26514214576E-02 -0.16417201541E-01  0.23285151111E-01  0.00000000000E+00 0. -1.
     999901    1    3    3    0    0 -0.95190282354E-01  0.57685072212E-01  0.95240883561E-01  0.89210962517E+00  0.88000000000E+00 0. -1.
        -11    1    4    4    0    0  0.51767417111E-01 -0.50925943168E-01 -0.60008634378E-01  0.94205172272E-01  0.51100000000E-03 0.  1.
         11    1    4    4    0    0  0.27124284934E-01 -0.94105505008E-02 -0.18815047642E-01  0.34330051452E-01  0.51100000000E-03 0. -1.
</event>
<event>
 8    1  0.1207611E+005  0.1043930E+01  0.7957747E-01            NaN
         13   -1    0    0    0    0  0.00000000000E+00  0.00000000000E+00  0.74505805969E-08  0.10566000000E+00  0.10566000000E+00 0. -1.
     999900   -1    0    0    0    0 -0.00000000000E+00 -0.00000000000E+00 -0.74505805969E-08  0.93827000000E+00  0.93827000000E+00 0.  1.
     999902    2    1    2    0    0  0.21496100052E-01 -0.18520442117E-03  0.91811580805E-02  0.10205545795E+01  0.10202868418E+01 0.  0.
     999903    2    3    3    0    0 -0.73188382678E-01  0.42556454514E-01  0.96714566156E-01  0.13013102964E+00  0.20317145200E-01 0.  0.
         14    1    1    2    0    0 -0.21496100052E-01  0.18520442117E-03 -0.91811580805E-02  0.23375420463E-01  0.00000000000E+00 0.  1.
     999901    1    3    3    0    0  0.94684482730E-01 -0.42741658936E-01 -0.87533408076E-01  0.89042354990E+00  0.88000000000E+00 0.  1.
        -11    1    4    4    0    0 -0.44680998158E-01  0.17751428048E-01  0.64651413503E-01  0.80570287222E-01  0.51100000000E-03 0. -1.
         11    1    4    4    0    0 -0.28507384520E-01  0.24805026466E-01  0.32063152654E-01  0.49560742420E-01  0.51100000000E-03 0.  1.
</event>
<event>
 8    1  0.1207611E+005  0.1043930E+01  0.7957747E-01            NaN
         13   -1    0    0    0    0  0.00000000000E+00  0.00000000000E+00  0.74505805969E-08  0.10566000000E+00  0.10566000000E+00 0. -1.
     999900   -1    0    0    0    0 -0.00000000000E+00 -0.00000000000E+00 -0.74505805969E-08  0.93827000000E+00  0.93827000000E+00 0.  1.
     999902    2    1    2    0    0 -0.18673521728E-01 -0.39957095524E-02  0.14280719131E-01  0.10200845592E+01  0.10198058162E+01 0.  0.
     999903    2    3    3    0    0 -0.96996377823E-01 -0.18877841258E-01 -0.83638332150E-01  0.13107157378E+00  0.20486987227E-01 0.  0.
         14    1    1    2    0    0  0.18673521728E-01  0.39957095524E-02 -0.14280719131E-01  0.23845440810E-01  0.00000000000E+00 0. -1.
     999901    1    3    3    0    0  0.78322856096E-01  0.14882131706E-01  0.97919051281E-01  0.88901298541E+00  0.88000000000E+00 0. -1.
        -11    1    4    4    0    0 -0.38213540086E-01  0.16045045647E-02 -0.37687877886E-01  0.53698103704E-01  0.51100000000E-03 0. -1.
         11    1    4    4    0    0 -0.58782837737E-01 -0.20482345823E-01 -0.45950454265E-01  0.77373470072E-01  0.51100000000E-03 0.  1.
</event>
<event>
 8    1  0.1207611E+005  0.1043930E+01  0.7957747E-01            NaN
         13   -1    0    0    0    0  0.00000000000E+00  0.00000000000E+00  0.74505805969E-08  0.10566000000E+00  0.10566000000E+00 0.  1.
     999900   -1    0    0    0    0 -0.00000000000E+00 -0.00000000000E+00 -0.74505805969E-08  0.93827000000E+00  0.93827000000E+00 0. -1.
     999902    2    1    2    0    0 -0.21774004570E-01 -0.88320771009E-02 -0.31169801647E-02  0.10202270798E+01  0.10199516978E+01 0.  0.
     999903    2    3    3    0    0  0.77945332235E-01  0.65771593138E-01 -0.75520112594E-01  0.12851419588E+00  0.20278901754E-01 0.  0.
         14    1    1    2    0    0  0.21774004570E-01  0.88320771009E-02  0.31169801647E-02  0.23702920206E-01  0.00000000000E+00 0.  1.
     999901    1    3    3    0    0 -0.99719336806E-01 -0.74603670239E-01  0.72403132429E-01  0.89171288391E+00  0.88000000000E+00 0. -1.
        -11    1    4    4    0    0  0.14490107188E-01  0.99236671215E-02 -0.23190984792E-01  0.29095107356E-01  0.51100000000E-03 0.  1.
         11    1    4    4    0    0  0.63455225048E-01  0.55847926016E-01 -0.52329127802E-01  0.99419088528E-01  0.51100000000E-03 0. -1.
</event>
<event>
 8    1  0.1207611E+005  0.1043930E+01  0.7957747E-01            NaN
         13   -1    0    0    0    0  0.00000000000E+00  0.00000000000E+00  0.74505805969E-08  0.10566000000E+00  0.10566000000E+00 0. -1.
     999900   -1    0    0    0    0 -0.00000000000E+00 -0.00000000000E+00 -0.74505805969E-08  0.93827000000E+00  0.93827000000E+00 0. -1.
     999902    2    1    2    0    0  0.90024598395E-03  0.23005471488E-01  0.56401703084E-02  0.10202261252E+01  0.10199507208E+01 0.  0.
     999903    2    3    3    0    0 -0.10861385294E+00  0.64388642475E-01 -0.31679865483E-01  0.13168873722E+00  0.19885756268E-01 0.  0.
         14    1    1    2    0    0 -0.90024598395E-03 -0.23005471488E-01 -0.56401703084E-02  0.23703874838E-01  0.00000000000E+00 0.  1.
     999901    1    3    3    0    0  0.10951409892E+00 -0.41383170987E-01  0.37320035792E-01  0.88853738794E+00  0.88000000000E+00 0.  1.
        -11    1    4    4    0    0 -0.39823289298E-01  0.13153356845E-01 -0.79255432934E-02  0.42684663807E-01  0.51100000000E-03 0. -1.
         11    1    4    4    0    0 -0.68790563643E-01  0.51235285630E-01 -0.23754322190E-01  0.89004073410E-01  0.51100000000E-03 0.  1.
</event>
<event>
 8    1  0.1207611E+005  0.1043930E+01  0.7957747E-01            NaN
         13   -1    0    0    0    0  0.00000000000E+00  0.00000000000E+00  0.74505805969E-08  0.10566000000E+00  0.10566000000E+00 0.  1.
     999900   -1    0    0    0    0 -0.00000000000E+00 -0.00000000000E+00 -0.74505805969E-08  0.93827000000E+00  0.93827000000E+00 0.  1.
     999902    2    1    2    0    0  0.14998738496E-01 -0.15683351290E-01  0.63984212008E-02  0.10213054678E+01  0.10210548414E+01 0.  0.
     999903    2    3    3    0    0 -0.63067793087E-01 -0.11428581973E+00  0.84760972969E-02  0.13236162992E+00  0.20222802309E-01 0.  0.
         14    1    1    2    0    0 -0.14998738496E-01  0.15683351290E-01 -0.63984212008E-02  0.22624532217E-01  0.00000000000E+00 0.  1.
     999901    1    3    3    0    0  0.78066531583E-01  0.98602468441E-01 -0.20776760960E-02  0.88894383786E+00  0.88000000000E+00 0.  1.
        -11    1    4    4    0    0 -0.28959355182E-02 -0.56523349302E-02  0.50471567849E-02  0.81283605543E-02  0.51100000000E-03 0. -1.
         11    1    4    4    0    0 -0.60171857568E-01 -0.10863348480E+00  0.34289405120E-02  0.12423326937E+00  0.51100000000E-03 0.  1.
</event>
<event>
 8    1  0.1207611E+005  0.1043930E+01  0.7957747E-01            NaN
         13   -1    0    0    0    0  0.00000000000E+00  0.00000000000E+00  0.74505805969E-08  0.10566000000E+00  0.10566000000E+00 0. -1.
     999900   -1    0    0    0    0 -0.00000000000E+00 -0.00000000000E+00 -0.74505805969E-08  0.93827000000E+00  0.93827000000E+00 0. -1.
     999902    2    1    2    0    0 -0.14153423815E-01  0.93608852638E-02  0.16044634604E-01  0.10205767159E+01  0.10203094909E+01 0.  0.
     999903    2    3    3    0    0  0.48773603760E-01 -0.10255179315E+00 -0.56365632925E-01  0.12831694138E+00  0.19809547395E-01 0.  0.
         14    1    1    2    0    0  0.14153423815E-01 -0.93608852638E-02 -0.16044634604E-01  0.23353284098E-01  0.00000000000E+00 0.  1.
     999901    1    3    3    0    0 -0.62927027574E-01  0.11191267841E+00  0.72410267529E-01  0.89225977452E+00  0.88000000000E+00 0. -1.
        -11    1    4    4    0    0  0.18418763126E-01 -0.61597854565E-01 -0.31344620622E-01  0.71528266336E-01  0.51100000000E-03 0.  1.
         11    1    4    4    0    0  0.30354840634E-01 -0.40953938584E-01 -0.25021012303E-01  0.56788675042E-01  0.51100000000E-03 0. -1.
</event>
<event>
 8    1  0.1207611E+005  0.1043930E+01  0.7957747E-01            NaN
         13   -1    0    0    0    0  0.00000000000E+00  0.00000000000E+00  0.74505805969E-08  0.10566000000E+00  0.10566000000E+00 0.  1.
     999900   -1    0    0    0    0 -0.00000000000E+00 -0.00000000000E+00 -0.74505805969E-08  0.93827000000E+00  0.93827000000E+00 0.  1.
     999902    2    1    2    0    0  0.18097100396E-01  0.63720162269E-02  0.12623494873E-01  0.10209634971E+01  0.10207051495E+01 0.  0.
     999903    2    3    3    0    0  0.96840146409E-01 -0.79425252763E-01 -0.36158530253E-01  0.13195206597E+00  0.20433395997E-01 0.  0.
         14    1    1    2    0    0 -0.18097100396E-01 -0.63720162269E-02 -0.12623494873E-01  0.22966502919E-01  0.00000000000E+00 0. -1.
     999901    1    3    3    0    0 -0.78743046013E-01  0.85797268990E-01  0.48782025125E-01  0.88901143111E+00  0.88000000000E+00 0.  1.
        -11    1    4    4    0    0  0.18845775055E-01 -0.96652038102E-02  0.16183158860E-03  0.21186474755E-01  0.51100000000E-03 0.  1.
         11    1    4    4    0    0  0.77994371355E-01 -0.69760048953E-01 -0.36320361841E-01  0.11076559122E+00  0.51100000000E-03 0. -1.
</event>
<event>
 8    1  0.1207611E+005  0.1043930E+01  0.7957747E-01            NaN
         13   -1    0    0    0    0  0.00000000000E+00  0.00000000000E+00  0.74505805969E-08  0.10566000000E+00  0.10566000000E+00 0.  1.
     999900   -1    0    0    0    0 -0.00000000000E+00 -0.00000000000E+00 -0.74505805969E-08  0.93827000000E+00  0.93827000000E+00 0. -1.
     999902    2    1    2    0    0  0.18090560961E-01  0.17358342319E-01 -0.14755244825E-02  0.10188151117E+01  0.10185055101E+01 0.  0.
     999903    2    3    3    0    0 -0.25027762998E-01  0.25087138311E-01  0.12234834955E+00  0.12906723954E+00  0.20820188650E-01 0.  0.
         14    1    1    2    0    0 -0.18090560961E-01 -0.17358342319E-01  0.14755244825E-02  0.25114888343E-01  0.00000000000E+00 0. -1.
     999901    1    3    3    0    0  0.43118323959E-01 -0.77287959914E-02 -0.12382387404E+00  0.88974787211E+00  0.88000000000E+00 0. -1.
        -11    1    4    4    0    0 -0.77303704150E-02  0.64818048398E-03  0.52470470754E-01  0.53043285973E-01  0.51100000000E-03 0. -1.
         11    1    4    4    0    0 -0.17297392583E-01  0.24438957827E-01  0.69877878801E-01  0.76023953571E-01  0.51100000000E-03 0.  1.
</event>
<event>
 8    1  0.1207611E+005  0.1043930E+01  0.7957747E-01            NaN
         13   -1    0    0    0    0  0.00000000000E+00  0.00000000000E+00  0.74505805969E-08  0.10566000000E+00  0.10566000000E+00 0.  1.
     999900   -1    0    0    0    0 -0.00000000000E+00 -0.00000000000E+00 -0.74505805969E-08  0.93827000000E+00  0.93827000000E+00 0. -1.
     999902    2    1    2    0    0 -0.50040853562E-02  0.35931454911E-02  0.20286118823E-01  0.10227290995E+01  0.10225093314E+01 0.  0.
     999903    2    3    3    0    0  0.13032801587E+00  0.10200142899E-01 -0.36412496537E-02  0.13203782359E+00  0.18201470344E-01 0.  0.
         14    1    1    2    0    0  0.50040853562E-02 -0.35931454911E-02 -0.20286118823E-01  0.21200900492E-01  0.00000000000E+00 0. -1.
     999901    1    3    3    0    0 -0.13533210123E+00 -0.66069974084E-02  0.23927368477E-01  0.89069127592E+00  0.88000000000E+00 0. -1.
        -11    1    4    4    0    0  0.11613576098E+00  0.51273241515E-02 -0.74354555944E-02  0.11648755965E+00  0.51100000000E-03 0.  1.
         11    1    4    4    0    0  0.14192254891E-01  0.50728187480E-02  0.37942059407E-02  0.15550263942E-01  0.51100000000E-03 0. -1.
</event>
<event>
 8    1  0.1207611E+005  0.1043930E+01  0.7957747E-01            NaN
         13   -1    0    0    0    0  0.00000000000E+00  0.00000000000E+00  0.74505805969E-08  0.10566000000E+00  0.10566000000E+00 0.  1.
     999900   -1    0    0    0    0 -0.00000000000E+00 -0.00000000000E+00 -0.74505805969E-08  0.93827000000E+00  0.93827000000E+00 0.  1.
     999902    2    1    2    0    0  0.16803503496E-01  0.15960264803E-01  0.17891362654E-02  0.10206858870E+01  0.10204211832E+01 0.  0.
     999903    2    3    3    0    0  0.14334555845E-01 -0.73783838806E-01 -0.10273830716E+00  0.12996365963E+00  0.26188904259E-01 0.  0.
         14    1    1    2    0    0 -0.16803503496E-01 -0.15960264803E-01 -0.17891362654E-02  0.23244113038E-01  0.00000000000E+00 0. -1.
     999901    1    3    3    0    0  0.24689476516E-02  0.89744103609E-01  0.10452744342E+00  0.89072222733E+00  0.88000000000E+00 0.  1.
        -11    1    4    4    0    0  0.17593090667E-01 -0.55115735400E-01 -0.60745166725E-01  0.83889793952E-01  0.51100000000E-03 0.  1.
         11    1    4    4    0    0 -0.32585348227E-02 -0.18668103406E-01 -0.41993140434E-01  0.46073865677E-01  0.51100000000E-03 0. -1.
</event>
<event>
 8    1  0.1207611E+005  0.1043930E+01  0.7957747E-01            NaN
         13   -1    0    0    0    0  0.00000000000E+00  0.00000000000E+00  0.74505805969E-08  0.10566000000E+00  0.10566000000E+00 0.  1.
     999900   -1    0    0    0    0 -0.00000000000E+00 -0.00000000000E+00 -0.74505805969E-08  0.93827000000E+00  0.93827000000E+00 0.  1.
     999902    2    1    2    0    0 -0.46366049194E-02 -0.17068560798E-01 -0.91351985099E-02  0.10240230734E+01  0.10238295606E+01 0.  0.
     999903    2    3    3    0    0 -0.10356848036E+00 -0.62772852096E-01 -0.58818359273E-01  0.13591000932E+00  0.18576064170E-01 0.  0.
         14    1    1    2    0    0  0.46366049194E-02  0.17068560798E-01  0.91351985099E-02  0.19906926551E-01  0.00000000000E+00 0. -1.
     999901    1    3    3    0    0  0.98931875441E-01  0.45704291298E-01  0.49683160763E-01  0.88811306413E+00  0.88000000000E+00 0.  1.
        -11    1    4    4    0    0 -0.64113949693E-01 -0.32149481941E-01 -0.42469479588E-01  0.83355297083E-01  0.51100000000E-03 0. -1.
         11    1    4    4    0    0 -0.39454530667E-01 -0.30623370156E-01 -0.16348879685E-01  0.52554712232E-01  0.51100000000E-03 0.  1.
</event>
<event>
 8    1  0.1207611E+005  0.1043930E+01  0.7957747E-01            NaN
         13   -1    0    0    0    0  0.00000000000E+00  0.00000000000E+00  0.74505805969E-08  0.10566000000E+00  0.10566000000E+00 0. -1.
     999900   -1    0    0    0    0 -0.00000000000E+00 -0.00000000000E+00 -0.74505805969E-08  0.93827000000E+00  0.93827000000E+00 0. -1.
     999902    2    1    2    0    0  0.32772028605E-02 -0.25000908282E-01 -0.88615361199E-02  0.10172033785E+01  0.10168522021E+01 0.  0.
     999903    2    3    3    0    0  0.73230623534E-01 -0.32348492027E-02 -0.10409160358E+00  0.12903897474E+00  0.21042970153E-01 0.  0.
         14    1    1    2    0    0 -0.32772028605E-02  0.25000908282E-01  0.88615361199E-02  0.26726621483E-01  0.00000000000E+00 0.  1.
     999901    1    3    3    0    0 -0.69953420673E-01 -0.21766059079E-01  0.95230067461E-01  0.88816440378E+00  0.88000000000E+00 0.  1.
        -11    1    4    4    0    0  0.25450686238E-01  0.72193787679E-02 -0.27508759207E-01  0.38168702020E-01  0.51100000000E-03 0.  1.
         11    1    4    4    0    0  0.47779937296E-01 -0.10454227971E-01 -0.76582844374E-01  0.90870272718E-01  0.51100000000E-03 0. -1.
</event>
<event>
 8    1  0.1207611E+005  0.1043930E+01  0.7957747E-01            NaN
         13   -1    0    0    0    0  0.00000000000E+00  0.00000000000E+00  0.74505805969E-08  0.10566000000E+00  0.10566000000E+00 0. -1.
     999900   -1    0    0    0    0 -0.00000000000E+00 -0.00000000000E+00 -0.74505805969E-08  0.93827000000E+00  0.93827000000E+00 0.  1.
     999902    2    1    2    0    0 -0.15242210233E-01  0.13990037810E-01  0.12106482170E-01  0.10199589124E+01  0.10196771891E+01 0.  0.
     999903    2    3    3    0    0  0.11700675082E+00 -0.45885373874E-01 -0.16813941787E-01  0.12759618146E+00  0.14213712130E-01 0.  0.
         14    1    1    2    0    0  0.15242210233E-01 -0.13990037810E-01 -0.12106482170E-01  0.23971087610E-01  0.00000000000E+00 0.  1.
     999901    1    3    3    0    0 -0.13224896105E+00  0.59875411684E-01  0.28920423957E-01  0.89236273093E+00  0.88000000000E+00 0. -1.
        -11    1    4    4    0    0  0.65108074180E-01 -0.20858137710E-01 -0.35073338981E-02  0.68459372947E-01  0.51100000000E-03 0. -1.
         11    1    4    4    0    0  0.51898676640E-01 -0.25027236165E-01 -0.13306607889E-01  0.59136808517E-01  0.51100000000E-03 0.  1.
</event>
<event>
 8    1  0.1207611E+005  0.1043930E+01  0.7957747E-01            NaN
         13   -1    0    0    0    0  0.00000000000E+00  0.00000000000E+00  0.74505805969E-08  0.10566000000E+00  0.10566000000E+00 0.  1.
     999900   -1    0    0    0    0 -0.00000000000E+00 -0.00000000000E+00 -0.74505805969E-08  0.93827000000E+00  0.93827000000E+00 0.  1.
     999902    2    1    2    0    0  0.29295322269E-02 -0.23053815271E-01  0.26764692302E-02  0.10205371796E+01  0.10202690385E+01 0.  0.
     999903    2    3    3    0    0 -0.61071551096E-01  0.93591367351E-01 -0.59453453907E-01  0.12836995054E+00  0.21331962522E-01 0.  0.
         14    1    1    2    0    0 -0.29295322269E-02  0.23053815271E-01 -0.26764692302E-02  0.23392820377E-01  0.00000000000E+00 0.  1.
     999901    1    3    3    0    0  0.64001083323E-01 -0.11664518262E+00  0.62129923137E-01  0.89216722908E+00  0.88000000000E+00 0.  1.
        -11    1    4    4    0    0 -0.39492858309E-01  0.77031058630E-01 -0.45103985228E-01  0.97611989302E-01  0.51100000000E-03 0. -1.
         11    1    4    4    0    0 -0.21578692787E-01  0.16560308721E-01 -0.14349468679E-01  0.30757961241E-01  0.51100000000E-03 0.  1.
</event>
<event>
 8    1  0.1207611E+005  0.1043930E+01  0.7957747E-01            NaN
         13   -1    0    0    0    0  0.00000000000E+00  0.00000000000E+00  0.74505805969E-08  0.10566000000E+00  0.10566000000E+00 0.  1.
     999900   -1    0    0    0    0 -0.00000000000E+00 -0.00000000000E+00 -0.74505805969E-08  0.93827000000E+00  0.93827000000E+00 0.  1.
     999902    2    1    2    0    0  0.17145389931E-01 -0.11493258140E-01 -0.11560546461E-01  0.10202719017E+01  0.10199975725E+01 0.  0.
     999903    2    3    3    0    0  0.67528587039E-01 -0.59258875085E-01 -0.96752410244E-01  0.13343613658E+00  0.19298945950E-01 0.  0.
         14    1    1    2    0    0 -0.17145389931E-01  0.11493258140E-01  0.11560546461E-01  0.23658098254E-01  0.00000000000E+00 0.  1.
     999901    1    3    3    0    0 -0.50383197108E-01  0.47765616945E-01  0.85191863784E-01  0.88683576516E+00  0.88000000000E+00 0. -1.
        -11    1    4    4    0    0  0.76171700686E-02 -0.16737404020E-01 -0.20680777101E-01  0.27678830099E-01  0.51100000000E-03 0. -1.
         11    1    4    4    0    0  0.59911416971E-01 -0.42521471065E-01 -0.76071633143E-01  0.10575730649E+00  0.51100000000E-03 0.  1.
</event>
<event>
 8    1  0.1207611E+005  0.1043930E+01  0.7957747E-01            NaN
         13   -1    0    0    0    0  0.00000000000E+00  0.00000000000E+00  0.74505805969E-08  0.10566000000E+00  0.10566000000E+00 0. -1.
     999900   -1    0    0    0    0 -0.00000000000E+00 -0.00000000000E+00 -0.74505805969E-08  0.93827000000E+00  0.93827000000E+00 0.  1.
     999902    2    1    2    0    0 -0.72952405017E-02 -0.20561120101E-01 -0.71631607760E-02  0.10209671808E+01  0.10207089170E+01 0.  0.
     999903    2    3    3    0    0 -0.22694394327E-01  0.12436239679E+00  0.14044124126E-01  0.12872858679E+00  0.19818434971E-01 0.  0.
         14    1    1    2    0    0  0.72952405017E-02  0.20561120101E-01  0.71631607760E-02  0.22962819210E-01  0.00000000000E+00 0. -1.
     999901    1    3    3    0    0  0.15399153826E-01 -0.14492351689E+00 -0.21207284902E-01  0.89223859400E+00  0.88000000000E+00 0.  1.
        -11    1    4    4    0    0 -0.33902536551E-04  0.29699480630E-01  0.98686645562E-02  0.31300350800E-01  0.51100000000E-03 0. -1.
         11    1    4    4    0    0 -0.22660491791E-01  0.94662916163E-01  0.41754595701E-02  0.97428235991E-01  0.51100000000E-03 0.  1.
</event>
<event>
 8    1  0.1207611E+005  0.1043930E+01  0.7957747E-01            NaN
         13   -1    0    0    0    0  0.00000000000E+00  0.00000000000E+00  0.74505805969E-08  0.10566000000E+00  0.10566000000E+00 0.  1.
     999900   -1    0    0    0    0 -0.00000000000E+00 -0.00000000000E+00 -0.74505805969E-08  0.93827000000E+00  0.93827000000E+00 0.  1.
     999902    2    1    2    0    0  0.14392157132E-01 -0.18475062653E-01  0.32252120232E-02  0.10202896929E+01  0.10200157809E+01 0.  0.
     999903    2    3    3    0    0 -0.95226069990E-01 -0.84540902210E-01 -0.21593890893E-01  0.13068481503E+00  0.19926269162E-01 0.  0.
         14    1    1    2    0    0 -0.14392157132E-01  0.18475062653E-01 -0.32252120232E-02  0.23640307095E-01  0.00000000000E+00 0.  1.
     999901    1    3    3    0    0  0.10961822712E+00  0.66065839558E-01  0.24819102916E-01  0.88960487788E+00  0.88000000000E+00 0. -1.
        -11    1    4    4    0    0 -0.65099250703E-01 -0.49889422204E-01 -0.21399548900E-01  0.84764784575E-01  0.51100000000E-03 0. -1.
         11    1    4    4    0    0 -0.30126819287E-01 -0.34651480006E-01 -0.19434199245E-03  0.45920030452E-01  0.51100000000E-03 0.  1.
</event>
<event>
 8    1  0.1207611E+005  0.1043930E+01  0.7957747E-01            NaN
         13   -1    0    0    0    0  0.00000000000E+00  0.00000000000E+00  0.74505805969E-08  0.10566000000E+00  0.10566000000E+00 0. -1.
     999900   -1    0    0    0    0 -0.00000000000E+00 -0.00000000000E+00 -0.74505805969E-08  0.93827000000E+00  0.93827000000E+00 0. -1.
     999902    2    1    2    0    0  0.12548022567E-01  0.15499479921E-01 -0.21858870607E-01  0.10143412019E+01  0.10139095507E+01 0.  0.
     999903    2    3    3    0    0  0.54895238603E-01  0.11355451573E+00 -0.15511843962E-02  0.12765045601E+00  0.19598915299E-01 0.  0.
         14    1    1    2    0    0 -0.12548022567E-01 -0.15499479921E-01  0.21858870607E-01  0.29588798090E-01  0.00000000000E+00 0. -1.
     999901    1    3    3    0    0 -0.42347216035E-01 -0.98055035812E-01 -0.20307686211E-01  0.88669074590E+00  0.88000000000E+00 0. -1.
        -11    1    4    4    0    0  0.29725352401E-01  0.78584459220E-01  0.44886302744E-02  0.84139899745E-01  0.51100000000E-03 0. -1.
         11    1    4    4    0    0  0.25169886201E-01  0.34970056512E-01 -0.60398146706E-02  0.43510556260E-01  0.51100000000E-03 0.  1.
</event>
<event>
 8    1  0.1207611E+005  0.1043930E+01  0.7957747E-01            NaN
         13   -1    0    0    0    0  0.00000000000E+00  0.00000000000E+00  0.74505805969E-08  0.10566000000E+00  0.10566000000E+00 0.  1.
     999900   -1    0    0    0    0 -0.00000000000E+00 -0.00000000000E+00 -0.74505805969E-08  0.93827000000E+00  0.93827000000E+00 0.  1.
     999902    2    1    2    0    0 -0.14331959950E-01 -0.14319626111E-01 -0.10638127133E-01  0.10210471130E+01  0.10207906644E+01 0.  0.
     999903    2    3    3    0    0  0.45445782083E-01 -0.94147293170E-01 -0.78511294314E-01  0.13281707429E+00  0.23394870533E-01 0.  0.
         14    1    1    2    0    0  0.14331959950E-01  0.14319626111E-01  0.10638127133E-01  0.22882886987E-01  0.00000000000E+00 0.  1.
     999901    1    3    3    0    0 -0.59777742033E-01  0.79827667059E-01  0.67873167181E-01  0.88823003873E+00  0.88000000000E+00 0. -1.
        -11    1    4    4    0    0  0.22795587567E-01 -0.29062318557E-01 -0.37418961718E-01  0.52580385977E-01  0.51100000000E-03 0. -1.
         11    1    4    4    0    0  0.22650194516E-01 -0.65084974613E-01 -0.41092332596E-01  0.80236688311E-01  0.51100000000E-03 0.  1.
</event>
<event>
 8    1  0.1207611E+005  0.1043930E+01  0.7957747E-01            NaN
         13   -1    0    0    0    0  0.00000000000E+00  0.00000000000E+00  0.74505805969E-08  0.10566000000E+00  0.10566000000E+00 0. -1.
     999900   -1    0    0    0    0 -0.00000000000E+00 -0.00000000000E+00 -0.74505805969E-08  0.93827000000E+00  0.93827000000E+00 0.  1.
     999902    2    1    2    0    0  0.12754847393E-02 -0.23006837275E-01  0.75135080955E-02  0.10196937827E+01  0.10194057172E+01 0.  0.
     999903    2    3    3    0    0 -0.12572881341E-01 -0.70901863350E-02 -0.12681252941E+00  0.12925085849E+00  0.20396536883E-01 0.  0.
         14    1    1    2    0    0 -0.12754847393E-02  0.23006837275E-01 -0.75135080955E-02  0.24236217251E-01  0.00000000000E+00 0.  1.
     999901    1    3    3    0    0  0.13848366080E-01 -0.15916650940E-01  0.13432603750E+00  0.89044292426E+00  0.88000000000E+00 0. -1.
        -11    1    4    4    0    0 -0.15924882136E-01 -0.61419863334E-02 -0.12249631766E+00  0.12368077793E+00  0.51100000000E-03 0.  1.
         11    1    4    4    0    0  0.33520007950E-02 -0.94820000160E-03 -0.43162117449E-02  0.55700805559E-02  0.51100000000E-03 0. -1.
</event>
<event>
 8    1  0.1207611E+005  0.1043930E+01  0.7957747E-01            NaN
         13   -1    0    0    0    0  0.00000000000E+00  0.00000000000E+00  0.74505805969E-08  0.10566000000E+00  0.10566000000E+00 0. -1.
     999900   -1    0    0    0    0 -0.00000000000E+00 -0.00000000000E+00 -0.74505805969E-08  0.93827000000E+00  0.93827000000E+00 0.  1.
     999902    2    1    2    0    0  0.18349336059E-01 -0.15043244482E-01  0.33554048299E-02  0.10199663592E+01  0.10196848130E+01 0.  0.
     999903    2    3    3    0    0  0.67924376104E-01 -0.67029324068E-01  0.90275716951E-01  0.13277112831E+00  0.19282538432E-01 0.  0.
         14    1    1    2    0    0 -0.18349336059E-01  0.15043244482E-01 -0.33554048299E-02  0.23963640790E-01  0.00000000000E+00 0.  1.
     999901    1    3    3    0    0 -0.49575040045E-01  0.51986079587E-01 -0.86920312121E-01  0.88719523090E+00  0.88000000000E+00 0.  1.
        -11    1    4    4    0    0  0.46496875050E-01 -0.33503951842E-01  0.57949327961E-01  0.81503741697E-01  0.51100000000E-03 0. -1.
         11    1    4    4    0    0  0.21427501054E-01 -0.33525372227E-01  0.32326388990E-01  0.51267386617E-01  0.51100000000E-03 0.  1.
</event>
<event>
 8    1  0.1207611E+005  0.1043930E+01  0.7957747E-01            NaN
         13   -1    0    0    0    0  0.00000000000E+00  0.00000000000E+00  0.74505805969E-08  0.10566000000E+00  0.10566000000E+00 0. -1.
     999900   -1    0    0    0    0 -0.00000000000E+00 -0.00000000000E+00 -0.74505805969E-08  0.93827000000E+00  0.93827000000E+00 0.  1.
     999902    2    1    2    0    0 -0.85936563526E-02 -0.19182383895E-01  0.10431110655E-01  0.10204646457E+01  0.10201948198E+01 0.  0.
     999903    2    3    3    0    0 -0.11292810549E+00 -0.63489152863E-01  0.22966254062E-01  0.13310570096E+00  0.20150664024E-01 0.  0.
         14    1    1    2    0    0  0.85936563526E-02  0.19182383895E-01 -0.10431110655E-01  0.23465354267E-01  0.00000000000E+00 0.  1.
     999901    1    3    3    0    0  0.10433444914E+00  0.44306768968E-01 -0.12535143407E-01  0.88735894478E+00  0.88000000000E+00 0. -1.
        -11    1    4    4    0    0 -0.86273377495E-01 -0.51188470090E-01  0.25876663252E-01  0.10360124496E+00  0.51100000000E-03 0.  1.
         11    1    4    4    0    0 -0.26654727996E-01 -0.12300682773E-01 -0.29104091897E-02  0.29504456000E-01  0.51100000000E-03 0. -1.
</event>
<event>
 8    1  0.1207611E+005  0.1043930E+01  0.7957747E-01            NaN
         13   -1    0    0    0    0  0.00000000000E+00  0.00000000000E+00  0.74505805969E-08  0.10566000000E+00  0.10566000000E+00 0.  1.
     999900   -1    0    0    0    0 -0.00000000000E+00 -0.00000000000E+00 -0.74505805969E-08  0.93827000000E+00  0.93827000000E+00 0.  1.
     999902    2    1    2    0    0 -0.22425795759E-01  0.47090447531E-02  0.13208157617E-02  0.10209770923E+01  0.10207190539E+01 0.  0.
     999903    2    3    3    0    0 -0.13106912194E+00 -0.12698983085E-01  0.15882076800E-01  0.13400559214E+00  0.19101818345E-01 0.  0.
         14    1    1    2    0    0  0.22425795759E-01 -0.47090447531E-02 -0.13208157617E-02  0.22952907706E-01  0.00000000000E+00 0. -1.
     999901    1    3    3    0    0  0.10864332618E+00  0.17408027838E-01 -0.14561261038E-01  0.88697150015E+00  0.88000000000E+00 0. -1.
        -11    1    4    4    0    0 -0.79881592444E-01 -0.15015179772E-01  0.38708901444E-02  0.81374254814E-01  0.51100000000E-03 0. -1.
         11    1    4    4    0    0 -0.51187529497E-01  0.23161966874E-02  0.12011186655E-01  0.52631337328E-01  0.51100000000E-03 0.  1.
</event>
<event>
 8    1  0.1207611E+005  0.1043930E+01  0.7957747E-01            NaN
         13   -1    0    0    0    0  0.00000000000E+00  0.00000000000E+00  0.74505805969E-08  0.10566000000E+00  0.10566000000E+00 0. -1.
     999900   -1    0    0    0    0 -0.00000000000E+00 -0.00000000000E+00 -0.74505805969E-08  0.93827000000E+00  0.93827000000E+00 0.  1.
     999902    2    1    2    0    0 -0.10374474129E-01  0.59248352986E-02  0.18942064906E-01  0.10215350182E+01  0.10212895075E+01 0.  0.
     999903    2    3    3    0    0  0.59048942485E-01 -0.79497938114E-01  0.84821430152E-01  0.13223374655E+00  0.22008837805E-01 0.  0.
         14    1    1    2    0    0  0.10374474129E-01 -0.59248352986E-02 -0.18942064906E-01  0.22394981797E-01  0.00000000000E+00 0.  1.
     999901    1    3    3    0    0 -0.69423416614E-01  0.85422773413E-01 -0.65879365246E-01  0.88930127165E+00  0.88000000000E+00 0.  1.
        -11    1    4    4    0    0  0.51768621661E-01 -0.61209984990E-01  0.57947588533E-01  0.98918332927E-01  0.51100000000E-03 0. -1.
         11    1    4    4    0    0  0.72803208238E-02 -0.18287953124E-01  0.26873841619E-01  0.33315413627E-01  0.51100000000E-03 0.  1.
</event>
<event>
 8    1  0.1207611E+005  0.1043930E+01  0.7957747E-01            NaN
         13   -1    0    0    0    0  0.00000000000E+00  0.00000000000E+00  0.74505805969E-08  0.10566000000E+00  0.10566000000E+00 0.  1.
     999900   -1    0    0    0    0 -0.00000000000E+00 -0.00000000000E+00 -0.74505805969E-08  0.93827000000E+00  0.93827000000E+00 0.  1.
     999902    2    1    2    0    0 -0.87455925368E-02  0.75769657725E-02 -0.20405477887E-01  0.10204719667E+01  0.10202023110E+01 0.  0.
     999903    2    3    3    0    0 -0.25536556596E-01  0.90028349609E-01 -0.94284951451E-01  0.13337651309E+00  0.11934098996E-01 0.  0.
         14    1    1    2    0    0  0.87455925368E-02 -0.75769657725E-02  0.20405477887E-01  0.23458033314E-01  0.00000000000E+00 0.  1.
     999901    1    3    3    0    0  0.16790964059E-01 -0.82451383837E-01  0.73879473563E-01  0.88709545359E+00  0.88000000000E+00 0. -1.
        -11    1    4    4    0    0 -0.12198146736E-01  0.29880266230E-01 -0.38725131545E-01  0.50413510371E-01  0.51100000000E-03 0.  1.
         11    1    4    4    0    0 -0.13338409860E-01  0.60148083379E-01 -0.55559819905E-01  0.82963002722E-01  0.51100000000E-03 0. -1.
</event>
<event>
 8    1  0.1207611E+005  0.1043930E+01  0.7957747E-01            NaN
         13   -1    0    0    0    0  0.00000000000E+00  0.00000000000E+00  0.74505805969E-08  0.10566000000E+00  0.10566000000E+00 0. -1.
     999900   -1    0    0    0    0 -0.00000000000E+00 -0.00000000000E+00 -0.74505805969E-08  0.93827000000E+00  0.93827000000E+00 0. -1.
     999902    2    1    2    0    0 -0.55330765428E-02 -0.65183187242E-02  0.23261536178E-01  0.10191468912E+01  0.10188455150E+01 0.  0.
     999903    2    3    3    0    0 -0.83301544247E-01  0.26098739610E-01  0.97050614665E-01  0.13204112799E+00  0.19893370542E-01 0.  0.
         14    1    1    2    0    0  0.55330765428E-02  0.65183187242E-02 -0.23261536178E-01  0.24783108771E-01  0.00000000000E+00 0.  1.
     999901    1    3    3    0    0  0.77768467704E-01 -0.32617058334E-01 -0.73789078487E-01  0.88710576324E+00  0.88000000000E+00 0. -1.
        -11    1    4    4    0    0 -0.62983697851E-01  0.23632694956E-01  0.62199964796E-01  0.91621761648E-01  0.51100000000E-03 0.  1.
         11    1    4    4    0    0 -0.20317846396E-01  0.24660446543E-02  0.34850649869E-01  0.40419366344E-01  0.51100000000E-03 0. -1.
</event>
<event>
 8    1  0.1207611E+005  0.1043930E+01  0.7957747E-01            NaN
         13   -1    0    0    0    0  0.00000000000E+00  0.00000000000E+00  0.74505805969E-08  0.10566000000E+00  0.10566000000E+00 0. -1.
     999900   -1    0    0    0    0 -0.00000000000E+00 -0.00000000000E+00 -0.74505805969E-08  0.93827000000E+00  0.93827000000E+00 0. -1.
     999902    2    1    2    0    0  0.99558721298E-02  0.78439328178E-02 -0.20455931695E-01  0.10198656734E+01  0.10195817280E+01 0.  0.
     999903    2    3    3    0    0  0.27618413208E-01  0.12642159903E+00 -0.19052449584E-01  0.13173584168E+00  0.15688808066E-01 0.  0.
         14    1    1    2    0    0 -0.99558721298E-02 -0.78439328178E-02  0.20455931695E-01  0.24064326573E-01  0.00000000000E+00 0. -1.
     999901    1    3    3    0    0 -0.17662541078E-01 -0.11857766621E+00 -0.14034821109E-02  0.88812983175E+00  0.88000000000E+00 0.  1.
        -11    1    4    4    0    0  0.12871384023E-01  0.67045955261E-01 -0.23387104897E-02  0.68312248765E-01  0.51100000000E-03 0. -1.
         11    1    4    4    0    0  0.14747029184E-01  0.59375643766E-01 -0.16713739094E-01  0.63423592913E-01  0.51100000000E-03 0.  1.
</event>
<event>
 8    1  0.1207611E+005  0.1043930E+01  0.7957747E-01            NaN
         13   -1    0    0    0    0  0.00000000000E+00  0.00000000000E+00  0.74505805969E-08  0.10566000000E+00  0.10566000000E+00 0.  1.
     999900   -1    0    0    0    0 -0.00000000000E+00 -0.00000000000E+00 -0.74505805969E-08  0.93827000000E+00  0.93827000000E+00 0.  1.
     999902    2    1    2    0    0 -0.35748334817E-02 -0.11079917521E-01 -0.20579959357E-01  0.10202851542E+01  0.10200111358E+01 0.  0.
     999903    2    3    3    0    0 -0.12657467441E+00  0.24456618669E-01  0.65254818137E-02  0.13060739723E+00  0.19910698145E-01 0.  0.
         14    1    1    2    0    0  0.35748334817E-02  0.11079917521E-01  0.20579959357E-01  0.23644845820E-01  0.00000000000E+00 0.  1.
     999901    1    3    3    0    0  0.12299984092E+00 -0.35536536190E-01 -0.27105441171E-01  0.88967775695E+00  0.88000000000E+00 0.  1.
        -11    1    4    4    0    0 -0.68924210317E-01  0.23098038729E-01  0.13362140275E-02  0.72705658307E-01  0.51100000000E-03 0.  1.
         11    1    4    4    0    0 -0.57650464088E-01  0.13585799395E-02  0.51892677863E-02  0.57901738922E-01  0.51100000000E-03 0. -1.
</event>
<event>
 8    1  0.1207611E+005  0.1043930E+01  0.7957747E-01            NaN
         13   -1    0    0    0    0  0.00000000000E+00  0.00000000000E+00  0.74505805969E-08  0.10566000000E+00  0.10566000000E+00 0.  1.
     999900   -1    0    0    0    0 -0.00000000000E+00 -0.00000000000E+00 -0.74505805969E-08  0.93827000000E+00  0.93827000000E+00 0.  1.
     999902    2    1    2    0    0 -0.88047684003E-02  0.18230746123E-01  0.84705877364E-02  0.10219838179E+01  0.10217481535E+01 0.  0.
     999903    2    3    3    0    0  0.66497102947E-01  0.11182878610E+00  0.23101528324E-01  0.13370175162E+00  0.20369969907E-01 0.  0.
         14    1    1    2    0    0  0.88047684003E-02 -0.18230746123E-01 -0.84705877364E-02  0.21946182069E-01  0.00000000000E+00 0. -1.
     999901    1    3    3    0    0 -0.75301871348E-01 -0.93598039973E-01 -0.14630940588E-01  0.88828206632E+00  0.88000000000E+00 0. -1.
        -11    1    4    4    0    0  0.16615264070E-01  0.34584133212E-01  0.15675936111E-01  0.41450275802E-01  0.51100000000E-03 0. -1.
         11    1    4    4    0    0  0.49881838877E-01  0.77244652884E-01  0.74255922130E-02  0.92251475813E-01  0.51100000000E-03 0.  1.
</event>
<event>
 8    1  0.1207611E+005  0.1043930E+01  0.7957747E-01            NaN
         13   -1    0    0    0    0  0.00000000000E+00  0.00000000000E+00  0.74505805969E-08  0.10566000000E+00  0.10566000000E+00 0.  1.
     999900   -1    0    0    0    0 -0.00000000000E+00 -0.00000000000E+00 -0.74505805969E-08  0.93827000000E+00  0.93827000000E+00 0.  1.
     999902    2    1    2    0    0 -0.19454197830E-01  0.56923978192E-02  0.11334685880E-01  0.10207062124E+01  0.10204419767E+01 0.  0.
     999903    2    3    3    0    0  0.11922207125E+00  0.38518732564E-01 -0.24690811975E-01  0.12851424183E+00  0.14445730375E-01 0.  0.
         14    1    1    2    0    0  0.19454197830E-01 -0.56923978192E-02 -0.11334685880E-01  0.23223787592E-01  0.00000000000E+00 0. -1.
     999901    1    3    3    0    0 -0.13867626908E+00 -0.32826334744E-01  0.36025497855E-01  0.89219197057E+00  0.88000000000E+00 0. -1.
        -11    1    4    4    0    0  0.58846721329E-01  0.24504358215E-01 -0.74648197600E-02  0.64182434028E-01  0.51100000000E-03 0.  1.
         11    1    4    4    0    0  0.60375349924E-01  0.14014374348E-01 -0.17225992215E-01  0.64331807806E-01  0.51100000000E-03 0. -1.
</event>
<event>
 8    1  0.1207611E+005  0.1043930E+01  0.7957747E-01            NaN
         13   -1    0    0    0    0  0.00000000000E+00  0.00000000000E+00  0.74505805969E-08  0.10566000000E+00  0.10566000000E+00 0.  1.
     999900   -1    0    0    0    0 -0.00000000000E+00 -0.00000000000E+00 -0.74505805969E-08  0.93827000000E+00  0.93827000000E+00 0.  1.
     999902    2    1    2    0    0 -0.25217736592E-02  0.78827666305E-02  0.21940438605E-01  0.10204804755E+01  0.10202110177E+01 0.  0.
     999903    2    3    3    0    0 -0.47959205141E-01 -0.60685779794E-01 -0.10021575816E+00  0.12824264728E+00  0.20497052737E-01 0.  0.
         14    1    1    2    0    0  0.25217736592E-02 -0.78827666305E-02 -0.21940438605E-01  0.23449524479E-01  0.00000000000E+00 0. -1.
     999901    1    3    3    0    0  0.45437431482E-01  0.68568546425E-01  0.12215619676E+00  0.89223782824E+00  0.88000000000E+00 0. -1.
        -11    1    4    4    0    0 -0.21037084462E-01 -0.19439570388E-01 -0.23399164602E-01  0.36989699169E-01  0.51100000000E-03 0.  1.
         11    1    4    4    0    0 -0.26922120679E-01 -0.41246209406E-01 -0.76816593555E-01  0.91252948109E-01  0.51100000000E-03 0. -1.
</event>
<event>
 8    1  0.1207611E+005  0.1043930E+01  0.7957747E-01            NaN
         13   -1    0    0    0    0  0.00000000000E+00  0.00000000000E+00  0.74505805969E-08  0.10566000000E+00  0.10566000000E+00 0. -1.
     999900   -1    0    0    0    0 -0.00000000000E+00 -0.00000000000E+00 -0.74505805969E-08  0.93827000000E+00  0.93827000000E+00 0.  1.
     999902    2    1    2    0    0 -0.23387408713E-02 -0.21694732841E-01  0.10410992332E-01  0.10197531536E+01  0.10194665146E+01 0.  0.
     999903    2    3    3    0    0  0.89348949315E-01 -0.80115444526E-01  0.51414759184E-01  0.13211532147E+00  0.20230212778E-01 0.  0.
         14    1    1    2    0    0  0.23387408713E-02  0.21694732841E-01 -0.10410992332E-01  0.24176846429E-01  0.00000000000E+00 0.  1.
     999901    1    3    3    0    0 -0.91687690187E-01  0.58420711685E-01 -0.41003766852E-01  0.88763783210E+00  0.88000000000E+00 0.  1.
        -11    1    4    4    0    0  0.13831770380E-01 -0.21030318040E-01  0.53523753279E-02  0.25739098496E-01  0.51100000000E-03 0. -1.
         11    1    4    4    0    0  0.75517178935E-01 -0.59085126486E-01  0.46062383857E-01  0.10637622297E+00  0.51100000000E-03 0.  1.
</event>
<event>
 8    1  0.1207611E+005  0.1043930E+01  0.7957747E-01            NaN
         13   -1    0    0    0    0  0.00000000000E+00  0.00000000000E+00  0.74505805969E-08  0.10566000000E+00  0.10566000000E+00 0. -1.
     999900   -1    0    0    0    0 -0.00000000000E+00 -0.00000000000E+00 -0.74505805969E-08  0.93827000000E+00  0.93827000000E+00 0. -1.
     999902    2    1    2    0    0 -0.16237663750E-01 -0.50763236675E-02 -0.18714546762E-01  0.10186383997E+01  0.10183243708E+01 0.  0.
     999903    2    3    3    0    0 -0.86049824236E-01  0.20591357531E-01 -0.95962555343E-01  0.13212848861E+00  0.20507296690E-01 0.  0.
         14    1    1    2    0    0  0.16237663750E-01  0.50763236675E-02  0.18714546762E-01  0.25291600316E-01  0.00000000000E+00 0. -1.
     999901    1    3    3    0    0  0.69812160485E-01 -0.25667681198E-01  0.77248008581E-01  0.88650991108E+00  0.88000000000E+00 0.  1.
        -11    1    4    4    0    0 -0.93108899727E-02 -0.25997817189E-02 -0.17234686701E-01  0.19767323636E-01  0.51100000000E-03 0. -1.
         11    1    4    4    0    0 -0.76738934263E-01  0.23191139250E-01 -0.78727868642E-01  0.11236116497E+00  0.51100000000E-03 0.  1.
</event>
<event>
 8    1  0.1207611E+005  0.1043930E+01  0.7957747E-01            NaN
         13   -1    0    0    0    0  0.00000000000E+00  0.00000000000E+00  0.74505805969E-08  0.10566000000E+00  0.10566000000E+00 0. -1.
     999900   -1    0    0    0    0 -0.00000000000E+00 -0.00000000000E+00 -0.74505805969E-08  0.93827000000E+00  0.93827000000E+00 0.  1.
     999902    2    1    2    0    0  0.12847790610E-01  0.18517857046E-01 -0.43076652784E-02  0.10209836989E+01  0.10207258107E+01 0.  0.
     999903    2    3    3    0    0  0.77285706985E-01 -0.96467597751E-01  0.35859188027E-01  0.13026080375E+00  0.20072810134E-01 0.  0.
         14    1    1    2    0    0 -0.12847790610E-01 -0.18517857046E-01  0.43076652784E-02  0.22946301080E-01  0.00000000000E+00 0.  1.
     999901    1    3    3    0    0 -0.64437916375E-01  0.11498545480E+00 -0.40166853305E-01  0.89072289517E+00  0.88000000000E+00 0.  1.
        -11    1    4    4    0    0  0.27208277509E-01 -0.36140430411E-01  0.23193499098E-01  0.50839164004E-01  0.51100000000E-03 0.  1.
         11    1    4    4    0    0  0.50077429476E-01 -0.60327167340E-01  0.12665688929E-01  0.79421639742E-01  0.51100000000E-03 0. -1.
</event>
<event>
 8    1  0.1207611E+005  0.1043930E+01  0.7957747E-01            NaN
         13   -1    0    0    0    0  0.00000000000E+00  0.00000000000E+00  0.74505805969E-08  0.10566000000E+00  0.10566000000E+00 0. -1.
     999900   -1    0    0    0    0 -0.00000000000E+00 -0.00000000000E+00 -0.74505805969E-08  0.93827000000E+00  0.93827000000E+00 0. -1.
     999902    2    1    2    0    0  0.22542600677E-02 -0.22816248337E-01  0.27870463778E-02  0.10208338855E+01  0.10205725801E+01 0.  0.
     999903    2    3    3    0    0 -0.14304621157E-01  0.59457892140E-01  0.11262090178E+00  0.13004395151E+00  0.22092955470E-01 0.  0.
         14    1    1    2    0    0 -0.22542600677E-02  0.22816248337E-01 -0.27870463778E-02  0.23096114482E-01  0.00000000000E+00 0. -1.
     999901    1    3    3    0    0  0.16558881225E-01 -0.82274140477E-01 -0.10983385541E+00  0.89078993401E+00  0.88000000000E+00 0. -1.
        -11    1    4    4    0    0 -0.16744177536E-01  0.23283409076E-01  0.52938985081E-01  0.60210313751E-01  0.51100000000E-03 0.  1.
         11    1    4    4    0    0  0.24395563792E-02  0.36174483064E-01  0.59681916702E-01  0.69833637758E-01  0.51100000000E-03 0. -1.
</event>
<event>
 8    1  0.1207611E+005  0.1043930E+01  0.7957747E-01            NaN
         13   -1    0    0    0    0  0.00000000000E+00  0.00000000000E+00  0.74505805969E-08  0.10566000000E+00  0.10566000000E+00 0. -1.
     999900   -1    0    0    0    0 -0.00000000000E+00 -0.00000000000E+00 -0.74505805969E-08  0.93827000000E+00  0.93827000000E+00 0. -1.
     999902    2    1    2    0    0 -0.12559541792E-03  0.24401791717E-01 -0.52750584270E-02  0.10189642343E+01  0.10186583438E+01 0.  0.
     999903    2    3    3    0    0 -0.44975399658E-01  0.10346587152E+00  0.64448554859E-01  0.13153873556E+00  0.20514618818E-01 0.  0.
         14    1    1    2    0    0  0.12559541792E-03 -0.24401791717E-01  0.52750584270E-02  0.24965765652E-01  0.00000000000E+00 0.  1.
     999901    1    3    3    0    0  0.44849804240E-01 -0.79064079801E-01 -0.69723613286E-01  0.88742549879E+00  0.88000000000E+00 0.  1.
        -11    1    4    4    0    0 -0.26485182174E-01  0.43553574054E-01  0.37530499454E-01  0.63302276404E-01  0.51100000000E-03 0. -1.
         11    1    4    4    0    0 -0.18490217484E-01  0.59912297463E-01  0.26918055405E-01  0.68236459153E-01  0.51100000000E-03 0.  1.
</event>
<event>
 8    1  0.1207611E+005  0.1043930E+01  0.7957747E-01            NaN
         13   -1    0    0    0    0  0.00000000000E+00  0.00000000000E+00  0.74505805969E-08  0.10566000000E+00  0.10566000000E+00 0. -1.
     999900   -1    0    0    0    0 -0.00000000000E+00 -0.00000000000E+00 -0.74505805969E-08  0.93827000000E+00  0.93827000000E+00 0.  1.
     999902    2    1    2    0    0 -0.49965320232E-02 -0.83328411654E-02  0.21891655471E-01  0.10199790887E+01  0.10196978450E+01 0.  0.
     999903    2    3    3    0    0 -0.81769770254E-01 -0.75287147693E-01 -0.64528633719E-01  0.12989736453E+00  0.18839607401E-01 0.  0.
         14    1    1    2    0    0  0.49965320232E-02  0.83328411654E-02 -0.21891655471E-01  0.23950911327E-01  0.00000000000E+00 0.  1.
     999901    1    3    3    0    0  0.76773238230E-01  0.66954306527E-01  0.86420289190E-01  0.89008172414E+00  0.88000000000E+00 0. -1.
        -11    1    4    4    0    0 -0.13964164745E-01 -0.94385059834E-02 -0.17581613699E-01  0.24360984247E-01  0.51100000000E-03 0. -1.
         11    1    4    4    0    0 -0.67805605508E-01 -0.65848641709E-01 -0.46947020020E-01  0.10553638028E+00  0.51100000000E-03 0.  1.
</event>
<event>
 8    1  0.1207611E+005  0.1043930E+01  0.7957747E-01            NaN
         13   -1    0    0    0    0  0.00000000000E+00  0.00000000000E+00  0.74505805969E-08  0.10566000000E+00  0.10566000000E+00 0.  1.
     999900   -1    0    0    0    0 -0.00000000000E+00 -0.00000000000E+00 -0.74505805969E-08  0.93827000000E+00  0.93827000000E+00 0. -1.
     999902    2    1    2    0    0  0.21337797948E-01 -0.23644882238E-03 -0.94237479353E-02  0.10206026651E+01  0.10203360404E+01 0.  0.
     999903    2    3    3    0    0  0.89694231208E-01 -0.93531541785E-01  0.21719726911E-01  0.13248865643E+00  0.16979196813E-01 0.  0.
         14    1    1    2    0    0 -0.21337797948E-01  0.23644882238E-03  0.94237479353E-02  0.23327334920E-01  0.00000000000E+00 0.  1.
     999901    1    3    3    0    0 -0.68356433261E-01  0.93295092962E-01 -0.31143474846E-01  0.88811400865E+00  0.88000000000E+00 0. -1.
        -11    1    4    4    0    0  0.31812170053E-01 -0.25578312676E-01  0.92506689416E-03  0.40833578249E-01  0.51100000000E-03 0.  1.
         11    1    4    4    0    0  0.57882061155E-01 -0.67953229109E-01  0.20794660016E-01  0.91655078179E-01  0.51100000000E-03 0. -1.
</event>
<event>
 8    1  0.1207611E+005  0.1043930E+01  0.7957747E-01            NaN
         13   -1    0    0    0    0  0.00000000000E+00  0.00000000000E+00  0.74505805969E-08  0.10566000000E+00  0.10566000000E+00 0.  1.
     999900   -1    0    0    0    0 -0.00000000000E+00 -0.00000000000E+00 -0.74505805969E-08  0.93827000000E+00  0.93827000000E+00 0. -1.
     999902    2    1    2    0    0  0.19905788258E-01  0.14783649709E-02 -0.13931040293E-01  0.10195886801E+01  0.10192980804E+01 0.  0.
     999903    2    3    3    0    0 -0.14224413694E-01  0.12448161610E+00 -0.28857126962E-01  0.13025327741E+00  0.20860867873E-01 0.  0.
         14    1    1    2    0    0 -0.19905788258E-01 -0.14783649709E-02  0.13931040293E-01  0.24341319866E-01  0.00000000000E+00 0.  1.
     999901    1    3    3    0    0  0.34130201952E-01 -0.12300325113E+00  0.14926086668E-01  0.88933540272E+00  0.88000000000E+00 0. -1.
        -11    1    4    4    0    0 -0.13431121770E-01  0.39679944238E-01 -0.52517756870E-02  0.42222449901E-01  0.51100000000E-03 0. -1.
         11    1    4    4    0    0 -0.79329192417E-03  0.84801671860E-01 -0.23605351275E-01  0.88030827510E-01  0.51100000000E-03 0.  1.
</event>
<event>
 8    1  0.1207611E+005  0.1043930E+01  0.7957747E-01            NaN
         13   -1    0    0    0    0  0.00000000000E+00  0.00000000000E+00  0.74505805969E-08  0.10566000000E+00  0.10566000000E+00 0.  1.
     999900   -1    0    0    0    0 -0.00000000000E+00 -0.00000000000E+00 -0.74505805969E-08  0.93827000000E+00  0.93827000000E+00 0. -1.
     999902    2    1    2    0    0  0.11629553431E-01 -0.62130734896E-02 -0.19728567145E-01  0.10202010060E+01  0.10199250107E+01 0.  0.
     999903    2    3    3    0    0 -0.11193482612E+00  0.58730902705E-01 -0.18091930131E-01  0.12919676665E+00  0.19640833670E-01 0.  0.
         14    1    1    2    0    0 -0.11629553431E-01  0.62130734896E-02  0.19728567145E-01  0.23728994011E-01  0.00000000000E+00 0.  1.
     999901    1    3    3    0    0  0.12356437955E+00 -0.64943976194E-01 -0.16366370144E-02  0.89100423934E+00  0.88000000000E+00 0. -1.
        -11    1    4    4    0    0 -0.97108101867E-01  0.44237385768E-01 -0.10993886690E-01  0.10727560959E+00  0.51100000000E-03 0. -1.
         11    1    4    4    0    0 -0.14826724248E-01  0.14493516936E-01 -0.70980434401E-02  0.21921157059E-01  0.51100000000E-03 0.  1.
</event>
<event>
 8    1  0.1207611E+005  0.1043930E+01  0.7957747E-01            NaN
         13   -1    0    0    0    0  0.00000000000E+00  0.00000000000E+00  0.74505805969E-08  0.10566000000E+00  0.10566000000E+00 0. -1.
     999900   -1    0    0    0    0 -0.00000000000E+00 -0.00000000000E+00 -0.74505805969E-08  0.93827000000E+00  0.93827000000E+00 0. -1.
     999902    2    1    2    0    0 -0.19204637890E-02  0.17734733165E-01  0.13045136106E-01  0.10218305765E+01  0.10215915733E+01 0.  0.
     999903    2    3    3    0    0  0.61051962217E-01 -0.84328738267E-01  0.77476111578E-01  0.13136225636E+00  0.20367040564E-01 0.  0.
         14    1    1    2    0    0  0.19204637890E-02 -0.17734733165E-01 -0.13045136106E-01  0.22099423468E-01  0.00000000000E+00 0.  1.
     999901    1    3    3    0    0 -0.62972426006E-01  0.10206347143E+00 -0.64430975471E-01  0.89046832018E+00  0.88000000000E+00 0.  1.
        -11    1    4    4    0    0  0.44003407561E-01 -0.43761950037E-01  0.44275316358E-01  0.76236296524E-01  0.51100000000E-03 0. -1.
         11    1    4    4    0    0  0.17048554656E-01 -0.40566788230E-01  0.33200795219E-01  0.55125959832E-01  0.51100000000E-03 0.  1.
</event>
<event>
 8    1  0.1207611E+005  0.1043930E+01  0.7957747E-01            NaN
         13   -1    0    0    0    0  0.00000000000E+00  0.00000000000E+00  0.74505805969E-08  0.10566000000E+00  0.10566000000E+00 0.  1.
     999900   -1    0    0    0    0 -0.00000000000E+00 -0.00000000000E+00 -0.74505805969E-08  0.93827000000E+00  0.93827000000E+00 0. -1.
     999902    2    1    2    0    0 -0.93512530782E-02  0.13119351696E-02  0.21792934057E-01  0.10201792298E+01  0.10199027218E+01 0.  0.
     999903    2    3    3    0    0 -0.39336248310E-01 -0.56564220945E-01 -0.10661501802E+00  0.12847448525E+00  0.19801004276E-01 0.  0.
         14    1    1    2    0    0  0.93512530782E-02 -0.13119351696E-02 -0.21792934057E-01  0.23750770153E-01  0.00000000000E+00 0. -1.
     999901    1    3    3    0    0  0.29984995232E-01  0.57876156114E-01  0.12840795208E+00  0.89170474460E+00  0.88000000000E+00 0.  1.
        -11    1    4    4    0    0 -0.21520868847E-02 -0.16219804315E-01 -0.30902944622E-01  0.34970939897E-01  0.51100000000E-03 0.  1.
         11    1    4    4    0    0 -0.37184161425E-01 -0.40344416630E-01 -0.75712073396E-01  0.93503545350E-01  0.51100000000E-03 0. -1.
</event>
<event>
 8    1  0.1207611E+005  0.1043930E+01  0.7957747E-01            NaN
         13   -1    0    0    0    0  0.00000000000E+00  0.00000000000E+00  0.74505805969E-08  0.10566000000E+00  0.10566000000E+00 0.  1.
     999900   -1    0    0    0    0 -0.00000000000E+00 -0.00000000000E+00 -0.74505805969E-08  0.93827000000E+00  0.93827000000E+00 0. -1.
     999902    2    1    2    0    0  0.89162034765E-02 -0.21577873398E-01 -0.39411339204E-02  0.10202522501E+01  0.10199774595E+01 0.  0.
     999903    2    3    3    0    0 -0.26689097740E-01 -0.24372772666E-03 -0.12650932479E+00  0.13078845393E+00  0.19714032604E-01 0.  0.
         14    1    1    2    0    0 -0.89162034765E-02  0.21577873398E-01  0.39411339204E-02  0.23677749922E-01  0.00000000000E+00 0. -1.
     999901    1    3    3    0    0  0.35605301216E-01 -0.21334145671E-01  0.12256819087E+00  0.88946379615E+00  0.88000000000E+00 0.  1.
        -11    1    4    4    0    0 -0.27198638399E-02 -0.34995433107E-02 -0.57271155462E-01  0.57444676268E-01  0.51100000000E-03 0.  1.
         11    1    4    4    0    0 -0.23969233900E-01  0.32558155840E-02 -0.69238169326E-01  0.73343777661E-01  0.51100000000E-03 0. -1.
</event>
<event>
 8    1  0.1207611E+005  0.1043930E+01  0.7957747E-01            NaN
         13   -1    0    0    0    0  0.00000000000E+00  0.00000000000E+00  0.74505805969E-08  0.10566000000E+00  0.10566000000E+00 0. -1.
     999900   -1    0    0    0    0 -0.00000000000E+00 -0.00000000000E+00 -0.74505805969E-08  0.93827000000E+00  0.93827000000E+00 0. -1.
     999902    2    1    2    0    0 -0.11640978528E-02  0.18742308852E-01 -0.12508391300E-01  0.10213669967E+01  0.10211177468E+01 0.  0.
     999903    2    3    3    0    0  0.10516897041E+00  0.73052187508E-01  0.27276278213E-01  0.13241305850E+00  0.19801218922E-01 0.  0.
         14    1    1    2    0    0  0.11640978528E-02 -0.18742308852E-01  0.12508391300E-01  0.22563003298E-01  0.00000000000E+00 0. -1.
     999901    1    3    3    0    0 -0.10633306826E+00 -0.54309878656E-01 -0.39784669513E-01  0.88895393821E+00  0.88000000000E+00 0. -1.
        -11    1    4    4    0    0  0.18795527543E-01  0.22823491961E-01  0.42312470648E-02  0.29872198005E-01  0.51100000000E-03 0. -1.
         11    1    4    4    0    0  0.86373442864E-01  0.50228695547E-01  0.23045031148E-01  0.10254086049E+00  0.51100000000E-03 0.  1.
</event>
<event>
 8    1  0.1207611E+005  0.1043930E+01  0.7957747E-01            NaN
         13   -1    0    0    0    0  0.00000000000E+00  0.00000000000E+00  0.74505805969E-08  0.10566000000E+00  0.10566000000E+00 0.  1.
     999900   -1    0    0    0    0 -0.00000000000E+00 -0.00000000000E+00 -0.74505805969E-08  0.93827000000E+00  0.93827000000E+00 0.  1.
     999902    2    1    2    0    0 -0.70693052368E-02  0.55015412019E-02 -0.21352382125E-01  0.10207747359E+01  0.10205120750E+01 0.  0.
     999903    2    3    3    0    0 -0.60445651034E-02 -0.53210072744E-01  0.11507823212E+00  0.12832786568E+00  0.18899550078E-01 0.  0.
         14    1    1    2    0    0  0.70693052368E-02 -0.55015412019E-02  0.21352382125E-01  0.23155264078E-01  0.00000000000E+00 0.  1.
     999901    1    3    3    0    0 -0.10247401334E-02  0.58711613946E-01 -0.13643061424E+00  0.89244687024E+00  0.88000000000E+00 0.  1.
        -11    1    4    4    0    0 -0.12334665255E-01 -0.25332411063E-01  0.59072047766E-01  0.65449545189E-01  0.51100000000E-03 0. -1.
         11    1    4    4    0    0  0.62901001514E-02 -0.27877661681E-01  0.56006184353E-01  0.62878320489E-01  0.51100000000E-03 0.  1.
</event>
<event>
 8    1  0.1207611E+005  0.1043930E+01  0.7957747E-01            NaN
         13   -1    0    0    0    0  0.00000000000E+00  0.00000000000E+00  0.74505805969E-08  0.10566000000E+00  0.10566000000E+00 0.  1.
     999900   -1    0    0    0    0 -0.00000000000E+00 -0.00000000000E+00 -0.74505805969E-08  0.93827000000E+00  0.93827000000E+00 0. -1.
     999902    2    1    2    0    0  0.21945069184E-01 -0.24047463188E-02  0.10522140020E-01  0.10194742380E+01  0.10191808660E+01 0.  0.
     999903    2    3    3    0    0  0.74203790857E-01  0.10568354176E+00 -0.10294901174E-01  0.13107826700E+00  0.20007836307E-01 0.  0.
         14    1    1    2    0    0 -0.21945069184E-01  0.24047463188E-02 -0.10522140020E-01  0.24455762040E-01  0.00000000000E+00 0. -1.
     999901    1    3    3    0    0 -0.52258721673E-01 -0.10808828808E+00  0.20817041194E-01  0.88839597096E+00  0.88000000000E+00 0.  1.
        -11    1    4    4    0    0  0.62688162501E-01  0.78608837608E-01 -0.13623062934E-01  0.10146429930E+00  0.51100000000E-03 0. -1.
         11    1    4    4    0    0  0.11515628356E-01  0.27074704152E-01  0.33281617603E-02  0.29613967702E-01  0.51100000000E-03 0.  1.
</event>
<event>
 8    1  0.1207611E+005  0.1043930E+01  0.7957747E-01            NaN
         13   -1    0    0    0    0  0.00000000000E+00  0.00000000000E+00  0.74505805969E-08  0.10566000000E+00  0.10566000000E+00 0. -1.
     999900   -1    0    0    0    0 -0.00000000000E+00 -0.00000000000E+00 -0.74505805969E-08  0.93827000000E+00  0.93827000000E+00 0. -1.
     999902    2    1    2    0    0 -0.19866446011E-02 -0.69879269425E-02 -0.25367955205E-01  0.10175422939E+01  0.10172000830E+01 0.  0.
     999903    2    3    3    0    0 -0.23592927693E-01 -0.46673520817E-01 -0.11889506020E+00  0.13143332931E+00  0.20090817070E-01 0.  0.
         14    1    1    2    0    0  0.19866446011E-02  0.69879269425E-02  0.25367955205E-01  0.26387706058E-01  0.00000000000E+00 0. -1.
     999901    1    3    3    0    0  0.21606283092E-01  0.39685593875E-01  0.93527104998E-01  0.88610896463E+00  0.88000000000E+00 0.  1.
        -11    1    4    4    0    0 -0.40630416991E-02  0.95334650419E-03 -0.13477525979E-01  0.14118144528E-01  0.51100000000E-03 0.  1.
         11    1    4    4    0    0 -0.19529885994E-01 -0.47626867322E-01 -0.10541753422E+00  0.11731518478E+00  0.51100000000E-03 0. -1.
</event>
<event>
 8    1  0.1207611E+005  0.1043930E+01  0.7957747E-01            NaN
         13   -1    0    0    0    0  0.00000000000E+00  0.00000000000E+00  0.74505805969E-08  0.10566000000E+00  0.10566000000E+00 0. -1.
     999900   -1    0    0    0    0 -0.00000000000E+00 -0.00000000000E+00 -0.74505805969E-08  0.93827000000E+00  0.93827000000E+00 0. -1.
     999902    2    1    2    0    0 -0.22813662038E-01 -0.41110476010E-02  0.29951366193E-02  0.10205561956E+01  0.10202884953E+01 0.  0.
     999903    2    3    3    0    0  0.37332908404E-01  0.10741151674E+00  0.59395238112E-01  0.12969376867E+00  0.19018394909E-01 0.  0.
         14    1    1    2    0    0  0.22813662038E-01  0.41110476010E-02 -0.29951366193E-02  0.23373804383E-01  0.00000000000E+00 0.  1.
     999901    1    3    3    0    0 -0.60146570442E-01 -0.11152256434E+00 -0.56400101492E-01  0.89086242694E+00  0.88000000000E+00 0.  1.
        -11    1    4    4    0    0  0.86023968953E-02  0.18455996225E-01  0.31910632897E-02  0.20617202403E-01  0.51100000000E-03 0. -1.
         11    1    4    4    0    0  0.28730511509E-01  0.88955520511E-01  0.56204174822E-01  0.10907656627E+00  0.51100000000E-03 0.  1.
</event>
<event>
 8    1  0.1207611E+005  0.1043930E+01  0.7957747E-01            NaN
         13   -1    0    0    0    0  0.00000000000E+00  0.00000000000E+00  0.74505805969E-08  0.10566000000E+00  0.10566000000E+00 0.  1.
     999900   -1    0    0    0    0 -0.00000000000E+00 -0.00000000000E+00 -0.74505805969E-08  0.93827000000E+00  0.93827000000E+00 0. -1.
     999902    2    1    2    0    0  0.22826998188E-01  0.33054392722E-02 -0.36312767447E-02  0.10205808256E+01  0.10203136957E+01 0.  0.
     999903    2    3    3    0    0 -0.22151659332E-02  0.12272540307E+00  0.41575714736E-01  0.13101244158E+00  0.19216874766E-01 0.  0.
         14    1    1    2    0    0 -0.22826998188E-01 -0.33054392722E-02  0.36312767447E-02  0.23349174415E-01  0.00000000000E+00 0.  1.
     999901    1    3    3    0    0  0.25042164121E-01 -0.11941996379E+00 -0.45206991481E-01  0.88956838400E+00  0.88000000000E+00 0. -1.
        -11    1    4    4    0    0 -0.78096410598E-02  0.63643013082E-01  0.28854648280E-01  0.70315542066E-01  0.51100000000E-03 0. -1.
         11    1    4    4    0    0  0.55944751266E-02  0.59082389985E-01  0.12721066456E-01  0.60696899518E-01  0.51100000000E-03 0.  1.
</event>
<event>
 8    1  0.1207611E+005  0.1043930E+01  0.7957747E-01            NaN
         13   -1    0    0    0    0  0.00000000000E+00  0.00000000000E+00  0.74505805969E-08  0.10566000000E+00  0.10566000000E+00 0. -1.
     999900   -1    0    0    0    0 -0.00000000000E+00 -0.00000000000E+00 -0.74505805969E-08  0.93827000000E+00  0.93827000000E+00 0. -1.
     999902    2    1    2    0    0  0.18759270386E-01 -0.88801318997E-02 -0.11515283586E-01  0.10201946103E+01  0.10199184645E+01 0.  0.
     999903    2    3    3    0    0  0.28463729200E-01  0.55541614066E-02 -0.12762597454E+00  0.13239721343E+00  0.19990001471E-01 0.  0.
         14    1    1    2    0    0 -0.18759270386E-01  0.88801318997E-02  0.11515283586E-01  0.23735389696E-01  0.00000000000E+00 0.  1.
     999901    1    3    3    0    0 -0.97044588143E-02 -0.14434293306E-01  0.11611069095E+00  0.88779739687E+00  0.88000000000E+00 0.  1.
        -11    1    4    4    0    0 -0.21039734532E-02 -0.24166780103E-02 -0.72275786280E-02  0.79225028067E-02  0.51100000000E-03 0. -1.
         11    1    4    4    0    0  0.30567702653E-01  0.79708394169E-02 -0.12039839591E+00  0.12447471062E+00  0.51100000000E-03 0.  1.
</event>
<event>
 8    1  0.1207611E+005  0.1043930E+01  0.7957747E-01            NaN
         13   -1    0    0    0    0  0.00000000000E+00  0.00000000000E+00  0.74505805969E-08  0.10566000000E+00  0.10566000000E+00 0. -1.
     999900   -1    0    0    0    0 -0.00000000000E+00 -0.00000000000E+00 -0.74505805969E-08  0.93827000000E+00  0.93827000000E+00 0. -1.
     999902    2    1    2    0    0 -0.35068096045E-02 -0.12337868763E-01  0.19960452561E-01  0.10202036352E+01  0.10199277018E+01 0.  0.
     999903    2    3    3    0    0  0.10244699517E+00 -0.61405393179E-01  0.47915027914E-01  0.13205089555E+00  0.29590200821E-01 0.  0.
         14    1    1    2    0    0  0.35068096045E-02  0.12337868763E-01 -0.19960452561E-01  0.23726364780E-01  0.00000000000E+00 0.  1.
     999901    1    3    3    0    0 -0.10595380478E+00  0.49067524416E-01 -0.27954575352E-01  0.88815273967E+00  0.88000000000E+00 0.  1.
        -11    1    4    4    0    0  0.37256298734E-01 -0.11264610825E-01  0.48878624615E-02  0.39231053680E-01  0.51100000000E-03 0. -1.
         11    1    4    4    0    0  0.65190696438E-01 -0.50140782354E-01  0.43027165452E-01  0.92819841871E-01  0.51100000000E-03 0.  1.
</event>
<event>
 8    1  0.1207611E+005  0.1043930E+01  0.7957747E-01            NaN
         13   -1    0    0    0    0  0.00000000000E+00  0.00000000000E+00  0.74505805969E-08  0.10566000000E+00  0.10566000000E+00 0.  1.
     999900   -1    0    0    0    0 -0.00000000000E+00 -0.00000000000E+00 -0.74505805969E-08  0.93827000000E+00  0.93827000000E+00 0. -1.
     999902    2    1    2    0    0  0.11734301522E-02 -0.34512759413E-02  0.23510649755E-01  0.10201384280E+01  0.10198609579E+01 0.  0.
     999903    2    3    3    0    0 -0.25407622539E-01 -0.10045211430E+00  0.80248460264E-01  0.13259412259E+00  0.20129863913E-01 0.  0.
         14    1    1    2    0    0 -0.11734301522E-02  0.34512759413E-02 -0.23510649755E-01  0.23791571950E-01  0.00000000000E+00 0. -1.
     999901    1    3    3    0    0  0.26581052691E-01  0.97000838360E-01 -0.56737810508E-01  0.88754430546E+00  0.88000000000E+00 0.  1.
        -11    1    4    4    0    0  0.14282706771E-02 -0.27912306562E-01  0.17339353933E-01  0.32894545605E-01  0.51100000000E-03 0. -1.
         11    1    4    4    0    0 -0.26835893216E-01 -0.72539807740E-01  0.62909106330E-01  0.99699576990E-01  0.51100000000E-03 0.  1.
</event>
<event>
 8    1  0.1207611E+005  0.1043930E+01  0.7957747E-01            NaN
         13   -1    0    0    0    0  0.00000000000E+00  0.00000000000E+00  0.74505805969E-08  0.10566000000E+00  0.10566000000E+00 0. -1.
     999900   -1    0    0    0    0 -0.00000000000E+00 -0.00000000000E+00 -0.74505805969E-08  0.93827000000E+00  0.93827000000E+00 0.  1.
     999902    2    1    2    0    0  0.16793593306E-02 -0.93757254290E-02  0.21901788082E-01  0.10200466837E+01  0.10197670441E+01 0.  0.
     999903    2    3    3    0    0 -0.89141264287E-01 -0.94284640122E-01  0.13597793071E-01  0.13126838415E+00  0.14516553944E-01 0.  0.
         14    1    1    2    0    0 -0.16793593306E-02  0.93757254290E-02 -0.21901788082E-01  0.23883316275E-01  0.00000000000E+00 0.  1.
     999901    1    3    3    0    0  0.90820623618E-01  0.84908914693E-01  0.83039950113E-02  0.88877829958E+00  0.88000000000E+00 0.  1.
        -11    1    4    4    0    0 -0.64957327844E-01 -0.61537498607E-01  0.13913518342E-01  0.90554764033E-01  0.51100000000E-03 0. -1.
         11    1    4    4    0    0 -0.24183936443E-01 -0.32747141515E-01 -0.31572527138E-03  0.40713620113E-01  0.51100000000E-03 0.  1.
</event>
<event>
 8    1  0.1207611E+005  0.1043930E+01  0.7957747E-01            NaN
         13   -1    0    0    0    0  0.00000000000E+00  0.00000000000E+00  0.74505805969E-08  0.10566000000E+00  0.10566000000E+00 0. -1.
     999900   -1    0    0    0    0 -0.00000000000E+00 -0.00000000000E+00 -0.74505805969E-08  0.93827000000E+00  0.93827000000E+00 0.  1.
     999902    2    1    2    0    0 -0.12333645308E-01  0.16995827165E-01  0.10307594457E-01  0.10205371923E+01  0.10202690515E+01 0.  0.
     999903    2    3    3    0    0  0.94276720017E-01  0.48863984122E-01  0.74453879082E-01  0.13121380049E+00  0.19947241610E-01 0.  0.
         14    1    1    2    0    0  0.12333645308E-01 -0.16995827165E-01 -0.10307594457E-01  0.23392807679E-01  0.00000000000E+00 0.  1.
     999901    1    3    3    0    0 -0.10661036533E+00 -0.31868156957E-01 -0.64146284624E-01  0.88932339183E+00  0.88000000000E+00 0. -1.
        -11    1    4    4    0    0  0.56172054085E-01  0.39790097544E-01  0.48987391067E-01  0.84490100764E-01  0.51100000000E-03 0. -1.
         11    1    4    4    0    0  0.38104665932E-01  0.90738865784E-02  0.25466488015E-01  0.46723699728E-01  0.51100000000E-03 0.  1.
</event>
<event>
 8    1  0.1207611E+005  0.1043930E+01  0.7957747E-01            NaN
         13   -1    0    0    0    0  0.00000000000E+00  0.00000000000E+00  0.74505805969E-08  0.10566000000E+00  0.10566000000E+00 0. -1.
     999900   -1    0    0    0    0 -0.00000000000E+00 -0.00000000000E+00 -0.74505805969E-08  0.93827000000E+00  0.93827000000E+00 0.  1.
     999902    2    1    2    0    0  0.19661837391E-01  0.60150218213E-02  0.18684931286E-01  0.10161470017E+01  0.10157671161E+01 0.  0.
     999903    2    3    3    0    0 -0.41493078260E-01 -0.74661278499E-01  0.90648725848E-01  0.12742467338E+00  0.26904903578E-01 0.  0.
         14    1    1    2    0    0 -0.19661837391E-01 -0.60150218213E-02 -0.18684931286E-01  0.27782998295E-01  0.00000000000E+00 0.  1.
     999901    1    3    3    0    0  0.61154915651E-01  0.80676300321E-01 -0.71963794562E-01  0.88872232833E+00  0.88000000000E+00 0.  1.
        -11    1    4    4    0    0 -0.11904862427E-01 -0.47788785284E-01  0.44580288684E-01  0.66431596461E-01  0.51100000000E-03 0. -1.
         11    1    4    4    0    0 -0.29588215833E-01 -0.26872493216E-01  0.46068437164E-01  0.60993076915E-01  0.51100000000E-03 0.  1.
</event>
<event>
 8    1  0.1207611E+005  0.1043930E+01  0.7957747E-01            NaN
         13   -1    0    0    0    0  0.00000000000E+00  0.00000000000E+00  0.74505805969E-08  0.10566000000E+00  0.10566000000E+00 0.  1.
     999900   -1    0    0    0    0 -0.00000000000E+00 -0.00000000000E+00 -0.74505805969E-08  0.93827000000E+00  0.93827000000E+00 0. -1.
     999902    2    1    2    0    0  0.18442505536E-01  0.16172030328E-01 -0.30958809514E-02  0.10192066294E+01  0.10189067221E+01 0.  0.
     999903    2    3    3    0    0 -0.16945958159E-01 -0.60554174164E-01  0.10943721677E+00  0.12802597885E+00  0.21451651182E-01 0.  0.
         14    1    1    2    0    0 -0.18442505536E-01 -0.16172030328E-01  0.30958809514E-02  0.24723370609E-01  0.00000000000E+00 0.  1.
     999901    1    3    3    0    0  0.35388463695E-01  0.76726204492E-01 -0.11253309772E+00  0.89118065054E+00  0.88000000000E+00 0. -1.
        -11    1    4    4    0    0 -0.12416891018E-01 -0.30050131713E-01  0.36783005585E-01  0.49096234268E-01  0.51100000000E-03 0. -1.
         11    1    4    4    0    0 -0.45290671409E-02 -0.30504042452E-01  0.72654211189E-01  0.78929744580E-01  0.51100000000E-03 0.  1.
</event>
<event>
 8    1  0.1207611E+005  0.1043930E+01  0.7957747E-01            NaN
         13   -1    0    0    0    0  0.00000000000E+00  0.00000000000E+00  0.74505805969E-08  0.10566000000E+00  0.10566000000E+00 0.  1.
     999900   -1    0    0    0    0 -0.00000000000E+00 -0.00000000000E+00 -0.74505805969E-08  0.93827000000E+00  0.93827000000E+00 0.  1.
     999902    2    1    2    0    0 -0.19249276544E-01 -0.11886274337E-01 -0.76099018308E-02  0.10200610082E+01  0.10197817078E+01 0.  0.
     999903    2    3    3    0    0 -0.49109064075E-01  0.10695785975E+00 -0.51986624535E-01  0.13046288057E+00  0.21593289232E-01 0.  0.
         14    1    1    2    0    0  0.19249276544E-01  0.11886274337E-01  0.76099018308E-02  0.23868991829E-01  0.00000000000E+00 0.  1.
     999901    1    3    3    0    0  0.29859787531E-01 -0.11884413408E+00  0.44376722704E-01  0.88959812760E+00  0.88000000000E+00 0.  1.
        -11    1    4    4    0    0 -0.36421258681E-01  0.60768878214E-01 -0.38802282543E-01  0.80778975575E-01  0.51100000000E-03 0. -1.
         11    1    4    4    0    0 -0.12687805394E-01  0.46188981531E-01 -0.13184341991E-01  0.49683904993E-01  0.51100000000E-03 0.  1.
</event>
<event>
 8    1  0.1207611E+005  0.1043930E+01  0.7957747E-01            NaN
         13   -1    0    0    0    0  0.00000000000E+00  0.00000000000E+00  0.74505805969E-08  0.10566000000E+00  0.10566000000E+00 0. -1.
     999900   -1    0    0    0    0 -0.00000000000E+00 -0.00000000000E+00 -0.74505805969E-08  0.93827000000E+00  0.93827000000E+00 0.  1.
     999902    2    1    2    0    0  0.23013521044E-01 -0.82586409195E-02 -0.36061473941E-02  0.10192149924E+01  0.10189152905E+01 0.  0.
     999903    2    3    3    0    0 -0.79255125657E-01  0.97083727749E-01 -0.29792898082E-02  0.12705117132E+00  0.20651848064E-01 0.  0.
         14    1    1    2    0    0 -0.23013521044E-01  0.82586409195E-02  0.36061473941E-02  0.24715007581E-01  0.00000000000E+00 0.  1.
     999901    1    3    3    0    0  0.10226864670E+00 -0.10534236867E+00 -0.62685758596E-03  0.89216382110E+00  0.88000000000E+00 0.  1.
        -11    1    4    4    0    0 -0.72717092324E-01  0.77422714602E-01 -0.40746342957E-02  0.10629635938E+00  0.51100000000E-03 0. -1.
         11    1    4    4    0    0 -0.65380333328E-02  0.19661013147E-01  0.10953444875E-02  0.20754811933E-01  0.51100000000E-03 0.  1.
</event>
<event>
 8    1  0.1207611E+005  0.1043930E+01  0.7957747E-01            NaN
         13   -1    0    0    0    0  0.00000000000E+00  0.00000000000E+00  0.74505805969E-08  0.10566000000E+00  0.10566000000E+00 0. -1.
     999900   -1    0    0    0    0 -0.00000000000E+00 -0.00000000000E+00 -0.74505805969E-08  0.93827000000E+00  0.93827000000E+00 0. -1.
     999902    2    1    2    0    0 -0.40579926643E-02  0.11425479326E-01  0.19677843075E-01  0.10208166621E+01  0.10205549623E+01 0.  0.
     999903    2    3    3    0    0 -0.74436921028E-01  0.10802752756E+00  0.28910140553E-02  0.13257854821E+00  0.18918550680E-01 0.  0.
         14    1    1    2    0    0  0.40579926643E-02 -0.11425479326E-01 -0.19677843075E-01  0.23113337932E-01  0.00000000000E+00 0.  1.
     999901    1    3    3    0    0  0.70378928364E-01 -0.96602048236E-01  0.16786829019E-01  0.88823811386E+00  0.88000000000E+00 0.  1.
        -11    1    4    4    0    0 -0.53393642824E-01  0.76607963368E-01 -0.65149329653E-02  0.93607513683E-01  0.51100000000E-03 0. -1.
         11    1    4    4    0    0 -0.21043278204E-01  0.31419564194E-01  0.94059470206E-02  0.38971034527E-01  0.51100000000E-03 0.  1.
</event>
<event>
 8    1  0.1207611E+005  0.1043930E+01  0.7957747E-01            NaN
         13   -1    0    0    0    0  0.00000000000E+00  0.00000000000E+00  0.74505805969E-08  0.10566000000E+00  0.10566000000E+00 0. -1.
     999900   -1    0    0    0    0 -0.00000000000E+00 -0.00000000000E+00 -0.74505805969E-08  0.93827000000E+00  0.93827000000E+00 0.  1.
     999902    2    1    2    0    0 -0.33788738391E-02  0.54890309862E-02 -0.22347126305E-01  0.10206718766E+01  0.10204068499E+01 0.  0.
     999903    2    3    3    0    0 -0.77944935231E-01 -0.61338936367E-01  0.80199101841E-01  0.12907678710E+00  0.19774806921E-01 0.  0.
         14    1    1    2    0    0  0.33788738391E-02 -0.54890309862E-02  0.22347126305E-01  0.23258123391E-01  0.00000000000E+00 0. -1.
     999901    1    3    3    0    0  0.74566061392E-01  0.66827967353E-01 -0.10254622815E+00  0.89159508951E+00  0.88000000000E+00 0.  1.
        -11    1    4    4    0    0 -0.33695821377E-01 -0.27954728304E-01  0.23134884928E-01  0.49521300815E-01  0.51100000000E-03 0. -1.
         11    1    4    4    0    0 -0.44249113854E-01 -0.33384208064E-01  0.57064216913E-01  0.79555486283E-01  0.51100000000E-03 0.  1.
</event>
<event>
 8    1  0.1207611E+005  0.1043930E+01  0.7957747E-01            NaN
         13   -1    0    0    0    0  0.00000000000E+00  0.00000000000E+00  0.74505805969E-08  0.10566000000E+00  0.10566000000E+00 0.  1.
     999900   -1    0    0    0    0 -0.00000000000E+00 -0.00000000000E+00 -0.74505805969E-08  0.93827000000E+00  0.93827000000E+00 0. -1.
     999902    2    1    2    0    0  0.12968515828E-01  0.24401921533E-02 -0.21098096087E-01  0.10190449322E+01  0.10187410403E+01 0.  0.
     999903    2    3    3    0    0  0.11967927020E+00  0.74448417717E-02 -0.50211958241E-01  0.13210646276E+00  0.23501560996E-01 0.  0.
         14    1    1    2    0    0 -0.12968515828E-01 -0.24401921533E-02  0.21098096087E-01  0.24885067792E-01  0.00000000000E+00 0.  1.
     999901    1    3    3    0    0 -0.10671075437E+00 -0.50046496184E-02  0.29113862154E-01  0.88693846945E+00  0.88000000000E+00 0.  1.
        -11    1    4    4    0    0  0.25141334338E-01  0.52715461275E-02 -0.15090901987E-02  0.25737411779E-01  0.51100000000E-03 0. -1.
         11    1    4    4    0    0  0.94537935858E-01  0.21732956442E-02 -0.48702868042E-01  0.10636905098E+00  0.51100000000E-03 0.  1.
</event>
<event>
 8    1  0.1207611E+005  0.1043930E+01  0.7957747E-01            NaN
         13   -1    0    0    0    0  0.00000000000E+00  0.00000000000E+00  0.74505805969E-08  0.10566000000E+00  0.10566000000E+00 0. -1.
     999900   -1    0    0    0    0 -0.00000000000E+00 -0.00000000000E+00 -0.74505805969E-08  0.93827000000E+00  0.93827000000E+00 0.  1.
     999902    2    1    2    0    0  0.74193567717E-02  0.16025980189E-01  0.39824818290E-02  0.10258264352E+01  0.10256666789E+01 0.  0.
     999903    2    3    3    0    0 -0.23007432218E-01  0.13153499047E+00  0.26205782121E-01  0.13747853265E+00  0.19565486654E-01 0.  0.
         14    1    1    2    0    0 -0.74193567717E-02 -0.16025980189E-01 -0.39824818290E-02  0.18103564772E-01  0.00000000000E+00 0.  1.
     999901    1    3    3    0    0  0.30426788990E-01 -0.11550901028E+00 -0.22223300292E-01  0.88834790258E+00  0.88000000000E+00 0.  1.
        -11    1    4    4    0    0 -0.32795113614E-02  0.40760646541E-01  0.16423494376E-01  0.44070146242E-01  0.51100000000E-03 0. -1.
         11    1    4    4    0    0 -0.19727920857E-01  0.90774343926E-01  0.97822877442E-02  0.93408386406E-01  0.51100000000E-03 0.  1.
</event>
<event>
 8    1  0.1207611E+005  0.1043930E+01  0.7957747E-01            NaN
         13   -1    0    0    0    0  0.00000000000E+00  0.00000000000E+00  0.74505805969E-08  0.10566000000E+00  0.10566000000E+00 0.  1.
     999900   -1    0    0    0    0 -0.00000000000E+00 -0.00000000000E+00 -0.74505805969E-08  0.93827000000E+00  0.93827000000E+00 0. -1.
     999902    2    1    2    0    0  0.73220948148E-02 -0.15874934011E-01 -0.16140096458E-01  0.10201365279E+01  0.10198590129E+01 0.  0.
     999903    2    3    3    0    0 -0.12063120008E+00 -0.26479820856E-02  0.41007496372E-01  0.12895032662E+00  0.19689432087E-01 0.  0.
         14    1    1    2    0    0 -0.73220948148E-02  0.15874934011E-01  0.16140096458E-01  0.23793472131E-01  0.00000000000E+00 0. -1.
     999901    1    3    3    0    0  0.12795329489E+00 -0.13226951926E-01 -0.57147592831E-01  0.89118620125E+00  0.88000000000E+00 0. -1.
        -11    1    4    4    0    0 -0.92906063865E-01  0.23719536604E-02  0.23819272800E-01  0.95941553796E-01  0.51100000000E-03 0.  1.
         11    1    4    4    0    0 -0.27725136210E-01 -0.50199357460E-02  0.17188223572E-01  0.33008772824E-01  0.51100000000E-03 0. -1.
</event>
<event>
 8    1  0.1207611E+005  0.1043930E+01  0.7957747E-01            NaN
         13   -1    0    0    0    0  0.00000000000E+00  0.00000000000E+00  0.74505805969E-08  0.10566000000E+00  0.10566000000E+00 0. -1.
     999900   -1    0    0    0    0 -0.00000000000E+00 -0.00000000000E+00 -0.74505805969E-08  0.93827000000E+00  0.93827000000E+00 0. -1.
     999902    2    1    2    0    0 -0.19727556540E-03  0.23120153203E-01  0.79170187608E-02  0.10194911050E+01  0.10191981425E+01 0.  0.
     999903    2    3    3    0    0  0.15276364545E-01 -0.41720502104E-01  0.12041001510E+00  0.12982913644E+00  0.19572054626E-01 0.  0.
         14    1    1    2    0    0  0.19727556540E-03 -0.23120153203E-01 -0.79170187608E-02  0.24438894980E-01  0.00000000000E+00 0.  1.
     999901    1    3    3    0    0 -0.15473640111E-01  0.64840655307E-01 -0.11249299634E+00  0.88966196858E+00  0.88000000000E+00 0. -1.
        -11    1    4    4    0    0  0.64884048404E-02 -0.26003419213E-01  0.45731329644E-01  0.53008422351E-01  0.51100000000E-03 0.  1.
         11    1    4    4    0    0  0.87879597050E-02 -0.15717082891E-01  0.74678685455E-01  0.76820714085E-01  0.51100000000E-03 0. -1.
</event>
<event>
 8    1  0.1207611E+005  0.1043930E+01  0.7957747E-01            NaN
         13   -1    0    0    0    0  0.00000000000E+00  0.00000000000E+00  0.74505805969E-08  0.10566000000E+00  0.10566000000E+00 0. -1.
     999900   -1    0    0    0    0 -0.00000000000E+00 -0.00000000000E+00 -0.74505805969E-08  0.93827000000E+00  0.93827000000E+00 0. -1.
     999902    2    1    2    0    0  0.20609694442E-01 -0.82943113873E-02 -0.92976785731E-02  0.10198467707E+01  0.10195623737E+01 0.  0.
     999903    2    3    3    0    0 -0.76063844415E-01  0.48184117797E-01  0.88073549155E-01  0.12742492983E+00  0.19306606301E-01 0.  0.
         14    1    1    2    0    0 -0.20609694442E-01  0.82943113873E-02  0.92976785731E-02  0.24083229294E-01  0.00000000000E+00 0. -1.
     999901    1    3    3    0    0  0.96673538858E-01 -0.56478429184E-01 -0.97371227728E-01  0.89242184087E+00  0.88000000000E+00 0. -1.
        -11    1    4    4    0    0 -0.72025886009E-01  0.47882851324E-01  0.77660929235E-01  0.11624102872E+00  0.51100000000E-03 0. -1.
         11    1    4    4    0    0 -0.40379584064E-02  0.30126647338E-03  0.10412619920E-01  0.11183901117E-01  0.51100000000E-03 0.  1.
</event>
<event>
 8    1  0.1207611E+005  0.1043930E+01  0.7957747E-01            NaN
         13   -1    0    0    0    0  0.00000000000E+00  0.00000000000E+00  0.74505805969E-08  0.10566000000E+00  0.10566000000E+00 0. -1.
     999900   -1    0    0    0    0 -0.00000000000E+00 -0.00000000000E+00 -0.74505805969E-08  0.93827000000E+00  0.93827000000E+00 0.  1.
     999902    2    1    2    0    0  0.11993407148E-02  0.17855989962E-01  0.14946957371E-01  0.10206129176E+01  0.10203465300E+01 0.  0.
     999903    2    3    3    0    0  0.65402699337E-02  0.13149837756E+00 -0.13135795854E-03  0.13316124380E+00  0.19932414881E-01 0.  0.
         14    1    1    2    0    0 -0.11993407148E-02 -0.17855989962E-01 -0.14946957371E-01  0.23317082371E-01  0.00000000000E+00 0. -1.
     999901    1    3    3    0    0 -0.53409292189E-02 -0.11364238760E+00  0.15078315330E-01  0.88745167383E+00  0.88000000000E+00 0.  1.
        -11    1    4    4    0    0  0.14770953160E-02  0.29620684313E-01  0.83210282417E-02  0.30806937234E-01  0.51100000000E-03 0. -1.
         11    1    4    4    0    0  0.50631746176E-02  0.10187769325E+00 -0.84523862003E-02  0.10235430657E+00  0.51100000000E-03 0.  1.
</event>
<event>
 8    1  0.1207611E+005  0.1043930E+01  0.7957747E-01            NaN
         13   -1    0    0    0    0  0.00000000000E+00  0.00000000000E+00  0.74505805969E-08  0.10566000000E+00  0.10566000000E+00 0. -1.
     999900   -1    0    0    0    0 -0.00000000000E+00 -0.00000000000E+00 -0.74505805969E-08  0.93827000000E+00  0.93827000000E+00 0. -1.
     999902    2    1    2    0    0 -0.18747018505E-01 -0.12328404982E-01 -0.65805046469E-02  0.10205474571E+01  0.10202795543E+01 0.  0.
     999903    2    3    3    0    0 -0.12063130828E+00 -0.17689025099E-01 -0.50535975240E-01  0.13356311215E+00  0.20503804206E-01 0.  0.
         14    1    1    2    0    0  0.18747018505E-01  0.12328404982E-01  0.65805046469E-02  0.23382542925E-01  0.00000000000E+00 0.  1.
     999901    1    3    3    0    0  0.10188428978E+00  0.53606201162E-02  0.43955470593E-01  0.88698434493E+00  0.88000000000E+00 0. -1.
        -11    1    4    4    0    0 -0.83899226274E-01 -0.66571530269E-02 -0.42848758518E-01  0.94444031486E-01  0.51100000000E-03 0. -1.
         11    1    4    4    0    0 -0.36732082006E-01 -0.11031872072E-01 -0.76872167220E-02  0.39119080662E-01  0.51100000000E-03 0.  1.
</event>
<event>
 8    1  0.1207611E+005  0.1043930E+01  0.7957747E-01            NaN
         13   -1    0    0    0    0  0.00000000000E+00  0.00000000000E+00  0.74505805969E-08  0.10566000000E+00  0.10566000000E+00 0.  1.
     999900   -1    0    0    0    0 -0.00000000000E+00 -0.00000000000E+00 -0.74505805969E-08  0.93827000000E+00  0.93827000000E+00 0.  1.
     999902    2    1    2    0    0 -0.16523035868E-01  0.19049016235E-01 -0.20208135822E-01  0.10116152280E+01  0.10110989690E+01 0.  0.
     999903    2    3    3    0    0 -0.94471625714E-01 -0.65737095715E-01 -0.41970421423E-01  0.12384371210E+00  0.18151995293E-01 0.  0.
         14    1    1    2    0    0  0.16523035868E-01 -0.19049016235E-01  0.20208135822E-01  0.32314771966E-01  0.00000000000E+00 0.  1.
     999901    1    3    3    0    0  0.77948589846E-01  0.84786111949E-01  0.21762285601E-01  0.88777151594E+00  0.88000000000E+00 0.  1.
        -11    1    4    4    0    0 -0.14682178979E-01 -0.63827550975E-02 -0.11887594768E-01  0.19946979033E-01  0.51100000000E-03 0. -1.
         11    1    4    4    0    0 -0.79789446735E-01 -0.59354340617E-01 -0.30082826655E-01  0.10389673306E+00  0.51100000000E-03 0.  1.
</event>
<event>
 8    1  0.1207611E+005  0.1043930E+01  0.7957747E-01            NaN
         13   -1    0    0    0    0  0.00000000000E+00  0.00000000000E+00  0.74505805969E-08  0.10566000000E+00  0.10566000000E+00 0.  1.
     999900   -1    0    0    0    0 -0.00000000000E+00 -0.00000000000E+00 -0.74505805969E-08  0.93827000000E+00  0.93827000000E+00 0.  1.
     999902    2    1    2    0    0 -0.46631365624E-03  0.16260342308E-01  0.16696913398E-01  0.10206189919E+01  0.10203527447E+01 0.  0.
     999903    2    3    3    0    0  0.23827893745E-01  0.60144594442E-01 -0.11092792472E+00  0.12999890715E+00  0.20237851103E-01 0.  0.
         14    1    1    2    0    0  0.46631365624E-03 -0.16260342308E-01 -0.16696913398E-01  0.23311008074E-01  0.00000000000E+00 0. -1.
     999901    1    3    3    0    0 -0.24294207402E-01 -0.43884252134E-01  0.12762483812E+00  0.89062008477E+00  0.88000000000E+00 0. -1.
        -11    1    4    4    0    0  0.14028968728E-01  0.34995852923E-01 -0.82965054082E-01  0.91131679482E-01  0.51100000000E-03 0. -1.
         11    1    4    4    0    0  0.97989250174E-02  0.25148741518E-01 -0.27962870637E-01  0.38867227669E-01  0.51100000000E-03 0.  1.
</event>
<event>
 8    1  0.1207611E+005  0.1043930E+01  0.7957747E-01            NaN
         13   -1    0    0    0    0  0.00000000000E+00  0.00000000000E+00  0.74505805969E-08  0.10566000000E+00  0.10566000000E+00 0. -1.
     999900   -1    0    0    0    0 -0.00000000000E+00 -0.00000000000E+00 -0.74505805969E-08  0.93827000000E+00  0.93827000000E+00 0.  1.
     999902    2    1    2    0    0 -0.17068105083E-01 -0.77098985658E-02  0.94070629751E-02  0.10229715749E+01  0.10227568565E+01 0.  0.
     999903    2    3    3    0    0 -0.10736003082E+00  0.43952314775E-01 -0.63748890650E-01  0.13382962357E+00  0.19709512797E-01 0.  0.
         14    1    1    2    0    0  0.17068105083E-01  0.77098985658E-02 -0.94070629751E-02  0.20958425056E-01  0.00000000000E+00 0.  1.
     999901    1    3    3    0    0  0.90291925735E-01 -0.51662213341E-01  0.73155953625E-01  0.88914195137E+00  0.88000000000E+00 0.  1.
        -11    1    4    4    0    0 -0.64099169941E-01  0.16573464241E-01 -0.40362366961E-01  0.77542021458E-01  0.51100000000E-03 0. -1.
         11    1    4    4    0    0 -0.43260860876E-01  0.27378850534E-01 -0.23386523689E-01  0.56287602113E-01  0.51100000000E-03 0.  1.
</event>
<event>
 8    1  0.1207611E+005  0.1043930E+01  0.7957747E-01            NaN
         13   -1    0    0    0    0  0.00000000000E+00  0.00000000000E+00  0.74505805969E-08  0.10566000000E+00  0.10566000000E+00 0.  1.
     999900   -1    0    0    0    0 -0.00000000000E+00 -0.00000000000E+00 -0.74505805969E-08  0.93827000000E+00  0.93827000000E+00 0. -1.
     999902    2    1    2    0    0  0.55187491649E-02  0.17422762891E-01 -0.15055393315E-01  0.10202514416E+01  0.10199766321E+01 0.  0.
     999903    2    3    3    0    0 -0.48987196798E-01 -0.30914632896E-01  0.11231889542E+00  0.12810144784E+00  0.20952009276E-01 0.  0.
         14    1    1    2    0    0 -0.55187491649E-02 -0.17422762891E-01  0.15055393315E-01  0.23678558380E-01  0.00000000000E+00 0.  1.
     999901    1    3    3    0    0  0.54505945963E-01  0.48337395786E-01 -0.12737428873E+00  0.89214999378E+00  0.88000000000E+00 0. -1.
        -11    1    4    4    0    0 -0.21798384674E-01 -0.76634748577E-02  0.63501952304E-01  0.67577048535E-01  0.51100000000E-03 0. -1.
         11    1    4    4    0    0 -0.27188812124E-01 -0.23251158038E-01  0.48816943114E-01  0.60524399302E-01  0.51100000000E-03 0.  1.
</event>
<event>
 8    1  0.1207611E+005  0.1043930E+01  0.7957747E-01            NaN
         13   -1    0    0    0    0  0.00000000000E+00  0.00000000000E+00  0.74505805969E-08  0.10566000000E+00  0.10566000000E+00 0. -1.
     999900   -1    0    0    0    0 -0.00000000000E+00 -0.00000000000E+00 -0.74505805969E-08  0.93827000000E+00  0.93827000000E+00 0.  1.
     999902    2    1    2    0    0 -0.99477362874E-02 -0.32642724559E-02 -0.23129206064E-01  0.10185415557E+01  0.10182250869E+01 0.  0.
     999903    2    3    3    0    0  0.12246485322E+00 -0.26492890237E-01  0.13732432637E-01  0.12756936590E+00  0.19643062502E-01 0.  0.
         14    1    1    2    0    0  0.99477362874E-02  0.32642724559E-02  0.23129206064E-01  0.25388444321E-01  0.00000000000E+00 0. -1.
     999901    1    3    3    0    0 -0.13241258950E+00  0.23228617781E-01 -0.36861638701E-01  0.89097218977E+00  0.88000000000E+00 0. -1.
        -11    1    4    4    0    0  0.46985969138E-01 -0.18922807120E-01  0.11162374209E-02  0.50668146128E-01  0.51100000000E-03 0.  1.
         11    1    4    4    0    0  0.75478884080E-01 -0.75700831169E-02  0.12616195216E-01  0.76901219776E-01  0.51100000000E-03 0. -1.
</event>
<event>
 8    1  0.1207611E+005  0.1043930E+01  0.7957747E-01            NaN
         13   -1    0    0    0    0  0.00000000000E+00  0.00000000000E+00  0.74505805969E-08  0.10566000000E+00  0.10566000000E+00 0.  1.
     999900   -1    0    0    0    0 -0.00000000000E+00 -0.00000000000E+00 -0.74505805969E-08  0.93827000000E+00  0.93827000000E+00 0. -1.
     999902    2    1    2    0    0 -0.69520681559E-04 -0.11344792343E-01 -0.16723664107E-01  0.10237213363E+01  0.10235218534E+01 0.  0.
     999903    2    3    3    0    0 -0.12624833899E+00 -0.21239956638E-01  0.31613211106E-01  0.13335317541E+00  0.19846798686E-01 0.  0.
         14    1    1    2    0    0  0.69520681559E-04  0.11344792343E-01  0.16723664107E-01  0.20208663677E-01  0.00000000000E+00 0.  1.
     999901    1    3    3    0    0  0.12617881831E+00  0.98951642945E-02 -0.48336875213E-01  0.89036816092E+00  0.88000000000E+00 0.  1.
        -11    1    4    4    0    0 -0.26338314823E-01 -0.12582628058E-01  0.52781731397E-02  0.29667315167E-01  0.51100000000E-03 0.  1.
         11    1    4    4    0    0 -0.99910024171E-01 -0.86573285801E-02  0.26335037966E-01  0.10368586024E+00  0.51100000000E-03 0. -1.
</event>
<event>
 8    1  0.1207611E+005  0.1043930E+01  0.7957747E-01            NaN
         13   -1    0    0    0    0  0.00000000000E+00  0.00000000000E+00  0.74505805969E-08  0.10566000000E+00  0.10566000000E+00 0. -1.
     999900   -1    0    0    0    0 -0.00000000000E+00 -0.00000000000E+00 -0.74505805969E-08  0.93827000000E+00  0.93827000000E+00 0.  1.
     999902    2    1    2    0    0  0.11060164864E-01  0.20632781622E-01  0.10623812392E-02  0.10204956752E+01  0.10202265707E+01 0.  0.
     999903    2    3    3    0    0 -0.49082254005E-01 -0.90742113101E-01  0.74481013367E-01  0.12841284651E+00  0.17298527357E-01 0.  0.
         14    1    1    2    0    0 -0.11060164864E-01 -0.20632781622E-01 -0.10623812392E-02  0.23434324786E-01  0.00000000000E+00 0. -1.
     999901    1    3    3    0    0  0.60142418869E-01  0.11137489472E+00 -0.73418632128E-01  0.89208282870E+00  0.88000000000E+00 0.  1.
        -11    1    4    4    0    0 -0.10805259524E-01 -0.12396569255E-01  0.18664313183E-01  0.24880640472E-01  0.51100000000E-03 0.  1.
         11    1    4    4    0    0 -0.38276994481E-01 -0.78345543846E-01  0.55816700184E-01  0.10353220604E+00  0.51100000000E-03 0. -1.
</event>
<event>
 8    1  0.1207611E+005  0.1043930E+01  0.7957747E-01            NaN
         13   -1    0    0    0    0  0.00000000000E+00  0.00000000000E+00  0.74505805969E-08  0.10566000000E+00  0.10566000000E+00 0. -1.
     999900   -1    0    0    0    0 -0.00000000000E+00 -0.00000000000E+00 -0.74505805969E-08  0.93827000000E+00  0.93827000000E+00 0. -1.
     999902    2    1    2    0    0 -0.21742869742E-02 -0.53396672205E-02 -0.23211500454E-01  0.10200132000E+01  0.10197327664E+01 0.  0.
     999903    2    3    3    0    0 -0.40733209817E-02 -0.12454034859E+00 -0.38193453815E-01  0.13184831231E+00  0.19958636563E-01 0.  0.
         14    1    1    2    0    0  0.21742869742E-02  0.53396672205E-02  0.23211500454E-01  0.23916800020E-01  0.00000000000E+00 0. -1.
     999901    1    3    3    0    0  0.18990340075E-02  0.11920068137E+00  0.14981953361E-01  0.88816488767E+00  0.88000000000E+00 0. -1.
        -11    1    4    4    0    0  0.10836300609E-03 -0.19632277860E-01 -0.13960163327E-01  0.24095338919E-01  0.51100000000E-03 0.  1.
         11    1    4    4    0    0 -0.41816839878E-02 -0.10490807073E+00 -0.24233290487E-01  0.10775297339E+00  0.51100000000E-03 0. -1.
</event>
<event>
 8    1  0.1207611E+005  0.1043930E+01  0.7957747E-01            NaN
         13   -1    0    0    0    0  0.00000000000E+00  0.00000000000E+00  0.74505805969E-08  0.10566000000E+00  0.10566000000E+00 0.  1.
     999900   -1    0    0    0    0 -0.00000000000E+00 -0.00000000000E+00 -0.74505805969E-08  0.93827000000E+00  0.93827000000E+00 0. -1.
     999902    2    1    2    0    0 -0.81492605918E-02  0.11571491935E-02  0.21942458244E-01  0.10204945372E+01  0.10202254062E+01 0.  0.
     999903    2    3    3    0    0 -0.53243364475E-02  0.30692303544E-01 -0.12265989957E+00  0.12819966026E+00  0.20477692121E-01 0.  0.
         14    1    1    2    0    0  0.81492605918E-02 -0.11571491935E-02 -0.21942458244E-01  0.23435462791E-01  0.00000000000E+00 0. -1.
     999901    1    3    3    0    0 -0.28249241444E-02 -0.29535154351E-01  0.14460235781E+00  0.89229487695E+00  0.88000000000E+00 0.  1.
        -11    1    4    4    0    0 -0.74577139936E-02  0.30324861141E-01 -0.12191790284E+00  0.12585488014E+00  0.51100000000E-03 0. -1.
         11    1    4    4    0    0  0.21333775461E-02  0.36744240377E-03 -0.74199672287E-03  0.23447801200E-02  0.51100000000E-03 0.  1.
</event>
<event>
 8    1  0.1207611E+005  0.1043930E+01  0.7957747E-01            NaN
         13   -1    0    0    0    0  0.00000000000E+00  0.00000000000E+00  0.74505805969E-08  0.10566000000E+00  0.10566000000E+00 0.  1.
     999900   -1    0    0    0    0 -0.00000000000E+00 -0.00000000000E+00 -0.74505805969E-08  0.93827000000E+00  0.93827000000E+00 0.  1.
     999902    2    1    2    0    0  0.17115404260E-01  0.16640375699E-01 -0.54368068302E-02  0.10194473932E+01  0.10191533690E+01 0.  0.
     999903    2    3    3    0    0  0.11621226763E+00 -0.45959015540E-01 -0.34758450102E-01  0.13119144425E+00  0.19634737903E-01 0.  0.
         14    1    1    2    0    0 -0.17115404260E-01 -0.16640375699E-01  0.54368068302E-02  0.24482606783E-01  0.00000000000E+00 0.  1.
     999901    1    3    3    0    0 -0.99096863374E-01  0.62599391238E-01  0.29321643271E-01  0.88825594897E+00  0.88000000000E+00 0. -1.
        -11    1    4    4    0    0  0.59412965781E-01 -0.23049600218E-01 -0.75597706266E-02  0.64176287100E-01  0.51100000000E-03 0.  1.
         11    1    4    4    0    0  0.56799301853E-01 -0.22909415322E-01 -0.27198679475E-01  0.67015157148E-01  0.51100000000E-03 0. -1.
</event>
<event>
 8    1  0.1207611E+005  0.1043930E+01  0.7957747E-01            NaN
         13   -1    0    0    0    0  0.00000000000E+00  0.00000000000E+00  0.74505805969E-08  0.10566000000E+00  0.10566000000E+00 0.  1.
     999900   -1    0    0    0    0 -0.00000000000E+00 -0.00000000000E+00 -0.74505805969E-08  0.93827000000E+00  0.93827000000E+00 0.  1.
     999902    2    1    2    0    0  0.13080484567E-01  0.23686571043E-02  0.23210568414E-01  0.10171822880E+01  0.10168305497E+01 0.  0.
     999903    2    3    3    0    0  0.42434712939E-03 -0.95772811511E-01 -0.78847807530E-01  0.12577450374E+00  0.20727699913E-01 0.  0.
         14    1    1    2    0    0 -0.13080484567E-01 -0.23686571043E-02 -0.23210568414E-01  0.26747712034E-01  0.00000000000E+00 0. -1.
     999901    1    3    3    0    0  0.12656137438E-01  0.98141468615E-01  0.10205837594E+00  0.89140778423E+00  0.88000000000E+00 0. -1.
        -11    1    4    4    0    0 -0.12864492278E-02 -0.77140598298E-01 -0.72870084613E-01  0.10612557284E+00  0.51100000000E-03 0. -1.
         11    1    4    4    0    0  0.17107963572E-02 -0.18632213214E-01 -0.59777229169E-02  0.19648930904E-01  0.51100000000E-03 0.  1.
</event>
<event>
 8    1  0.1207611E+005  0.1043930E+01  0.7957747E-01            NaN
         13   -1    0    0    0    0  0.00000000000E+00  0.00000000000E+00  0.74505805969E-08  0.10566000000E+00  0.10566000000E+00 0.  1.
     999900   -1    0    0    0    0 -0.00000000000E+00 -0.00000000000E+00 -0.74505805969E-08  0.93827000000E+00  0.93827000000E+00 0. -1.
     999902    2    1    2    0    0  0.56381420359E-02 -0.32493620526E-01  0.10397593349E-02  0.10109344682E+01  0.10103958600E+01 0.  0.
     999903    2    3    3    0    0  0.24967552463E-01  0.11018527256E+00  0.30690006487E-01  0.11874052638E+00  0.19830863340E-01 0.  0.
         14    1    1    2    0    0 -0.56381420359E-02  0.32493620526E-01 -0.10397593349E-02  0.32995531819E-01  0.00000000000E+00 0.  1.
     999901    1    3    3    0    0 -0.19329410427E-01 -0.14267889309E+00 -0.29650247152E-01  0.89219394181E+00  0.88000000000E+00 0.  1.
        -11    1    4    4    0    0  0.15279552209E-01  0.84097982147E-01  0.30948326454E-01  0.90906519833E-01  0.51100000000E-03 0.  1.
         11    1    4    4    0    0  0.96880002543E-02  0.26087290412E-01 -0.25831996765E-03  0.27834006542E-01  0.51100000000E-03 0. -1.
</event>
<event>
 8    1  0.1207611E+005  0.1043930E+01  0.7957747E-01            NaN
         13   -1    0    0    0    0  0.00000000000E+00  0.00000000000E+00  0.74505805969E-08  0.10566000000E+00  0.10566000000E+00 0.  1.
     999900   -1    0    0    0    0 -0.00000000000E+00 -0.00000000000E+00 -0.74505805969E-08  0.93827000000E+00  0.93827000000E+00 0. -1.
     999902    2    1    2    0    0 -0.34610795930E-02  0.18759914088E-01  0.17978884135E-01  0.10177163829E+01  0.10173787310E+01 0.  0.
     999903    2    3    3    0    0  0.11655378706E+00  0.78472906514E-02  0.50608143501E-01  0.12890407302E+00  0.20216592258E-01 0.  0.
         14    1    1    2    0    0  0.34610795930E-02 -0.18759914088E-01 -0.17978884135E-01  0.26213617135E-01  0.00000000000E+00 0. -1.
     999901    1    3    3    0    0 -0.12001486666E+00  0.10912623437E-01 -0.32629259366E-01  0.88881230985E+00  0.88000000000E+00 0. -1.
        -11    1    4    4    0    0  0.14143260098E-01 -0.40893611450E-02  0.18361157065E-02  0.14845441141E-01  0.51100000000E-03 0.  1.
         11    1    4    4    0    0  0.10241052697E+00  0.11936651796E-01  0.48772027794E-01  0.11405863188E+00  0.51100000000E-03 0. -1.
</event>
<event>
 8    1  0.1207611E+005  0.1043930E+01  0.7957747E-01            NaN
         13   -1    0    0    0    0  0.00000000000E+00  0.00000000000E+00  0.74505805969E-08  0.10566000000E+00  0.10566000000E+00 0. -1.
     999900   -1    0    0    0    0 -0.00000000000E+00 -0.00000000000E+00 -0.74505805969E-08  0.93827000000E+00  0.93827000000E+00 0.  1.
     999902    2    1    2    0    0 -0.82931786649E-02 -0.87316806705E-02  0.19553748927E-01  0.10209655023E+01  0.10207072002E+01 0.  0.
     999903    2    3    3    0    0  0.17962584679E-01 -0.24499309923E-01  0.12892113415E+00  0.13366667537E+00  0.17979172365E-01 0.  0.
         14    1    1    2    0    0  0.82931786649E-02  0.87316806705E-02 -0.19553748927E-01  0.22964497747E-01  0.00000000000E+00 0.  1.
     999901    1    3    3    0    0 -0.26255763344E-01  0.15767629253E-01 -0.10936738522E+00  0.88729882688E+00  0.88000000000E+00 0.  1.
        -11    1    4    4    0    0  0.10335384749E-01 -0.11396007104E-01  0.98254824018E-01  0.99453309244E-01  0.51100000000E-03 0. -1.
         11    1    4    4    0    0  0.76271999301E-02 -0.13103302819E-01  0.30666310130E-01  0.34213366124E-01  0.51100000000E-03 0.  1.
</event>
<event>
 8    1  0.1207611E+005  0.1043930E+01  0.7957747E-01            NaN
         13   -1    0    0    0    0  0.00000000000E+00  0.00000000000E+00  0.74505805969E-08  0.10566000000E+00  0.10566000000E+00 0.  1.
     999900   -1    0    0    0    0 -0.00000000000E+00 -0.00000000000E+00 -0.74505805969E-08  0.93827000000E+00  0.93827000000E+00 0. -1.
     999902    2    1    2    0    0 -0.31036715995E-03 -0.24224315990E-01 -0.60156990446E-02  0.10189679799E+01  0.10186621823E+01 0.  0.
     999903    2    3    3    0    0 -0.88518709441E-02  0.12283654949E+00  0.72354205331E-02  0.12662530602E+00  0.28538453079E-01 0.  0.
         14    1    1    2    0    0  0.31036715995E-03  0.24224315990E-01  0.60156990446E-02  0.24962020109E-01  0.00000000000E+00 0.  1.
     999901    1    3    3    0    0  0.85415037842E-02 -0.14706086548E+00 -0.13251119578E-01  0.89234267387E+00  0.88000000000E+00 0.  1.
        -11    1    4    4    0    0 -0.31838352823E-02  0.40983227494E-01  0.15986879048E-01  0.44108991890E-01  0.51100000000E-03 0.  1.
         11    1    4    4    0    0 -0.56680356618E-02  0.81853321997E-01 -0.87514585151E-02  0.82516314128E-01  0.51100000000E-03 0. -1.
</event>
<event>
 8    1  0.1207611E+005  0.1043930E+01  0.7957747E-01            NaN
         13   -1    0    0    0    0  0.00000000000E+00  0.00000000000E+00  0.74505805969E-08  0.10566000000E+00  0.10566000000E+00 0. -1.
     999900   -1    0    0    0    0 -0.00000000000E+00 -0.00000000000E+00 -0.74505805969E-08  0.93827000000E+00  0.93827000000E+00 0. -1.
     999902    2    1    2    0    0 -0.59642157739E-02  0.17679654293E-01  0.16290273653E-01  0.10191607638E+01  0.10188597290E+01 0.  0.
     999903    2    3    3    0    0  0.39244015198E-01 -0.10838100365E+00 -0.48669348349E-01  0.12666156150E+00  0.19695456647E-01 0.  0.
         14    1    1    2    0    0  0.59642157739E-02 -0.17679654293E-01 -0.16290273653E-01  0.24769236190E-01  0.00000000000E+00 0.  1.
     999901    1    3    3    0    0 -0.45208230972E-01  0.12606065794E+00  0.64959622002E-01  0.89249920231E+00  0.88000000000E+00 0.  1.
        -11    1    4    4    0    0  0.82583832693E-02 -0.27269699164E-01 -0.21441532263E-01  0.35662835186E-01  0.51100000000E-03 0.  1.
         11    1    4    4    0    0  0.30985631929E-01 -0.81111304486E-01 -0.27227816086E-01  0.90998726317E-01  0.51100000000E-03 0. -1.
</event>
<event>
 8    1  0.1207611E+005  0.1043930E+01  0.7957747E-01            NaN
         13   -1    0    0    0    0  0.00000000000E+00  0.00000000000E+00  0.74505805969E-08  0.10566000000E+00  0.10566000000E+00 0. -1.
     999900   -1    0    0    0    0 -0.00000000000E+00 -0.00000000000E+00 -0.74505805969E-08  0.93827000000E+00  0.93827000000E+00 0. -1.
     999902    2    1    2    0    0 -0.63084807412E-03  0.94245097132E-02 -0.21965219224E-01  0.10200199559E+01  0.10197396826E+01 0.  0.
     999903    2    3    3    0    0 -0.99435371832E-01 -0.66331350046E-02  0.78886816171E-01  0.12862143959E+00  0.19721899106E-01 0.  0.
         14    1    1    2    0    0  0.63084807412E-03 -0.94245097132E-02  0.21965219224E-01  0.23910044086E-01  0.00000000000E+00 0. -1.
     999901    1    3    3    0    0  0.98804523758E-01  0.16057644718E-01 -0.10085203539E+00  0.89139851633E+00  0.88000000000E+00 0. -1.
        -11    1    4    4    0    0 -0.77598905441E-01 -0.45031455955E-03  0.69073992695E-01  0.10389066607E+00  0.51100000000E-03 0.  1.
         11    1    4    4    0    0 -0.21836466391E-01 -0.61828204450E-02  0.98128234758E-02  0.24730773516E-01  0.51100000000E-03 0. -1.
</event>
<event>
 8    1  0.1207611E+005  0.1043930E+01  0.7957747E-01            NaN
         13   -1    0    0    0    0  0.00000000000E+00  0.00000000000E+00  0.74505805969E-08  0.10566000000E+00  0.10566000000E+00 0.  1.
     999900   -1    0    0    0    0 -0.00000000000E+00 -0.00000000000E+00 -0.74505805969E-08  0.93827000000E+00  0.93827000000E+00 0.  1.
     999902    2    1    2    0    0 -0.75823588109E-02 -0.27371027276E-02 -0.22156191524E-01  0.10203528772E+01  0.10200804445E+01 0.  0.
     999903    2    3    3    0    0 -0.29323067498E-01 -0.12461970451E+00 -0.22574317575E-01  0.13168634703E+00  0.21018590314E-01 0.  0.
         14    1    1    2    0    0  0.75823588109E-02  0.27371027276E-02  0.22156191524E-01  0.23577122795E-01  0.00000000000E+00 0. -1.
     999901    1    3    3    0    0  0.21740708687E-01  0.12188260178E+00  0.41812605094E-03  0.88866653018E+00  0.88000000000E+00 0.  1.
        -11    1    4    4    0    0 -0.28243604778E-01 -0.82992216226E-01 -0.10302508398E-01  0.88271240873E-01  0.51100000000E-03 0.  1.
         11    1    4    4    0    0 -0.10794627199E-02 -0.41627488286E-01 -0.12271809177E-01  0.43415106152E-01  0.51100000000E-03 0. -1.
</event>
<event>
 8    1  0.1207611E+005  0.1043930E+01  0.7957747E-01            NaN
         13   -1    0    0    0    0  0.00000000000E+00  0.00000000000E+00  0.74505805969E-08  0.10566000000E+00  0.10566000000E+00 0. -1.
     999900   -1    0    0    0    0 -0.00000000000E+00 -0.00000000000E+00 -0.74505805969E-08  0.93827000000E+00  0.93827000000E+00 0. -1.
     999902    2    1    2    0    0 -0.13276639374E-01  0.15635503242E-01 -0.10135613156E-01  0.10210505601E+01  0.10207941896E+01 0.  0.
     999903    2    3    3    0    0 -0.11790436360E+00  0.51664898266E-01 -0.30868351989E-01  0.13387812794E+00  0.19994932254E-01 0.  0.
         14    1    1    2    0    0  0.13276639374E-01 -0.15635503242E-01  0.10135613156E-01  0.22879439869E-01  0.00000000000E+00 0.  1.
     999901    1    3    3    0    0  0.10462772423E+00 -0.36029395024E-01  0.20732738832E-01  0.88717243219E+00  0.88000000000E+00 0. -1.
        -11    1    4    4    0    0 -0.65710366254E-01  0.39006585843E-01 -0.21219297370E-01  0.79308799476E-01  0.51100000000E-03 0.  1.
         11    1    4    4    0    0 -0.52193997350E-01  0.12658312423E-01 -0.96490546186E-02  0.54569328462E-01  0.51100000000E-03 0. -1.
</event>
<event>
 8    1  0.1207611E+005  0.1043930E+01  0.7957747E-01            NaN
         13   -1    0    0    0    0  0.00000000000E+00  0.00000000000E+00  0.74505805969E-08  0.10566000000E+00  0.10566000000E+00 0.  1.
     999900   -1    0    0    0    0 -0.00000000000E+00 -0.00000000000E+00 -0.74505805969E-08  0.93827000000E+00  0.93827000000E+00 0.  1.
     999902    2    1    2    0    0 -0.69685764796E-04  0.23068173378E-01  0.11244682558E-02  0.10208343314E+01  0.10205730362E+01 0.  0.
     999903    2    3    3    0    0  0.91209729186E-01  0.67682733523E-01  0.65693582580E-01  0.13263865415E+00  0.19421603084E-01 0.  0.
         14    1    1    2    0    0  0.69685764796E-04 -0.23068173378E-01 -0.11244682558E-02  0.23095668598E-01  0.00000000000E+00 0. -1.
     999901    1    3    3    0    0 -0.91279414951E-01 -0.44614560145E-01 -0.64569114324E-01  0.88819567726E+00  0.88000000000E+00 0. -1.
        -11    1    4    4    0    0  0.53787961673E-01  0.42286887999E-01  0.50078828746E-01  0.84790777371E-01  0.51100000000E-03 0.  1.
         11    1    4    4    0    0  0.37421767513E-01  0.25395845524E-01  0.15614753834E-01  0.47847876776E-01  0.51100000000E-03 0. -1.
</event>
<event>
 8    1  0.1368927E+005  0.1043930E+01  0.7957747E-01            NaN
         13   -1    0    0    0    0  0.00000000000E+00  0.00000000000E+00  0.74505805969E-08  0.10566000000E+00  0.10566000000E+00 0. -1.
     999900   -1    0    0    0    0 -0.00000000000E+00 -0.00000000000E+00 -0.74505805969E-08  0.93827000000E+00  0.93827000000E+00 0.  1.
     999902    2    1    2    0    0 -0.17168994967E-02 -0.36427609284E-02 -0.23549178434E-01  0.10200389712E+01  0.10197591488E+01 0.  0.
     999903    2    3    3    0    0  0.24194041022E-01 -0.72291224594E-01 -0.10705808171E+00  0.13304532675E+00  0.20694282709E-01 0.  0.
         14    1    1    2    0    0  0.17168994967E-02  0.36427609284E-02  0.23549178434E-01  0.23891028776E-01  0.00000000000E+00 0. -1.
     999901    1    3    3    0    0 -0.25910940518E-01  0.68648463665E-01  0.83508903279E-01  0.88699364447E+00  0.88000000000E+00 0. -1.
        -11    1    4    4    0    0  0.34225949585E-02 -0.36755570444E-01 -0.40636772412E-01  0.54902591086E-01  0.51100000000E-03 0.  1.
         11    1    4    4    0    0  0.20771446063E-01 -0.35535654149E-01 -0.66421309301E-01  0.78142735668E-01  0.51100000000E-03 0. -1.
</event>
<event>
 8    1  0.1207611E+005  0.1043930E+01  0.7957747E-01            NaN
         13   -1    0    0    0    0  0.00000000000E+00  0.00000000000E+00  0.74505805969E-08  0.10566000000E+00  0.10566000000E+00 0. -1.
     999900   -1    0    0    0    0 -0.00000000000E+00 -0.00000000000E+00 -0.74505805969E-08  0.93827000000E+00  0.93827000000E+00 0.  1.
     999902    2    1    2    0    0  0.17395503004E-02  0.23522119906E-01 -0.55325102715E-02  0.10197034685E+01  0.10194156359E+01 0.  0.
     999903    2    3    3    0    0 -0.10057974309E+00  0.33347108907E-01  0.72333776796E-01  0.13030539850E+00  0.22781729962E-01 0.  0.
         14    1    1    2    0    0 -0.17395503004E-02 -0.23522119906E-01  0.55325102715E-02  0.24226531531E-01  0.00000000000E+00 0.  1.
     999901    1    3    3    0    0  0.10231929339E+00 -0.98249890015E-02 -0.77866287068E-01  0.88939806997E+00  0.88000000000E+00 0. -1.
        -11    1    4    4    0    0 -0.82796985467E-01  0.33735405333E-01  0.67009443805E-01  0.11173157591E+00  0.51100000000E-03 0.  1.
         11    1    4    4    0    0 -0.17782757620E-01 -0.38829642575E-03  0.53243329909E-02  0.18573822587E-01  0.51100000000E-03 0. -1.
</event>
<event>
 8    1  0.1207611E+005  0.1043930E+01  0.7957747E-01            NaN
         13   -1    0    0    0    0  0.00000000000E+00  0.00000000000E+00  0.74505805969E-08  0.10566000000E+00  0.10566000000E+00 0.  1.
     999900   -1    0    0    0    0 -0.00000000000E+00 -0.00000000000E+00 -0.74505805969E-08  0.93827000000E+00  0.93827000000E+00 0.  1.
     999902    2    1    2    0    0  0.94757958408E-02  0.11447183477E-01 -0.18001745402E-01  0.10205870877E+01  0.10203201027E+01 0.  0.
     999903    2    3    3    0    0 -0.23429914408E-01 -0.71409296501E-02 -0.12897316837E+00  0.13281292700E+00  0.20130614872E-01 0.  0.
         14    1    1    2    0    0 -0.94757958408E-02 -0.11447183477E-01  0.18001745402E-01  0.23342912284E-01  0.00000000000E+00 0.  1.
     999901    1    3    3    0    0  0.32905710249E-01  0.18588113127E-01  0.11097142296E+00  0.88777416071E+00  0.88000000000E+00 0. -1.
        -11    1    4    4    0    0 -0.14857429013E-01  0.55948209857E-02 -0.54265818020E-01  0.56542774473E-01  0.51100000000E-03 0.  1.
         11    1    4    4    0    0 -0.85724853951E-02 -0.12735750636E-01 -0.74707350346E-01  0.76270152530E-01  0.51100000000E-03 0. -1.
</event>
<event>
 8    1  0.1207611E+005  0.1043930E+01  0.7957747E-01            NaN
         13   -1    0    0    0    0  0.00000000000E+00  0.00000000000E+00  0.74505805969E-08  0.10566000000E+00  0.10566000000E+00 0.  1.
     999900   -1    0    0    0    0 -0.00000000000E+00 -0.00000000000E+00 -0.74505805969E-08  0.93827000000E+00  0.93827000000E+00 0.  1.
     999902    2    1    2    0    0  0.14977620892E-01  0.17058520707E-01 -0.55416350451E-02  0.10205626729E+01  0.10202951227E+01 0.  0.
     999903    2    3    3    0    0 -0.32642235833E-01  0.78318943150E-01  0.97738155924E-01  0.13113184067E+00  0.21058017447E-01 0.  0.
         14    1    1    2    0    0 -0.14977620892E-01 -0.17058520707E-01  0.55416350451E-02  0.23367327089E-01  0.00000000000E+00 0. -1.
     999901    1    3    3    0    0  0.47619856724E-01 -0.61260422443E-01 -0.10327979097E+00  0.88943083224E+00  0.88000000000E+00 0.  1.
        -11    1    4    4    0    0 -0.18432174258E-01  0.29450051121E-01  0.52967093218E-01  0.63346859779E-01  0.51100000000E-03 0. -1.
         11    1    4    4    0    0 -0.14210061575E-01  0.48868892029E-01  0.44771062706E-01  0.67784980895E-01  0.51100000000E-03 0.  1.
</event>
<event>
 8    1  0.1207611E+005  0.1043930E+01  0.7957747E-01            NaN
         13   -1    0    0    0    0  0.00000000000E+00  0.00000000000E+00  0.74505805969E-08  0.10566000000E+00  0.10566000000E+00 0.  1.
     999900   -1    0    0    0    0 -0.00000000000E+00 -0.00000000000E+00 -0.74505805969E-08  0.93827000000E+00  0.93827000000E+00 0.  1.
     999902    2    1    2    0    0  0.88424380710E-02  0.14716506092E-01 -0.18167712217E-01  0.10189333996E+01  0.10186267436E+01 0.  0.
     999903    2    3    3    0    0  0.91912901132E-01 -0.37299524448E-01  0.78738429543E-01  0.12820495079E+00  0.19938234686E-01 0.  0.
         14    1    1    2    0    0 -0.88424380710E-02 -0.14716506092E-01  0.18167712217E-01  0.24996600364E-01  0.00000000000E+00 0.  1.
     999901    1    3    3    0    0 -0.83070463061E-01  0.52016030540E-01 -0.96906141759E-01  0.89072844884E+00  0.88000000000E+00 0.  1.
        -11    1    4    4    0    0  0.55153918877E-01 -0.14200662003E-01  0.36598347253E-01  0.67700175121E-01  0.51100000000E-03 0.  1.
         11    1    4    4    0    0  0.36758982255E-01 -0.23098862445E-01  0.42140082290E-01  0.60504775672E-01  0.51100000000E-03 0. -1.
</event>
<event>
 8    1  0.1207611E+005  0.1043930E+01  0.7957747E-01            NaN
         13   -1    0    0    0    0  0.00000000000E+00  0.00000000000E+00  0.74505805969E-08  0.10566000000E+00  0.10566000000E+00 0.  1.
     999900   -1    0    0    0    0 -0.00000000000E+00 -0.00000000000E+00 -0.74505805969E-08  0.93827000000E+00  0.93827000000E+00 0.  1.
     999902    2    1    2    0    0 -0.13431013123E-01 -0.81548469052E-02 -0.21203583106E-01  0.10175389868E+01  0.10171966890E+01 0.  0.
     999903    2    3    3    0    0  0.47347983922E-01  0.26018046146E-01 -0.11622215513E+00  0.12968178987E+00  0.19773896250E-01 0.  0.
         14    1    1    2    0    0  0.13431013123E-01  0.81548469052E-02  0.21203583106E-01  0.26391013207E-01  0.00000000000E+00 0.  1.
     999901    1    3    3    0    0 -0.60778997045E-01 -0.34172893051E-01  0.95018572027E-01  0.88785719692E+00  0.88000000000E+00 0. -1.
        -11    1    4    4    0    0  0.40133869120E-02  0.83428625087E-02 -0.10177114002E-01  0.13767548792E-01  0.51100000000E-03 0.  1.
         11    1    4    4    0    0  0.43334597009E-01  0.17675183637E-01 -0.10604504113E+00  0.11591424108E+00  0.51100000000E-03 0. -1.
</event>
<event>
 8    1  0.1207611E+005  0.1043930E+01  0.7957747E-01            NaN
         13   -1    0    0    0    0  0.00000000000E+00  0.00000000000E+00  0.74505805969E-08  0.10566000000E+00  0.10566000000E+00 0.  1.
     999900   -1    0    0    0    0 -0.00000000000E+00 -0.00000000000E+00 -0.74505805969E-08  0.93827000000E+00  0.93827000000E+00 0.  1.
     999902    2    1    2    0    0  0.21552900451E-01  0.77208052165E-02  0.53141480977E-02  0.10204272657E+01  0.10201565694E+01 0.  0.
     999903    2    3    3    0    0 -0.43406383528E-01  0.78953068458E-01  0.92799474850E-01  0.13085016036E+00  0.19807089204E-01 0.  0.
         14    1    1    2    0    0 -0.21552900451E-01 -0.77208052165E-02 -0.53141480977E-02  0.23502734331E-01  0.00000000000E+00 0. -1.
     999901    1    3    3    0    0  0.64959283978E-01 -0.71232263241E-01 -0.87485326752E-01  0.88957710531E+00  0.88000000000E+00 0. -1.
        -11    1    4    4    0    0 -0.15157600261E-01  0.35846151220E-01  0.52868557639E-01  0.65650932292E-01  0.51100000000E-03 0. -1.
         11    1    4    4    0    0 -0.28248783266E-01  0.43106917237E-01  0.39930917212E-01  0.65199228064E-01  0.51100000000E-03 0.  1.
</event>
<event>
 8    1  0.1207611E+005  0.1043930E+01  0.7957747E-01            NaN
         13   -1    0    0    0    0  0.00000000000E+00  0.00000000000E+00  0.74505805969E-08  0.10566000000E+00  0.10566000000E+00 0.  1.
     999900   -1    0    0    0    0 -0.00000000000E+00 -0.00000000000E+00 -0.74505805969E-08  0.93827000000E+00  0.93827000000E+00 0. -1.
     999902    2    1    2    0    0  0.22325548321E-01 -0.63365930113E-02  0.90881772675E-02  0.10190065676E+01  0.10187017263E+01 0.  0.
     999903    2    3    3    0    0  0.32104776197E-01 -0.55574202724E-01 -0.11072256990E+00  0.12947040154E+00  0.19593078537E-01 0.  0.
         14    1    1    2    0    0 -0.22325548321E-01  0.63365930113E-02 -0.90881772675E-02  0.24923432445E-01  0.00000000000E+00 0. -1.
     999901    1    3    3    0    0 -0.97792278761E-02  0.49237609713E-01  0.11981074717E+00  0.88953616601E+00  0.88000000000E+00 0.  1.
        -11    1    4    4    0    0  0.18672951902E-02 -0.12994681138E-01 -0.12042959532E-01  0.17822528566E-01  0.51100000000E-03 0.  1.
         11    1    4    4    0    0  0.30237481007E-01 -0.42579521587E-01 -0.98679610370E-01  0.11164787298E+00  0.51100000000E-03 0. -1.
</event>
<event>
 8    1  0.1207611E+005  0.1043930E+01  0.7957747E-01            NaN
         13   -1    0    0    0    0  0.00000000000E+00  0.00000000000E+00  0.74505805969E-08  0.10566000000E+00  0.10566000000E+00 0.  1.
     999900   -1    0    0    0    0 -0.00000000000E+00 -0.00000000000E+00 -0.74505805969E-08  0.93827000000E+00  0.93827000000E+00 0. -1.
     999902    2    1    2    0    0 -0.21047840864E-01 -0.68743547041E-02  0.94345639593E-02  0.10198617771E+01  0.10195777386E+01 0.  0.
     999903    2    3    3    0    0  0.95019644845E-01 -0.36756647098E-01  0.76944669783E-01  0.12917539735E+00  0.19647316879E-01 0.  0.
         14    1    1    2    0    0  0.21047840864E-01  0.68743547041E-02 -0.94345639593E-02  0.24068222925E-01  0.00000000000E+00 0.  1.
     999901    1    3    3    0    0 -0.11606748571E+00  0.29882292394E-01 -0.67510105824E-01  0.89068637972E+00  0.88000000000E+00 0. -1.
        -11    1    4    4    0    0  0.60115133174E-01 -0.14399866254E-01  0.39860104645E-01  0.73554567826E-01  0.51100000000E-03 0.  1.
         11    1    4    4    0    0  0.34904511670E-01 -0.22356780844E-01  0.37084565138E-01  0.55620829526E-01  0.51100000000E-03 0. -1.
</event>
<event>
 8    1  0.1207611E+005  0.1043930E+01  0.7957747E-01            NaN
         13   -1    0    0    0    0  0.00000000000E+00  0.00000000000E+00  0.74505805969E-08  0.10566000000E+00  0.10566000000E+00 0. -1.
     999900   -1    0    0    0    0 -0.00000000000E+00 -0.00000000000E+00 -0.74505805969E-08  0.93827000000E+00  0.93827000000E+00 0.  1.
     999902    2    1    2    0    0  0.10933397118E-01  0.17689191896E-01 -0.13268821827E-01  0.10192620387E+01  0.10189634906E+01 0.  0.
     999903    2    3    3    0    0 -0.53850313502E-01 -0.91970476975E-01  0.65758167407E-01  0.12658772117E+00  0.18490258798E-01 0.  0.
         14    1    1    2    0    0 -0.10933397118E-01 -0.17689191896E-01  0.13268821827E-01  0.24667961309E-01  0.00000000000E+00 0. -1.
     999901    1    3    3    0    0  0.64783710620E-01  0.10965966887E+00 -0.79026989234E-01  0.89267431752E+00  0.88000000000E+00 0.  1.
        -11    1    4    4    0    0 -0.85998685733E-02 -0.23216107043E-01  0.79593151042E-02  0.26010712863E-01  0.51100000000E-03 0.  1.
         11    1    4    4    0    0 -0.45250444929E-01 -0.68754369931E-01  0.57798852303E-01  0.10057700830E+00  0.51100000000E-03 0. -1.
</event>
<event>
 8    1  0.1207611E+005  0.1043930E+01  0.7957747E-01            NaN
         13   -1    0    0    0    0  0.00000000000E+00  0.00000000000E+00  0.74505805969E-08  0.10566000000E+00  0.10566000000E+00 0.  1.
     999900   -1    0    0    0    0 -0.00000000000E+00 -0.00000000000E+00 -0.74505805969E-08  0.93827000000E+00  0.93827000000E+00 0.  1.
     999902    2    1    2    0    0 -0.11973184543E-01  0.11468792669E-01  0.26638816874E-01  0.10125529874E+01  0.10120667149E+01 0.  0.
     999903    2    3    3    0    0 -0.71012202506E-01  0.77163157104E-02 -0.96808902260E-01  0.12196945621E+00  0.20057673291E-01 0.  0.
         14    1    1    2    0    0  0.11973184543E-01 -0.11468792669E-01 -0.26638816874E-01  0.31377012570E-01  0.00000000000E+00 0. -1.
     999901    1    3    3    0    0  0.59039017964E-01  0.37524769589E-02  0.12344771913E+00  0.89058353122E+00  0.88000000000E+00 0.  1.
        -11    1    4    4    0    0 -0.52558760527E-01  0.10518709652E-01 -0.82757938694E-01  0.98601237815E-01  0.51100000000E-03 0.  1.
         11    1    4    4    0    0 -0.18453441979E-01 -0.28023939411E-02 -0.14050963566E-01  0.23368218392E-01  0.51100000000E-03 0. -1.
</event>
<event>
 8    1  0.1207611E+005  0.1043930E+01  0.7957747E-01            NaN
         13   -1    0    0    0    0  0.00000000000E+00  0.00000000000E+00  0.74505805969E-08  0.10566000000E+00  0.10566000000E+00 0.  1.
     999900   -1    0    0    0    0 -0.00000000000E+00 -0.00000000000E+00 -0.74505805969E-08  0.93827000000E+00  0.93827000000E+00 0. -1.
     999902    2    1    2    0    0  0.11335218884E-01 -0.33998184253E-02  0.19200747428E-01  0.10213752964E+01  0.10211262319E+01 0.  0.
     999903    2    3    3    0    0 -0.15135428402E-02  0.12481367572E+00 -0.32241824708E-01  0.13050486307E+00  0.20279042548E-01 0.  0.
         14    1    1    2    0    0 -0.11335218884E-01  0.33998184253E-02 -0.19200747428E-01  0.22554703595E-01  0.00000000000E+00 0. -1.
     999901    1    3    3    0    0  0.12848761724E-01 -0.12821349414E+00  0.51442572136E-01  0.89087043333E+00  0.88000000000E+00 0.  1.
        -11    1    4    4    0    0  0.78475772805E-02  0.91131409462E-01 -0.22124122660E-01  0.94107683981E-01  0.51100000000E-03 0.  1.
         11    1    4    4    0    0 -0.93611201207E-02  0.33682266256E-01 -0.10117702048E-01  0.36397179091E-01  0.51100000000E-03 0. -1.
</event>
<event>
 8    1  0.1207611E+005  0.1043930E+01  0.7957747E-01            NaN
         13   -1    0    0    0    0  0.00000000000E+00  0.00000000000E+00  0.74505805969E-08  0.10566000000E+00  0.10566000000E+00 0. -1.
     999900   -1    0    0    0    0 -0.00000000000E+00 -0.00000000000E+00 -0.74505805969E-08  0.93827000000E+00  0.93827000000E+00 0.  1.
     999902    2    1    2    0    0 -0.20315653175E-01 -0.19695081404E-02 -0.12959103399E-01  0.10197526741E+01  0.10194660236E+01 0.  0.
     999903    2    3    3    0    0  0.72652119430E-01 -0.10405224571E+00 -0.84054501495E-02  0.12897513296E+00  0.21418053970E-01 0.  0.
         14    1    1    2    0    0  0.20315653175E-01  0.19695081404E-02  0.12959103399E-01  0.24177325890E-01  0.00000000000E+00 0. -1.
     999901    1    3    3    0    0 -0.92967772605E-01  0.10208273757E+00 -0.45536532500E-02  0.89077754115E+00  0.88000000000E+00 0. -1.
        -11    1    4    4    0    0  0.49452869090E-01 -0.53642314465E-01 -0.87147785338E-02  0.73479879207E-01  0.51100000000E-03 0.  1.
         11    1    4    4    0    0  0.23199250339E-01 -0.50409931245E-01  0.30932838436E-03  0.55495253757E-01  0.51100000000E-03 0. -1.
</event>
<event>
 8    1  0.1207611E+005  0.1043930E+01  0.7957747E-01            NaN
         13   -1    0    0    0    0  0.00000000000E+00  0.00000000000E+00  0.74505805969E-08  0.10566000000E+00  0.10566000000E+00 0. -1.
     999900   -1    0    0    0    0 -0.00000000000E+00 -0.00000000000E+00 -0.74505805969E-08  0.93827000000E+00  0.93827000000E+00 0. -1.
     999902    2    1    2    0    0 -0.87719817398E-02 -0.12557825633E-01  0.17302054282E-01  0.10208213927E+01  0.10205598013E+01 0.  0.
     999903    2    3    3    0    0  0.64723488377E-01 -0.48349123104E-01 -0.99367442685E-01  0.12936507150E+00  0.18293862554E-01 0.  0.
         14    1    1    2    0    0  0.87719817398E-02  0.12557825633E-01 -0.17302054282E-01  0.23108607285E-01  0.00000000000E+00 0.  1.
     999901    1    3    3    0    0 -0.73495470117E-01  0.35791297471E-01  0.11666949697E+00  0.89145632121E+00  0.88000000000E+00 0.  1.
        -11    1    4    4    0    0  0.27602118086E-01 -0.10165109099E-01 -0.31585932063E-01  0.43164089138E-01  0.51100000000E-03 0. -1.
         11    1    4    4    0    0  0.37121370291E-01 -0.38184014005E-01 -0.67781510622E-01  0.86200982367E-01  0.51100000000E-03 0.  1.
</event>
<event>
 8    1  0.1207611E+005  0.1043930E+01  0.7957747E-01            NaN
         13   -1    0    0    0    0  0.00000000000E+00  0.00000000000E+00  0.74505805969E-08  0.10566000000E+00  0.10566000000E+00 0. -1.
     999900   -1    0    0    0    0 -0.00000000000E+00 -0.00000000000E+00 -0.74505805969E-08  0.93827000000E+00  0.93827000000E+00 0. -1.
     999902    2    1    2    0    0 -0.10733665222E-01 -0.18294263527E-01  0.54940706277E-02  0.10220193528E+01  0.10217844592E+01 0.  0.
     999903    2    3    3    0    0 -0.11904455952E+00 -0.55030970220E-01  0.21446301882E-01  0.13447481360E+00  0.20579523683E-01 0.  0.
         14    1    1    2    0    0  0.10733665222E-01  0.18294263527E-01 -0.54940706277E-02  0.21910647164E-01  0.00000000000E+00 0.  1.
     999901    1    3    3    0    0  0.10831089429E+00  0.36736706693E-01 -0.15952231254E-01  0.88754453923E+00  0.88000000000E+00 0. -1.
        -11    1    4    4    0    0 -0.94645802084E-02 -0.86580305628E-02  0.69712239437E-02  0.14608177710E-01  0.51100000000E-03 0. -1.
         11    1    4    4    0    0 -0.10957997931E+00 -0.46372939657E-01  0.14475077938E-01  0.11986663589E+00  0.51100000000E-03 0.  1.
</event>
<event>
 7    1  0.1207611E+005  0.1043930E+01  0.7957747E-01            NaN
         13   -1    0    0    0    0  0.00000000000E+00  0.00000000000E+00  0.74505805969E-08  0.10566000000E+00  0.10566000000E+00 0.  1.
     999900   -1    0    0    0    0 -0.00000000000E+00 -0.00000000000E+00 -0.74505805969E-08  0.93827000000E+00  0.93827000000E+00 0.  1.
     999903    2    1    2    0    0 -0.75302268592E-01 -0.49282848472E-01  0.20307477318E-01  0.94287318540E-01  0.19454408081E-01 0.  0.
         14    1    1    2    0    0 -0.55045570308E-01  0.14839411141E-01 -0.16559178855E-01  0.59366904399E-01  0.00000000000E+00 0.  1.
     999901    1    1    2    0    0  0.13034783890E+00  0.34443437331E-01 -0.37482984626E-02  0.89027577706E+00  0.88000000000E+00 0. -1.
        -11    1    3    3    0    0 -0.49854424066E-01 -0.24771850563E-01  0.19347758750E-01  0.58938146128E-01  0.51100000000E-03 0.  1.
         11    1    3    3    0    0 -0.25447844525E-01 -0.24510997909E-01  0.95971856777E-03  0.35349172412E-01  0.51100000000E-03 0. -1.
</event>
<event>
 8    1  0.1207611E+005  0.1043930E+01  0.7957747E-01            NaN
         13   -1    0    0    0    0  0.00000000000E+00  0.00000000000E+00  0.74505805969E-08  0.10566000000E+00  0.10566000000E+00 0. -1.
     999900   -1    0    0    0    0 -0.00000000000E+00 -0.00000000000E+00 -0.74505805969E-08  0.93827000000E+00  0.93827000000E+00 0.  1.
     999902    2    1    2    0    0  0.28961750743E-02 -0.24060997758E-01 -0.25754579869E-03  0.10196939571E+01  0.10194058958E+01 0.  0.
     999903    2    3    3    0    0 -0.53463174511E-01  0.10249129938E+00 -0.49863516744E-01  0.12747615159E+00  0.20025519858E-01 0.  0.
         14    1    1    2    0    0 -0.28961750743E-02  0.24060997758E-01  0.25754579869E-03  0.24236042850E-01  0.00000000000E+00 0.  1.
     999901    1    3    3    0    0  0.56359349586E-01 -0.12655229714E+00  0.49605970945E-01  0.89221780556E+00  0.88000000000E+00 0.  1.
        -11    1    4    4    0    0 -0.19875127705E-01  0.59436559563E-01 -0.28235425146E-01  0.68740276899E-01  0.51100000000E-03 0. -1.
         11    1    4    4    0    0 -0.33588046806E-01  0.43054739819E-01 -0.21628091597E-01  0.58735874696E-01  0.51100000000E-03 0.  1.
</event>
<event>
 8    1  0.1207611E+005  0.1043930E+01  0.7957747E-01            NaN
         13   -1    0    0    0    0  0.00000000000E+00  0.00000000000E+00  0.74505805969E-08  0.10566000000E+00  0.10566000000E+00 0.  1.
     999900   -1    0    0    0    0 -0.00000000000E+00 -0.00000000000E+00 -0.74505805969E-08  0.93827000000E+00  0.93827000000E+00 0. -1.
     999902    2    1    2    0    0  0.92478782848E-02  0.21832439625E-01 -0.42686165791E-02  0.10198385127E+01  0.10195539183E+01 0.  0.
     999903    2    3    3    0    0  0.12605176627E+00  0.32333157327E-01 -0.10029894812E-01  0.13203977107E+00  0.19985532572E-01 0.  0.
         14    1    1    2    0    0 -0.92478782848E-02 -0.21832439625E-01  0.42686165791E-02  0.24091487298E-01  0.00000000000E+00 0. -1.
     999901    1    3    3    0    0 -0.11680388798E+00 -0.10500717702E-01  0.57612782324E-02  0.88779874163E+00  0.88000000000E+00 0.  1.
        -11    1    4    4    0    0  0.19217812389E-01  0.18934559874E-02 -0.80698258765E-02  0.20935441225E-01  0.51100000000E-03 0.  1.
         11    1    4    4    0    0  0.10683395388E+00  0.30439701340E-01 -0.19600689350E-02  0.11110432984E+00  0.51100000000E-03 0. -1.
</event>
<event>
 8    1  0.1207611E+005  0.1043930E+01  0.7957747E-01            NaN
         13   -1    0    0    0    0  0.00000000000E+00  0.00000000000E+00  0.74505805969E-08  0.10566000000E+00  0.10566000000E+00 0. -1.
     999900   -1    0    0    0    0 -0.00000000000E+00 -0.00000000000E+00 -0.74505805969E-08  0.93827000000E+00  0.93827000000E+00 0. -1.
     999902    2    1    2    0    0  0.10063757875E-02 -0.22163140000E-01  0.11679500367E-01  0.10188575391E+01  0.10185489957E+01 0.  0.
     999903    2    3    3    0    0 -0.33757486294E-01 -0.81085050076E-01 -0.93668088103E-01  0.12993772720E+00  0.19893440965E-01 0.  0.
         14    1    1    2    0    0 -0.10063757875E-02  0.22163140000E-01 -0.11679500367E-01  0.25072460902E-01  0.00000000000E+00 0. -1.
     999901    1    3    3    0    0  0.34763862081E-01  0.58921910077E-01  0.10534758847E+00  0.88891981190E+00  0.88000000000E+00 0.  1.
        -11    1    4    4    0    0 -0.25521315768E-01 -0.36234659856E-01 -0.42684691517E-01  0.61534804333E-01  0.51100000000E-03 0.  1.
         11    1    4    4    0    0 -0.82361705259E-02 -0.44850390220E-01 -0.50983396587E-01  0.68402922864E-01  0.51100000000E-03 0. -1.
</event>
<event>
 8    1  0.1300240E+005  0.1043930E+01  0.7957747E-01            NaN
         13   -1    0    0    0    0  0.00000000000E+00  0.00000000000E+00  0.74505805969E-08  0.10566000000E+00  0.10566000000E+00 0. -1.
     999900   -1    0    0    0    0 -0.00000000000E+00 -0.00000000000E+00 -0.74505805969E-08  0.93827000000E+00  0.93827000000E+00 0.  1.
     999902    2    1    2    0    0 -0.13002384756E-01 -0.17628428795E-01  0.18114539217E-01  0.10155053621E+01  0.10151074723E+01 0.  0.
     999903    2    3    3    0    0  0.10482347017E+00 -0.64659336695E-01 -0.12161872840E-01  0.12589224417E+00  0.23068512540E-01 0.  0.
         14    1    1    2    0    0  0.13002384756E-01  0.17628428795E-01 -0.18114539217E-01  0.28424637942E-01  0.00000000000E+00 0.  1.
     999901    1    3    3    0    0 -0.11782585493E+00  0.47030907900E-01  0.30276412057E-01  0.88961311789E+00  0.88000000000E+00 0. -1.
        -11    1    4    4    0    0  0.77639851441E-01 -0.56804023388E-01 -0.33846987146E-02  0.96261939058E-01  0.51100000000E-03 0. -1.
         11    1    4    4    0    0  0.27183618732E-01 -0.78553133062E-02 -0.87771741258E-02  0.29630305114E-01  0.51100000000E-03 0.  1.
</event>
<event>
 8    1  0.1207611E+005  0.1043930E+01  0.7957747E-01            NaN
         13   -1    0    0    0    0  0.00000000000E+00  0.00000000000E+00  0.74505805969E-08  0.10566000000E+00  0.10566000000E+00 0. -1.
     999900   -1    0    0    0    0 -0.00000000000E+00 -0.00000000000E+00 -0.74505805969E-08  0.93827000000E+00  0.93827000000E+00 0.  1.
     999902    2    1    2    0    0 -0.31069743996E-02 -0.84653057573E-02 -0.22699624734E-01  0.10195048561E+01  0.10192122271E+01 0.  0.
     999903    2    3    3    0    0  0.78766154523E-01 -0.86187491806E-01 -0.57607129792E-01  0.13160706843E+00  0.19221035739E-01 0.  0.
         14    1    1    2    0    0  0.31069743996E-02  0.84653057573E-02  0.22699624734E-01  0.24425143900E-01  0.00000000000E+00 0. -1.
     999901    1    3    3    0    0 -0.81873128923E-01  0.77722186049E-01  0.34907505059E-01  0.88789778767E+00  0.88000000000E+00 0. -1.
        -11    1    4    4    0    0  0.30755136324E-01 -0.46908088542E-01 -0.23523183832E-01  0.60826379800E-01  0.51100000000E-03 0.  1.
         11    1    4    4    0    0  0.48011018200E-01 -0.39279403264E-01 -0.34083945960E-01  0.70780688627E-01  0.51100000000E-03 0. -1.
</event>
<event>
 8    1  0.1207611E+005  0.1043930E+01  0.7957747E-01            NaN
         13   -1    0    0    0    0  0.00000000000E+00  0.00000000000E+00  0.74505805969E-08  0.10566000000E+00  0.10566000000E+00 0.  1.
     999900   -1    0    0    0    0 -0.00000000000E+00 -0.00000000000E+00 -0.74505805969E-08  0.93827000000E+00  0.93827000000E+00 0. -1.
     999902    2    1    2    0    0  0.19260144070E-01 -0.12453285895E-01 -0.53021544336E-02  0.10203896024E+01  0.10201180276E+01 0.  0.
     999903    2    3    3    0    0  0.91533959684E-01  0.69476879858E-01 -0.61299517037E-01  0.13186736792E+00  0.20636601537E-01 0.  0.
         14    1    1    2    0    0 -0.19260144070E-01  0.12453285895E-01  0.53021544336E-02  0.23540397635E-01  0.00000000000E+00 0.  1.
     999901    1    3    3    0    0 -0.72273815614E-01 -0.81930165753E-01  0.55997362603E-01  0.88852223444E+00  0.88000000000E+00 0. -1.
        -11    1    4    4    0    0  0.31315207334E-01  0.16351986029E-01 -0.10557070219E-01  0.36874686576E-01  0.51100000000E-03 0.  1.
         11    1    4    4    0    0  0.60218752351E-01  0.53124893829E-01 -0.50742446818E-01  0.94992681344E-01  0.51100000000E-03 0. -1.
</event>
<event>
 8    1  0.1207611E+005  0.1043930E+01  0.7957747E-01            NaN
         13   -1    0    0    0    0  0.00000000000E+00  0.00000000000E+00  0.74505805969E-08  0.10566000000E+00  0.10566000000E+00 0.  1.
     999900   -1    0    0    0    0 -0.00000000000E+00 -0.00000000000E+00 -0.74505805969E-08  0.93827000000E+00  0.93827000000E+00 0.  1.
     999902    2    1    2    0    0 -0.64956679557E-02 -0.33864146819E-02 -0.22758222805E-01  0.10200218798E+01  0.10197416521E+01 0.  0.
     999903    2    3    3    0    0  0.18455587045E-01  0.52886865810E-01  0.11299429737E+00  0.12748729001E+00  0.18645873749E-01 0.  0.
         14    1    1    2    0    0  0.64956679557E-02  0.33864146819E-02  0.22758222805E-01  0.23908120207E-01  0.00000000000E+00 0. -1.
     999901    1    3    3    0    0 -0.24951255001E-01 -0.56273280492E-01 -0.13575252017E+00  0.89253458978E+00  0.88000000000E+00 0.  1.
        -11    1    4    4    0    0  0.16450037339E-01  0.24489261306E-01  0.69478374585E-01  0.75483993692E-01  0.51100000000E-03 0.  1.
         11    1    4    4    0    0  0.20055497065E-02  0.28397604504E-01  0.43515922785E-01  0.52003296319E-01  0.51100000000E-03 0. -1.
</event>
<event>
 8    1  0.1207611E+005  0.1043930E+01  0.7957747E-01            NaN
         13   -1    0    0    0    0  0.00000000000E+00  0.00000000000E+00  0.74505805969E-08  0.10566000000E+00  0.10566000000E+00 0.  1.
     999900   -1    0    0    0    0 -0.00000000000E+00 -0.00000000000E+00 -0.74505805969E-08  0.93827000000E+00  0.93827000000E+00 0. -1.
     999902    2    1    2    0    0  0.14254060454E-01  0.92179717102E-02  0.15872817995E-01  0.10206900432E+01  0.10204254351E+01 0.  0.
     999903    2    3    3    0    0  0.52566462949E-01 -0.11782874607E+00  0.87305899366E-02  0.13071267262E+00  0.19045554765E-01 0.  0.
         14    1    1    2    0    0 -0.14254060454E-01 -0.92179717102E-02 -0.15872817995E-01  0.23239956820E-01  0.00000000000E+00 0. -1.
     999901    1    3    3    0    0 -0.38312402495E-01  0.12704671778E+00  0.71422280582E-02  0.88997737056E+00  0.88000000000E+00 0. -1.
        -11    1    4    4    0    0  0.14776769634E-01 -0.31968670479E-01  0.10923499350E-01  0.36877266332E-01  0.51100000000E-03 0. -1.
         11    1    4    4    0    0  0.37789693315E-01 -0.85860075590E-01 -0.21929094135E-02  0.93835406291E-01  0.51100000000E-03 0.  1.
</event>
<event>
 8    1  0.1207611E+005  0.1043930E+01  0.7957747E-01            NaN
         13   -1    0    0    0    0  0.00000000000E+00  0.00000000000E+00  0.74505805969E-08  0.10566000000E+00  0.10566000000E+00 0. -1.
     999900   -1    0    0    0    0 -0.00000000000E+00 -0.00000000000E+00 -0.74505805969E-08  0.93827000000E+00  0.93827000000E+00 0. -1.
     999902    2    1    2    0    0 -0.61453806694E-02  0.22841503741E-01  0.60283688139E-02  0.10195201408E+01  0.10192278824E+01 0.  0.
     999903    2    3    3    0    0 -0.81807852556E-01 -0.93845861619E-01 -0.22343234387E-01  0.12814721166E+00  0.20564952017E-01 0.  0.
         14    1    1    2    0    0  0.61453806694E-02 -0.22841503741E-01 -0.60283688139E-02  0.24409859223E-01  0.00000000000E+00 0.  1.
     999901    1    3    3    0    0  0.75662471887E-01  0.11668736536E+00  0.28371603201E-01  0.89137292911E+00  0.88000000000E+00 0.  1.
        -11    1    4    4    0    0 -0.37295725291E-01 -0.58231261016E-01 -0.13459903405E-01  0.70450557167E-01  0.51100000000E-03 0. -1.
         11    1    4    4    0    0 -0.44512127265E-01 -0.35614600604E-01 -0.88833309819E-02  0.57696654497E-01  0.51100000000E-03 0.  1.
</event>
<event>
 8    1  0.1207611E+005  0.1043930E+01  0.7957747E-01            NaN
         13   -1    0    0    0    0  0.00000000000E+00  0.00000000000E+00  0.74505805969E-08  0.10566000000E+00  0.10566000000E+00 0.  1.
     999900   -1    0    0    0    0 -0.00000000000E+00 -0.00000000000E+00 -0.74505805969E-08  0.93827000000E+00  0.93827000000E+00 0.  1.
     999902    2    1    2    0    0 -0.93666600451E-02 -0.67563698109E-02  0.21099532926E-01  0.10198764526E+01  0.10195927645E+01 0.  0.
     999903    2    3    3    0    0 -0.11307630929E+00  0.61827177630E-01 -0.83761471876E-02  0.13064745506E+00  0.19741987102E-01 0.  0.
         14    1    1    2    0    0  0.93666600451E-02  0.67563698109E-02 -0.21099532926E-01  0.24053547413E-01  0.00000000000E+00 0. -1.
     999901    1    3    3    0    0  0.10370964925E+00 -0.68583547441E-01  0.29475680114E-01  0.88922899753E+00  0.88000000000E+00 0. -1.
        -11    1    4    4    0    0 -0.32255216175E-01  0.26530864047E-01  0.21774630166E-02  0.41824492630E-01  0.51100000000E-03 0.  1.
         11    1    4    4    0    0 -0.80821093119E-01  0.35296313583E-01 -0.10553610204E-01  0.88822962430E-01  0.51100000000E-03 0. -1.
</event>
<event>
 8    1  0.1207611E+005  0.1043930E+01  0.7957747E-01            NaN
         13   -1    0    0    0    0  0.00000000000E+00  0.00000000000E+00  0.74505805969E-08  0.10566000000E+00  0.10566000000E+00 0. -1.
     999900   -1    0    0    0    0 -0.00000000000E+00 -0.00000000000E+00 -0.74505805969E-08  0.93827000000E+00  0.93827000000E+00 0.  1.
     999902    2    1    2    0    0  0.76779991502E-02 -0.53890317833E-03 -0.23622803580E-01  0.10190849012E+01  0.10187819967E+01 0.  0.
     999903    2    3    3    0    0 -0.10832101619E+00  0.34326117561E-01 -0.59905816698E-01  0.13004733262E+00  0.20294751796E-01 0.  0.
         14    1    1    2    0    0 -0.76779991502E-02  0.53890317833E-03  0.23622803580E-01  0.24845098844E-01  0.00000000000E+00 0. -1.
     999901    1    3    3    0    0  0.11599901534E+00 -0.34865020740E-01  0.36283013118E-01  0.88903756854E+00  0.88000000000E+00 0.  1.
        -11    1    4    4    0    0 -0.77383299323E-01  0.25071261455E-01 -0.52799733775E-01  0.96978431483E-01  0.51100000000E-03 0. -1.
         11    1    4    4    0    0 -0.30937716871E-01  0.92548561067E-02 -0.71060829221E-02  0.33068901135E-01  0.51100000000E-03 0.  1.
</event>
<event>
 8    1  0.1207611E+005  0.1043930E+01  0.7957747E-01            NaN
         13   -1    0    0    0    0  0.00000000000E+00  0.00000000000E+00  0.74505805969E-08  0.10566000000E+00  0.10566000000E+00 0. -1.
     999900   -1    0    0    0    0 -0.00000000000E+00 -0.00000000000E+00 -0.74505805969E-08  0.93827000000E+00  0.93827000000E+00 0. -1.
     999902    2    1    2    0    0 -0.54941820526E-02 -0.22806276487E-01 -0.91242902204E-03  0.10204535264E+01  0.10201834418E+01 0.  0.
     999903    2    3    3    0    0 -0.38201713029E-01  0.10504293061E+00 -0.60898624622E-01  0.12859392651E+00  0.18285713126E-01 0.  0.
         14    1    1    2    0    0  0.54941820526E-02  0.22806276487E-01  0.91242902204E-03  0.23476473550E-01  0.00000000000E+00 0.  1.
     999901    1    3    3    0    0  0.32707530976E-01 -0.12784920710E+00  0.59986195600E-01  0.89185959994E+00  0.88000000000E+00 0.  1.
        -11    1    4    4    0    0 -0.35145284691E-01  0.83405495198E-01 -0.42354179183E-01  0.99929001198E-01  0.51100000000E-03 0.  1.
         11    1    4    4    0    0 -0.30564283376E-02  0.21637435416E-01 -0.18544445440E-01  0.28664925314E-01  0.51100000000E-03 0. -1.
</event>
<event>
 8    1  0.1207611E+005  0.1043930E+01  0.7957747E-01            NaN
         13   -1    0    0    0    0  0.00000000000E+00  0.00000000000E+00  0.74505805969E-08  0.10566000000E+00  0.10566000000E+00 0.  1.
     999900   -1    0    0    0    0 -0.00000000000E+00 -0.00000000000E+00 -0.74505805969E-08  0.93827000000E+00  0.93827000000E+00 0.  1.
     999902    2    1    2    0    0 -0.95870216574E-02 -0.13542620279E-01 -0.13408484846E-01  0.10225969033E+01  0.10223743569E+01 0.  0.
     999903    2    3    3    0    0 -0.59063162077E-01  0.38989749781E-01 -0.11214366858E+00  0.13413971533E+00  0.20213933899E-01 0.  0.
         14    1    1    2    0    0  0.95870216574E-02  0.13542620279E-01  0.13408484846E-01  0.21333096684E-01  0.00000000000E+00 0. -1.
     999901    1    3    3    0    0  0.49476140419E-01 -0.52532370060E-01  0.98735183735E-01  0.88845718799E+00  0.88000000000E+00 0. -1.
        -11    1    4    4    0    0 -0.29179553133E-01  0.21566468286E-01 -0.39258914951E-01  0.53461036274E-01  0.51100000000E-03 0.  1.
         11    1    4    4    0    0 -0.29883608944E-01  0.17423281494E-01 -0.72884753630E-01  0.80678679057E-01  0.51100000000E-03 0. -1.
</event>
<event>
 8    1  0.1207611E+005  0.1043930E+01  0.7957747E-01            NaN
         13   -1    0    0    0    0  0.00000000000E+00  0.00000000000E+00  0.74505805969E-08  0.10566000000E+00  0.10566000000E+00 0.  1.
     999900   -1    0    0    0    0 -0.00000000000E+00 -0.00000000000E+00 -0.74505805969E-08  0.93827000000E+00  0.93827000000E+00 0. -1.
     999902    2    1    2    0    0 -0.63802833872E-02  0.13249658634E-01  0.17278158335E-01  0.10212408787E+01  0.10209888031E+01 0.  0.
     999903    2    3    3    0    0  0.81013413566E-01  0.66812365769E-01  0.79175814450E-01  0.13313168401E+00  0.20692276227E-01 0.  0.
         14    1    1    2    0    0  0.63802833872E-02 -0.13249658634E-01 -0.17278158335E-01  0.22689121302E-01  0.00000000000E+00 0. -1.
     999901    1    3    3    0    0 -0.87393696953E-01 -0.53562707135E-01 -0.61897656115E-01  0.88810919469E+00  0.88000000000E+00 0.  1.
        -11    1    4    4    0    0  0.70407375837E-01  0.53571307162E-01  0.74133327113E-01  0.11542571132E+00  0.51100000000E-03 0.  1.
         11    1    4    4    0    0  0.10606037729E-01  0.13241058607E-01  0.50424873370E-02  0.17705972689E-01  0.51100000000E-03 0. -1.
</event>
<event>
 8    1  0.1207611E+005  0.1043930E+01  0.7957747E-01            NaN
         13   -1    0    0    0    0  0.00000000000E+00  0.00000000000E+00  0.74505805969E-08  0.10566000000E+00  0.10566000000E+00 0. -1.
     999900   -1    0    0    0    0 -0.00000000000E+00 -0.00000000000E+00 -0.74505805969E-08  0.93827000000E+00  0.93827000000E+00 0. -1.
     999902    2    1    2    0    0  0.11357453446E-01  0.39069870913E-02  0.19671862416E-01  0.10208813890E+01  0.10206211697E+01 0.  0.
     999903    2    3    3    0    0  0.70077894270E-01  0.12022029278E-01 -0.10677762496E+00  0.12986880946E+00  0.20223897418E-01 0.  0.
         14    1    1    2    0    0 -0.11357453446E-01 -0.39069870913E-02 -0.19671862416E-01  0.23048610974E-01  0.00000000000E+00 0.  1.
     999901    1    3    3    0    0 -0.58720440824E-01 -0.81150421862E-02  0.12644948737E+00  0.89101257956E+00  0.88000000000E+00 0.  1.
        -11    1    4    4    0    0  0.34315610692E-01  0.51438774380E-02 -0.69885430766E-01  0.78027271941E-01  0.51100000000E-03 0. -1.
         11    1    4    4    0    0  0.35762283578E-01  0.68781518395E-02 -0.36892194191E-01  0.51841537523E-01  0.51100000000E-03 0.  1.
</event>
<event>
 7    1  0.1207611E+005  0.1043930E+01  0.7957747E-01            NaN
         13   -1    0    0    0    0  0.00000000000E+00  0.00000000000E+00  0.74505805969E-08  0.10566000000E+00  0.10566000000E+00 0.  1.
     999900   -1    0    0    0    0 -0.00000000000E+00 -0.00000000000E+00 -0.74505805969E-08  0.93827000000E+00  0.93827000000E+00 0. -1.
     999902    2    1    2    0    0  0.97019731657E-02 -0.10473568443E-01  0.18564715551E-01  0.10205105085E+01  0.10202417485E+01 0.  0.
         14    1    1    2    0    0 -0.97019731657E-02  0.10473568443E-01 -0.18564715551E-01  0.23419491513E-01  0.00000000000E+00 0. -1.
     999901    1    3    3    0    0 -0.53458666040E-01 -0.11529195241E+00  0.11546979434E-01  0.88920379891E+00  0.88000000000E+00 0.  1.
        -11    1    3    3    0    0  0.50178251334E-01  0.88755881302E-01  0.23787867001E-01  0.10469759840E+00  0.51100000000E-03 0.  1.
         11    1    3    3    0    0  0.12982387872E-01  0.16062502668E-01 -0.16770130884E-01  0.26609111178E-01  0.51100000000E-03 0. -1.
</event>
<event>
 8    1  0.1207611E+005  0.1043930E+01  0.7957747E-01            NaN
         13   -1    0    0    0    0  0.00000000000E+00  0.00000000000E+00  0.74505805969E-08  0.10566000000E+00  0.10566000000E+00 0. -1.
     999900   -1    0    0    0    0 -0.00000000000E+00 -0.00000000000E+00 -0.74505805969E-08  0.93827000000E+00  0.93827000000E+00 0.  1.
     999902    2    1    2    0    0 -0.21728693638E-01 -0.18757678641E-02  0.65392658627E-02  0.10211612356E+01  0.10209073673E+01 0.  0.
     999903    2    3    3    0    0 -0.55007483830E-02 -0.30889832765E-01  0.12703228907E+00  0.13232844439E+00  0.19727511922E-01 0.  0.
         14    1    1    2    0    0  0.21728693638E-01  0.18757678641E-02 -0.65392658627E-02  0.22768764356E-01  0.00000000000E+00 0. -1.
     999901    1    3    3    0    0 -0.16227945255E-01  0.29014064901E-01 -0.12049302321E+00  0.88883279126E+00  0.88000000000E+00 0.  1.
        -11    1    4    4    0    0 -0.12945089482E-01 -0.20351727446E-01  0.80422736471E-01  0.83963359951E-01  0.51100000000E-03 0.  1.
         11    1    4    4    0    0  0.74443410987E-02 -0.10538105320E-01  0.46609552599E-01  0.48365084437E-01  0.51100000000E-03 0. -1.
</event>
<event>
 8    1  0.1207611E+005  0.1043930E+01  0.7957747E-01            NaN
         13   -1    0    0    0    0  0.00000000000E+00  0.00000000000E+00  0.74505805969E-08  0.10566000000E+00  0.10566000000E+00 0.  1.
     999900   -1    0    0    0    0 -0.00000000000E+00 -0.00000000000E+00 -0.74505805969E-08  0.93827000000E+00  0.93827000000E+00 0.  1.
     999902    2    1    2    0    0 -0.19971995477E-01 -0.65415929524E-03 -0.12028635704E-01  0.10206062652E+01  0.10203397238E+01 0.  0.
     999903    2    3    3    0    0  0.77975295437E-02 -0.36454364025E-01  0.12221979267E+00  0.12927274643E+00  0.19597018263E-01 0.  0.
         14    1    1    2    0    0  0.19971995477E-01  0.65415929524E-03  0.12028635704E-01  0.23323734791E-01  0.00000000000E+00 0.  1.
     999901    1    3    3    0    0 -0.27769525020E-01  0.35800204729E-01 -0.13424842838E+00  0.89133351878E+00  0.88000000000E+00 0.  1.
        -11    1    4    4    0    0  0.26706603098E-02 -0.67788433072E-02  0.67705362162E-02  0.99592381600E-02  0.51100000000E-03 0.  1.
         11    1    4    4    0    0  0.51268692339E-02 -0.29675520718E-01  0.11544925646E+00  0.11931350827E+00  0.51100000000E-03 0. -1.
</event>
<event>
 8    1  0.1207611E+005  0.1043930E+01  0.7957747E-01            NaN
         13   -1    0    0    0    0  0.00000000000E+00  0.00000000000E+00  0.74505805969E-08  0.10566000000E+00  0.10566000000E+00 0.  1.
     999900   -1    0    0    0    0 -0.00000000000E+00 -0.00000000000E+00 -0.74505805969E-08  0.93827000000E+00  0.93827000000E+00 0. -1.
     999902    2    1    2    0    0  0.21942704140E-01  0.78795151656E-02  0.23141077461E-02  0.10205008703E+01  0.10202318865E+01 0.  0.
     999903    2    3    3    0    0  0.63929496581E-01  0.10612680884E+00 -0.41035043003E-01  0.13297928164E+00  0.25489890214E-01 0.  0.
         14    1    1    2    0    0 -0.21942704140E-01 -0.78795151656E-02 -0.23141077461E-02  0.23429129708E-01  0.00000000000E+00 0. -1.
     999901    1    3    3    0    0 -0.41986792441E-01 -0.98247293675E-01  0.43349150749E-01  0.88752158865E+00  0.88000000000E+00 0.  1.
        -11    1    4    4    0    0  0.70671753771E-02  0.33223301371E-01 -0.92047711644E-02  0.35195477763E-01  0.51100000000E-03 0.  1.
         11    1    4    4    0    0  0.56862321204E-01  0.72903507470E-01 -0.31830271839E-01  0.97783803876E-01  0.51100000000E-03 0. -1.
</event>
<event>
 8    1  0.1207611E+005  0.1043930E+01  0.7957747E-01            NaN
         13   -1    0    0    0    0  0.00000000000E+00  0.00000000000E+00  0.74505805969E-08  0.10566000000E+00  0.10566000000E+00 0.  1.
     999900   -1    0    0    0    0 -0.00000000000E+00 -0.00000000000E+00 -0.74505805969E-08  0.93827000000E+00  0.93827000000E+00 0. -1.
     999902    2    1    2    0    0 -0.14219675110E-01  0.11812874799E-01 -0.15195134408E-01  0.10200002010E+01  0.10197194588E+01 0.  0.
     999903    2    3    3    0    0 -0.17347915142E-01 -0.91044294921E-01 -0.90266116140E-01  0.13082921881E+00  0.19449909338E-01 0.  0.
         14    1    1    2    0    0  0.14219675110E-01 -0.11812874799E-01  0.15195134408E-01  0.23929799016E-01  0.00000000000E+00 0.  1.
     999901    1    3    3    0    0  0.31282400312E-02  0.10285716972E+00  0.75070981732E-01  0.88917098218E+00  0.88000000000E+00 0.  1.
        -11    1    4    4    0    0 -0.17716331500E-01 -0.69559311053E-01 -0.59158483973E-01  0.93018027838E-01  0.51100000000E-03 0.  1.
         11    1    4    4    0    0  0.36841635791E-03 -0.21484983867E-01 -0.31107632167E-01  0.37811190968E-01  0.51100000000E-03 0. -1.
</event>
<event>
 8    1  0.1207611E+005  0.1043930E+01  0.7957747E-01            NaN
         13   -1    0    0    0    0  0.00000000000E+00  0.00000000000E+00  0.74505805969E-08  0.10566000000E+00  0.10566000000E+00 0.  1.
     999900   -1    0    0    0    0 -0.00000000000E+00 -0.00000000000E+00 -0.74505805969E-08  0.93827000000E+00  0.93827000000E+00 0.  1.
     999902    2    1    2    0    0 -0.18073348654E-01 -0.72293593570E-02 -0.13448727917E-01  0.10202703751E+01  0.10199960100E+01 0.  0.
     999903    2    3    3    0    0  0.57111411595E-01  0.96951931168E-01 -0.59552893504E-01  0.12974688660E+00  0.25026329459E-01 0.  0.
         14    1    1    2    0    0  0.18073348654E-01  0.72293593570E-02  0.13448727917E-01  0.23659624909E-01  0.00000000000E+00 0.  1.
     999901    1    3    3    0    0 -0.75184760249E-01 -0.10418129052E+00  0.46104165587E-01  0.89052348849E+00  0.88000000000E+00 0. -1.
        -11    1    4    4    0    0  0.32242667042E-01  0.76269179466E-01 -0.40172166971E-01  0.92036087675E-01  0.51100000000E-03 0.  1.
         11    1    4    4    0    0  0.24868744553E-01  0.20682751701E-01 -0.19380726533E-01  0.37710798925E-01  0.51100000000E-03 0. -1.
</event>
<event>
 7    1  0.1207611E+005  0.1043930E+01  0.7957747E-01            NaN
         13   -1    0    0    0    0  0.00000000000E+00  0.00000000000E+00  0.74505805969E-08  0.10566000000E+00  0.10566000000E+00 0. -1.
     999900   -1    0    0    0    0 -0.00000000000E+00 -0.00000000000E+00 -0.74505805969E-08  0.93827000000E+00  0.93827000000E+00 0.  1.
     999903    2    1    2    0    0 -0.77646959683E-01 -0.10963803110E-01 -0.79024183111E-01  0.11308392730E+00  0.19846857942E-01 0.  0.
         14    1    1    2    0    0 -0.29273321207E-01  0.52425534180E-02 -0.24233699666E-01  0.38362532507E-01  0.00000000000E+00 0.  1.
     999901    1    1    2    0    0  0.10692028089E+00  0.57212496919E-02  0.10325788278E+00  0.89248354020E+00  0.88000000000E+00 0. -1.
        -11    1    3    3    0    0 -0.61482283882E-01 -0.82356167698E-02 -0.49710967592E-01  0.79494264163E-01  0.51100000000E-03 0. -1.
         11    1    3    3    0    0 -0.16164675801E-01 -0.27281863400E-02 -0.29313215519E-01  0.33589663135E-01  0.51100000000E-03 0.  1.
</event>
<event>
 8    1  0.1207611E+005  0.1043930E+01  0.7957747E-01            NaN
         13   -1    0    0    0    0  0.00000000000E+00  0.00000000000E+00  0.74505805969E-08  0.10566000000E+00  0.10566000000E+00 0.  1.
     999900   -1    0    0    0    0 -0.00000000000E+00 -0.00000000000E+00 -0.74505805969E-08  0.93827000000E+00  0.93827000000E+00 0. -1.
     999902    2    1    2    0    0  0.57940913294E-02 -0.29767641003E-02 -0.23256597156E-01  0.10197783555E+01  0.10194923210E+01 0.  0.
     999903    2    3    3    0    0 -0.11943016720E+00  0.43777869825E-01  0.35088002533E-02  0.12928214712E+00  0.22836268503E-01 0.  0.
         14    1    1    2    0    0 -0.57940913294E-02  0.29767641003E-02  0.23256597156E-01  0.24151644460E-01  0.00000000000E+00 0.  1.
     999901    1    3    3    0    0  0.12522425853E+00 -0.46754633926E-01 -0.26765397409E-01  0.89049620842E+00  0.88000000000E+00 0.  1.
        -11    1    4    4    0    0 -0.67697851958E-01  0.22138889204E-01  0.13006627931E-01  0.72405545824E-01  0.51100000000E-03 0. -1.
         11    1    4    4    0    0 -0.51732315246E-01  0.21638980621E-01 -0.94978276780E-02  0.56876601293E-01  0.51100000000E-03 0.  1.
</event>
<event>
 8    1  0.1207611E+005  0.1043930E+01  0.7957747E-01            NaN
         13   -1    0    0    0    0  0.00000000000E+00  0.00000000000E+00  0.74505805969E-08  0.10566000000E+00  0.10566000000E+00 0. -1.
     999900   -1    0    0    0    0 -0.00000000000E+00 -0.00000000000E+00 -0.74505805969E-08  0.93827000000E+00  0.93827000000E+00 0. -1.
     999902    2    1    2    0    0  0.50011514914E-02 -0.10699494962E-03 -0.19543156768E-01  0.10237568014E+01  0.10235580250E+01 0.  0.
     999903    2    3    3    0    0 -0.54327102976E-01  0.11902004341E+00  0.13851556765E-01  0.13312427342E+00  0.20322443232E-01 0.  0.
         14    1    1    2    0    0 -0.50011514914E-02  0.10699494962E-03  0.19543156768E-01  0.20173198572E-01  0.00000000000E+00 0. -1.
     999901    1    3    3    0    0  0.59328254468E-01 -0.11912703836E+00 -0.33394713533E-01  0.89063252800E+00  0.88000000000E+00 0. -1.
        -11    1    4    4    0    0 -0.50245470713E-01  0.95046133285E-01  0.16043065328E-01  0.10870149882E+00  0.51100000000E-03 0. -1.
         11    1    4    4    0    0 -0.40816322636E-02  0.23973910124E-01 -0.21915085630E-02  0.24422774604E-01  0.51100000000E-03 0.  1.
</event>
<event>
 8    1  0.1207611E+005  0.1043930E+01  0.7957747E-01            NaN
         13   -1    0    0    0    0  0.00000000000E+00  0.00000000000E+00  0.74505805969E-08  0.10566000000E+00  0.10566000000E+00 0.  1.
     999900   -1    0    0    0    0 -0.00000000000E+00 -0.00000000000E+00 -0.74505805969E-08  0.93827000000E+00  0.93827000000E+00 0.  1.
     999902    2    1    2    0    0 -0.32040511939E-02 -0.21098798654E-01  0.10759319004E-01  0.10200304562E+01  0.10197504319E+01 0.  0.
     999903    2    3    3    0    0  0.35631679842E-01 -0.98606697020E-01 -0.76874852104E-01  0.13143862849E+00  0.19325446127E-01 0.  0.
         14    1    1    2    0    0  0.32040511939E-02  0.21098798654E-01 -0.10759319004E-01  0.23899543806E-01  0.00000000000E+00 0.  1.
     999901    1    3    3    0    0 -0.38835731036E-01  0.77507898366E-01  0.87634171108E-01  0.88859182770E+00  0.88000000000E+00 0. -1.
        -11    1    4    4    0    0  0.15905829620E-01 -0.47357628471E-01 -0.24879031150E-01  0.55811895706E-01  0.51100000000E-03 0. -1.
         11    1    4    4    0    0  0.19725850222E-01 -0.51249068549E-01 -0.51995820953E-01  0.75626732785E-01  0.51100000000E-03 0.  1.
</event>
<event>
 8    1  0.1207611E+005  0.1043930E+01  0.7957747E-01            NaN
         13   -1    0    0    0    0  0.00000000000E+00  0.00000000000E+00  0.74505805969E-08  0.10566000000E+00  0.10566000000E+00 0.  1.
     999900   -1    0    0    0    0 -0.00000000000E+00 -0.00000000000E+00 -0.74505805969E-08  0.93827000000E+00  0.93827000000E+00 0.  1.
     999902    2    1    2    0    0 -0.19384523626E-01  0.97308304180E-02  0.82354464008E-02  0.10207293234E+01  0.10204656193E+01 0.  0.
     999903    2    3    3    0    0  0.12447607371E+00  0.22282922224E-01  0.15394057439E-01  0.12893076309E+00  0.19883237111E-01 0.  0.
         14    1    1    2    0    0  0.19384523626E-01 -0.97308304180E-02 -0.82354464008E-02  0.23200676591E-01  0.00000000000E+00 0.  1.
     999901    1    3    3    0    0 -0.14386059733E+00 -0.12552091806E-01 -0.71586110382E-02  0.89179856032E+00  0.88000000000E+00 0.  1.
        -11    1    4    4    0    0  0.67526329512E-01  0.17914083460E-01  0.16558741207E-01  0.71799530604E-01  0.51100000000E-03 0. -1.
         11    1    4    4    0    0  0.56949744197E-01  0.43688387642E-02 -0.11646837684E-02  0.57131232487E-01  0.51100000000E-03 0.  1.
</event>
<event>
 8    1  0.1207611E+005  0.1043930E+01  0.7957747E-01            NaN
         13   -1    0    0    0    0  0.00000000000E+00  0.00000000000E+00  0.74505805969E-08  0.10566000000E+00  0.10566000000E+00 0. -1.
     999900   -1    0    0    0    0 -0.00000000000E+00 -0.00000000000E+00 -0.74505805969E-08  0.93827000000E+00  0.93827000000E+00 0. -1.
     999902    2    1    2    0    0  0.16168198986E-01 -0.12571622535E-01  0.92626641571E-02  0.10214521598E+01  0.10212048088E+01 0.  0.
     999903    2    3    3    0    0 -0.41458563396E-01  0.70126457081E-01 -0.98311925521E-01  0.12918980577E+00  0.19703775127E-01 0.  0.
         14    1    1    2    0    0 -0.16168198986E-01  0.12571622535E-01 -0.92626641571E-02  0.22477840175E-01  0.00000000000E+00 0. -1.
     999901    1    3    3    0    0  0.57626762383E-01 -0.82698079616E-01  0.10757458968E+00  0.89226235405E+00  0.88000000000E+00 0.  1.
        -11    1    4    4    0    0 -0.42485073020E-01  0.61119184257E-01 -0.90754618452E-01  0.11737630939E+00  0.51100000000E-03 0.  1.
         11    1    4    4    0    0  0.10265096238E-02  0.90072728239E-02 -0.75573070696E-02  0.11813496387E-01  0.51100000000E-03 0. -1.
</event>
<event>
 8    1  0.1207611E+005  0.1043930E+01  0.7957747E-01            NaN
         13   -1    0    0    0    0  0.00000000000E+00  0.00000000000E+00  0.74505805969E-08  0.10566000000E+00  0.10566000000E+00 0. -1.
     999900   -1    0    0    0    0 -0.00000000000E+00 -0.00000000000E+00 -0.74505805969E-08  0.93827000000E+00  0.93827000000E+00 0.  1.
     999902    2    1    2    0    0 -0.16435812187E-01 -0.15493198444E-01  0.57790846195E-02  0.10206153493E+01  0.10203490178E+01 0.  0.
     999903    2    3    3    0    0 -0.90293316635E-01  0.46892881497E-01 -0.80070691248E-01  0.13116769034E+00  0.21019562991E-01 0.  0.
         14    1    1    2    0    0  0.16435812187E-01  0.15493198444E-01 -0.57790846195E-02  0.23314650744E-01  0.00000000000E+00 0. -1.
     999901    1    3    3    0    0  0.73857504447E-01 -0.62386079941E-01  0.85849775867E-01  0.88944765892E+00  0.88000000000E+00 0. -1.
        -11    1    4    4    0    0 -0.18593032997E-01  0.74453964406E-03 -0.13720371486E-01  0.23124984973E-01  0.51100000000E-03 0.  1.
         11    1    4    4    0    0 -0.71700283637E-01  0.46148341853E-01 -0.66350319762E-01  0.10804270537E+00  0.51100000000E-03 0. -1.
</event>
<event>
 8    1  0.1207611E+005  0.1043930E+01  0.7957747E-01            NaN
         13   -1    0    0    0    0  0.00000000000E+00  0.00000000000E+00  0.74505805969E-08  0.10566000000E+00  0.10566000000E+00 0. -1.
     999900   -1    0    0    0    0 -0.00000000000E+00 -0.00000000000E+00 -0.74505805969E-08  0.93827000000E+00  0.93827000000E+00 0.  1.
     999902    2    1    2    0    0 -0.19766128871E-01 -0.12800808781E-01 -0.11791530542E-02  0.10203513877E+01  0.10200789202E+01 0.  0.
     999903    2    3    3    0    0  0.22600217215E-01 -0.11102328583E+00 -0.63837721439E-01  0.13166209528E+00  0.20559981507E-01 0.  0.
         14    1    1    2    0    0  0.19766128871E-01  0.12800808781E-01  0.11791530542E-02  0.23578612298E-01  0.00000000000E+00 0. -1.
     999901    1    3    3    0    0 -0.42366346086E-01  0.98222477049E-01  0.62658568385E-01  0.88868929242E+00  0.88000000000E+00 0. -1.
        -11    1    4    4    0    0  0.20449823859E-01 -0.88981206345E-01 -0.59804621321E-01  0.10914533536E+00  0.51100000000E-03 0. -1.
         11    1    4    4    0    0  0.21503933565E-02 -0.22042079485E-01 -0.40331001177E-02  0.22516759917E-01  0.51100000000E-03 0.  1.
</event>
<event>
 8    1  0.1207611E+005  0.1043930E+01  0.7957747E-01            NaN
         13   -1    0    0    0    0  0.00000000000E+00  0.00000000000E+00  0.74505805969E-08  0.10566000000E+00  0.10566000000E+00 0.  1.
     999900   -1    0    0    0    0 -0.00000000000E+00 -0.00000000000E+00 -0.74505805969E-08  0.93827000000E+00  0.93827000000E+00 0.  1.
     999902    2    1    2    0    0  0.17241044460E-01 -0.51491759052E-02 -0.15697063409E-01  0.10200518630E+01  0.10197723461E+01 0.  0.
     999903    2    3    3    0    0 -0.32816122391E-01 -0.99888769722E-01 -0.76445156033E-01  0.13147342452E+00  0.19665585889E-01 0.  0.
         14    1    1    2    0    0 -0.17241044460E-01  0.51491759052E-02  0.15697063409E-01  0.23878136992E-01  0.00000000000E+00 0.  1.
     999901    1    3    3    0    0  0.50057166851E-01  0.94739593817E-01  0.60748092625E-01  0.88857843849E+00  0.88000000000E+00 0. -1.
        -11    1    4    4    0    0 -0.40260980955E-02 -0.24230125097E-01 -0.91980008812E-02  0.26233047275E-01  0.51100000000E-03 0. -1.
         11    1    4    4    0    0 -0.28790024296E-01 -0.75658644624E-01 -0.67247155152E-01  0.10524037724E+00  0.51100000000E-03 0.  1.
</event>
<event>
 8    1  0.1207611E+005  0.1043930E+01  0.7957747E-01            NaN
         13   -1    0    0    0    0  0.00000000000E+00  0.00000000000E+00  0.74505805969E-08  0.10566000000E+00  0.10566000000E+00 0. -1.
     999900   -1    0    0    0    0 -0.00000000000E+00 -0.00000000000E+00 -0.74505805969E-08  0.93827000000E+00  0.93827000000E+00 0.  1.
     999902    2    1    2    0    0 -0.20904583410E-01 -0.47750620532E-02  0.99147727087E-02  0.10203057425E+01  0.10200322067E+01 0.  0.
     999903    2    3    3    0    0 -0.84914062718E-01 -0.99415524730E-01 -0.79030505505E-02  0.13274081222E+00  0.21536490331E-01 0.  0.
         14    1    1    2    0    0  0.20904583410E-01  0.47750620532E-02 -0.99147727087E-02  0.23624257513E-01  0.00000000000E+00 0. -1.
     999901    1    3    3    0    0  0.64009479308E-01  0.94640462677E-01  0.17817823259E-01  0.88756493027E+00  0.88000000000E+00 0.  1.
        -11    1    4    4    0    0 -0.32848264667E-01 -0.54398048633E-01 -0.90299323834E-03  0.63554958142E-01  0.51100000000E-03 0. -1.
         11    1    4    4    0    0 -0.52065798052E-01 -0.45017476098E-01 -0.70000573122E-02  0.69185854077E-01  0.51100000000E-03 0.  1.
</event>
<event>
 8    1  0.1207611E+005  0.1043930E+01  0.7957747E-01            NaN
         13   -1    0    0    0    0  0.00000000000E+00  0.00000000000E+00  0.74505805969E-08  0.10566000000E+00  0.10566000000E+00 0.  1.
     999900   -1    0    0    0    0 -0.00000000000E+00 -0.00000000000E+00 -0.74505805969E-08  0.93827000000E+00  0.93827000000E+00 0. -1.
     999902    2    1    2    0    0  0.21674926470E-01  0.68926967925E-02 -0.16958737092E-02  0.10211223764E+01  0.10208676309E+01 0.  0.
     999903    2    3    3    0    0 -0.79795793755E-01 -0.70960277024E-01 -0.70013036758E-01  0.12925656398E+00  0.20067496117E-01 0.  0.
         14    1    1    2    0    0 -0.21674926470E-01 -0.68926967925E-02  0.16958737092E-02  0.22807623598E-01  0.00000000000E+00 0. -1.
     999901    1    3    3    0    0  0.10147072022E+00  0.77852973816E-01  0.68317163049E-01  0.89186581242E+00  0.88000000000E+00 0.  1.
        -11    1    4    4    0    0 -0.46790518788E-01 -0.30945605061E-01 -0.29147621021E-01  0.63220471789E-01  0.51100000000E-03 0.  1.
         11    1    4    4    0    0 -0.33005274967E-01 -0.40014671962E-01 -0.40865415737E-01  0.66036092194E-01  0.51100000000E-03 0. -1.
</event>
<event>
 8    1  0.1207611E+005  0.1043930E+01  0.7957747E-01            NaN
         13   -1    0    0    0    0  0.00000000000E+00  0.00000000000E+00  0.74505805969E-08  0.10566000000E+00  0.10566000000E+00 0. -1.
     999900   -1    0    0    0    0 -0.00000000000E+00 -0.00000000000E+00 -0.74505805969E-08  0.93827000000E+00  0.93827000000E+00 0.  1.
     999902    2    1    2    0    0  0.23288959620E-01 -0.60506563183E-02 -0.50671680598E-02  0.10193401185E+01  0.10190434803E+01 0.  0.
     999903    2    3    3    0    0  0.58516447539E-01 -0.16965666637E-01  0.11399247882E+00  0.13055706683E+00  0.18407987238E-01 0.  0.
         14    1    1    2    0    0 -0.23288959620E-01  0.60506563183E-02  0.50671680598E-02  0.24589881541E-01  0.00000000000E+00 0.  1.
     999901    1    3    3    0    0 -0.35227487919E-01  0.10915010319E-01 -0.11905964688E+00  0.88878305163E+00  0.88000000000E+00 0.  1.
        -11    1    4    4    0    0  0.20931431142E-01 -0.12955614704E-01  0.57878471785E-01  0.62897944157E-01  0.51100000000E-03 0. -1.
         11    1    4    4    0    0  0.37585016397E-01 -0.40100519329E-02  0.56114007033E-01  0.67659122669E-01  0.51100000000E-03 0.  1.
</event>
<event>
 8    1  0.1207611E+005  0.1043930E+01  0.7957747E-01            NaN
         13   -1    0    0    0    0  0.00000000000E+00  0.00000000000E+00  0.74505805969E-08  0.10566000000E+00  0.10566000000E+00 0. -1.
     999900   -1    0    0    0    0 -0.00000000000E+00 -0.00000000000E+00 -0.74505805969E-08  0.93827000000E+00  0.93827000000E+00 0.  1.
     999902    2    1    2    0    0  0.12915102959E-01  0.18149726951E-01 -0.76613858753E-02  0.10203734870E+01  0.10201015359E+01 0.  0.
     999903    2    3    3    0    0 -0.85622356079E-01  0.11224970633E-01  0.93738141380E-01  0.12906015978E+00  0.20310043523E-01 0.  0.
         14    1    1    2    0    0 -0.12915102959E-01 -0.18149726951E-01  0.76613858753E-02  0.23556513035E-01  0.00000000000E+00 0. -1.
     999901    1    3    3    0    0  0.98537459037E-01  0.69247563179E-02 -0.10139952725E+00  0.89131332718E+00  0.88000000000E+00 0.  1.
        -11    1    4    4    0    0 -0.33496100753E-01 -0.99764839056E-03  0.48567328812E-01  0.59008733395E-01  0.51100000000E-03 0. -1.
         11    1    4    4    0    0 -0.52126255325E-01  0.12222619024E-01  0.45170812568E-01  0.70051426389E-01  0.51100000000E-03 0.  1.
</event>
<event>
 8    1  0.1207611E+005  0.1043930E+01  0.7957747E-01            NaN
         13   -1    0    0    0    0  0.00000000000E+00  0.00000000000E+00  0.74505805969E-08  0.10566000000E+00  0.10566000000E+00 0.  1.
     999900   -1    0    0    0    0 -0.00000000000E+00 -0.00000000000E+00 -0.74505805969E-08  0.93827000000E+00  0.93827000000E+00 0.  1.
     999902    2    1    2    0    0 -0.17883912645E-01 -0.10041001264E-02 -0.14561593255E-01  0.10208457511E+01  0.10205847172E+01 0.  0.
     999903    2    3    3    0    0 -0.55777021986E-01 -0.48484619757E-01  0.10586199013E+00  0.13056931825E+00  0.19487210642E-01 0.  0.
         14    1    1    2    0    0  0.17883912645E-01  0.10041001264E-02  0.14561593255E-01  0.23084248887E-01  0.00000000000E+00 0.  1.
     999901    1    3    3    0    0  0.37893109341E-01  0.47480519631E-01 -0.12042358339E+00  0.89027643287E+00  0.88000000000E+00 0.  1.
        -11    1    4    4    0    0 -0.51465015564E-01 -0.37051697939E-01  0.94940418584E-01  0.11417276536E+00  0.51100000000E-03 0.  1.
         11    1    4    4    0    0 -0.43120064226E-02 -0.11432921818E-01  0.10921571547E-01  0.16396552892E-01  0.51100000000E-03 0. -1.
</event>
<event>
 8    1  0.1207611E+005  0.1043930E+01  0.7957747E-01            NaN
         13   -1    0    0    0    0  0.00000000000E+00  0.00000000000E+00  0.74505805969E-08  0.10566000000E+00  0.10566000000E+00 0.  1.
     999900   -1    0    0    0    0 -0.00000000000E+00 -0.00000000000E+00 -0.74505805969E-08  0.93827000000E+00  0.93827000000E+00 0.  1.
     999902    2    1    2    0    0 -0.22029278437E-02 -0.12379957303E-01  0.17181652216E-01  0.10226385602E+01  0.10224168912E+01 0.  0.
     999903    2    3    3    0    0  0.12243666539E+00 -0.45917602280E-01  0.15816032163E-01  0.13322208483E+00  0.19970322533E-01 0.  0.
         14    1    1    2    0    0  0.22029278437E-02  0.12379957303E-01 -0.17181652216E-01  0.21291439754E-01  0.00000000000E+00 0. -1.
     999901    1    3    3    0    0 -0.12463959323E+00  0.33537644977E-01  0.13656200538E-02  0.88941647542E+00  0.88000000000E+00 0. -1.
        -11    1    4    4    0    0  0.55225938446E-01 -0.26138527917E-01 -0.12375012764E-02  0.61113987346E-01  0.51100000000E-03 0.  1.
         11    1    4    4    0    0  0.67210726939E-01 -0.19779074363E-01  0.17053533439E-01  0.72108097479E-01  0.51100000000E-03 0. -1.
</event>
<event>
 8    1  0.1207611E+005  0.1043930E+01  0.7957747E-01            NaN
         13   -1    0    0    0    0  0.00000000000E+00  0.00000000000E+00  0.74505805969E-08  0.10566000000E+00  0.10566000000E+00 0.  1.
     999900   -1    0    0    0    0 -0.00000000000E+00 -0.00000000000E+00 -0.74505805969E-08  0.93827000000E+00  0.93827000000E+00 0.  1.
     999902    2    1    2    0    0  0.86479420241E-03  0.21403530794E-01  0.81550552243E-02  0.10210091814E+01  0.10207518722E+01 0.  0.
     999903    2    3    3    0    0  0.68537167695E-01 -0.90553926255E-01 -0.57660321091E-01  0.12890734524E+00  0.19875465098E-01 0.  0.
         14    1    1    2    0    0 -0.86479420241E-03 -0.21403530794E-01 -0.81550552243E-02  0.22920818597E-01  0.00000000000E+00 0. -1.
     999901    1    3    3    0    0 -0.67672373492E-01  0.11195745705E+00  0.65815376316E-01  0.89210183616E+00  0.88000000000E+00 0. -1.
        -11    1    4    4    0    0  0.14030673133E-01 -0.32005212524E-01 -0.22209726464E-01  0.41409256065E-01  0.51100000000E-03 0. -1.
         11    1    4    4    0    0  0.54506494562E-01 -0.58548713731E-01 -0.35450594627E-01  0.87498089176E-01  0.51100000000E-03 0.  1.
</event>
<event>
 8    1  0.1207611E+005  0.1043930E+01  0.7957747E-01            NaN
         13   -1    0    0    0    0  0.00000000000E+00  0.00000000000E+00  0.74505805969E-08  0.10566000000E+00  0.10566000000E+00 0.  1.
     999900   -1    0    0    0    0 -0.00000000000E+00 -0.00000000000E+00 -0.74505805969E-08  0.93827000000E+00  0.93827000000E+00 0.  1.
     999902    2    1    2    0    0  0.75919546771E-03 -0.16503345297E-01  0.15160686417E-01  0.10215071724E+01  0.10212610441E+01 0.  0.
     999903    2    3    3    0    0 -0.12088354985E+00  0.20978346327E-01  0.44391469169E-01  0.13186889011E+00  0.19127937867E-01 0.  0.
         14    1    1    2    0    0 -0.75919546771E-03  0.16503345297E-01 -0.15160686417E-01  0.22422827574E-01  0.00000000000E+00 0. -1.
     999901    1    3    3    0    0  0.12164274531E+00 -0.37481691624E-01 -0.29230782752E-01  0.88963828231E+00  0.88000000000E+00 0. -1.
        -11    1    4    4    0    0 -0.10571194450E+00  0.24579069999E-01  0.39885051805E-01  0.11562968638E+00  0.51100000000E-03 0.  1.
         11    1    4    4    0    0 -0.15171605341E-01 -0.36007236719E-02  0.45064173647E-02  0.16239203738E-01  0.51100000000E-03 0. -1.
</event>
<event>
 8    1  0.1207611E+005  0.1043930E+01  0.7957747E-01            NaN
         13   -1    0    0    0    0  0.00000000000E+00  0.00000000000E+00  0.74505805969E-08  0.10566000000E+00  0.10566000000E+00 0. -1.
     999900   -1    0    0    0    0 -0.00000000000E+00 -0.00000000000E+00 -0.74505805969E-08  0.93827000000E+00  0.93827000000E+00 0.  1.
     999902    2    1    2    0    0  0.14438195552E-01  0.19812273108E-01  0.13758255526E-02  0.10193763739E+01  0.10190806206E+01 0.  0.
     999903    2    3    3    0    0  0.30878796513E-01 -0.12121614897E+00  0.12052026123E-01  0.12793187738E+00  0.23967875817E-01 0.  0.
         14    1    1    2    0    0 -0.14438195552E-01 -0.19812273108E-01 -0.13758255526E-02  0.24553626055E-01  0.00000000000E+00 0. -1.
     999901    1    3    3    0    0 -0.16440600962E-01  0.14102842208E+00 -0.10676200570E-01  0.89144449656E+00  0.88000000000E+00 0.  1.
        -11    1    4    4    0    0  0.70934513675E-02 -0.35085422267E-01  0.14295350554E-01  0.38547659804E-01  0.51100000000E-03 0.  1.
         11    1    4    4    0    0  0.23785345146E-01 -0.86130726705E-01 -0.22433244311E-02  0.89384217577E-01  0.51100000000E-03 0. -1.
</event>
<event>
 8    1  0.1207611E+005  0.1043930E+01  0.7957747E-01            NaN
         13   -1    0    0    0    0  0.00000000000E+00  0.00000000000E+00  0.74505805969E-08  0.10566000000E+00  0.10566000000E+00 0.  1.
     999900   -1    0    0    0    0 -0.00000000000E+00 -0.00000000000E+00 -0.74505805969E-08  0.93827000000E+00  0.93827000000E+00 0. -1.
     999902    2    1    2    0    0  0.21203289392E-01  0.41240701776E-02  0.56614940364E-03  0.10223219468E+01  0.10220935647E+01 0.  0.
     999903    2    3    3    0    0 -0.49220289278E-01 -0.70170080161E-01 -0.97055185096E-01  0.13102568513E+00  0.20038567384E-01 0.  0.
         14    1    1    2    0    0 -0.21203289392E-01 -0.41240701776E-02 -0.56614940364E-03  0.21608053152E-01  0.00000000000E+00 0.  1.
     999901    1    3    3    0    0  0.70423578670E-01  0.74294150338E-01  0.97621334500E-01  0.89129626172E+00  0.88000000000E+00 0.  1.
        -11    1    4    4    0    0 -0.41922588354E-01 -0.66811006920E-01 -0.80967116061E-01  0.11303605205E+00  0.51100000000E-03 0.  1.
         11    1    4    4    0    0 -0.72977009243E-02 -0.33590732407E-02 -0.16088069035E-01  0.17989633073E-01  0.51100000000E-03 0. -1.
</event>
<event>
 7    1  0.1207611E+005  0.1043930E+01  0.7957747E-01            NaN
         13   -1    0    0    0    0  0.00000000000E+00  0.00000000000E+00  0.74505805969E-08  0.10566000000E+00  0.10566000000E+00 0.  1.
     999900   -1    0    0    0    0 -0.00000000000E+00 -0.00000000000E+00 -0.74505805969E-08  0.93827000000E+00  0.93827000000E+00 0.  1.
     999903    2    1    2    0    0 -0.16693564524E-02  0.64957216479E-01  0.49533243360E-01  0.84136453985E-01  0.20079192409E-01 0.  0.
         14    1    1    2    0    0 -0.68882264947E-01 -0.23066438928E-01 -0.20587278943E-01  0.75502735601E-01  0.00000000000E+00 0.  1.
     999901    1    1    2    0    0  0.70551621399E-01 -0.41890777551E-01 -0.28945964417E-01  0.88429081041E+00  0.88000000000E+00 0.  1.
        -11    1    3    3    0    0  0.11181224387E-02  0.41582407707E-02 -0.16215871627E-02  0.46294524537E-02  0.51100000000E-03 0.  1.
         11    1    3    3    0    0 -0.27874788911E-02  0.60798975708E-01  0.51154830522E-01  0.79507001531E-01  0.51100000000E-03 0. -1.
</event>
<event>
 8    1  0.1207611E+005  0.1043930E+01  0.7957747E-01            NaN
         13   -1    0    0    0    0  0.00000000000E+00  0.00000000000E+00  0.74505805969E-08  0.10566000000E+00  0.10566000000E+00 0. -1.
     999900   -1    0    0    0    0 -0.00000000000E+00 -0.00000000000E+00 -0.74505805969E-08  0.93827000000E+00  0.93827000000E+00 0.  1.
     999902    2    1    2    0    0  0.13497720514E-01  0.50692007220E-02  0.18367174291E-01  0.10205796607E+01  0.10203125038E+01 0.  0.
     999903    2    3    3    0    0 -0.62764004514E-02  0.46526939908E-01  0.12241513876E+00  0.13326024868E+00  0.23846977583E-01 0.  0.
         14    1    1    2    0    0 -0.13497720514E-01 -0.50692007220E-02 -0.18367174291E-01  0.23350339322E-01  0.00000000000E+00 0.  1.
     999901    1    3    3    0    0  0.19774120966E-01 -0.41457739186E-01 -0.10404796447E+00  0.88731941200E+00  0.88000000000E+00 0.  1.
        -11    1    4    4    0    0 -0.30725842045E-02  0.46946580592E-01  0.98929154980E-01  0.10954752863E+00  0.51100000000E-03 0.  1.
         11    1    4    4    0    0 -0.32038162469E-02 -0.41964068440E-03  0.23485983783E-01  0.23712720049E-01  0.51100000000E-03 0. -1.
</event>
<event>
 8    1  0.1207611E+005  0.1043930E+01  0.7957747E-01            NaN
         13   -1    0    0    0    0  0.00000000000E+00  0.00000000000E+00  0.74505805969E-08  0.10566000000E+00  0.10566000000E+00 0.  1.
     999900   -1    0    0    0    0 -0.00000000000E+00 -0.00000000000E+00 -0.74505805969E-08  0.93827000000E+00  0.93827000000E+00 0. -1.
     999902    2    1    2    0    0 -0.99627510515E-02 -0.21269239465E-01 -0.10704131664E-02  0.10204186678E+01  0.10201477711E+01 0.  0.
     999903    2    3    3    0    0  0.14203607267E-01 -0.70883098349E-01 -0.10895024047E+00  0.13211488815E+00  0.18921751488E-01 0.  0.
         14    1    1    2    0    0  0.99627510515E-02  0.21269239465E-01  0.10704131664E-02  0.23511332167E-01  0.00000000000E+00 0.  1.
     999901    1    3    3    0    0 -0.24166358318E-01  0.49613858885E-01  0.10787982731E+00  0.88830377969E+00  0.88000000000E+00 0.  1.
        -11    1    4    4    0    0  0.13786513371E-01 -0.63175018158E-01 -0.10527853486E+00  0.12355153537E+00  0.51100000000E-03 0.  1.
         11    1    4    4    0    0  0.41709389553E-03 -0.77080801915E-02 -0.36717056130E-02  0.85633527701E-02  0.51100000000E-03 0. -1.
</event>
<event>
 8    1  0.1207611E+005  0.1043930E+01  0.7957747E-01            NaN
         13   -1    0    0    0    0  0.00000000000E+00  0.00000000000E+00  0.74505805969E-08  0.10566000000E+00  0.10566000000E+00 0.  1.
     999900   -1    0    0    0    0 -0.00000000000E+00 -0.00000000000E+00 -0.74505805969E-08  0.93827000000E+00  0.93827000000E+00 0.  1.
     999902    2    1    2    0    0  0.16526066731E-01  0.10958126509E-01  0.13328074001E-01  0.10200379726E+01  0.10197581265E+01 0.  0.
     999903    2    3    3    0    0 -0.30094380674E-01  0.36282190192E-01  0.12104683762E+00  0.13188364682E+00  0.22779164328E-01 0.  0.
         14    1    1    2    0    0 -0.16526066731E-01 -0.10958126509E-01 -0.13328074001E-01  0.23892027431E-01  0.00000000000E+00 0. -1.
     999901    1    3    3    0    0  0.46620447405E-01 -0.25324063683E-01 -0.10771876362E+00  0.88815432575E+00  0.88000000000E+00 0.  1.
        -11    1    4    4    0    0 -0.17399933225E-01  0.17985959992E-01  0.91616591353E-01  0.94974277387E-01  0.51100000000E-03 0. -1.
         11    1    4    4    0    0 -0.12694447449E-01  0.18296230200E-01  0.29430246263E-01  0.36909369430E-01  0.51100000000E-03 0.  1.
</event>
<event>
 8    1  0.1207611E+005  0.1043930E+01  0.7957747E-01            NaN
         13   -1    0    0    0    0  0.00000000000E+00  0.00000000000E+00  0.74505805969E-08  0.10566000000E+00  0.10566000000E+00 0. -1.
     999900   -1    0    0    0    0 -0.00000000000E+00 -0.00000000000E+00 -0.74505805969E-08  0.93827000000E+00  0.93827000000E+00 0.  1.
     999902    2    1    2    0    0 -0.18224001043E-03  0.19166333178E-01  0.14169492274E-01  0.10200939758E+01  0.10198154556E+01 0.  0.
     999903    2    3    3    0    0 -0.89188701736E-01  0.32869574519E-01  0.89760056313E-01  0.13227425173E+00  0.20114087488E-01 0.  0.
         14    1    1    2    0    0  0.18224001043E-03 -0.19166333178E-01 -0.14169492274E-01  0.23836024212E-01  0.00000000000E+00 0.  1.
     999901    1    3    3    0    0  0.89006461726E-01 -0.13703241341E-01 -0.75590564039E-01  0.88781972406E+00  0.88000000000E+00 0.  1.
        -11    1    4    4    0    0 -0.81312388697E-01  0.25645442646E-01  0.72267270406E-01  0.11176856793E+00  0.51100000000E-03 0.  1.
         11    1    4    4    0    0 -0.78763130393E-02  0.72241318736E-02  0.17492785907E-01  0.20505683802E-01  0.51100000000E-03 0. -1.
</event>
<event>
 8    1  0.1207611E+005  0.1043930E+01  0.7957747E-01            NaN
         13   -1    0    0    0    0  0.00000000000E+00  0.00000000000E+00  0.74505805969E-08  0.10566000000E+00  0.10566000000E+00 0.  1.
     999900   -1    0    0    0    0 -0.00000000000E+00 -0.00000000000E+00 -0.74505805969E-08  0.93827000000E+00  0.93827000000E+00 0.  1.
     999902    2    1    2    0    0 -0.18230157263E-01 -0.54173655411E-02  0.14207441897E-01  0.10201910470E+01  0.10199148173E+01 0.  0.
     999903    2    3    3    0    0 -0.97926545541E-01  0.80999922132E-01 -0.19993666713E-01  0.13171528610E+00  0.28259054783E-01 0.  0.
         14    1    1    2    0    0  0.18230157263E-01  0.54173655411E-02 -0.14207441897E-01  0.23738952978E-01  0.00000000000E+00 0. -1.
     999901    1    3    3    0    0  0.79696388278E-01 -0.86417287673E-01  0.34201108610E-01  0.88847576092E+00  0.88000000000E+00 0. -1.
        -11    1    4    4    0    0 -0.67051810689E-01  0.41207457732E-01 -0.20556829765E-01  0.81343987242E-01  0.51100000000E-03 0.  1.
         11    1    4    4    0    0 -0.30874734852E-01  0.39792464400E-01  0.56316305178E-03  0.50371298860E-01  0.51100000000E-03 0. -1.
</event>
<event>
 8    1  0.1207611E+005  0.1043930E+01  0.7957747E-01            NaN
         13   -1    0    0    0    0  0.00000000000E+00  0.00000000000E+00  0.74505805969E-08  0.10566000000E+00  0.10566000000E+00 0.  1.
     999900   -1    0    0    0    0 -0.00000000000E+00 -0.00000000000E+00 -0.74505805969E-08  0.93827000000E+00  0.93827000000E+00 0. -1.
     999902    2    1    2    0    0  0.17702224289E-01  0.10060694595E-01 -0.12411543604E-01  0.10200839786E+01  0.10198052220E+01 0.  0.
     999903    2    3    3    0    0 -0.59348211829E-01 -0.70620051758E-01 -0.88973798222E-01  0.12974250966E+00  0.20183658861E-01 0.  0.
         14    1    1    2    0    0 -0.17702224289E-01 -0.10060694595E-01  0.12411543604E-01  0.23846021369E-01  0.00000000000E+00 0. -1.
     999901    1    3    3    0    0  0.77050436118E-01  0.80680746353E-01  0.76562254618E-01  0.89034146897E+00  0.88000000000E+00 0.  1.
        -11    1    4    4    0    0 -0.23885812674E-01 -0.14683170334E-01 -0.23144405658E-01  0.36360035374E-01  0.51100000000E-03 0.  1.
         11    1    4    4    0    0 -0.35462399156E-01 -0.55936881424E-01 -0.65829392564E-01  0.93382474285E-01  0.51100000000E-03 0. -1.
</event>
<event>
 8    1  0.1207611E+005  0.1043930E+01  0.7957747E-01            NaN
         13   -1    0    0    0    0  0.00000000000E+00  0.00000000000E+00  0.74505805969E-08  0.10566000000E+00  0.10566000000E+00 0.  1.
     999900   -1    0    0    0    0 -0.00000000000E+00 -0.00000000000E+00 -0.74505805969E-08  0.93827000000E+00  0.93827000000E+00 0. -1.
     999902    2    1    2    0    0  0.15170228340E-01 -0.97476557807E-02  0.15185409851E-01  0.10203556645E+01  0.10200832970E+01 0.  0.
     999903    2    3    3    0    0 -0.91002962495E-02  0.29761498848E-01 -0.12291001798E+00  0.12838011617E+00  0.20149925628E-01 0.  0.
         14    1    1    2    0    0 -0.15170228340E-01  0.97476557807E-02 -0.15185409851E-01  0.23574335483E-01  0.00000000000E+00 0. -1.
     999901    1    3    3    0    0  0.24270524590E-01 -0.39509154628E-01  0.13809542783E+00  0.89197554835E+00  0.88000000000E+00 0.  1.
        -11    1    4    4    0    0  0.34120057109E-02  0.96784214437E-03 -0.32009738752E-01  0.32209672420E-01  0.51100000000E-03 0.  1.
         11    1    4    4    0    0 -0.12512301960E-01  0.28793656703E-01 -0.90900279226E-01  0.96170443750E-01  0.51100000000E-03 0. -1.
</event>
<event>
 8    1  0.1207611E+005  0.1043930E+01  0.7957747E-01            NaN
         13   -1    0    0    0    0  0.00000000000E+00  0.00000000000E+00  0.74505805969E-08  0.10566000000E+00  0.10566000000E+00 0. -1.
     999900   -1    0    0    0    0 -0.00000000000E+00 -0.00000000000E+00 -0.74505805969E-08  0.93827000000E+00  0.93827000000E+00 0.  1.
     999902    2    1    2    0    0  0.61541950489E-02  0.17567771977E-01 -0.16654603093E-01  0.10189524794E+01  0.10186462972E+01 0.  0.
     999903    2    3    3    0    0  0.99272969898E-01 -0.79101301745E-01 -0.26763277790E-02  0.12866521781E+00  0.20867128553E-01 0.  0.
         14    1    1    2    0    0 -0.61541950489E-02 -0.17567771977E-01  0.16654603093E-01  0.24977520556E-01  0.00000000000E+00 0. -1.
     999901    1    3    3    0    0 -0.93118774849E-01  0.96669073722E-01 -0.13978275314E-01  0.89028726163E+00  0.88000000000E+00 0. -1.
        -11    1    4    4    0    0  0.25716844882E-01 -0.32164453892E-01  0.24508551336E-02  0.41257435896E-01  0.51100000000E-03 0. -1.
         11    1    4    4    0    0  0.73556125016E-01 -0.46936847853E-01 -0.51271829126E-02  0.87407781916E-01  0.51100000000E-03 0.  1.
</event>
<event>
 8    1  0.1207611E+005  0.1043930E+01  0.7957747E-01            NaN
         13   -1    0    0    0    0  0.00000000000E+00  0.00000000000E+00  0.74505805969E-08  0.10566000000E+00  0.10566000000E+00 0.  1.
     999900   -1    0    0    0    0 -0.00000000000E+00 -0.00000000000E+00 -0.74505805969E-08  0.93827000000E+00  0.93827000000E+00 0.  1.
     999902    2    1    2    0    0 -0.14897376280E-01  0.51759450951E-02 -0.18140974618E-01  0.10198921717E+01  0.10196088587E+01 0.  0.
     999903    2    3    3    0    0  0.54147279666E-01 -0.10273563398E+00  0.51298100312E-01  0.12790906733E+00  0.15578704239E-01 0.  0.
         14    1    1    2    0    0  0.14897376280E-01 -0.51759450951E-02  0.18140974618E-01  0.24037828266E-01  0.00000000000E+00 0.  1.
     999901    1    3    3    0    0 -0.69044655946E-01  0.10791157907E+00 -0.69439074930E-01  0.89198310440E+00  0.88000000000E+00 0.  1.
        -11    1    4    4    0    0  0.44339163264E-01 -0.88133518409E-01  0.37497395588E-01  0.10554522378E+00  0.51100000000E-03 0.  1.
         11    1    4    4    0    0  0.98081164023E-02 -0.14602115569E-01  0.13800704724E-01  0.22363843550E-01  0.51100000000E-03 0. -1.
</event>
<event>
 8    1  0.1207611E+005  0.1043930E+01  0.7957747E-01            NaN
         13   -1    0    0    0    0  0.00000000000E+00  0.00000000000E+00  0.74505805969E-08  0.10566000000E+00  0.10566000000E+00 0.  1.
     999900   -1    0    0    0    0 -0.00000000000E+00 -0.00000000000E+00 -0.74505805969E-08  0.93827000000E+00  0.93827000000E+00 0. -1.
     999902    2    1    2    0    0  0.15650054646E-01  0.16701421084E-01 -0.52192732124E-02  0.10204544278E+01  0.10201843641E+01 0.  0.
     999903    2    3    3    0    0 -0.65697365531E-01 -0.99608490380E-01  0.41929226785E-01  0.12783559577E+00  0.18597964739E-01 0.  0.
         14    1    1    2    0    0 -0.15650054646E-01 -0.16701421084E-01  0.52192732124E-02  0.23475572187E-01  0.00000000000E+00 0.  1.
     999901    1    3    3    0    0  0.81347420177E-01  0.11630991146E+00 -0.47148499998E-01  0.89261883205E+00  0.88000000000E+00 0. -1.
        -11    1    4    4    0    0 -0.18743886213E-01 -0.20807583485E-01  0.29425295707E-02  0.28163955726E-01  0.51100000000E-03 0.  1.
         11    1    4    4    0    0 -0.46953479318E-01 -0.78800906894E-01  0.38986697215E-01  0.99671640039E-01  0.51100000000E-03 0. -1.
</event>
<event>
 8    1  0.1207611E+005  0.1043930E+01  0.7957747E-01            NaN
         13   -1    0    0    0    0  0.00000000000E+00  0.00000000000E+00  0.74505805969E-08  0.10566000000E+00  0.10566000000E+00 0.  1.
     999900   -1    0    0    0    0 -0.00000000000E+00 -0.00000000000E+00 -0.74505805969E-08  0.93827000000E+00  0.93827000000E+00 0.  1.
     999902    2    1    2    0    0  0.75219691673E-02 -0.20545236605E-01  0.92310087205E-02  0.10201834573E+01  0.10199070489E+01 0.  0.
     999903    2    3    3    0    0 -0.50914475862E-01 -0.11910230941E+00  0.21388065667E-01  0.13267226937E+00  0.19153008803E-01 0.  0.
         14    1    1    2    0    0 -0.75219691673E-02  0.20545236605E-01 -0.92310087205E-02  0.23746542681E-01  0.00000000000E+00 0.  1.
     999901    1    3    3    0    0  0.58436445030E-01  0.98557072807E-01 -0.12157056946E-01  0.88751118795E+00  0.88000000000E+00 0.  1.
        -11    1    4    4    0    0 -0.18309155205E-01 -0.67098850500E-01  0.11649551568E-01  0.70522720278E-01  0.51100000000E-03 0. -1.
         11    1    4    4    0    0 -0.32605320657E-01 -0.52003458912E-01  0.97385140988E-02  0.62149549088E-01  0.51100000000E-03 0.  1.
</event>
<event>
 8    1  0.1207611E+005  0.1043930E+01  0.7957747E-01            NaN
         13   -1    0    0    0    0  0.00000000000E+00  0.00000000000E+00  0.74505805969E-08  0.10566000000E+00  0.10566000000E+00 0. -1.
     999900   -1    0    0    0    0 -0.00000000000E+00 -0.00000000000E+00 -0.74505805969E-08  0.93827000000E+00  0.93827000000E+00 0.  1.
     999902    2    1    2    0    0 -0.14142833438E-01 -0.30897837827E-03  0.18530446031E-01  0.10206170715E+01  0.10203507799E+01 0.  0.
     999903    2    3    3    0    0 -0.12971536751E+00  0.64947502660E-02  0.20484650775E-01  0.13303207823E+00  0.20239925187E-01 0.  0.
         14    1    1    2    0    0  0.14142833438E-01  0.30897837827E-03 -0.18530446031E-01  0.23312928504E-01  0.00000000000E+00 0.  1.
     999901    1    3    3    0    0  0.11557253407E+00 -0.68037286442E-02 -0.19542047431E-02  0.88758499327E+00  0.88000000000E+00 0. -1.
        -11    1    4    4    0    0 -0.24009878242E-01 -0.56665240269E-02  0.30633968678E-05  0.24674782231E-01  0.51100000000E-03 0. -1.
         11    1    4    4    0    0 -0.10570548927E+00  0.12161274293E-01  0.20481587378E-01  0.10835729600E+00  0.51100000000E-03 0.  1.
</event>
<event>
 8    1  0.1207611E+005  0.1043930E+01  0.7957747E-01            NaN
         13   -1    0    0    0    0  0.00000000000E+00  0.00000000000E+00  0.74505805969E-08  0.10566000000E+00  0.10566000000E+00 0.  1.
     999900   -1    0    0    0    0 -0.00000000000E+00 -0.00000000000E+00 -0.74505805969E-08  0.93827000000E+00  0.93827000000E+00 0.  1.
     999902    2    1    2    0    0 -0.19633717645E-01  0.88092607483E-02  0.63333402703E-02  0.10214979439E+01  0.10212516106E+01 0.  0.
     999903    2    3    3    0    0 -0.25848944755E-01 -0.88301040364E-01 -0.90796282893E-01  0.13082224344E+00  0.20130889632E-01 0.  0.
         14    1    1    2    0    0  0.19633717645E-01 -0.88092607483E-02 -0.63333402703E-02  0.22432056135E-01  0.00000000000E+00 0.  1.
     999901    1    3    3    0    0  0.62152271098E-02  0.97110301112E-01  0.97129623163E-01  0.89067570042E+00  0.88000000000E+00 0. -1.
        -11    1    4    4    0    0 -0.16402397629E-01 -0.32634159902E-01 -0.25777719404E-01  0.44707706038E-01  0.51100000000E-03 0.  1.
         11    1    4    4    0    0 -0.94465471257E-02 -0.55666880462E-01 -0.65018563488E-01  0.86114537402E-01  0.51100000000E-03 0. -1.
</event>
<event>
 8    1  0.1207611E+005  0.1043930E+01  0.7957747E-01            NaN
         13   -1    0    0    0    0  0.00000000000E+00  0.00000000000E+00  0.74505805969E-08  0.10566000000E+00  0.10566000000E+00 0. -1.
     999900   -1    0    0    0    0 -0.00000000000E+00 -0.00000000000E+00 -0.74505805969E-08  0.93827000000E+00  0.93827000000E+00 0.  1.
     999902    2    1    2    0    0 -0.81999777323E-02 -0.11288817435E-01 -0.19180945669E-01  0.10202111107E+01  0.10199353532E+01 0.  0.
     999903    2    3    3    0    0  0.14746952832E-02 -0.12505251992E+00  0.34418657301E-01  0.13121803042E+00  0.19829777471E-01 0.  0.
         14    1    1    2    0    0  0.81999777323E-02  0.11288817435E-01  0.19180945669E-01  0.23718889321E-01  0.00000000000E+00 0. -1.
     999901    1    3    3    0    0 -0.96746730155E-02  0.11376370248E+00 -0.53599602970E-01  0.88899308025E+00  0.88000000000E+00 0.  1.
        -11    1    4    4    0    0  0.10281065042E-02 -0.60933638327E-01  0.65299831864E-02  0.61293287432E-01  0.51100000000E-03 0. -1.
         11    1    4    4    0    0  0.44658877894E-03 -0.64118881590E-01  0.27888674114E-01  0.69924742993E-01  0.51100000000E-03 0.  1.
</event>
<event>
 8    1  0.1207611E+005  0.1043930E+01  0.7957747E-01            NaN
         13   -1    0    0    0    0  0.00000000000E+00  0.00000000000E+00  0.74505805969E-08  0.10566000000E+00  0.10566000000E+00 0.  1.
     999900   -1    0    0    0    0 -0.00000000000E+00 -0.00000000000E+00 -0.74505805969E-08  0.93827000000E+00  0.93827000000E+00 0. -1.
     999902    2    1    2    0    0 -0.84332511933E-02 -0.13044310911E-01  0.15086685552E-01  0.10222763201E+01  0.10220469621E+01 0.  0.
     999903    2    3    3    0    0 -0.28607008299E-01  0.36301929744E-01  0.12327015738E+00  0.13405016898E+00  0.25253219109E-01 0.  0.
         14    1    1    2    0    0  0.84332511933E-02  0.13044310911E-01 -0.15086685552E-01  0.21653679913E-01  0.00000000000E+00 0. -1.
     999901    1    3    3    0    0  0.20173757106E-01 -0.49346240655E-01 -0.10818347183E+00  0.88822615111E+00  0.88000000000E+00 0. -1.
        -11    1    4    4    0    0 -0.31770146554E-01  0.26900882226E-01  0.87056442466E-01  0.96499144931E-01  0.51100000000E-03 0.  1.
         11    1    4    4    0    0  0.31631382544E-02  0.94010475185E-02  0.36213714912E-01  0.37551024044E-01  0.51100000000E-03 0. -1.
</event>
<event>
 8    1  0.1207611E+005  0.1043930E+01  0.7957747E-01            NaN
         13   -1    0    0    0    0  0.00000000000E+00  0.00000000000E+00  0.74505805969E-08  0.10566000000E+00  0.10566000000E+00 0.  1.
     999900   -1    0    0    0    0 -0.00000000000E+00 -0.00000000000E+00 -0.74505805969E-08  0.93827000000E+00  0.93827000000E+00 0. -1.
     999902    2    1    2    0    0  0.19333436405E-01 -0.15510944703E-01  0.93482721277E-02  0.10174392212E+01  0.10170942963E+01 0.  0.
     999903    2    3    3    0    0 -0.28115132323E-01 -0.96788188855E-01 -0.76742382720E-01  0.12824354087E+00  0.19964926803E-01 0.  0.
         14    1    1    2    0    0 -0.19333436405E-01  0.15510944703E-01 -0.93482721277E-02  0.26490778784E-01  0.00000000000E+00 0. -1.
     999901    1    3    3    0    0  0.47448568729E-01  0.81277244153E-01  0.86090654847E-01  0.88919568034E+00  0.88000000000E+00 0.  1.
        -11    1    4    4    0    0 -0.53731193166E-02 -0.13675627717E-01 -0.20931644734E-01  0.25579055434E-01  0.51100000000E-03 0.  1.
         11    1    4    4    0    0 -0.22742013007E-01 -0.83112561138E-01 -0.55810737986E-01  0.10266448544E+00  0.51100000000E-03 0. -1.
</event>
<event>
 8    1  0.1207611E+005  0.1043930E+01  0.7957747E-01            NaN
         13   -1    0    0    0    0  0.00000000000E+00  0.00000000000E+00  0.74505805969E-08  0.10566000000E+00  0.10566000000E+00 0.  1.
     999900   -1    0    0    0    0 -0.00000000000E+00 -0.00000000000E+00 -0.74505805969E-08  0.93827000000E+00  0.93827000000E+00 0. -1.
     999902    2    1    2    0    0 -0.12441200374E-01  0.13435109500E-01 -0.14592725431E-01  0.10205156183E+01  0.10202469769E+01 0.  0.
     999903    2    3    3    0    0  0.50368133788E-01 -0.51219106400E-01  0.10400717185E+00  0.12799608591E+00  0.20128597836E-01 0.  0.
         14    1    1    2    0    0  0.12441200374E-01 -0.13435109500E-01  0.14592725431E-01  0.23414381682E-01  0.00000000000E+00 0.  1.
     999901    1    3    3    0    0 -0.62809334162E-01  0.64654215900E-01 -0.11859989728E+00  0.89251953241E+00  0.88000000000E+00 0.  1.
        -11    1    4    4    0    0  0.38206598533E-01 -0.44223974275E-01  0.69909690126E-01  0.91121512095E-01  0.51100000000E-03 0. -1.
         11    1    4    4    0    0  0.12161535255E-01 -0.69951321258E-02  0.34097481724E-01  0.36874573817E-01  0.51100000000E-03 0.  1.
</event>
<event>
 8    1  0.1207611E+005  0.1043930E+01  0.7957747E-01            NaN
         13   -1    0    0    0    0  0.00000000000E+00  0.00000000000E+00  0.74505805969E-08  0.10566000000E+00  0.10566000000E+00 0. -1.
     999900   -1    0    0    0    0 -0.00000000000E+00 -0.00000000000E+00 -0.74505805969E-08  0.93827000000E+00  0.93827000000E+00 0. -1.
     999902    2    1    2    0    0 -0.16144529910E-01  0.17578377820E-01 -0.80036918031E-03  0.10200493425E+01  0.10197697658E+01 0.  0.
     999903    2    3    3    0    0 -0.20440278960E-01 -0.11628910437E+00 -0.46856613485E-01  0.12872441077E+00  0.20819964020E-01 0.  0.
         14    1    1    2    0    0  0.16144529910E-01 -0.17578377820E-01  0.80036918031E-03  0.23880657521E-01  0.00000000000E+00 0.  1.
     999901    1    3    3    0    0  0.42957490503E-02  0.13386748219E+00  0.46056244304E-01  0.89132493171E+00  0.88000000000E+00 0.  1.
        -11    1    4    4    0    0 -0.22850042460E-01 -0.80612045437E-01 -0.28336261364E-01  0.88451292467E-01  0.51100000000E-03 0. -1.
         11    1    4    4    0    0  0.24097634993E-02 -0.35677058932E-01 -0.18520352120E-01  0.40273118303E-01  0.51100000000E-03 0.  1.
</event>
<event>
 8    1  0.1207611E+005  0.1043930E+01  0.7957747E-01            NaN
         13   -1    0    0    0    0  0.00000000000E+00  0.00000000000E+00  0.74505805969E-08  0.10566000000E+00  0.10566000000E+00 0. -1.
     999900   -1    0    0    0    0 -0.00000000000E+00 -0.00000000000E+00 -0.74505805969E-08  0.93827000000E+00  0.93827000000E+00 0.  1.
     999902    2    1    2    0    0 -0.98509374125E-02  0.18396718022E-01 -0.12230392845E-01  0.10197419304E+01  0.10194550220E+01 0.  0.
     999903    2    3    3    0    0  0.56161731212E-01 -0.17182578680E-01  0.11185196347E+00  0.12787871784E+00  0.19817257149E-01 0.  0.
         14    1    1    2    0    0  0.98509374125E-02 -0.18396718022E-01  0.12230392845E-01  0.24188069601E-01  0.00000000000E+00 0. -1.
     999901    1    3    3    0    0 -0.66012668625E-01  0.35579296703E-01 -0.12408235631E+00  0.89186321256E+00  0.88000000000E+00 0.  1.
        -11    1    4    4    0    0  0.19689942614E-01 -0.16079577162E-01  0.43046860979E-01  0.49995399818E-01  0.51100000000E-03 0.  1.
         11    1    4    4    0    0  0.36471788598E-01 -0.11030015179E-02  0.68805102490E-01  0.77883318019E-01  0.51100000000E-03 0. -1.
</event>
<event>
 8    1  0.1207611E+005  0.1043930E+01  0.7957747E-01            NaN
         13   -1    0    0    0    0  0.00000000000E+00  0.00000000000E+00  0.74505805969E-08  0.10566000000E+00  0.10566000000E+00 0. -1.
     999900   -1    0    0    0    0 -0.00000000000E+00 -0.00000000000E+00 -0.74505805969E-08  0.93827000000E+00  0.93827000000E+00 0.  1.
     999902    2    1    2    0    0 -0.17188228903E-01  0.12200114489E-01  0.10570834637E-01  0.10203499120E+01  0.10200774100E+01 0.  0.
     999903    2    3    3    0    0 -0.66865620376E-01 -0.11023161091E+00 -0.13752164165E-02  0.13040604928E+00  0.19540400141E-01 0.  0.
         14    1    1    2    0    0  0.17188228903E-01 -0.12200114489E-01 -0.10570834637E-01  0.23580088026E-01  0.00000000000E+00 0.  1.
     999901    1    3    3    0    0  0.49677391473E-01  0.12243172540E+00  0.11946051054E-01  0.88994386269E+00  0.88000000000E+00 0. -1.
        -11    1    4    4    0    0 -0.25421351969E-01 -0.60309801790E-01 -0.27191229237E-02  0.65507038388E-01  0.51100000000E-03 0.  1.
         11    1    4    4    0    0 -0.41444268407E-01 -0.49921809118E-01  0.13439065072E-02  0.64899010895E-01  0.51100000000E-03 0. -1.
</event>
<event>
 8    1  0.1207611E+005  0.1043930E+01  0.7957747E-01            NaN
         13   -1    0    0    0    0  0.00000000000E+00  0.00000000000E+00  0.74505805969E-08  0.10566000000E+00  0.10566000000E+00 0. -1.
     999900   -1    0    0    0    0 -0.00000000000E+00 -0.00000000000E+00 -0.74505805969E-08  0.93827000000E+00  0.93827000000E+00 0.  1.
     999902    2    1    2    0    0  0.19277187576E-01 -0.11324948398E-01 -0.12456044753E-01  0.10183366910E+01  0.10180150287E+01 0.  0.
     999903    2    3    3    0    0 -0.43977249088E-01 -0.11909248269E+00 -0.20118178387E-01  0.12947580561E+00  0.15563587789E-01 0.  0.
         14    1    1    2    0    0 -0.19277187576E-01  0.11324948398E-01  0.12456044753E-01  0.25593309047E-01  0.00000000000E+00 0. -1.
     999901    1    3    3    0    0  0.63254436665E-01  0.10776753429E+00  0.76621336335E-02  0.88886088535E+00  0.88000000000E+00 0. -1.
        -11    1    4    4    0    0 -0.11539055936E-01 -0.15929576040E-01 -0.47901823054E-02  0.20251127678E-01  0.51100000000E-03 0. -1.
         11    1    4    4    0    0 -0.32438193153E-01 -0.10316290665E+00 -0.15327996082E-01  0.10922467793E+00  0.51100000000E-03 0.  1.
</event>
<event>
 8    1  0.1207611E+005  0.1043930E+01  0.7957747E-01            NaN
         13   -1    0    0    0    0  0.00000000000E+00  0.00000000000E+00  0.74505805969E-08  0.10566000000E+00  0.10566000000E+00 0. -1.
     999900   -1    0    0    0    0 -0.00000000000E+00 -0.00000000000E+00 -0.74505805969E-08  0.93827000000E+00  0.93827000000E+00 0.  1.
     999902    2    1    2    0    0 -0.13312977926E-01  0.19263739864E-01 -0.33984275736E-02  0.10202682933E+01  0.10199938794E+01 0.  0.
     999903    2    3    3    0    0 -0.62158363406E-01  0.56927578737E-02 -0.11338301050E+00  0.13197405615E+00  0.25794859822E-01 0.  0.
         14    1    1    2    0    0  0.13312977926E-01 -0.19263739864E-01  0.33984275736E-02  0.23661706717E-01  0.00000000000E+00 0.  1.
     999901    1    3    3    0    0  0.48845385479E-01  0.13570981990E-01  0.10998458293E+00  0.88829423713E+00  0.88000000000E+00 0. -1.
        -11    1    4    4    0    0 -0.26795906041E-01  0.20152240539E-02 -0.74914617508E-01  0.79589840720E-01  0.51100000000E-03 0. -1.
         11    1    4    4    0    0 -0.35362457364E-01  0.36775338198E-02 -0.38468392996E-01  0.52384215433E-01  0.51100000000E-03 0.  1.
</event>
<event>
 8    1  0.1207611E+005  0.1043930E+01  0.7957747E-01            NaN
         13   -1    0    0    0    0  0.00000000000E+00  0.00000000000E+00  0.74505805969E-08  0.10566000000E+00  0.10566000000E+00 0.  1.
     999900   -1    0    0    0    0 -0.00000000000E+00 -0.00000000000E+00 -0.74505805969E-08  0.93827000000E+00  0.93827000000E+00 0. -1.
     999902    2    1    2    0    0  0.10748092100E-01  0.19944792516E-01 -0.64734880478E-02  0.10203668449E+01  0.10200947387E+01 0.  0.
     999903    2    3    3    0    0 -0.12768603641E+00  0.39224547638E-02 -0.28428353164E-02  0.12939327350E+00  0.20382050145E-01 0.  0.
         14    1    1    2    0    0 -0.10748092100E-01 -0.19944792516E-01  0.64734880478E-02  0.23563155132E-01  0.00000000000E+00 0.  1.
     999901    1    3    3    0    0  0.13843412851E+00  0.16022337752E-01 -0.36306527314E-02  0.89097357137E+00  0.88000000000E+00 0.  1.
        -11    1    4    4    0    0 -0.74072400640E-01  0.66328274205E-02 -0.10701705600E-01  0.75136559410E-01  0.51100000000E-03 0.  1.
         11    1    4    4    0    0 -0.53613635770E-01 -0.27103726567E-02  0.78588702833E-02  0.54256714087E-01  0.51100000000E-03 0. -1.
</event>
<event>
 8    1  0.1207611E+005  0.1043930E+01  0.7957747E-01            NaN
         13   -1    0    0    0    0  0.00000000000E+00  0.00000000000E+00  0.74505805969E-08  0.10566000000E+00  0.10566000000E+00 0. -1.
     999900   -1    0    0    0    0 -0.00000000000E+00 -0.00000000000E+00 -0.74505805969E-08  0.93827000000E+00  0.93827000000E+00 0.  1.
     999902    2    1    2    0    0  0.64530715789E-02 -0.21880013771E-01 -0.64253064471E-02  0.10202305971E+01  0.10199552978E+01 0.  0.
     999903    2    3    3    0    0 -0.16414134326E-01  0.31272402314E-01 -0.12394553585E+00  0.13053452946E+00  0.20721500208E-01 0.  0.
         14    1    1    2    0    0 -0.64530715789E-02  0.21880013771E-01  0.64253064471E-02  0.23699402911E-01  0.00000000000E+00 0. -1.
     999901    1    3    3    0    0  0.22867205905E-01 -0.53152416084E-01  0.11752022940E+00  0.88969606763E+00  0.88000000000E+00 0. -1.
        -11    1    4    4    0    0 -0.14256246215E-01  0.19768735275E-01 -0.49551624433E-01  0.55223799719E-01  0.51100000000E-03 0. -1.
         11    1    4    4    0    0 -0.21578881113E-02  0.11503667039E-01 -0.74393911418E-01  0.75310729737E-01  0.51100000000E-03 0.  1.
</event>
<event>
 8    1  0.1207611E+005  0.1043930E+01  0.7957747E-01            NaN
         13   -1    0    0    0    0  0.00000000000E+00  0.00000000000E+00  0.74505805969E-08  0.10566000000E+00  0.10566000000E+00 0. -1.
     999900   -1    0    0    0    0 -0.00000000000E+00 -0.00000000000E+00 -0.74505805969E-08  0.93827000000E+00  0.93827000000E+00 0.  1.
     999902    2    1    2    0    0  0.11633063519E-01  0.24978234058E-02 -0.18212351292E-01  0.10221755285E+01  0.10219440073E+01 0.  0.
     999903    2    3    3    0    0 -0.22015200465E-01  0.11126686909E+00 -0.69310887411E-01  0.13337072919E+00  0.10898031096E-01 0.  0.
         14    1    1    2    0    0 -0.11633063519E-01 -0.24978234058E-02  0.18212351292E-01  0.21754471453E-01  0.00000000000E+00 0. -1.
     999901    1    3    3    0    0  0.33648263983E-01 -0.10876904569E+00  0.51098536118E-01  0.88880479936E+00  0.88000000000E+00 0. -1.
        -11    1    4    4    0    0 -0.14492961888E-01  0.56529694666E-01 -0.30511891272E-01  0.65855060195E-01  0.51100000000E-03 0. -1.
         11    1    4    4    0    0 -0.75222385770E-02  0.54737174426E-01 -0.38798996139E-01  0.67515668994E-01  0.51100000000E-03 0.  1.
</event>
<event>
 8    1  0.1207611E+005  0.1043930E+01  0.7957747E-01            NaN
         13   -1    0    0    0    0  0.00000000000E+00  0.00000000000E+00  0.74505805969E-08  0.10566000000E+00  0.10566000000E+00 0. -1.
     999900   -1    0    0    0    0 -0.00000000000E+00 -0.00000000000E+00 -0.74505805969E-08  0.93827000000E+00  0.93827000000E+00 0. -1.
     999902    2    1    2    0    0  0.10433172965E-02 -0.22471839842E-01 -0.10395666153E-01  0.10191481120E+01  0.10188467658E+01 0.  0.
     999903    2    3    3    0    0  0.88815060373E-01  0.94509923681E-02 -0.92698355610E-01  0.13038679491E+00  0.20743551996E-01 0.  0.
         14    1    1    2    0    0 -0.10433172965E-02  0.22471839842E-01  0.10395666153E-01  0.24781887975E-01  0.00000000000E+00 0. -1.
     999901    1    3    3    0    0 -0.87771743077E-01 -0.31922832210E-01  0.82302689457E-01  0.88876131711E+00  0.88000000000E+00 0.  1.
        -11    1    4    4    0    0  0.81613489963E-01  0.13863100326E-01 -0.79962515498E-01  0.11509653470E+00  0.51100000000E-03 0. -1.
         11    1    4    4    0    0  0.72015704101E-02 -0.44121079580E-02 -0.12735840113E-01  0.15290260213E-01  0.51100000000E-03 0.  1.
</event>
<event>
 8    1  0.1207611E+005  0.1043930E+01  0.7957747E-01            NaN
         13   -1    0    0    0    0  0.00000000000E+00  0.00000000000E+00  0.74505805969E-08  0.10566000000E+00  0.10566000000E+00 0. -1.
     999900   -1    0    0    0    0 -0.00000000000E+00 -0.00000000000E+00 -0.74505805969E-08  0.93827000000E+00  0.93827000000E+00 0. -1.
     999902    2    1    2    0    0  0.22970433881E-01 -0.52830225013E-02  0.33736486030E-02  0.10201196522E+01  0.10198417387E+01 0.  0.
     999903    2    3    3    0    0 -0.11287118487E+00  0.22655811878E-01 -0.51423786627E-01  0.12757481701E+00  0.19435480877E-01 0.  0.
         14    1    1    2    0    0 -0.22970433881E-01  0.52830225013E-02 -0.33736486030E-02  0.23810347841E-01  0.00000000000E+00 0.  1.
     999901    1    3    3    0    0  0.13584161875E+00 -0.27938834379E-01  0.54797435230E-01  0.89254483515E+00  0.88000000000E+00 0.  1.
        -11    1    4    4    0    0 -0.14821874166E-01  0.36186815922E-02 -0.14593772737E-01  0.21119236112E-01  0.51100000000E-03 0.  1.
         11    1    4    4    0    0 -0.98049310705E-01  0.19037130286E-01 -0.36830013890E-01  0.10645558089E+00  0.51100000000E-03 0. -1.
</event>
<event>
 8    1  0.1207611E+005  0.1043930E+01  0.7957747E-01            NaN
         13   -1    0    0    0    0  0.00000000000E+00  0.00000000000E+00  0.74505805969E-08  0.10566000000E+00  0.10566000000E+00 0.  1.
     999900   -1    0    0    0    0 -0.00000000000E+00 -0.00000000000E+00 -0.74505805969E-08  0.93827000000E+00  0.93827000000E+00 0. -1.
     999902    2    1    2    0    0 -0.45882125768E-02  0.20453763405E-01 -0.14303286384E-02  0.10229191939E+01  0.10227033897E+01 0.  0.
     999903    2    3    3    0    0 -0.10461326920E+00  0.65748329832E-01  0.46822909928E-01  0.13478351468E+00  0.26597593266E-01 0.  0.
         14    1    1    2    0    0  0.45882125768E-02 -0.20453763405E-01  0.14303286384E-02  0.21010806079E-01  0.00000000000E+00 0.  1.
     999901    1    3    3    0    0  0.10002505663E+00 -0.45294566428E-01 -0.48253238566E-01  0.88813567924E+00  0.88000000000E+00 0. -1.
        -11    1    4    4    0    0 -0.77786542535E-01  0.42048487419E-01  0.44282018188E-01  0.98893780136E-01  0.51100000000E-03 0.  1.
         11    1    4    4    0    0 -0.26826726668E-01  0.23699842414E-01  0.25408917398E-02  0.35889734549E-01  0.51100000000E-03 0. -1.
</event>
<event>
 8    1  0.1207611E+005  0.1043930E+01  0.7957747E-01            NaN
         13   -1    0    0    0    0  0.00000000000E+00  0.00000000000E+00  0.74505805969E-08  0.10566000000E+00  0.10566000000E+00 0. -1.
     999900   -1    0    0    0    0 -0.00000000000E+00 -0.00000000000E+00 -0.74505805969E-08  0.93827000000E+00  0.93827000000E+00 0. -1.
     999902    2    1    2    0    0  0.94999060232E-02 -0.18162150149E-01 -0.11534161176E-01  0.10204108847E+01  0.10201398065E+01 0.  0.
     999903    2    3    3    0    0  0.22782201274E-01 -0.91916255399E-01 -0.92110248115E-01  0.13355768756E+00  0.19640045775E-01 0.  0.
         14    1    1    2    0    0 -0.94999060232E-02  0.18162150149E-01  0.11534161176E-01  0.23519115343E-01  0.00000000000E+00 0. -1.
     999901    1    3    3    0    0 -0.13282295251E-01  0.73754105251E-01  0.80576086939E-01  0.88685319709E+00  0.88000000000E+00 0.  1.
        -11    1    4    4    0    0  0.47350198869E-02 -0.58623593333E-01 -0.54603074588E-01  0.80255236490E-01  0.51100000000E-03 0.  1.
         11    1    4    4    0    0  0.18047181387E-01 -0.33292662066E-01 -0.37507173527E-01  0.53302451074E-01  0.51100000000E-03 0. -1.
</event>
<event>
 8    1  0.1207611E+005  0.1043930E+01  0.7957747E-01            NaN
         13   -1    0    0    0    0  0.00000000000E+00  0.00000000000E+00  0.74505805969E-08  0.10566000000E+00  0.10566000000E+00 0. -1.
     999900   -1    0    0    0    0 -0.00000000000E+00 -0.00000000000E+00 -0.74505805969E-08  0.93827000000E+00  0.93827000000E+00 0. -1.
     999902    2    1    2    0    0 -0.10323594374E-01 -0.13090083563E-01 -0.16968185120E-01  0.10201424782E+01  0.10198651036E+01 0.  0.
     999903    2    3    3    0    0 -0.52366400162E-01  0.48885163782E-01 -0.10951579616E+00  0.13212581779E+00  0.18207773442E-01 0.  0.
         14    1    1    2    0    0  0.10323594374E-01  0.13090083563E-01  0.16968185120E-01  0.23787521829E-01  0.00000000000E+00 0. -1.
     999901    1    3    3    0    0  0.42042805789E-01 -0.61975247344E-01  0.92547611044E-01  0.88801666038E+00  0.88000000000E+00 0.  1.
        -11    1    4    4    0    0 -0.70127358541E-02  0.13971168533E-01 -0.15259913105E-01  0.21851729527E-01  0.51100000000E-03 0.  1.
         11    1    4    4    0    0 -0.45353664308E-01  0.34913995249E-01 -0.94255883059E-01  0.11027408826E+00  0.51100000000E-03 0. -1.
</event>
<event>
 8    1  0.1326032E+005  0.1043930E+01  0.7957747E-01            NaN
         13   -1    0    0    0    0  0.00000000000E+00  0.00000000000E+00  0.74505805969E-08  0.10566000000E+00  0.10566000000E+00 0. -1.
     999900   -1    0    0    0    0 -0.00000000000E+00 -0.00000000000E+00 -0.74505805969E-08  0.93827000000E+00  0.93827000000E+00 0. -1.
     999902    2    1    2    0    0  0.10153826160E-01  0.71188959771E-03 -0.24225019659E-01  0.10176534220E+01  0.10173141249E+01 0.  0.
     999903    2    3    3    0    0 -0.56320275025E-01  0.66453461513E-01 -0.94172672093E-01  0.12994094916E+00  0.20691113386E-01 0.  0.
         14    1    1    2    0    0 -0.10153826160E-01 -0.71188959771E-03  0.24225019659E-01  0.26276577973E-01  0.00000000000E+00 0. -1.
     999901    1    3    3    0    0  0.66474101185E-01 -0.65741571915E-01  0.69947652435E-01  0.88771247287E+00  0.88000000000E+00 0.  1.
        -11    1    4    4    0    0 -0.23103890072E-01  0.13347986362E-01 -0.32250682668E-01  0.41860794664E-01  0.51100000000E-03 0.  1.
         11    1    4    4    0    0 -0.33216384953E-01  0.53105475151E-01 -0.61921989425E-01  0.88080154494E-01  0.51100000000E-03 0. -1.
</event>
<event>
 8    1  0.1207611E+005  0.1043930E+01  0.7957747E-01            NaN
         13   -1    0    0    0    0  0.00000000000E+00  0.00000000000E+00  0.74505805969E-08  0.10566000000E+00  0.10566000000E+00 0. -1.
     999900   -1    0    0    0    0 -0.00000000000E+00 -0.00000000000E+00 -0.74505805969E-08  0.93827000000E+00  0.93827000000E+00 0.  1.
     999902    2    1    2    0    0  0.12713483006E-01 -0.36346995766E-02 -0.18853445408E-01  0.10209018413E+01  0.10206420888E+01 0.  0.
     999903    2    3    3    0    0 -0.40616950709E-01  0.84349316563E-01  0.86587469829E-01  0.12865573796E+00  0.17040102348E-01 0.  0.
         14    1    1    2    0    0 -0.12713483006E-01  0.36346995766E-02  0.18853445408E-01  0.23028158739E-01  0.00000000000E+00 0. -1.
     999901    1    3    3    0    0  0.53330433715E-01 -0.87984016140E-01 -0.10544091524E+00  0.89224610330E+00  0.88000000000E+00 0.  1.
        -11    1    4    4    0    0 -0.29170441480E-01  0.62509388977E-01  0.73243660433E-01  0.10061427971E+00  0.51100000000E-03 0.  1.
         11    1    4    4    0    0 -0.11446509229E-01  0.21839927587E-01  0.13343809396E-01  0.28041458249E-01  0.51100000000E-03 0. -1.
</event>
<event>
 8    1  0.1207611E+005  0.1043930E+01  0.7957747E-01            NaN
         13   -1    0    0    0    0  0.00000000000E+00  0.00000000000E+00  0.74505805969E-08  0.10566000000E+00  0.10566000000E+00 0.  1.
     999900   -1    0    0    0    0 -0.00000000000E+00 -0.00000000000E+00 -0.74505805969E-08  0.93827000000E+00  0.93827000000E+00 0. -1.
     999902    2    1    2    0    0 -0.15673023523E-01  0.50920314259E-02  0.20446103849E-01  0.10176694666E+01  0.10173305892E+01 0.  0.
     999903    2    3    3    0    0 -0.13428501951E-02  0.57640806161E-01 -0.11037704742E+00  0.12633259176E+00  0.21273583646E-01 0.  0.
         14    1    1    2    0    0  0.15673023523E-01 -0.50920314259E-02 -0.20446103849E-01  0.26260533372E-01  0.00000000000E+00 0. -1.
     999901    1    3    3    0    0 -0.14330173328E-01 -0.52548774735E-01  0.13082315127E+00  0.89133687487E+00  0.88000000000E+00 0.  1.
        -11    1    4    4    0    0 -0.22110995639E-02  0.34513817286E-01 -0.86100717311E-01  0.92788400070E-01  0.51100000000E-03 0.  1.
         11    1    4    4    0    0  0.86824936886E-03  0.23126988875E-01 -0.24276330110E-01  0.33544191688E-01  0.51100000000E-03 0. -1.
</event>
<event>
 8    1  0.1207611E+005  0.1043930E+01  0.7957747E-01            NaN
         13   -1    0    0    0    0  0.00000000000E+00  0.00000000000E+00  0.74505805969E-08  0.10566000000E+00  0.10566000000E+00 0. -1.
     999900   -1    0    0    0    0 -0.00000000000E+00 -0.00000000000E+00 -0.74505805969E-08  0.93827000000E+00  0.93827000000E+00 0.  1.
     999902    2    1    2    0    0 -0.13411463198E-01  0.12290669691E-01  0.15591952002E-01  0.10199709334E+01  0.10196894959E+01 0.  0.
     999903    2    3    3    0    0  0.64307118974E-01  0.56603383583E-01 -0.93876694419E-01  0.12868692747E+00  0.20202548408E-01 0.  0.
         14    1    1    2    0    0  0.13411463198E-01 -0.12290669691E-01 -0.15591952002E-01  0.23959066631E-01  0.00000000000E+00 0.  1.
     999901    1    3    3    0    0 -0.77718582172E-01 -0.44312713891E-01  0.10946864642E+00  0.89128400590E+00  0.88000000000E+00 0. -1.
        -11    1    4    4    0    0  0.23925656406E-01  0.34097753733E-01 -0.41012319074E-01  0.58458235356E-01  0.51100000000E-03 0. -1.
         11    1    4    4    0    0  0.40381462568E-01  0.22505629850E-01 -0.52864375346E-01  0.70228692112E-01  0.51100000000E-03 0.  1.
</event>
<event>
 8    1  0.1207611E+005  0.1043930E+01  0.7957747E-01            NaN
         13   -1    0    0    0    0  0.00000000000E+00  0.00000000000E+00  0.74505805969E-08  0.10566000000E+00  0.10566000000E+00 0.  1.
     999900   -1    0    0    0    0 -0.00000000000E+00 -0.00000000000E+00 -0.74505805969E-08  0.93827000000E+00  0.93827000000E+00 0.  1.
     999902    2    1    2    0    0 -0.11537588740E-01  0.19057416765E-01 -0.78671368629E-02  0.10203038930E+01  0.10200303139E+01 0.  0.
     999903    2    3    3    0    0 -0.48740281223E-01 -0.11603020768E+00 -0.13652820110E-01  0.12919998174E+00  0.25838182525E-01 0.  0.
         14    1    1    2    0    0  0.11537588740E-01 -0.19057416765E-01  0.78671368629E-02  0.23626106960E-01  0.00000000000E+00 0. -1.
     999901    1    3    3    0    0  0.37202692483E-01  0.13508762445E+00  0.57856832467E-02  0.89110391130E+00  0.88000000000E+00 0. -1.
        -11    1    4    4    0    0 -0.24063163942E-01 -0.27658980486E-01 -0.56576015008E-02  0.37098849527E-01  0.51100000000E-03 0. -1.
         11    1    4    4    0    0 -0.24677117280E-01 -0.88371227194E-01 -0.79952186088E-02  0.92101132212E-01  0.51100000000E-03 0.  1.
</event>
<event>
 8    1  0.1207611E+005  0.1043930E+01  0.7957747E-01            NaN
         13   -1    0    0    0    0  0.00000000000E+00  0.00000000000E+00  0.74505805969E-08  0.10566000000E+00  0.10566000000E+00 0.  1.
     999900   -1    0    0    0    0 -0.00000000000E+00 -0.00000000000E+00 -0.74505805969E-08  0.93827000000E+00  0.93827000000E+00 0.  1.
     999902    2    1    2    0    0  0.32019807965E-02  0.23123707071E-01  0.26768495235E-02  0.10204326803E+01  0.10201621102E+01 0.  0.
     999903    2    3    3    0    0 -0.48107927648E-01  0.48729756000E-01  0.11163260039E+00  0.13186094313E+00  0.15378850098E-01 0.  0.
         14    1    1    2    0    0 -0.32019807965E-02 -0.23123707071E-01 -0.26768495235E-02  0.23497319701E-01  0.00000000000E+00 0.  1.
     999901    1    3    3    0    0  0.51309908445E-01 -0.25606048928E-01 -0.10895575087E+00  0.88857173717E+00  0.88000000000E+00 0.  1.
        -11    1    4    4    0    0 -0.31985028353E-01  0.33148379318E-01  0.87697110254E-01  0.99060089632E-01  0.51100000000E-03 0.  1.
         11    1    4    4    0    0 -0.16122899296E-01  0.15581376682E-01  0.23935490140E-01  0.32800853499E-01  0.51100000000E-03 0. -1.
</event>
<event>
 8    1  0.1207611E+005  0.1043930E+01  0.7957747E-01            NaN
         13   -1    0    0    0    0  0.00000000000E+00  0.00000000000E+00  0.74505805969E-08  0.10566000000E+00  0.10566000000E+00 0. -1.
     999900   -1    0    0    0    0 -0.00000000000E+00 -0.00000000000E+00 -0.74505805969E-08  0.93827000000E+00  0.93827000000E+00 0. -1.
     999902    2    1    2    0    0  0.19988982863E-01 -0.59439975425E-02  0.67278511352E-02  0.10220175715E+01  0.10217826393E+01 0.  0.
     999903    2    3    3    0    0 -0.11824561011E+00  0.92420131430E-02  0.49444162602E-01  0.13007357050E+00  0.20173482873E-01 0.  0.
         14    1    1    2    0    0 -0.19988982863E-01  0.59439975425E-02 -0.67278511352E-02  0.21912428519E-01  0.00000000000E+00 0.  1.
     999901    1    3    3    0    0  0.13823459297E+00 -0.15186010686E-01 -0.42716311467E-01  0.89194400098E+00  0.88000000000E+00 0. -1.
        -11    1    4    4    0    0 -0.50280879465E-01  0.13785478841E-01  0.23341656604E-01  0.57125303681E-01  0.51100000000E-03 0.  1.
         11    1    4    4    0    0 -0.67964730644E-01 -0.45434656978E-02  0.26102505998E-01  0.72948266823E-01  0.51100000000E-03 0. -1.
</event>
<event>
 8    1  0.1207611E+005  0.1043930E+01  0.7957747E-01            NaN
         13   -1    0    0    0    0  0.00000000000E+00  0.00000000000E+00  0.74505805969E-08  0.10566000000E+00  0.10566000000E+00 0.  1.
     999900   -1    0    0    0    0 -0.00000000000E+00 -0.00000000000E+00 -0.74505805969E-08  0.93827000000E+00  0.93827000000E+00 0.  1.
     999902    2    1    2    0    0  0.70779030379E-03  0.75348175812E-02 -0.22795615703E-01  0.10199109547E+01  0.10196280895E+01 0.  0.
     999903    2    3    3    0    0 -0.29333609664E-01  0.93816984464E-01 -0.86879706961E-01  0.13286311561E+00  0.21034181192E-01 0.  0.
         14    1    1    2    0    0 -0.70779030379E-03 -0.75348175812E-02  0.22795615703E-01  0.24019045326E-01  0.00000000000E+00 0.  1.
     999901    1    3    3    0    0  0.30041399967E-01 -0.86282166883E-01  0.64084091258E-01  0.88704783906E+00  0.88000000000E+00 0. -1.
        -11    1    4    4    0    0 -0.49422462132E-02  0.38028577901E-01 -0.44122242973E-01  0.58460516426E-01  0.51100000000E-03 0.  1.
         11    1    4    4    0    0 -0.24391363450E-01  0.55788406563E-01 -0.42757463987E-01  0.74402599185E-01  0.51100000000E-03 0. -1.
</event>
<event>
 8    1  0.1207611E+005  0.1043930E+01  0.7957747E-01            NaN
         13   -1    0    0    0    0  0.00000000000E+00  0.00000000000E+00  0.74505805969E-08  0.10566000000E+00  0.10566000000E+00 0.  1.
     999900   -1    0    0    0    0 -0.00000000000E+00 -0.00000000000E+00 -0.74505805969E-08  0.93827000000E+00  0.93827000000E+00 0. -1.
     999902    2    1    2    0    0  0.30266355077E-02 -0.24118371402E-01  0.52417723285E-02  0.10190637068E+01  0.10187602789E+01 0.  0.
     999903    2    3    3    0    0 -0.10853019776E+00 -0.37998431198E-01 -0.56638493645E-01  0.12975681350E+00  0.20155075994E-01 0.  0.
         14    1    1    2    0    0 -0.30266355077E-02  0.24118371402E-01 -0.52417723285E-02  0.24866293225E-01  0.00000000000E+00 0.  1.
     999901    1    3    3    0    0  0.11155683327E+00  0.13880059796E-01  0.61880265973E-01  0.88930689327E+00  0.88000000000E+00 0. -1.
        -11    1    4    4    0    0 -0.75994740250E-01 -0.31563799282E-01 -0.48804996185E-01  0.95674775905E-01  0.51100000000E-03 0. -1.
         11    1    4    4    0    0 -0.32535457510E-01 -0.64346319158E-02 -0.78334974593E-02  0.34082037596E-01  0.51100000000E-03 0.  1.
</event>
<event>
 8    1  0.1207611E+005  0.1043930E+01  0.7957747E-01            NaN
         13   -1    0    0    0    0  0.00000000000E+00  0.00000000000E+00  0.74505805969E-08  0.10566000000E+00  0.10566000000E+00 0.  1.
     999900   -1    0    0    0    0 -0.00000000000E+00 -0.00000000000E+00 -0.74505805969E-08  0.93827000000E+00  0.93827000000E+00 0. -1.
     999902    2    1    2    0    0  0.14456605300E-01 -0.15818912466E-02  0.19613827419E-01  0.10195128330E+01  0.10192203975E+01 0.  0.
     999903    2    3    3    0    0 -0.78021852743E-01  0.98198186147E-01  0.16604176686E-01  0.12905374523E+00  0.25473068273E-01 0.  0.
         14    1    1    2    0    0 -0.14456605300E-01  0.15818912466E-02 -0.19613827419E-01  0.24417166968E-01  0.00000000000E+00 0. -1.
     999901    1    3    3    0    0  0.92478458043E-01 -0.99780077394E-01  0.30096507328E-02  0.89045908780E+00  0.88000000000E+00 0.  1.
        -11    1    4    4    0    0 -0.44210226853E-01  0.74695148805E-01  0.11097830556E-01  0.87506184795E-01  0.51100000000E-03 0. -1.
         11    1    4    4    0    0 -0.33811625890E-01  0.23503037342E-01  0.55063461302E-02  0.41547560438E-01  0.51100000000E-03 0.  1.
</event>
<event>
 8    1  0.1207611E+005  0.1043930E+01  0.7957747E-01            NaN
         13   -1    0    0    0    0  0.00000000000E+00  0.00000000000E+00  0.74505805969E-08  0.10566000000E+00  0.10566000000E+00 0. -1.
     999900   -1    0    0    0    0 -0.00000000000E+00 -0.00000000000E+00 -0.74505805969E-08  0.93827000000E+00  0.93827000000E+00 0. -1.
     999902    2    1    2    0    0 -0.15344974925E-01 -0.17693142473E-01 -0.31811317688E-02  0.10202945363E+01  0.10200207378E+01 0.  0.
     999903    2    3    3    0    0 -0.34863648056E-01  0.84401354411E-01  0.89146696551E-01  0.12938001020E+00  0.21283584075E-01 0.  0.
         14    1    1    2    0    0  0.15344974925E-01  0.17693142473E-01  0.31811317688E-02  0.23635463722E-01  0.00000000000E+00 0.  1.
     999901    1    3    3    0    0  0.19518673131E-01 -0.10209449688E+00 -0.92327828320E-01  0.89091452608E+00  0.88000000000E+00 0. -1.
        -11    1    4    4    0    0 -0.18992461718E-01  0.55795097795E-01  0.43667511116E-01  0.73354748913E-01  0.51100000000E-03 0. -1.
         11    1    4    4    0    0 -0.15871186338E-01  0.28606256616E-01  0.45479185435E-01  0.56025261286E-01  0.51100000000E-03 0.  1.
</event>
<event>
 8    1  0.1207611E+005  0.1043930E+01  0.7957747E-01            NaN
         13   -1    0    0    0    0  0.00000000000E+00  0.00000000000E+00  0.74505805969E-08  0.10566000000E+00  0.10566000000E+00 0. -1.
     999900   -1    0    0    0    0 -0.00000000000E+00 -0.00000000000E+00 -0.74505805969E-08  0.93827000000E+00  0.93827000000E+00 0. -1.
     999902    2    1    2    0    0  0.48854998064E-02 -0.19421658289E-01  0.12524696282E-01  0.10203093113E+01  0.10200358590E+01 0.  0.
     999903    2    3    3    0    0 -0.10442817866E-01 -0.63729936348E-01  0.11469250160E+00  0.13315856801E+00  0.20156316093E-01 0.  0.
         14    1    1    2    0    0 -0.48854998064E-02  0.19421658289E-01 -0.12524696282E-01  0.23620688728E-01  0.00000000000E+00 0.  1.
     999901    1    3    3    0    0  0.15328317672E-01  0.44308278059E-01 -0.10216780532E+00  0.88715074326E+00  0.88000000000E+00 0. -1.
        -11    1    4    4    0    0 -0.14768261795E-01 -0.32203055105E-01  0.53216293162E-01  0.63932568331E-01  0.51100000000E-03 0. -1.
         11    1    4    4    0    0  0.43254439298E-02 -0.31526881242E-01  0.61476208441E-01  0.69225999678E-01  0.51100000000E-03 0.  1.
</event>
<event>
 8    1  0.1207611E+005  0.1043930E+01  0.7957747E-01            NaN
         13   -1    0    0    0    0  0.00000000000E+00  0.00000000000E+00  0.74505805969E-08  0.10566000000E+00  0.10566000000E+00 0. -1.
     999900   -1    0    0    0    0 -0.00000000000E+00 -0.00000000000E+00 -0.74505805969E-08  0.93827000000E+00  0.93827000000E+00 0.  1.
     999902    2    1    2    0    0 -0.12806002325E-02  0.15111332931E-01  0.17041853651E-01  0.10211173479E+01  0.10208624888E+01 0.  0.
     999903    2    3    3    0    0  0.36356773785E-01 -0.10041842825E+00  0.72643608380E-01  0.13103013152E+00  0.22048260598E-01 0.  0.
         14    1    1    2    0    0  0.12806002325E-02 -0.15111332931E-01 -0.17041853651E-01  0.22812652099E-01  0.00000000000E+00 0.  1.
     999901    1    3    3    0    0 -0.37637374018E-01  0.11552976118E+00 -0.55601754730E-01  0.89008721638E+00  0.88000000000E+00 0.  1.
        -11    1    4    4    0    0  0.27716772195E-01 -0.75842971908E-01  0.65603768469E-01  0.10404081606E+00  0.51100000000E-03 0.  1.
         11    1    4    4    0    0  0.86400015902E-02 -0.24575456338E-01  0.70398399115E-02  0.26989315454E-01  0.51100000000E-03 0. -1.
</event>
<event>
 8    1  0.1207611E+005  0.1043930E+01  0.7957747E-01            NaN
         13   -1    0    0    0    0  0.00000000000E+00  0.00000000000E+00  0.74505805969E-08  0.10566000000E+00  0.10566000000E+00 0. -1.
     999900   -1    0    0    0    0 -0.00000000000E+00 -0.00000000000E+00 -0.74505805969E-08  0.93827000000E+00  0.93827000000E+00 0.  1.
     999902    2    1    2    0    0 -0.98409028061E-02 -0.13185501199E-01 -0.17914828508E-01  0.10196063101E+01  0.10193161363E+01 0.  0.
     999903    2    3    3    0    0 -0.64607964082E-01  0.79711020872E-01  0.74718222008E-01  0.12819726995E+00  0.17991427154E-01 0.  0.
         14    1    1    2    0    0  0.98409028061E-02  0.13185501199E-01  0.17914828508E-01  0.24323689901E-01  0.00000000000E+00 0. -1.
     999901    1    3    3    0    0  0.54767061276E-01 -0.92896522071E-01 -0.92633050516E-01  0.89140904015E+00  0.88000000000E+00 0. -1.
        -11    1    4    4    0    0 -0.44919878769E-02  0.73441146035E-02  0.13273308301E-01  0.15828954755E-01  0.51100000000E-03 0.  1.
         11    1    4    4    0    0 -0.60115976206E-01  0.72366906269E-01  0.61444913707E-01  0.11236831519E+00  0.51100000000E-03 0. -1.
</event>
<event>
 8    1  0.1207611E+005  0.1043930E+01  0.7957747E-01            NaN
         13   -1    0    0    0    0  0.00000000000E+00  0.00000000000E+00  0.74505805969E-08  0.10566000000E+00  0.10566000000E+00 0. -1.
     999900   -1    0    0    0    0 -0.00000000000E+00 -0.00000000000E+00 -0.74505805969E-08  0.93827000000E+00  0.93827000000E+00 0. -1.
     999902    2    1    2    0    0  0.75708738538E-02  0.89830587794E-02 -0.20340059978E-01  0.10204410342E+01  0.10201706586E+01 0.  0.
     999903    2    3    3    0    0 -0.85263919311E-01  0.89950397554E-01 -0.40791324313E-01  0.13162594486E+00  0.17333414675E-01 0.  0.
         14    1    1    2    0    0 -0.75708738538E-02 -0.89830587794E-02  0.20340059978E-01  0.23488965832E-01  0.00000000000E+00 0. -1.
     999901    1    3    3    0    0  0.92834793165E-01 -0.80967338775E-01  0.20451264335E-01  0.88881508931E+00  0.88000000000E+00 0.  1.
        -11    1    4    4    0    0 -0.66634307606E-01  0.62812554788E-01 -0.35826176099E-01  0.98332720922E-01  0.51100000000E-03 0.  1.
         11    1    4    4    0    0 -0.18629611705E-01  0.27137842766E-01 -0.49651482136E-02  0.33293223937E-01  0.51100000000E-03 0. -1.
</event>
<event>
 8    1  0.1207611E+005  0.1043930E+01  0.7957747E-01            NaN
         13   -1    0    0    0    0  0.00000000000E+00  0.00000000000E+00  0.74505805969E-08  0.10566000000E+00  0.10566000000E+00 0. -1.
     999900   -1    0    0    0    0 -0.00000000000E+00 -0.00000000000E+00 -0.74505805969E-08  0.93827000000E+00  0.93827000000E+00 0. -1.
     999902    2    1    2    0    0  0.15173969750E-01 -0.15352965798E-01 -0.10407288146E-01  0.10199659736E+01  0.10196844182E+01 0.  0.
     999903    2    3    3    0    0  0.20507085475E-01 -0.34640763598E-01 -0.12443817110E+00  0.13238301770E+00  0.20491019740E-01 0.  0.
         14    1    1    2    0    0 -0.15173969750E-01  0.15352965798E-01  0.10407288146E-01  0.23964026442E-01  0.00000000000E+00 0. -1.
     999901    1    3    3    0    0 -0.53331157245E-02  0.19287797800E-01  0.11403088296E+00  0.88758295586E+00  0.88000000000E+00 0.  1.
        -11    1    4    4    0    0  0.15833200610E-01 -0.12532177720E-01 -0.37958713097E-01  0.42998496961E-01  0.51100000000E-03 0.  1.
         11    1    4    4    0    0  0.46738848649E-02 -0.22108585878E-01 -0.86479458005E-01  0.89384520736E-01  0.51100000000E-03 0. -1.
</event>
<event>
 8    1  0.1207611E+005  0.1043930E+01  0.7957747E-01            NaN
         13   -1    0    0    0    0  0.00000000000E+00  0.00000000000E+00  0.74505805969E-08  0.10566000000E+00  0.10566000000E+00 0. -1.
     999900   -1    0    0    0    0 -0.00000000000E+00 -0.00000000000E+00 -0.74505805969E-08  0.93827000000E+00  0.93827000000E+00 0. -1.
     999902    2    1    2    0    0  0.82800537997E-03 -0.15209629619E-01  0.19074734832E-01  0.10195196756E+01  0.10192274060E+01 0.  0.
     999903    2    3    3    0    0 -0.10983226863E+00 -0.48340844947E-01  0.49891252038E-01  0.13143576553E+00  0.19653470662E-01 0.  0.
         14    1    1    2    0    0 -0.82800537997E-03  0.15209629619E-01 -0.19074734832E-01  0.24410324352E-01  0.00000000000E+00 0.  1.
     999901    1    3    3    0    0  0.11066027401E+00  0.33131215327E-01 -0.30816517206E-01  0.88808391012E+00  0.88000000000E+00 0.  1.
        -11    1    4    4    0    0 -0.65610026458E-01 -0.29967652887E-01  0.19516693380E-01  0.74725485833E-01  0.51100000000E-03 0.  1.
         11    1    4    4    0    0 -0.44222242170E-01 -0.18373192059E-01  0.30374558658E-01  0.56710279700E-01  0.51100000000E-03 0. -1.
</event>
<event>
 8    1  0.1207611E+005  0.1043930E+01  0.7957747E-01            NaN
         13   -1    0    0    0    0  0.00000000000E+00  0.00000000000E+00  0.74505805969E-08  0.10566000000E+00  0.10566000000E+00 0.  1.
     999900   -1    0    0    0    0 -0.00000000000E+00 -0.00000000000E+00 -0.74505805969E-08  0.93827000000E+00  0.93827000000E+00 0.  1.
     999902    2    1    2    0    0 -0.18982447700E-01 -0.77195640407E-02 -0.10629334766E-01  0.10208452053E+01  0.10205841589E+01 0.  0.
     999903    2    3    3    0    0 -0.71886939006E-01 -0.42994261465E-01  0.99627868073E-01  0.13168839107E+00  0.19997042966E-01 0.  0.
         14    1    1    2    0    0  0.18982447700E-01  0.77195640407E-02  0.10629334766E-01  0.23084794719E-01  0.00000000000E+00 0.  1.
     999901    1    3    3    0    0  0.52904491306E-01  0.35274697425E-01 -0.11025720284E+00  0.88915681421E+00  0.88000000000E+00 0.  1.
        -11    1    4    4    0    0 -0.27477794834E-01 -0.13876162455E-01  0.51594242163E-01  0.60081644774E-01  0.51100000000E-03 0. -1.
         11    1    4    4    0    0 -0.44409144172E-01 -0.29118099011E-01  0.48033625910E-01  0.71606746297E-01  0.51100000000E-03 0.  1.
</event>
<event>
 8    1  0.1207611E+005  0.1043930E+01  0.7957747E-01            NaN
         13   -1    0    0    0    0  0.00000000000E+00  0.00000000000E+00  0.74505805969E-08  0.10566000000E+00  0.10566000000E+00 0. -1.
     999900   -1    0    0    0    0 -0.00000000000E+00 -0.00000000000E+00 -0.74505805969E-08  0.93827000000E+00  0.93827000000E+00 0.  1.
     999902    2    1    2    0    0 -0.11290707818E-01  0.24612628753E-03 -0.23964508320E-01  0.10174377687E+01  0.10170928054E+01 0.  0.
     999903    2    3    3    0    0 -0.32649342662E-02 -0.40774469720E-01 -0.12271329213E+00  0.13092864598E+00  0.20261813688E-01 0.  0.
         14    1    1    2    0    0  0.11290707818E-01 -0.24612628753E-03  0.23964508320E-01  0.26492231318E-01  0.00000000000E+00 0. -1.
     999901    1    3    3    0    0 -0.80257735523E-02  0.41020596007E-01  0.98748783814E-01  0.88650912271E+00  0.88000000000E+00 0. -1.
        -11    1    4    4    0    0  0.49470673158E-02 -0.34836852861E-01 -0.10117193168E+00  0.10711722865E+00  0.51100000000E-03 0. -1.
         11    1    4    4    0    0 -0.82120015820E-02 -0.59376168585E-02 -0.21541360451E-01  0.23811417325E-01  0.51100000000E-03 0.  1.
</event>
<event>
 8    1  0.1207611E+005  0.1043930E+01  0.7957747E-01            NaN
         13   -1    0    0    0    0  0.00000000000E+00  0.00000000000E+00  0.74505805969E-08  0.10566000000E+00  0.10566000000E+00 0.  1.
     999900   -1    0    0    0    0 -0.00000000000E+00 -0.00000000000E+00 -0.74505805969E-08  0.93827000000E+00  0.93827000000E+00 0. -1.
     999902    2    1    2    0    0  0.12037742420E-01  0.17094131276E-01 -0.12043779166E-01  0.10198018177E+01  0.10195163452E+01 0.  0.
     999903    2    3    3    0    0  0.81306684386E-01  0.87625841893E-01 -0.51138583894E-01  0.13340387526E+00  0.29872630934E-01 0.  0.
         14    1    1    2    0    0 -0.12037742420E-01 -0.17094131276E-01  0.12043779166E-01  0.24128182345E-01  0.00000000000E+00 0.  1.
     999901    1    3    3    0    0 -0.69268941965E-01 -0.70531710616E-01  0.39094804728E-01  0.88639794239E+00  0.88000000000E+00 0.  1.
        -11    1    4    4    0    0  0.47653804983E-01  0.38772645032E-01 -0.12760871771E-01  0.62747941014E-01  0.51100000000E-03 0. -1.
         11    1    4    4    0    0  0.33652879403E-01  0.48853196861E-01 -0.38377712123E-01  0.70655934248E-01  0.51100000000E-03 0.  1.
</event>
<event>
 8    1  0.1207611E+005  0.1043930E+01  0.7957747E-01            NaN
         13   -1    0    0    0    0  0.00000000000E+00  0.00000000000E+00  0.74505805969E-08  0.10566000000E+00  0.10566000000E+00 0. -1.
     999900   -1    0    0    0    0 -0.00000000000E+00 -0.00000000000E+00 -0.74505805969E-08  0.93827000000E+00  0.93827000000E+00 0. -1.
     999902    2    1    2    0    0 -0.96778431165E-02  0.20630647315E-01  0.54369408492E-02  0.10205025678E+01  0.10202336233E+01 0.  0.
     999903    2    3    3    0    0 -0.66034061364E-01 -0.10898115724E+00 -0.32940993949E-02  0.12918249377E+00  0.20973214163E-01 0.  0.
         14    1    1    2    0    0  0.96778431165E-02 -0.20630647315E-01 -0.54369408492E-02  0.23427432249E-01  0.00000000000E+00 0.  1.
     999901    1    3    3    0    0  0.56356218248E-01  0.12961180456E+00  0.87310402441E-02  0.89132007398E+00  0.88000000000E+00 0.  1.
        -11    1    4    4    0    0 -0.39654196349E-01 -0.52965944147E-01  0.65342259014E-02  0.66489125100E-01  0.51100000000E-03 0.  1.
         11    1    4    4    0    0 -0.26379865015E-01 -0.56015213094E-01 -0.98283252963E-02  0.62693368670E-01  0.51100000000E-03 0. -1.
</event>
<event>
 8    1  0.1207611E+005  0.1043930E+01  0.7957747E-01            NaN
         13   -1    0    0    0    0  0.00000000000E+00  0.00000000000E+00  0.74505805969E-08  0.10566000000E+00  0.10566000000E+00 0. -1.
     999900   -1    0    0    0    0 -0.00000000000E+00 -0.00000000000E+00 -0.74505805969E-08  0.93827000000E+00  0.93827000000E+00 0.  1.
     999902    2    1    2    0    0  0.16488836131E-01  0.13010439411E-01  0.11312622821E-01  0.10200735819E+01  0.10197945792E+01 0.  0.
     999903    2    3    3    0    0 -0.32267761010E-01  0.11534220797E+00 -0.48518199534E-01  0.13078806871E+00  0.20161098454E-01 0.  0.
         14    1    1    2    0    0 -0.16488836131E-01 -0.13010439411E-01 -0.11312622821E-01  0.23856418124E-01  0.00000000000E+00 0.  1.
     999901    1    3    3    0    0  0.48756597141E-01 -0.10233176856E+00  0.59830822354E-01  0.88928551317E+00  0.88000000000E+00 0. -1.
        -11    1    4    4    0    0 -0.37280943054E-02  0.39393622160E-01 -0.22814784845E-01  0.45678569182E-01  0.51100000000E-03 0.  1.
         11    1    4    4    0    0 -0.28539666704E-01  0.75948585812E-01 -0.25703414689E-01  0.85109499529E-01  0.51100000000E-03 0. -1.
</event>
<event>
 8    1  0.1207611E+005  0.1043930E+01  0.7957747E-01            NaN
         13   -1    0    0    0    0  0.00000000000E+00  0.00000000000E+00  0.74505805969E-08  0.10566000000E+00  0.10566000000E+00 0. -1.
     999900   -1    0    0    0    0 -0.00000000000E+00 -0.00000000000E+00 -0.74505805969E-08  0.93827000000E+00  0.93827000000E+00 0. -1.
     999902    2    1    2    0    0 -0.18499884439E-01 -0.32355544071E-02 -0.13210090534E-01  0.10209687059E+01  0.10207104767E+01 0.  0.
     999903    2    3    3    0    0 -0.90084214950E-01 -0.24786249355E-01  0.90815413173E-01  0.13169368977E+00  0.19138043646E-01 0.  0.
         14    1    1    2    0    0  0.18499884439E-01  0.32355544071E-02  0.13210090534E-01  0.22961294138E-01  0.00000000000E+00 0. -1.
     999901    1    3    3    0    0  0.71584330512E-01  0.21550694948E-01 -0.10402550371E+00  0.88927501609E+00  0.88000000000E+00 0. -1.
        -11    1    4    4    0    0 -0.33220060586E-01 -0.18678297201E-01  0.33969695779E-01  0.51055387218E-01  0.51100000000E-03 0. -1.
         11    1    4    4    0    0 -0.56864154365E-01 -0.61079521542E-02  0.56845717394E-01  0.80638302550E-01  0.51100000000E-03 0.  1.
</event>
<event>
 8    1  0.1207611E+005  0.1043930E+01  0.7957747E-01            NaN
         13   -1    0    0    0    0  0.00000000000E+00  0.00000000000E+00  0.74505805969E-08  0.10566000000E+00  0.10566000000E+00 0. -1.
     999900   -1    0    0    0    0 -0.00000000000E+00 -0.00000000000E+00 -0.74505805969E-08  0.93827000000E+00  0.93827000000E+00 0.  1.
     999902    2    1    2    0    0  0.87718542726E-03  0.22950099674E-01  0.38669837922E-02  0.10206398713E+01  0.10203741063E+01 0.  0.
     999903    2    3    3    0    0  0.12158973271E+00  0.28373690268E-01 -0.36054562277E-01  0.13148596776E+00  0.19987467496E-01 0.  0.
         14    1    1    2    0    0 -0.87718542726E-03 -0.22950099674E-01 -0.38669837922E-02  0.23290128659E-01  0.00000000000E+00 0.  1.
     999901    1    3    3    0    0 -0.12071254729E+00 -0.54235905936E-02  0.39921546069E-01  0.88915390358E+00  0.88000000000E+00 0. -1.
        -11    1    4    4    0    0  0.11252249009E+00  0.28887147660E-01 -0.37912004716E-01  0.12220212477E+00  0.51100000000E-03 0.  1.
         11    1    4    4    0    0  0.90672426265E-02 -0.51345739208E-03  0.18574424389E-02  0.92838429950E-02  0.51100000000E-03 0. -1.
</event>
<event>
 8    1  0.1299182E+005  0.1043930E+01  0.7957747E-01            NaN
         13   -1    0    0    0    0  0.00000000000E+00  0.00000000000E+00  0.74505805969E-08  0.10566000000E+00  0.10566000000E+00 0. -1.
     999900   -1    0    0    0    0 -0.00000000000E+00 -0.00000000000E+00 -0.74505805969E-08  0.93827000000E+00  0.93827000000E+00 0.  1.
     999902    2    1    2    0    0 -0.92655219679E-02 -0.20047081484E-01  0.56943209467E-02  0.10211229690E+01  0.10208682369E+01 0.  0.
     999903    2    3    3    0    0 -0.63081669652E-01 -0.58500440279E-01 -0.98640789606E-01  0.13249444487E+00  0.20571193152E-01 0.  0.
         14    1    1    2    0    0  0.92655219679E-02  0.20047081484E-01 -0.56943209467E-02  0.22807031030E-01  0.00000000000E+00 0.  1.
     999901    1    3    3    0    0  0.53816147684E-01  0.38453358795E-01  0.10433511055E+00  0.88862852410E+00  0.88000000000E+00 0. -1.
        -11    1    4    4    0    0 -0.27295484703E-01 -0.12471040882E-01 -0.37070511643E-01  0.47697529289E-01  0.51100000000E-03 0.  1.
         11    1    4    4    0    0 -0.35786184949E-01 -0.46029399398E-01 -0.61570277964E-01  0.84796915579E-01  0.51100000000E-03 0. -1.
</event>
<event>
 8    1  0.1207611E+005  0.1043930E+01  0.7957747E-01            NaN
         13   -1    0    0    0    0  0.00000000000E+00  0.00000000000E+00  0.74505805969E-08  0.10566000000E+00  0.10566000000E+00 0.  1.
     999900   -1    0    0    0    0 -0.00000000000E+00 -0.00000000000E+00 -0.74505805969E-08  0.93827000000E+00  0.93827000000E+00 0. -1.
     999902    2    1    2    0    0  0.13059194112E-01 -0.13389569468E-01 -0.15699983078E-01  0.10195104875E+01  0.10192179951E+01 0.  0.
     999903    2    3    3    0    0 -0.90129408863E-01  0.87826653541E-01 -0.11648626094E-01  0.12770948669E+00  0.18362763561E-01 0.  0.
         14    1    1    2    0    0 -0.13059194112E-01  0.13389569468E-01  0.15699983078E-01  0.24419512485E-01  0.00000000000E+00 0.  1.
     999901    1    3    3    0    0  0.10318860298E+00 -0.10121622301E+00 -0.40513569839E-02  0.89180100083E+00  0.88000000000E+00 0. -1.
        -11    1    4    4    0    0 -0.50216668191E-01  0.58700686245E-01 -0.12686339196E-01  0.78285941605E-01  0.51100000000E-03 0.  1.
         11    1    4    4    0    0 -0.39912740673E-01  0.29125967296E-01  0.10377131017E-02  0.49423545081E-01  0.51100000000E-03 0. -1.
</event>
<event>
 8    1  0.1207611E+005  0.1043930E+01  0.7957747E-01            NaN
         13   -1    0    0    0    0  0.00000000000E+00  0.00000000000E+00  0.74505805969E-08  0.10566000000E+00  0.10566000000E+00 0. -1.
     999900   -1    0    0    0    0 -0.00000000000E+00 -0.00000000000E+00 -0.74505805969E-08  0.93827000000E+00  0.93827000000E+00 0. -1.
     999902    2    1    2    0    0  0.32696955075E-02 -0.18577420013E-01  0.14657436674E-01  0.10200416787E+01  0.10197619205E+01 0.  0.
     999903    2    3    3    0    0 -0.64607236563E-01 -0.82036677547E-01 -0.75898612835E-01  0.13052790516E+00  0.19308628021E-01 0.  0.
         14    1    1    2    0    0 -0.32696955075E-02  0.18577420013E-01 -0.14657436674E-01  0.23888321266E-01  0.00000000000E+00 0.  1.
     999901    1    3    3    0    0  0.67876932070E-01  0.63459257534E-01  0.90556049509E-01  0.88951377357E+00  0.88000000000E+00 0. -1.
        -11    1    4    4    0    0 -0.17552206769E-01 -0.20546898464E-01 -0.98911503788E-02  0.28781087120E-01  0.51100000000E-03 0. -1.
         11    1    4    4    0    0 -0.47055029794E-01 -0.61489779083E-01 -0.66007462457E-01  0.10174681804E+00  0.51100000000E-03 0.  1.
</event>
<event>
 8    1  0.1207611E+005  0.1043930E+01  0.7957747E-01            NaN
         13   -1    0    0    0    0  0.00000000000E+00  0.00000000000E+00  0.74505805969E-08  0.10566000000E+00  0.10566000000E+00 0.  1.
     999900   -1    0    0    0    0 -0.00000000000E+00 -0.00000000000E+00 -0.74505805969E-08  0.93827000000E+00  0.93827000000E+00 0.  1.
     999902    2    1    2    0    0 -0.10511308464E-01 -0.55054846203E-02  0.18586948640E-01  0.10218784099E+01  0.10216404514E+01 0.  0.
     999903    2    3    3    0    0  0.50117429214E-01 -0.35181347004E-01  0.11717235852E+00  0.13380432307E+00  0.20609497410E-01 0.  0.
         14    1    1    2    0    0  0.10511308464E-01  0.55054846203E-02 -0.18586948640E-01  0.22051590108E-01  0.00000000000E+00 0. -1.
     999901    1    3    3    0    0 -0.60628737679E-01  0.29675862383E-01 -0.98585409879E-01  0.88807408682E+00  0.88000000000E+00 0.  1.
        -11    1    4    4    0    0  0.18494658452E-01 -0.22012844908E-01  0.68434285888E-01  0.74230252177E-01  0.51100000000E-03 0. -1.
         11    1    4    4    0    0  0.31622770763E-01 -0.13168502095E-01  0.48738072632E-01  0.59574070895E-01  0.51100000000E-03 0.  1.
</event>
<event>
 8    1  0.1207611E+005  0.1043930E+01  0.7957747E-01            NaN
         13   -1    0    0    0    0  0.00000000000E+00  0.00000000000E+00  0.74505805969E-08  0.10566000000E+00  0.10566000000E+00 0. -1.
     999900   -1    0    0    0    0 -0.00000000000E+00 -0.00000000000E+00 -0.74505805969E-08  0.93827000000E+00  0.93827000000E+00 0. -1.
     999902    2    1    2    0    0 -0.27821368756E-01  0.13281755502E-01  0.14136351520E-01  0.10100143690E+01  0.10094447759E+01 0.  0.
     999903    2    3    3    0    0  0.89172995842E-01  0.56685064178E-01 -0.50508083572E-01  0.11886318572E+00  0.20306913246E-01 0.  0.
         14    1    1    2    0    0  0.27821368756E-01 -0.13281755502E-01 -0.14136351520E-01  0.33915630954E-01  0.00000000000E+00 0.  1.
     999901    1    3    3    0    0 -0.11699436460E+00 -0.43403308675E-01  0.64644435092E-01  0.89115118332E+00  0.88000000000E+00 0. -1.
        -11    1    4    4    0    0  0.65248438343E-01  0.32223089832E-01 -0.28377805495E-01  0.78110480668E-01  0.51100000000E-03 0. -1.
         11    1    4    4    0    0  0.23924557499E-01  0.24461974346E-01 -0.22130278077E-01  0.40752705053E-01  0.51100000000E-03 0.  1.
</event>
<event>
 8    1  0.1207611E+005  0.1043930E+01  0.7957747E-01            NaN
         13   -1    0    0    0    0  0.00000000000E+00  0.00000000000E+00  0.74505805969E-08  0.10566000000E+00  0.10566000000E+00 0.  1.
     999900   -1    0    0    0    0 -0.00000000000E+00 -0.00000000000E+00 -0.74505805969E-08  0.93827000000E+00  0.93827000000E+00 0.  1.
     999902    2    1    2    0    0 -0.10237064653E-01 -0.19072820383E-01  0.76740690687E-02  0.10209634742E+01  0.10207051261E+01 0.  0.
     999903    2    3    3    0    0 -0.83643994532E-01  0.22885153252E-01 -0.95891710427E-01  0.13086521022E+00  0.20259196834E-01 0.  0.
         14    1    1    2    0    0  0.10237064653E-01  0.19072820383E-01 -0.76740690687E-02  0.22966525774E-01  0.00000000000E+00 0. -1.
     999901    1    3    3    0    0  0.73406929879E-01 -0.41957973635E-01  0.10356577950E+00  0.89009826401E+00  0.88000000000E+00 0. -1.
        -11    1    4    4    0    0 -0.21196844924E-01  0.22587309973E-02 -0.36383652401E-01  0.42171547084E-01  0.51100000000E-03 0.  1.
         11    1    4    4    0    0 -0.62447149608E-01  0.20626422254E-01 -0.59508058026E-01  0.88693663134E-01  0.51100000000E-03 0. -1.
</event>
<event>
 8    1  0.1207611E+005  0.1043930E+01  0.7957747E-01            NaN
         13   -1    0    0    0    0  0.00000000000E+00  0.00000000000E+00  0.74505805969E-08  0.10566000000E+00  0.10566000000E+00 0. -1.
     999900   -1    0    0    0    0 -0.00000000000E+00 -0.00000000000E+00 -0.74505805969E-08  0.93827000000E+00  0.93827000000E+00 0.  1.
     999902    2    1    2    0    0  0.17403540779E-01  0.31630862900E-02 -0.16052011672E-01  0.10200436980E+01  0.10197639876E+01 0.  0.
     999903    2    3    3    0    0 -0.41264766146E-01  0.12063658230E+00 -0.15517254922E-01  0.13030088205E+00  0.21944674719E-01 0.  0.
         14    1    1    2    0    0 -0.17403540779E-01 -0.31630862900E-02  0.16052011672E-01  0.23886302042E-01  0.00000000000E+00 0. -1.
     999901    1    3    3    0    0  0.58668306925E-01 -0.11747349601E+00 -0.53475674954E-03  0.88974281591E+00  0.88000000000E+00 0.  1.
        -11    1    4    4    0    0 -0.19207640948E-01  0.54472196628E-01  0.39274619334E-02  0.57895075390E-01  0.51100000000E-03 0.  1.
         11    1    4    4    0    0 -0.22057125199E-01  0.66164385669E-01 -0.19444716855E-01  0.72405806656E-01  0.51100000000E-03 0. -1.
</event>
<event>
 8    1  0.1207611E+005  0.1043930E+01  0.7957747E-01            NaN
         13   -1    0    0    0    0  0.00000000000E+00  0.00000000000E+00  0.74505805969E-08  0.10566000000E+00  0.10566000000E+00 0. -1.
     999900   -1    0    0    0    0 -0.00000000000E+00 -0.00000000000E+00 -0.74505805969E-08  0.93827000000E+00  0.93827000000E+00 0. -1.
     999902    2    1    2    0    0  0.49214476556E-02  0.99092412459E-02  0.20563315956E-01  0.10205791184E+01  0.10203119490E+01 0.  0.
     999903    2    3    3    0    0  0.35969871987E-01  0.96276991959E-01 -0.77687640439E-01  0.13036754609E+00  0.19930798403E-01 0.  0.
         14    1    1    2    0    0 -0.49214476556E-02 -0.99092412459E-02 -0.20563315956E-01  0.23350881615E-01  0.00000000000E+00 0.  1.
     999901    1    3    3    0    0 -0.31048424331E-01 -0.86367750713E-01  0.98250956395E-01  0.89021157230E+00  0.88000000000E+00 0. -1.
        -11    1    4    4    0    0 -0.41325613226E-03  0.16455609301E-01 -0.78741616905E-02  0.18254352945E-01  0.51100000000E-03 0.  1.
         11    1    4    4    0    0  0.36383128119E-01  0.79821382658E-01 -0.69813478749E-01  0.11211319314E+00  0.51100000000E-03 0. -1.
</event>
<event>
 8    1  0.1207611E+005  0.1043930E+01  0.7957747E-01            NaN
         13   -1    0    0    0    0  0.00000000000E+00  0.00000000000E+00  0.74505805969E-08  0.10566000000E+00  0.10566000000E+00 0.  1.
     999900   -1    0    0    0    0 -0.00000000000E+00 -0.00000000000E+00 -0.74505805969E-08  0.93827000000E+00  0.93827000000E+00 0. -1.
     999902    2    1    2    0    0 -0.77255974806E-02  0.20451193091E-01 -0.94429558012E-02  0.10201160216E+01  0.10198380224E+01 0.  0.
     999903    2    3    3    0    0 -0.10695935993E+00  0.70164615897E-01 -0.13775273018E-01  0.13313375961E+00  0.34226624153E-01 0.  0.
         14    1    1    2    0    0  0.77255974806E-02 -0.20451193091E-01  0.94429558012E-02  0.23813978449E-01  0.00000000000E+00 0.  1.
     999901    1    3    3    0    0  0.99233762454E-01 -0.49713422805E-01  0.43323172165E-02  0.88698226194E+00  0.88000000000E+00 0. -1.
        -11    1    4    4    0    0 -0.78023434234E-01  0.56025598949E-01  0.43871218651E-02  0.96156289376E-01  0.51100000000E-03 0.  1.
         11    1    4    4    0    0 -0.28935925700E-01  0.14139016948E-01 -0.18162394883E-01  0.36977470239E-01  0.51100000000E-03 0. -1.
</event>
<event>
 8    1  0.1207611E+005  0.1043930E+01  0.7957747E-01            NaN
         13   -1    0    0    0    0  0.00000000000E+00  0.00000000000E+00  0.74505805969E-08  0.10566000000E+00  0.10566000000E+00 0. -1.
     999900   -1    0    0    0    0 -0.00000000000E+00 -0.00000000000E+00 -0.74505805969E-08  0.93827000000E+00  0.93827000000E+00 0. -1.
     999902    2    1    2    0    0  0.17878416628E-01  0.13004780969E-01 -0.20456199780E-01  0.10138099366E+01  0.10133624077E+01 0.  0.
     999903    2    3    3    0    0 -0.99073916852E-01  0.46427443429E-01  0.51404241748E-01  0.12254182559E+00  0.20073725228E-01 0.  0.
         14    1    1    2    0    0 -0.17878416628E-01 -0.13004780969E-01  0.20456199780E-01  0.30120063390E-01  0.00000000000E+00 0. -1.
     999901    1    3    3    0    0  0.11695233348E+00 -0.33422662460E-01 -0.71860441529E-01  0.89126811102E+00  0.88000000000E+00 0.  1.
        -11    1    4    4    0    0 -0.45311978678E-01  0.10995109930E-01  0.17810041031E-01  0.49915193445E-01  0.51100000000E-03 0. -1.
         11    1    4    4    0    0 -0.53761938174E-01  0.35432333498E-01  0.33594200717E-01  0.72626632141E-01  0.51100000000E-03 0.  1.
</event>
<event>
 8    1  0.1207611E+005  0.1043930E+01  0.7957747E-01            NaN
         13   -1    0    0    0    0  0.00000000000E+00  0.00000000000E+00  0.74505805969E-08  0.10566000000E+00  0.10566000000E+00 0. -1.
     999900   -1    0    0    0    0 -0.00000000000E+00 -0.00000000000E+00 -0.74505805969E-08  0.93827000000E+00  0.93827000000E+00 0.  1.
     999902    2    1    2    0    0  0.89810327479E-02  0.12845227700E-01 -0.17419538617E-01  0.10204971353E+01  0.10202280647E+01 0.  0.
     999903    2    3    3    0    0 -0.56989990876E-01 -0.10598710251E+00  0.39943534580E-01  0.12821701063E+00  0.19052320101E-01 0.  0.
         14    1    1    2    0    0 -0.89810327479E-02 -0.12845227700E-01  0.17419538617E-01  0.23432864731E-01  0.00000000000E+00 0. -1.
     999901    1    3    3    0    0  0.65971023624E-01  0.11883233021E+00 -0.57363073196E-01  0.89228012464E+00  0.88000000000E+00 0.  1.
        -11    1    4    4    0    0 -0.27961922958E-01 -0.70568231359E-01  0.27785728871E-01  0.80833484786E-01  0.51100000000E-03 0.  1.
         11    1    4    4    0    0 -0.29028067918E-01 -0.35418871152E-01  0.12157805708E-01  0.47383525843E-01  0.51100000000E-03 0. -1.
</event>
<event>
 8    1  0.1207611E+005  0.1043930E+01  0.7957747E-01            NaN
         13   -1    0    0    0    0  0.00000000000E+00  0.00000000000E+00  0.74505805969E-08  0.10566000000E+00  0.10566000000E+00 0. -1.
     999900   -1    0    0    0    0 -0.00000000000E+00 -0.00000000000E+00 -0.74505805969E-08  0.93827000000E+00  0.93827000000E+00 0. -1.
     999902    2    1    2    0    0 -0.19170881632E-01  0.26204294229E-02  0.18186284563E-01  0.10173757103E+01  0.10170291076E+01 0.  0.
     999903    2    3    3    0    0  0.50475883074E-01 -0.95733424670E-01 -0.60517733330E-01  0.12568155040E+00  0.20512257117E-01 0.  0.
         14    1    1    2    0    0  0.19170881632E-01 -0.26204294229E-02 -0.18186284563E-01  0.26554289656E-01  0.00000000000E+00 0. -1.
     999901    1    3    3    0    0 -0.69646764706E-01  0.98353854093E-01  0.78704017893E-01  0.89169415995E+00  0.88000000000E+00 0.  1.
        -11    1    4    4    0    0  0.35035198380E-01 -0.53577252733E-01 -0.26205153573E-01  0.69173393229E-01  0.51100000000E-03 0. -1.
         11    1    4    4    0    0  0.15440684694E-01 -0.42156171937E-01 -0.34312579757E-01  0.56508157170E-01  0.51100000000E-03 0.  1.
</event>
<event>
 8    1  0.1207611E+005  0.1043930E+01  0.7957747E-01            NaN
         13   -1    0    0    0    0  0.00000000000E+00  0.00000000000E+00  0.74505805969E-08  0.10566000000E+00  0.10566000000E+00 0.  1.
     999900   -1    0    0    0    0 -0.00000000000E+00 -0.00000000000E+00 -0.74505805969E-08  0.93827000000E+00  0.93827000000E+00 0. -1.
     999902    2    1    2    0    0  0.87647224896E-02  0.19821731458E-01  0.10985707619E-01  0.10196317044E+01  0.10193421434E+01 0.  0.
     999903    2    3    3    0    0  0.10353002169E+00  0.54834662614E-02  0.78991019705E-01  0.13181935357E+00  0.19703476496E-01 0.  0.
         14    1    1    2    0    0 -0.87647224896E-02 -0.19821731458E-01 -0.10985707619E-01  0.24298295623E-01  0.00000000000E+00 0. -1.
     999901    1    3    3    0    0 -0.94765299204E-01  0.14338265196E-01 -0.68005312086E-01  0.88781235081E+00  0.88000000000E+00 0. -1.
        -11    1    4    4    0    0  0.49981653655E-01  0.12226059402E-01  0.41414767432E-01  0.66053662375E-01  0.51100000000E-03 0.  1.
         11    1    4    4    0    0  0.53548368038E-01 -0.67425931410E-02  0.37576252273E-01  0.65765691190E-01  0.51100000000E-03 0. -1.
</event>
<event>
 8    1  0.1207611E+005  0.1043930E+01  0.7957747E-01            NaN
         13   -1    0    0    0    0  0.00000000000E+00  0.00000000000E+00  0.74505805969E-08  0.10566000000E+00  0.10566000000E+00 0.  1.
     999900   -1    0    0    0    0 -0.00000000000E+00 -0.00000000000E+00 -0.74505805969E-08  0.93827000000E+00  0.93827000000E+00 0. -1.
     999902    2    1    2    0    0 -0.22500473354E-02  0.22934096658E-01 -0.61444071085E-02  0.10200806973E+01  0.10198018630E+01 0.  0.
     999903    2    3    3    0    0 -0.80025554170E-01 -0.26582548447E-01 -0.98237073692E-01  0.13048416689E+00  0.16274948824E-01 0.  0.
         14    1    1    2    0    0  0.22500473354E-02 -0.22934096658E-01  0.61444071085E-02  0.23849302742E-01  0.00000000000E+00 0.  1.
     999901    1    3    3    0    0  0.77775506835E-01  0.49516645105E-01  0.92092666583E-01  0.88959653037E+00  0.88000000000E+00 0.  1.
        -11    1    4    4    0    0 -0.40461683216E-01 -0.93645675360E-02 -0.37359320645E-01  0.55864325771E-01  0.51100000000E-03 0.  1.
         11    1    4    4    0    0 -0.39563870954E-01 -0.17217980911E-01 -0.60877753047E-01  0.74619841118E-01  0.51100000000E-03 0. -1.
</event>
<event>
 8    1  0.1207611E+005  0.1043930E+01  0.7957747E-01            NaN
         13   -1    0    0    0    0  0.00000000000E+00  0.00000000000E+00  0.74505805969E-08  0.10566000000E+00  0.10566000000E+00 0.  1.
     999900   -1    0    0    0    0 -0.00000000000E+00 -0.00000000000E+00 -0.74505805969E-08  0.93827000000E+00  0.93827000000E+00 0.  1.
     999902    2    1    2    0    0 -0.15463454563E-01  0.11070521573E-02  0.17132740915E-01  0.10208242690E+01  0.10205627435E+01 0.  0.
     999903    2    3    3    0    0  0.77353601168E-01 -0.97111979153E-01  0.34180167480E-01  0.13034540984E+00  0.20182316735E-01 0.  0.
         14    1    1    2    0    0  0.15463454563E-01 -0.11070521573E-02 -0.17132740915E-01  0.23105730951E-01  0.00000000000E+00 0. -1.
     999901    1    3    3    0    0 -0.92817055731E-01  0.98219031310E-01 -0.17047426565E-01  0.89047885921E+00  0.88000000000E+00 0. -1.
        -11    1    4    4    0    0  0.58221836444E-01 -0.72595242151E-01  0.16320344090E-01  0.94479977636E-01  0.51100000000E-03 0.  1.
         11    1    4    4    0    0  0.19131764724E-01 -0.24516737002E-01  0.17859823390E-01  0.35865432204E-01  0.51100000000E-03 0. -1.
</event>
<event>
 8    1  0.1207611E+005  0.1043930E+01  0.7957747E-01            NaN
         13   -1    0    0    0    0  0.00000000000E+00  0.00000000000E+00  0.74505805969E-08  0.10566000000E+00  0.10566000000E+00 0. -1.
     999900   -1    0    0    0    0 -0.00000000000E+00 -0.00000000000E+00 -0.74505805969E-08  0.93827000000E+00  0.93827000000E+00 0.  1.
     999902    2    1    2    0    0  0.45566974410E-02  0.15567402181E-01 -0.19462637875E-01  0.10185942195E+01  0.10182790787E+01 0.  0.
     999903    2    3    3    0    0 -0.47159205643E-02 -0.87872157270E-01 -0.92839133978E-01  0.12945427880E+00  0.19888428090E-01 0.  0.
         14    1    1    2    0    0 -0.45566974410E-02 -0.15567402181E-01  0.19462637875E-01  0.25335780535E-01  0.00000000000E+00 0. -1.
     999901    1    3    3    0    0  0.92726180053E-02  0.10343955945E+00  0.73376496103E-01  0.88913994066E+00  0.88000000000E+00 0. -1.
        -11    1    4    4    0    0 -0.75908489617E-02 -0.60602862128E-01 -0.75058001849E-01  0.96769275334E-01  0.51100000000E-03 0. -1.
         11    1    4    4    0    0  0.28749283974E-02 -0.27269295142E-01 -0.17781132129E-01  0.32685003467E-01  0.51100000000E-03 0.  1.
</event>
<event>
 8    1  0.1207611E+005  0.1043930E+01  0.7957747E-01            NaN
         13   -1    0    0    0    0  0.00000000000E+00  0.00000000000E+00  0.74505805969E-08  0.10566000000E+00  0.10566000000E+00 0. -1.
     999900   -1    0    0    0    0 -0.00000000000E+00 -0.00000000000E+00 -0.74505805969E-08  0.93827000000E+00  0.93827000000E+00 0.  1.
     999902    2    1    2    0    0  0.65371586002E-02 -0.16323816269E-01  0.16274890337E-01  0.10199701695E+01  0.10196887139E+01 0.  0.
     999903    2    3    3    0    0  0.28578238092E-01 -0.57359823345E-01 -0.11093651837E+00  0.12960366884E+00  0.19578938768E-01 0.  0.
         14    1    1    2    0    0 -0.65371586002E-02  0.16323816269E-01 -0.16274890337E-01  0.23959830459E-01  0.00000000000E+00 0.  1.
     999901    1    3    3    0    0 -0.22041079492E-01  0.41036007076E-01  0.12721140870E+00  0.89036650070E+00  0.88000000000E+00 0. -1.
        -11    1    4    4    0    0  0.29314798380E-01 -0.50501936892E-01 -0.87725904560E-01  0.10538452679E+00  0.51100000000E-03 0.  1.
         11    1    4    4    0    0 -0.73656028794E-03 -0.68578864535E-02 -0.23210613807E-01  0.24219142057E-01  0.51100000000E-03 0. -1.
</event>
<event>
 8    1  0.1207611E+005  0.1043930E+01  0.7957747E-01            NaN
         13   -1    0    0    0    0  0.00000000000E+00  0.00000000000E+00  0.74505805969E-08  0.10566000000E+00  0.10566000000E+00 0. -1.
     999900   -1    0    0    0    0 -0.00000000000E+00 -0.00000000000E+00 -0.74505805969E-08  0.93827000000E+00  0.93827000000E+00 0.  1.
     999902    2    1    2    0    0  0.73201826390E-02 -0.17512244785E-01 -0.14422104680E-01  0.10200917766E+01  0.10198132044E+01 0.  0.
     999903    2    3    3    0    0  0.79603537662E-01  0.85191867057E-01 -0.54861019892E-01  0.13025565469E+00  0.19037506499E-01 0.  0.
         14    1    1    2    0    0 -0.73201826390E-02  0.17512244785E-01  0.14422104680E-01  0.23838223396E-01  0.00000000000E+00 0. -1.
     999901    1    3    3    0    0 -0.72283355023E-01 -0.10270411184E+00  0.40438915212E-01  0.88983612192E+00  0.88000000000E+00 0.  1.
        -11    1    4    4    0    0  0.58898564303E-01  0.53622232076E-01 -0.30346031369E-01  0.85238063039E-01  0.51100000000E-03 0.  1.
         11    1    4    4    0    0  0.20704973359E-01  0.31569634981E-01 -0.24514988523E-01  0.45017591649E-01  0.51100000000E-03 0. -1.
</event>
<event>
 8    1  0.1207611E+005  0.1043930E+01  0.7957747E-01            NaN
         13   -1    0    0    0    0  0.00000000000E+00  0.00000000000E+00  0.74505805969E-08  0.10566000000E+00  0.10566000000E+00 0. -1.
     999900   -1    0    0    0    0 -0.00000000000E+00 -0.00000000000E+00 -0.74505805969E-08  0.93827000000E+00  0.93827000000E+00 0. -1.
     999902    2    1    2    0    0  0.23356583606E-01  0.13265413976E-01 -0.13987961063E-02  0.10170328285E+01  0.10166770954E+01 0.  0.
     999903    2    3    3    0    0 -0.26620600999E-01 -0.86320502448E-02  0.12190529799E+00  0.12676257875E+00  0.20607789885E-01 0.  0.
         14    1    1    2    0    0 -0.23356583606E-01 -0.13265413976E-01  0.13987961063E-02  0.26897171529E-01  0.00000000000E+00 0. -1.
     999901    1    3    3    0    0  0.49977184605E-01  0.21897464221E-01 -0.12330409410E+00  0.89027024972E+00  0.88000000000E+00 0. -1.
        -11    1    4    4    0    0 -0.27581762449E-01 -0.94872268822E-02  0.85666598397E-01  0.90497449112E-01  0.51100000000E-03 0. -1.
         11    1    4    4    0    0  0.96116145066E-03  0.85517663736E-03  0.36238699592E-01  0.36265129637E-01  0.51100000000E-03 0.  1.
</event>
<event>
 8    1  0.1207611E+005  0.1043930E+01  0.7957747E-01            NaN
         13   -1    0    0    0    0  0.00000000000E+00  0.00000000000E+00  0.74505805969E-08  0.10566000000E+00  0.10566000000E+00 0.  1.
     999900   -1    0    0    0    0 -0.00000000000E+00 -0.00000000000E+00 -0.74505805969E-08  0.93827000000E+00  0.93827000000E+00 0.  1.
     999902    2    1    2    0    0  0.17807341933E-01  0.16472654101E-01  0.18546823899E-02  0.10196012186E+01  0.10193109218E+01 0.  0.
     999903    2    3    3    0    0  0.41478137097E-01  0.10686404164E+00  0.63456929607E-01  0.13251286538E+00  0.19812075155E-01 0.  0.
         14    1    1    2    0    0 -0.17807341933E-01 -0.16472654101E-01 -0.18546823899E-02  0.24328781445E-01  0.00000000000E+00 0. -1.
     999901    1    3    3    0    0 -0.23670795164E-01 -0.90391387540E-01 -0.61602247217E-01  0.88708835318E+00  0.88000000000E+00 0.  1.
        -11    1    4    4    0    0  0.32647068129E-01  0.57710264145E-01  0.33742482333E-01  0.74398399715E-01  0.51100000000E-03 0.  1.
         11    1    4    4    0    0  0.88310689682E-02  0.49153777496E-01  0.29714447273E-01  0.58114465660E-01  0.51100000000E-03 0. -1.
</event>
<event>
 8    1  0.1207611E+005  0.1043930E+01  0.7957747E-01            NaN
         13   -1    0    0    0    0  0.00000000000E+00  0.00000000000E+00  0.74505805969E-08  0.10566000000E+00  0.10566000000E+00 0. -1.
     999900   -1    0    0    0    0 -0.00000000000E+00 -0.00000000000E+00 -0.74505805969E-08  0.93827000000E+00  0.93827000000E+00 0. -1.
     999902    2    1    2    0    0  0.16462131770E-01 -0.15005698634E-01 -0.76336919300E-02  0.10203833224E+01  0.10201116010E+01 0.  0.
     999903    2    3    3    0    0  0.91080899560E-01  0.47287909676E-01  0.78700080756E-01  0.13083176433E+00  0.19783103416E-01 0.  0.
         14    1    1    2    0    0 -0.16462131770E-01  0.15005698634E-01  0.76336919300E-02  0.23546677608E-01  0.00000000000E+00 0.  1.
     999901    1    3    3    0    0 -0.74618767790E-01 -0.62293608310E-01 -0.86333772686E-01  0.88955155806E+00  0.88000000000E+00 0. -1.
        -11    1    4    4    0    0  0.20631089781E-01  0.44203659918E-02  0.23541645404E-01  0.31617268863E-01  0.51100000000E-03 0. -1.
         11    1    4    4    0    0  0.70449809779E-01  0.42867543684E-01  0.55158435352E-01  0.99214495467E-01  0.51100000000E-03 0.  1.
</event>
<event>
 8    1  0.1207611E+005  0.1043930E+01  0.7957747E-01            NaN
         13   -1    0    0    0    0  0.00000000000E+00  0.00000000000E+00  0.74505805969E-08  0.10566000000E+00  0.10566000000E+00 0.  1.
     999900   -1    0    0    0    0 -0.00000000000E+00 -0.00000000000E+00 -0.74505805969E-08  0.93827000000E+00  0.93827000000E+00 0. -1.
     999902    2    1    2    0    0 -0.17936979454E-01  0.12548911688E-01  0.75285813639E-02  0.10207807030E+01  0.10205181789E+01 0.  0.
     999903    2    3    3    0    0 -0.33421631687E-01 -0.12333259868E+00  0.15148718666E-01  0.13018448366E+00  0.19763115831E-01 0.  0.
         14    1    1    2    0    0  0.17936979454E-01 -0.12548911688E-01 -0.75285813639E-02  0.23149297048E-01  0.00000000000E+00 0.  1.
     999901    1    3    3    0    0  0.15484652233E-01  0.13588151037E+00 -0.76201373022E-02  0.89059621929E+00  0.88000000000E+00 0.  1.
        -11    1    4    4    0    0 -0.18832385470E-01 -0.35228151382E-01  0.30935624136E-02  0.40068848769E-01  0.51100000000E-03 0.  1.
         11    1    4    4    0    0 -0.14589246217E-01 -0.88104447301E-01  0.12055156253E-01  0.90115634896E-01  0.51100000000E-03 0. -1.
</event>
<event>
 8    1  0.1207611E+005  0.1043930E+01  0.7957747E-01            NaN
         13   -1    0    0    0    0  0.00000000000E+00  0.00000000000E+00  0.74505805969E-08  0.10566000000E+00  0.10566000000E+00 0.  1.
     999900   -1    0    0    0    0 -0.00000000000E+00 -0.00000000000E+00 -0.74505805969E-08  0.93827000000E+00  0.93827000000E+00 0.  1.
     999902    2    1    2    0    0 -0.97131239659E-02  0.40497797331E-02 -0.21538098168E-01  0.10199584509E+01  0.10196767166E+01 0.  0.
     999903    2    3    3    0    0  0.88061686223E-01 -0.23104932578E-01 -0.92730036811E-01  0.13127088825E+00  0.18560384799E-01 0.  0.
         14    1    1    2    0    0  0.97131239659E-02 -0.40497797331E-02  0.21538098168E-01  0.23971549090E-01  0.00000000000E+00 0.  1.
     999901    1    3    3    0    0 -0.97774810189E-01  0.27154712311E-01  0.71191938643E-01  0.88868756267E+00  0.88000000000E+00 0. -1.
        -11    1    4    4    0    0  0.34633359737E-01 -0.12732916311E-01 -0.49618130407E-01  0.61837017640E-01  0.51100000000E-03 0.  1.
         11    1    4    4    0    0  0.53428326485E-01 -0.10372016267E-01 -0.43111906404E-01  0.69433870605E-01  0.51100000000E-03 0. -1.
</event>
<event>
 8    1  0.1207611E+005  0.1043930E+01  0.7957747E-01            NaN
         13   -1    0    0    0    0  0.00000000000E+00  0.00000000000E+00  0.74505805969E-08  0.10566000000E+00  0.10566000000E+00 0. -1.
     999900   -1    0    0    0    0 -0.00000000000E+00 -0.00000000000E+00 -0.74505805969E-08  0.93827000000E+00  0.93827000000E+00 0. -1.
     999902    2    1    2    0    0  0.14106750375E-01  0.16267129103E-01  0.11465743397E-01  0.10195356735E+01  0.10192437914E+01 0.  0.
     999903    2    3    3    0    0  0.35650849736E-01  0.12309413144E+00  0.28149627968E-01  0.13265659002E+00  0.19550474137E-01 0.  0.
         14    1    1    2    0    0 -0.14106750375E-01 -0.16267129103E-01 -0.11465743397E-01  0.24394326533E-01  0.00000000000E+00 0.  1.
     999901    1    3    3    0    0 -0.21544099361E-01 -0.10682700234E+00 -0.16683884571E-01  0.88687908344E+00  0.88000000000E+00 0.  1.
        -11    1    4    4    0    0  0.11209116404E-01  0.29861128662E-01 -0.11386054318E-02  0.31920038203E-01  0.51100000000E-03 0. -1.
         11    1    4    4    0    0  0.24441733332E-01  0.93233002781E-01  0.29288233400E-01  0.10073655182E+00  0.51100000000E-03 0.  1.
</event>
<event>
 8    1  0.1207611E+005  0.1043930E+01  0.7957747E-01            NaN
         13   -1    0    0    0    0  0.00000000000E+00  0.00000000000E+00  0.74505805969E-08  0.10566000000E+00  0.10566000000E+00 0. -1.
     999900   -1    0    0    0    0 -0.00000000000E+00 -0.00000000000E+00 -0.74505805969E-08  0.93827000000E+00  0.93827000000E+00 0.  1.
     999902    2    1    2    0    0 -0.56210233539E-02 -0.23237091986E-01 -0.47949262669E-03  0.10200179056E+01  0.10197375836E+01 0.  0.
     999903    2    3    3    0    0  0.58194754476E-01  0.10927120505E+00 -0.24014918126E-01  0.12750190092E+00  0.18793422874E-01 0.  0.
         14    1    1    2    0    0  0.56210233539E-02  0.23237091986E-01  0.47949262669E-03  0.23912094444E-01  0.00000000000E+00 0.  1.
     999901    1    3    3    0    0 -0.63815777830E-01 -0.13250829704E+00  0.23535425499E-01  0.89251600464E+00  0.88000000000E+00 0. -1.
        -11    1    4    4    0    0  0.42418334254E-01  0.64370435090E-01 -0.91097690907E-02  0.77628068432E-01  0.51100000000E-03 0. -1.
         11    1    4    4    0    0  0.15776420222E-01  0.44900769960E-01 -0.14905149035E-01  0.49873832486E-01  0.51100000000E-03 0.  1.
</event>
<event>
 8    1  0.1207611E+005  0.1043930E+01  0.7957747E-01            NaN
         13   -1    0    0    0    0  0.00000000000E+00  0.00000000000E+00  0.74505805969E-08  0.10566000000E+00  0.10566000000E+00 0. -1.
     999900   -1    0    0    0    0 -0.00000000000E+00 -0.00000000000E+00 -0.74505805969E-08  0.93827000000E+00  0.93827000000E+00 0.  1.
     999902    2    1    2    0    0 -0.24821349162E-01  0.65160120155E-02  0.27231520835E-01  0.10065119093E+01  0.10058161412E+01 0.  0.
     999903    2    3    3    0    0 -0.47884191535E-01  0.37589906223E-01 -0.97758770938E-01  0.11683778093E+00  0.19707686540E-01 0.  0.
         14    1    1    2    0    0  0.24821349162E-01 -0.65160120155E-02 -0.27231520835E-01  0.37418090729E-01  0.00000000000E+00 0.  1.
     999901    1    3    3    0    0  0.23062842372E-01 -0.31073894208E-01  0.12499029177E+00  0.88967412834E+00  0.88000000000E+00 0. -1.
        -11    1    4    4    0    0 -0.39640359023E-01  0.38975599897E-01 -0.84022562219E-01  0.10074972721E+00  0.51100000000E-03 0. -1.
         11    1    4    4    0    0 -0.82438325122E-02 -0.13856936736E-02 -0.13736208718E-01  0.16088053717E-01  0.51100000000E-03 0.  1.
</event>
<event>
 8    1  0.1207611E+005  0.1043930E+01  0.7957747E-01            NaN
         13   -1    0    0    0    0  0.00000000000E+00  0.00000000000E+00  0.74505805969E-08  0.10566000000E+00  0.10566000000E+00 0. -1.
     999900   -1    0    0    0    0 -0.00000000000E+00 -0.00000000000E+00 -0.74505805969E-08  0.93827000000E+00  0.93827000000E+00 0. -1.
     999902    2    1    2    0    0  0.22922427324E-01  0.93775696518E-03  0.91876791619E-02  0.10192170376E+01  0.10189173859E+01 0.  0.
     999903    2    3    3    0    0 -0.76836000417E-01 -0.44210279149E-01  0.90839312469E-01  0.12867951548E+00  0.21173504000E-01 0.  0.
         14    1    1    2    0    0 -0.22922427324E-01 -0.93775696518E-03 -0.91876791619E-02  0.24712962407E-01  0.00000000000E+00 0. -1.
     999901    1    3    3    0    0  0.99758427741E-01  0.45148036114E-01 -0.81651633307E-01  0.89053752211E+00  0.88000000000E+00 0. -1.
        -11    1    4    4    0    0 -0.26089212374E-01 -0.12982889863E-01  0.16802072870E-01  0.33641837126E-01  0.51100000000E-03 0.  1.
         11    1    4    4    0    0 -0.50746788043E-01 -0.31227389285E-01  0.74037239600E-01  0.95037678353E-01  0.51100000000E-03 0. -1.
</event>
<event>
 8    1  0.1207611E+005  0.1043930E+01  0.7957747E-01            NaN
         13   -1    0    0    0    0  0.00000000000E+00  0.00000000000E+00  0.74505805969E-08  0.10566000000E+00  0.10566000000E+00 0.  1.
     999900   -1    0    0    0    0 -0.00000000000E+00 -0.00000000000E+00 -0.74505805969E-08  0.93827000000E+00  0.93827000000E+00 0. -1.
     999902    2    1    2    0    0  0.12571555250E-01  0.16386002979E-01 -0.17308306514E-01  0.10169833384E+01  0.10166262775E+01 0.  0.
     999903    2    3    3    0    0  0.52713967189E-01 -0.11229669307E+00 -0.16699707302E-01  0.12671875985E+00  0.19734595551E-01 0.  0.
         14    1    1    2    0    0 -0.12571555250E-01 -0.16386002979E-01  0.17308306514E-01  0.26946661564E-01  0.00000000000E+00 0.  1.
     999901    1    3    3    0    0 -0.40142411939E-01  0.12868269605E+00 -0.60859921195E-03  0.89026457859E+00  0.88000000000E+00 0.  1.
        -11    1    4    4    0    0  0.14400844173E-01 -0.28833642193E-01  0.42743414544E-02  0.32516062967E-01  0.51100000000E-03 0.  1.
         11    1    4    4    0    0  0.38313123015E-01 -0.83463050878E-01 -0.20974048757E-01  0.94202696879E-01  0.51100000000E-03 0. -1.
</event>
<event>
 8    1  0.1207611E+005  0.1043930E+01  0.7957747E-01            NaN
         13   -1    0    0    0    0  0.00000000000E+00  0.00000000000E+00  0.74505805969E-08  0.10566000000E+00  0.10566000000E+00 0.  1.
     999900   -1    0    0    0    0 -0.00000000000E+00 -0.00000000000E+00 -0.74505805969E-08  0.93827000000E+00  0.93827000000E+00 0. -1.
     999902    2    1    2    0    0  0.72934927662E-02 -0.16487116821E-01 -0.94337873127E-02  0.10235826070E+01  0.10233803482E+01 0.  0.
     999903    2    3    3    0    0 -0.71196724274E-01 -0.11068421079E+00 -0.22590567454E-01  0.13498432459E+00  0.19760214595E-01 0.  0.
         14    1    1    2    0    0 -0.72934927662E-02  0.16487116821E-01  0.94337873127E-02  0.20347392974E-01  0.00000000000E+00 0.  1.
     999901    1    3    3    0    0  0.78490217040E-01  0.94197093972E-01  0.13156780141E-01  0.88859828244E+00  0.88000000000E+00 0.  1.
        -11    1    4    4    0    0 -0.35897186333E-01 -0.58795532852E-01 -0.21671918656E-01  0.72218113027E-01  0.51100000000E-03 0.  1.
         11    1    4    4    0    0 -0.35299537940E-01 -0.51888677942E-01 -0.91864879800E-03  0.62766211563E-01  0.51100000000E-03 0. -1.
</event>
<event>
 8    1  0.1207611E+005  0.1043930E+01  0.7957747E-01            NaN
         13   -1    0    0    0    0  0.00000000000E+00  0.00000000000E+00  0.74505805969E-08  0.10566000000E+00  0.10566000000E+00 0. -1.
     999900   -1    0    0    0    0 -0.00000000000E+00 -0.00000000000E+00 -0.74505805969E-08  0.93827000000E+00  0.93827000000E+00 0. -1.
     999902    2    1    2    0    0  0.12815701474E-01 -0.19048768752E-01  0.51135734811E-02  0.10204088089E+01  0.10201376823E+01 0.  0.
     999903    2    3    3    0    0  0.11062139266E+00 -0.36045786186E-01  0.61514549654E-01  0.13303294610E+00  0.19425079520E-01 0.  0.
         14    1    1    2    0    0 -0.12815701474E-01  0.19048768752E-01 -0.51135734811E-02  0.23521191062E-01  0.00000000000E+00 0.  1.
     999901    1    3    3    0    0 -0.97805691183E-01  0.16997017435E-01 -0.56400976173E-01  0.88737586284E+00  0.88000000000E+00 0. -1.
        -11    1    4    4    0    0  0.51118758685E-01 -0.17891713962E-01  0.39518764413E-01  0.67046512062E-01  0.51100000000E-03 0.  1.
         11    1    4    4    0    0  0.59502633973E-01 -0.18154072225E-01  0.21995785241E-01  0.65986434041E-01  0.51100000000E-03 0. -1.
</event>
<event>
 8    1  0.1207611E+005  0.1043930E+01  0.7957747E-01            NaN
         13   -1    0    0    0    0  0.00000000000E+00  0.00000000000E+00  0.74505805969E-08  0.10566000000E+00  0.10566000000E+00 0. -1.
     999900   -1    0    0    0    0 -0.00000000000E+00 -0.00000000000E+00 -0.74505805969E-08  0.93827000000E+00  0.93827000000E+00 0.  1.
     999902    2    1    2    0    0 -0.73787010393E-03 -0.21591962511E-01 -0.71929299976E-02  0.10211595029E+01  0.10209055954E+01 0.  0.
     999903    2    3    3    0    0  0.11092347164E+00 -0.16784782133E-01 -0.66891100796E-01  0.13208400787E+00  0.19647399233E-01 0.  0.
         14    1    1    2    0    0  0.73787010393E-03  0.21591962511E-01  0.71929299976E-02  0.22770497125E-01  0.00000000000E+00 0.  1.
     999901    1    3    3    0    0 -0.11166134175E+00 -0.48071803786E-02  0.59698170798E-01  0.88907549501E+00  0.88000000000E+00 0. -1.
        -11    1    4    4    0    0  0.72741984254E-01 -0.16034118930E-01 -0.34885331254E-01  0.82254098382E-01  0.51100000000E-03 0. -1.
         11    1    4    4    0    0  0.38181487388E-01 -0.75066320304E-03 -0.32005769542E-01  0.49829909486E-01  0.51100000000E-03 0.  1.
</event>
<event>
 8    1  0.1207611E+005  0.1043930E+01  0.7957747E-01            NaN
         13   -1    0    0    0    0  0.00000000000E+00  0.00000000000E+00  0.74505805969E-08  0.10566000000E+00  0.10566000000E+00 0.  1.
     999900   -1    0    0    0    0 -0.00000000000E+00 -0.00000000000E+00 -0.74505805969E-08  0.93827000000E+00  0.93827000000E+00 0.  1.
     999902    2    1    2    0    0 -0.13986518811E-02  0.22118730038E-01 -0.92330433419E-02  0.10199207615E+01  0.10196381300E+01 0.  0.
     999903    2    3    3    0    0 -0.20567639998E-01 -0.26727872119E-01 -0.12486606291E+00  0.13080635046E+00  0.19528458445E-01 0.  0.
         14    1    1    2    0    0  0.13986518811E-02 -0.22118730038E-01  0.92330433419E-02  0.24009238533E-01  0.00000000000E+00 0. -1.
     999901    1    3    3    0    0  0.19168988117E-01  0.48846602158E-01  0.11563301957E+00  0.88911441101E+00  0.88000000000E+00 0. -1.
        -11    1    4    4    0    0 -0.43319068369E-02 -0.15856152833E-01 -0.32841377264E-01  0.36728737810E-01  0.51100000000E-03 0.  1.
         11    1    4    4    0    0 -0.16235733162E-01 -0.10871719287E-01 -0.92024685650E-01  0.94077612648E-01  0.51100000000E-03 0. -1.
</event>
<event>
 8    1  0.1207611E+005  0.1043930E+01  0.7957747E-01            NaN
         13   -1    0    0    0    0  0.00000000000E+00  0.00000000000E+00  0.74505805969E-08  0.10566000000E+00  0.10566000000E+00 0. -1.
     999900   -1    0    0    0    0 -0.00000000000E+00 -0.00000000000E+00 -0.74505805969E-08  0.93827000000E+00  0.93827000000E+00 0. -1.
     999902    2    1    2    0    0 -0.21601639037E-01  0.70623410068E-02  0.65026042580E-02  0.10202912324E+01  0.10200173566E+01 0.  0.
     999903    2    3    3    0    0  0.31602087909E-01  0.93111133388E-01  0.83804845597E-01  0.13112832962E+00  0.22427919281E-01 0.  0.
         14    1    1    2    0    0  0.21601639037E-01 -0.70623410068E-02 -0.65026042580E-02  0.23638767559E-01  0.00000000000E+00 0.  1.
     999901    1    3    3    0    0 -0.53203726946E-01 -0.86048792381E-01 -0.77302241339E-01  0.88916290282E+00  0.88000000000E+00 0.  1.
        -11    1    4    4    0    0  0.20911909016E-01  0.42005192740E-01  0.27725357187E-01  0.54504134778E-01  0.51100000000E-03 0. -1.
         11    1    4    4    0    0  0.10690178893E-01  0.51105940648E-01  0.56079488410E-01  0.76624194845E-01  0.51100000000E-03 0.  1.
</event>
<event>
 8    1  0.1207611E+005  0.1043930E+01  0.7957747E-01            NaN
         13   -1    0    0    0    0  0.00000000000E+00  0.00000000000E+00  0.74505805969E-08  0.10566000000E+00  0.10566000000E+00 0.  1.
     999900   -1    0    0    0    0 -0.00000000000E+00 -0.00000000000E+00 -0.74505805969E-08  0.93827000000E+00  0.93827000000E+00 0. -1.
     999902    2    1    2    0    0 -0.11380004271E-01  0.93952114771E-03  0.20806107024E-01  0.10201964523E+01  0.10199203498E+01 0.  0.
     999903    2    3    3    0    0 -0.66079228899E-01 -0.85018251829E-01  0.75264834562E-01  0.13264561042E+00  0.18316522753E-01 0.  0.
         14    1    1    2    0    0  0.11380004271E-01 -0.93952114771E-03 -0.20806107024E-01  0.23733547706E-01  0.00000000000E+00 0. -1.
     999901    1    3    3    0    0  0.54699224628E-01  0.85957772977E-01 -0.54458727538E-01  0.88755084188E+00  0.88000000000E+00 0.  1.
        -11    1    4    4    0    0 -0.22130806187E-01 -0.24373801675E-01  0.33138374205E-01  0.46714748812E-01  0.51100000000E-03 0. -1.
         11    1    4    4    0    0 -0.43948422711E-01 -0.60644450153E-01  0.42126460357E-01  0.85930861606E-01  0.51100000000E-03 0.  1.
</event>
<event>
 8    1  0.1207611E+005  0.1043930E+01  0.7957747E-01            NaN
         13   -1    0    0    0    0  0.00000000000E+00  0.00000000000E+00  0.74505805969E-08  0.10566000000E+00  0.10566000000E+00 0. -1.
     999900   -1    0    0    0    0 -0.00000000000E+00 -0.00000000000E+00 -0.74505805969E-08  0.93827000000E+00  0.93827000000E+00 0.  1.
     999902    2    1    2    0    0 -0.20500754128E-01  0.62599805712E-03  0.10060678020E-01  0.10210850873E+01  0.10208294987E+01 0.  0.
     999903    2    3    3    0    0  0.26642092715E-01 -0.30508388148E-01  0.12395857274E+00  0.13194813024E+00  0.20100210646E-01 0.  0.
         14    1    1    2    0    0  0.20500754128E-01 -0.62599805712E-03 -0.10060678020E-01  0.22844912685E-01  0.00000000000E+00 0.  1.
     999901    1    3    3    0    0 -0.47142846843E-01  0.31134386205E-01 -0.11389789472E+00  0.88913695707E+00  0.88000000000E+00 0.  1.
        -11    1    4    4    0    0  0.25672220094E-01 -0.16728903117E-01  0.95749646858E-01  0.10053444722E+00  0.51100000000E-03 0.  1.
         11    1    4    4    0    0  0.96987262119E-03 -0.13779485031E-01  0.28208925878E-01  0.31413683019E-01  0.51100000000E-03 0. -1.
</event>
<event>
 8    1  0.1207611E+005  0.1043930E+01  0.7957747E-01            NaN
         13   -1    0    0    0    0  0.00000000000E+00  0.00000000000E+00  0.74505805969E-08  0.10566000000E+00  0.10566000000E+00 0.  1.
     999900   -1    0    0    0    0 -0.00000000000E+00 -0.00000000000E+00 -0.74505805969E-08  0.93827000000E+00  0.93827000000E+00 0. -1.
     999902    2    1    2    0    0 -0.22433622814E-01  0.30222718464E-02  0.80158901016E-02  0.10199163361E+01  0.10196335992E+01 0.  0.
     999903    2    3    3    0    0 -0.69571096920E-01 -0.20347943241E-01 -0.10676203636E+00  0.13090447970E+00  0.21992591395E-01 0.  0.
         14    1    1    2    0    0  0.22433622814E-01 -0.30222718464E-02 -0.80158901016E-02  0.24013663898E-01  0.00000000000E+00 0.  1.
     999901    1    3    3    0    0  0.47137474106E-01  0.23370215087E-01  0.11477792647E+00  0.88901185640E+00  0.88000000000E+00 0.  1.
        -11    1    4    4    0    0 -0.50615325646E-01 -0.24617850231E-01 -0.80788937795E-01  0.98463512690E-01  0.51100000000E-03 0. -1.
         11    1    4    4    0    0 -0.18955771274E-01  0.42699069898E-02 -0.25973098569E-01  0.32440967011E-01  0.51100000000E-03 0.  1.
</event>
<event>
 8    1  0.1207611E+005  0.1043930E+01  0.7957747E-01            NaN
         13   -1    0    0    0    0  0.00000000000E+00  0.00000000000E+00  0.74505805969E-08  0.10566000000E+00  0.10566000000E+00 0. -1.
     999900   -1    0    0    0    0 -0.00000000000E+00 -0.00000000000E+00 -0.74505805969E-08  0.93827000000E+00  0.93827000000E+00 0.  1.
     999902    2    1    2    0    0 -0.32526824122E-02  0.23653989088E-01  0.21065998355E-02  0.10199606674E+01  0.10196789858E+01 0.  0.
     999903    2    3    3    0    0 -0.50071246615E-01  0.10313182038E+00  0.64272441925E-01  0.13295824601E+00  0.20090950166E-01 0.  0.
         14    1    1    2    0    0  0.32526824122E-02 -0.23653989088E-01 -0.21065998355E-02  0.23969332604E-01  0.00000000000E+00 0. -1.
     999901    1    3    3    0    0  0.46818564203E-01 -0.79477831293E-01 -0.62165842090E-01  0.88700242139E+00  0.88000000000E+00 0.  1.
        -11    1    4    4    0    0 -0.22665224459E-01  0.37499899813E-01  0.34842567871E-01  0.55984109734E-01  0.51100000000E-03 0.  1.
         11    1    4    4    0    0 -0.27406022155E-01  0.65631920567E-01  0.29429874054E-01  0.76974136277E-01  0.51100000000E-03 0. -1.
</event>
<event>
 8    1  0.1207611E+005  0.1043930E+01  0.7957747E-01            NaN
         13   -1    0    0    0    0  0.00000000000E+00  0.00000000000E+00  0.74505805969E-08  0.10566000000E+00  0.10566000000E+00 0. -1.
     999900   -1    0    0    0    0 -0.00000000000E+00 -0.00000000000E+00 -0.74505805969E-08  0.93827000000E+00  0.93827000000E+00 0.  1.
     999902    2    1    2    0    0  0.13247436566E-01  0.24352325109E-02 -0.19348456885E-01  0.10203548496E+01  0.10200824630E+01 0.  0.
     999903    2    3    3    0    0  0.11295054760E+00  0.10989547876E-01 -0.67299500301E-01  0.13338631056E+00  0.19598182050E-01 0.  0.
         14    1    1    2    0    0 -0.13247436566E-01 -0.24352325109E-02  0.19348456885E-01  0.23575150409E-01  0.00000000000E+00 0. -1.
     999901    1    3    3    0    0 -0.99703111032E-01 -0.85543153650E-02  0.47951043416E-01  0.88696853903E+00  0.88000000000E+00 0. -1.
        -11    1    4    4    0    0  0.10169353524E-01 -0.15216209329E-02 -0.79279496013E-03  0.10325731268E-01  0.51100000000E-03 0. -1.
         11    1    4    4    0    0  0.10278119407E+00  0.12511168809E-01 -0.66506705341E-01  0.12306057930E+00  0.51100000000E-03 0.  1.
</event>
<event>
 8    1  0.1207611E+005  0.1043930E+01  0.7957747E-01            NaN
         13   -1    0    0    0    0  0.00000000000E+00  0.00000000000E+00  0.74505805969E-08  0.10566000000E+00  0.10566000000E+00 0.  1.
     999900   -1    0    0    0    0 -0.00000000000E+00 -0.00000000000E+00 -0.74505805969E-08  0.93827000000E+00  0.93827000000E+00 0.  1.
     999902    2    1    2    0    0  0.40418771776E-02  0.12877157127E-01 -0.19601030396E-01  0.10201317156E+01  0.10198540871E+01 0.  0.
     999903    2    3    3    0    0 -0.60847195285E-01  0.10060723403E+00  0.52751084814E-01  0.13044526147E+00  0.20226037123E-01 0.  0.
         14    1    1    2    0    0 -0.40418771776E-02 -0.12877157127E-01  0.19601030396E-01  0.23798284379E-01  0.00000000000E+00 0.  1.
     999901    1    3    3    0    0  0.64889072463E-01 -0.87730076907E-01 -0.72352115210E-01  0.88968645415E+00  0.88000000000E+00 0.  1.
        -11    1    4    4    0    0 -0.27592598276E-01  0.63654414518E-01  0.34515797270E-01  0.77490885589E-01  0.51100000000E-03 0. -1.
         11    1    4    4    0    0 -0.33254597009E-01  0.36952819516E-01  0.18235287544E-01  0.52954375884E-01  0.51100000000E-03 0.  1.
</event>
<event>
 8    1  0.1207611E+005  0.1043930E+01  0.7957747E-01            NaN
         13   -1    0    0    0    0  0.00000000000E+00  0.00000000000E+00  0.74505805969E-08  0.10566000000E+00  0.10566000000E+00 0.  1.
     999900   -1    0    0    0    0 -0.00000000000E+00 -0.00000000000E+00 -0.74505805969E-08  0.93827000000E+00  0.93827000000E+00 0.  1.
     999902    2    1    2    0    0 -0.16898367556E-01 -0.70620272061E-02  0.59302415354E-02  0.10246791606E+01  0.10244983100E+01 0.  0.
     999903    2    3    3    0    0  0.32980465440E-02 -0.13362251738E+00  0.60314273839E-02  0.13539548082E+00  0.20729299272E-01 0.  0.
         14    1    1    2    0    0  0.16898367556E-01  0.70620272061E-02 -0.59302415354E-02  0.19250839435E-01  0.00000000000E+00 0. -1.
     999901    1    3    3    0    0 -0.20196414100E-01  0.12656049018E+00 -0.10118584853E-03  0.88928367974E+00  0.88000000000E+00 0. -1.
        -11    1    4    4    0    0  0.41395628588E-02 -0.75157259901E-01  0.13410495864E-01  0.76458172988E-01  0.51100000000E-03 0. -1.
         11    1    4    4    0    0 -0.84151631478E-03 -0.58465257482E-01 -0.73790684798E-02  0.58937307835E-01  0.51100000000E-03 0.  1.
</event>
<event>
 8    1  0.1207611E+005  0.1043930E+01  0.7957747E-01            NaN
         13   -1    0    0    0    0  0.00000000000E+00  0.00000000000E+00  0.74505805969E-08  0.10566000000E+00  0.10566000000E+00 0. -1.
     999900   -1    0    0    0    0 -0.00000000000E+00 -0.00000000000E+00 -0.74505805969E-08  0.93827000000E+00  0.93827000000E+00 0. -1.
     999902    2    1    2    0    0  0.86554951145E-02 -0.11259194934E-01  0.16393235282E-01  0.10222407116E+01  0.10220105906E+01 0.  0.
     999903    2    3    3    0    0  0.70444832904E-01  0.35302334784E-01 -0.10254301711E+00  0.13087561785E+00  0.20115358901E-01 0.  0.
         14    1    1    2    0    0 -0.86554951145E-02  0.11259194934E-01 -0.16393235282E-01  0.21689288353E-01  0.00000000000E+00 0.  1.
     999901    1    3    3    0    0 -0.61789337789E-01 -0.46561529718E-01  0.11893625240E+00  0.89136509380E+00  0.88000000000E+00 0.  1.
        -11    1    4    4    0    0  0.53866078548E-01  0.17852031310E-01 -0.65127234220E-01  0.86383257627E-01  0.51100000000E-03 0. -1.
         11    1    4    4    0    0  0.16578754356E-01  0.17450303474E-01 -0.37415782893E-01  0.44492360219E-01  0.51100000000E-03 0.  1.
</event>
<event>
 8    1  0.1207611E+005  0.1043930E+01  0.7957747E-01            NaN
         13   -1    0    0    0    0  0.00000000000E+00  0.00000000000E+00  0.74505805969E-08  0.10566000000E+00  0.10566000000E+00 0. -1.
     999900   -1    0    0    0    0 -0.00000000000E+00 -0.00000000000E+00 -0.74505805969E-08  0.93827000000E+00  0.93827000000E+00 0. -1.
     999902    2    1    2    0    0 -0.12555364010E-03  0.69466608169E-02 -0.22525413310E-01  0.10203574290E+01  0.10200851027E+01 0.  0.
     999903    2    3    3    0    0 -0.26299981290E-02  0.18698206177E-01 -0.13077743988E+00  0.13364277796E+00  0.20027818533E-01 0.  0.
         14    1    1    2    0    0  0.12555364010E-03 -0.69466608169E-02  0.22525413310E-01  0.23572571031E-01  0.00000000000E+00 0. -1.
     999901    1    3    3    0    0  0.25044444889E-02 -0.11751545361E-01  0.10825202657E+00  0.88671465101E+00  0.88000000000E+00 0.  1.
        -11    1    4    4    0    0  0.36978956994E-02  0.11832191641E-01 -0.30452808295E-01  0.32883276079E-01  0.51100000000E-03 0. -1.
         11    1    4    4    0    0 -0.63278938284E-02  0.68660145367E-02 -0.10032463158E+00  0.10075950188E+00  0.51100000000E-03 0.  1.
</event>
<event>
 8    1  0.1207611E+005  0.1043930E+01  0.7957747E-01            NaN
         13   -1    0    0    0    0  0.00000000000E+00  0.00000000000E+00  0.74505805969E-08  0.10566000000E+00  0.10566000000E+00 0. -1.
     999900   -1    0    0    0    0 -0.00000000000E+00 -0.00000000000E+00 -0.74505805969E-08  0.93827000000E+00  0.93827000000E+00 0.  1.
     999902    2    1    2    0    0 -0.17500407721E-01 -0.67555935663E-02  0.15663582865E-01  0.10194912983E+01  0.10191983404E+01 0.  0.
     999903    2    3    3    0    0  0.10380869013E+00 -0.72596837936E-01  0.69675677964E-02  0.12869020522E+00  0.21588814046E-01 0.  0.
         14    1    1    2    0    0  0.17500407721E-01  0.67555935663E-02 -0.15663582865E-01  0.24438701745E-01  0.00000000000E+00 0. -1.
     999901    1    3    3    0    0 -0.12130909785E+00  0.65841244369E-01  0.86960150681E-02  0.89080109304E+00  0.88000000000E+00 0. -1.
        -11    1    4    4    0    0  0.32724242357E-01 -0.26235154339E-01  0.12131997713E-01  0.43664697990E-01  0.51100000000E-03 0.  1.
         11    1    4    4    0    0  0.71084447777E-01 -0.46361683596E-01 -0.51644299170E-02  0.85025507226E-01  0.51100000000E-03 0. -1.
</event>
<event>
 8    1  0.1207611E+005  0.1043930E+01  0.7957747E-01            NaN
         13   -1    0    0    0    0  0.00000000000E+00  0.00000000000E+00  0.74505805969E-08  0.10566000000E+00  0.10566000000E+00 0.  1.
     999900   -1    0    0    0    0 -0.00000000000E+00 -0.00000000000E+00 -0.74505805969E-08  0.93827000000E+00  0.93827000000E+00 0.  1.
     999902    2    1    2    0    0  0.86196056869E-03 -0.62713630925E-02  0.22975521956E-01  0.10200983492E+01  0.10198199324E+01 0.  0.
     999903    2    3    3    0    0 -0.24736316732E-01  0.51004426637E-01  0.11835908929E+00  0.13272367477E+00  0.19833379079E-01 0.  0.
         14    1    1    2    0    0 -0.86196056869E-03  0.62713630925E-02 -0.22975521956E-01  0.23831650807E-01  0.00000000000E+00 0. -1.
     999901    1    3    3    0    0  0.25598277301E-01 -0.57275789730E-01 -0.95383567330E-01  0.88737467442E+00  0.88000000000E+00 0.  1.
        -11    1    4    4    0    0 -0.15925223850E-01  0.45945377410E-01  0.85926617821E-01  0.98733151632E-01  0.51100000000E-03 0.  1.
         11    1    4    4    0    0 -0.88110928820E-02  0.50590492277E-02  0.32432471465E-01  0.33990523138E-01  0.51100000000E-03 0. -1.
</event>
<event>
 8    1  0.1207611E+005  0.1043930E+01  0.7957747E-01            NaN
         13   -1    0    0    0    0  0.00000000000E+00  0.00000000000E+00  0.74505805969E-08  0.10566000000E+00  0.10566000000E+00 0. -1.
     999900   -1    0    0    0    0 -0.00000000000E+00 -0.00000000000E+00 -0.74505805969E-08  0.93827000000E+00  0.93827000000E+00 0. -1.
     999902    2    1    2    0    0  0.79507713895E-02  0.10316006790E-01 -0.16984849761E-01  0.10225262647E+01  0.10223022264E+01 0.  0.
     999903    2    3    3    0    0 -0.40515629876E-01 -0.10474489055E+00  0.62790197343E-01  0.13014066406E+00  0.19518586025E-01 0.  0.
         14    1    1    2    0    0 -0.79507713895E-02 -0.10316006790E-01  0.16984849761E-01  0.21403735262E-01  0.00000000000E+00 0. -1.
     999901    1    3    3    0    0  0.48466401265E-01  0.11506089734E+00 -0.79775047104E-01  0.89238560067E+00  0.88000000000E+00 0. -1.
        -11    1    4    4    0    0 -0.30375723405E-01 -0.51567723033E-01  0.32566690349E-01  0.68137838772E-01  0.51100000000E-03 0.  1.
         11    1    4    4    0    0 -0.10139906470E-01 -0.53177167516E-01  0.30223506994E-01  0.62002825292E-01  0.51100000000E-03 0. -1.
</event>
<event>
 8    1  0.1207611E+005  0.1043930E+01  0.7957747E-01            NaN
         13   -1    0    0    0    0  0.00000000000E+00  0.00000000000E+00  0.74505805969E-08  0.10566000000E+00  0.10566000000E+00 0. -1.
     999900   -1    0    0    0    0 -0.00000000000E+00 -0.00000000000E+00 -0.74505805969E-08  0.93827000000E+00  0.93827000000E+00 0. -1.
     999902    2    1    2    0    0 -0.12455883119E-01 -0.17096183487E-01  0.92826069584E-02  0.10208303181E+01  0.10205689310E+01 0.  0.
     999903    2    3    3    0    0 -0.11439380744E+00  0.54537864168E-01  0.29471620555E-01  0.13182504615E+00  0.21188312025E-01 0.  0.
         14    1    1    2    0    0  0.12455883119E-01  0.17096183487E-01 -0.92826069584E-02  0.23099681947E-01  0.00000000000E+00 0. -1.
     999901    1    3    3    0    0  0.10193792432E+00 -0.71634047655E-01 -0.20189013597E-01  0.88900527190E+00  0.88000000000E+00 0.  1.
        -11    1    4    4    0    0 -0.99467896411E-01  0.40387666379E-01  0.20116430798E-01  0.10922434674E+00  0.51100000000E-03 0.  1.
         11    1    4    4    0    0 -0.14925911029E-01  0.14150197789E-01  0.93551897572E-02  0.22600699412E-01  0.51100000000E-03 0. -1.
</event>
<event>
 8    1  0.1207611E+005  0.1043930E+01  0.7957747E-01            NaN
         13   -1    0    0    0    0  0.00000000000E+00  0.00000000000E+00  0.74505805969E-08  0.10566000000E+00  0.10566000000E+00 0.  1.
     999900   -1    0    0    0    0 -0.00000000000E+00 -0.00000000000E+00 -0.74505805969E-08  0.93827000000E+00  0.93827000000E+00 0.  1.
     999902    2    1    2    0    0 -0.46911544466E-02  0.12357336427E-01  0.21008558642E-01  0.10191092379E+01  0.10188069339E+01 0.  0.
     999903    2    3    3    0    0 -0.35717310088E-01  0.67193145788E-01 -0.10146888251E+00  0.12839586545E+00  0.19972958385E-01 0.  0.
         14    1    1    2    0    0  0.46911544466E-02 -0.12357336427E-01 -0.21008558642E-01  0.24820762072E-01  0.00000000000E+00 0. -1.
     999901    1    3    3    0    0  0.31026155642E-01 -0.54835809362E-01  0.12247744115E+00  0.89071337248E+00  0.88000000000E+00 0. -1.
        -11    1    4    4    0    0 -0.21341365101E-02  0.13975724973E-01 -0.98180701577E-02  0.17220076939E-01  0.51100000000E-03 0.  1.
         11    1    4    4    0    0 -0.33583173578E-01  0.53217420815E-01 -0.91650812348E-01  0.11117578851E+00  0.51100000000E-03 0. -1.
</event>
<event>
 8    1  0.1207611E+005  0.1043930E+01  0.7957747E-01            NaN
         13   -1    0    0    0    0  0.00000000000E+00  0.00000000000E+00  0.74505805969E-08  0.10566000000E+00  0.10566000000E+00 0. -1.
     999900   -1    0    0    0    0 -0.00000000000E+00 -0.00000000000E+00 -0.74505805969E-08  0.93827000000E+00  0.93827000000E+00 0.  1.
     999902    2    1    2    0    0 -0.87348834317E-02 -0.10203058086E-01  0.20331024915E-01  0.10195629904E+01  0.10192717696E+01 0.  0.
     999903    2    3    3    0    0  0.66709451371E-01  0.90927918079E-01 -0.55543795764E-01  0.12733190463E+00  0.20254962375E-01 0.  0.
         14    1    1    2    0    0  0.87348834317E-02  0.10203058086E-01 -0.20331024915E-01  0.24367009602E-01  0.00000000000E+00 0. -1.
     999901    1    3    3    0    0 -0.75444334803E-01 -0.10113097617E+00  0.75874820679E-01  0.89223108577E+00  0.88000000000E+00 0. -1.
        -11    1    4    4    0    0  0.24246542199E-01  0.24287388581E-01 -0.84697164080E-02  0.35352075890E-01  0.51100000000E-03 0.  1.
         11    1    4    4    0    0  0.42462909172E-01  0.66640529499E-01 -0.47074079356E-01  0.91979828742E-01  0.51100000000E-03 0. -1.
</event>
<event>
 8    1  0.1207611E+005  0.1043930E+01  0.7957747E-01            NaN
         13   -1    0    0    0    0  0.00000000000E+00  0.00000000000E+00  0.74505805969E-08  0.10566000000E+00  0.10566000000E+00 0.  1.
     999900   -1    0    0    0    0 -0.00000000000E+00 -0.00000000000E+00 -0.74505805969E-08  0.93827000000E+00  0.93827000000E+00 0.  1.
     999902    2    1    2    0    0  0.16349842607E-01  0.14331180216E-02  0.17566563694E-01  0.10198892983E+01  0.10196059167E+01 0.  0.
     999903    2    3    3    0    0  0.95375689436E-01  0.50240234868E-01 -0.71088211072E-01  0.13057108287E+00  0.19356409620E-01 0.  0.
         14    1    1    2    0    0 -0.16349842607E-01 -0.14331180216E-02 -0.17566563694E-01  0.24040701748E-01  0.00000000000E+00 0. -1.
     999901    1    3    3    0    0 -0.79025846829E-01 -0.48807116846E-01  0.88654774766E-01  0.88931821538E+00  0.88000000000E+00 0. -1.
        -11    1    4    4    0    0  0.85414351868E-01  0.39068094952E-01 -0.65827356721E-01  0.11469712098E+00  0.51100000000E-03 0.  1.
         11    1    4    4    0    0  0.99613375680E-02  0.11172139916E-01 -0.52608543514E-02  0.15873961886E-01  0.51100000000E-03 0. -1.
</event>
<event>
 8    1  0.1207611E+005  0.1043930E+01  0.7957747E-01            NaN
         13   -1    0    0    0    0  0.00000000000E+00  0.00000000000E+00  0.74505805969E-08  0.10566000000E+00  0.10566000000E+00 0. -1.
     999900   -1    0    0    0    0 -0.00000000000E+00 -0.00000000000E+00 -0.74505805969E-08  0.93827000000E+00  0.93827000000E+00 0. -1.
     999902    2    1    2    0    0 -0.14033447396E-02  0.23196411089E-01 -0.10016273313E-01  0.10186244948E+01  0.10183101162E+01 0.  0.
     999903    2    3    3    0    0 -0.62650887049E-01  0.10674099057E+00 -0.41262768955E-01  0.13199757115E+00  0.20049188819E-01 0.  0.
         14    1    1    2    0    0  0.14033447396E-02 -0.23196411089E-01  0.10016273313E-01  0.25305505231E-01  0.00000000000E+00 0. -1.
     999901    1    3    3    0    0  0.61247542309E-01 -0.83544579477E-01  0.31246495641E-01  0.88662692362E+00  0.88000000000E+00 0.  1.
        -11    1    4    4    0    0 -0.35359789479E-01  0.75462976583E-01 -0.21765909642E-01  0.86133567733E-01  0.51100000000E-03 0.  1.
         11    1    4    4    0    0 -0.27291097570E-01  0.31278013983E-01 -0.19496859313E-01  0.45864003416E-01  0.51100000000E-03 0. -1.
</event>
<event>
 8    1  0.1207611E+005  0.1043930E+01  0.7957747E-01            NaN
         13   -1    0    0    0    0  0.00000000000E+00  0.00000000000E+00  0.74505805969E-08  0.10566000000E+00  0.10566000000E+00 0. -1.
     999900   -1    0    0    0    0 -0.00000000000E+00 -0.00000000000E+00 -0.74505805969E-08  0.93827000000E+00  0.93827000000E+00 0.  1.
     999902    2    1    2    0    0 -0.25620115787E-04 -0.24953114204E-02 -0.16300416879E-01  0.10274396748E+01  0.10273073320E+01 0.  0.
     999903    2    3    3    0    0  0.90652540275E-01  0.86350199196E-02  0.98178264240E-01  0.13533442231E+00  0.19595603230E-01 0.  0.
         14    1    1    2    0    0  0.25620115787E-04  0.24953114204E-02  0.16300416879E-01  0.16490325222E-01  0.00000000000E+00 0. -1.
     999901    1    3    3    0    0 -0.90678160391E-01 -0.11130331340E-01 -0.11447868112E+00  0.89210525247E+00  0.88000000000E+00 0. -1.
        -11    1    4    4    0    0  0.53229079888E-01  0.58825612024E-02  0.43394755876E-01  0.68929713699E-01  0.51100000000E-03 0.  1.
         11    1    4    4    0    0  0.37423460387E-01  0.27524587172E-02  0.54783508364E-01  0.66404708613E-01  0.51100000000E-03 0. -1.
</event>
<event>
 8    1  0.1207611E+005  0.1043930E+01  0.7957747E-01            NaN
         13   -1    0    0    0    0  0.00000000000E+00  0.00000000000E+00  0.74505805969E-08  0.10566000000E+00  0.10566000000E+00 0.  1.
     999900   -1    0    0    0    0 -0.00000000000E+00 -0.00000000000E+00 -0.74505805969E-08  0.93827000000E+00  0.93827000000E+00 0. -1.
     999902    2    1    2    0    0  0.15540887209E-01  0.30800054953E-01 -0.10495561365E-01  0.10078700587E+01  0.10072247693E+01 0.  0.
     999903    2    3    3    0    0  0.58639266044E-01  0.98546212712E-01 -0.41804619280E-01  0.12366008968E+00  0.19856284273E-01 0.  0.
         14    1    1    2    0    0 -0.15540887209E-01 -0.30800054953E-01  0.10495561365E-01  0.36059941330E-01  0.00000000000E+00 0.  1.
     999901    1    3    3    0    0 -0.43098378835E-01 -0.67746157759E-01  0.31309057915E-01  0.88420996899E+00  0.88000000000E+00 0.  1.
        -11    1    4    4    0    0  0.24335483119E-01  0.60094187199E-01 -0.24123608898E-01  0.69179019226E-01  0.51100000000E-03 0.  1.
         11    1    4    4    0    0  0.34303782925E-01  0.38452025513E-01 -0.17681010382E-01  0.54481070457E-01  0.51100000000E-03 0. -1.
</event>
<event>
 8    1  0.1207611E+005  0.1043930E+01  0.7957747E-01            NaN
         13   -1    0    0    0    0  0.00000000000E+00  0.00000000000E+00  0.74505805969E-08  0.10566000000E+00  0.10566000000E+00 0. -1.
     999900   -1    0    0    0    0 -0.00000000000E+00 -0.00000000000E+00 -0.74505805969E-08  0.93827000000E+00  0.93827000000E+00 0.  1.
     999902    2    1    2    0    0 -0.17728141025E-01  0.14896279376E-01 -0.69803168954E-02  0.10197450678E+01  0.10194582347E+01 0.  0.
     999903    2    3    3    0    0 -0.95870008408E-01 -0.83922014978E-01 -0.21303201801E-01  0.13065769761E+00  0.19586843202E-01 0.  0.
         14    1    1    2    0    0  0.17728141025E-01 -0.14896279376E-01  0.69803168954E-02  0.24184932239E-01  0.00000000000E+00 0. -1.
     999901    1    3    3    0    0  0.78141867383E-01  0.98818294355E-01  0.14322884905E-01  0.88908737016E+00  0.88000000000E+00 0.  1.
        -11    1    4    4    0    0 -0.59347942835E-01 -0.61864774356E-01 -0.19667344298E-01  0.87957342943E-01  0.51100000000E-03 0. -1.
         11    1    4    4    0    0 -0.36522065573E-01 -0.22057240622E-01 -0.16358575032E-02  0.42700354663E-01  0.51100000000E-03 0.  1.
</event>
<event>
 8    1  0.1207611E+005  0.1043930E+01  0.7957747E-01            NaN
         13   -1    0    0    0    0  0.00000000000E+00  0.00000000000E+00  0.74505805969E-08  0.10566000000E+00  0.10566000000E+00 0.  1.
     999900   -1    0    0    0    0 -0.00000000000E+00 -0.00000000000E+00 -0.74505805969E-08  0.93827000000E+00  0.93827000000E+00 0. -1.
     999902    2    1    2    0    0 -0.12232918352E-01 -0.14374835784E-01  0.13129167487E-01  0.10209374961E+01  0.10206785565E+01 0.  0.
     999903    2    3    3    0    0 -0.58893911724E-01  0.10694567028E+00  0.42433969607E-01  0.13090677480E+00  0.20738193765E-01 0.  0.
         14    1    1    2    0    0  0.12232918352E-01  0.14374835784E-01 -0.13129167487E-01  0.22992503868E-01  0.00000000000E+00 0. -1.
     999901    1    3    3    0    0  0.46660993372E-01 -0.12132050607E+00 -0.29304802119E-01  0.89003072134E+00  0.88000000000E+00 0. -1.
        -11    1    4    4    0    0 -0.17492353383E-01  0.37812587649E-01  0.47129809806E-02  0.41931462201E-01  0.51100000000E-03 0. -1.
         11    1    4    4    0    0 -0.41401558341E-01  0.69133082633E-01  0.37720988626E-01  0.88975312594E-01  0.51100000000E-03 0.  1.
</event>
<event>
 8    1  0.1207611E+005  0.1043930E+01  0.7957747E-01            NaN
         13   -1    0    0    0    0  0.00000000000E+00  0.00000000000E+00  0.74505805969E-08  0.10566000000E+00  0.10566000000E+00 0.  1.
     999900   -1    0    0    0    0 -0.00000000000E+00 -0.00000000000E+00 -0.74505805969E-08  0.93827000000E+00  0.93827000000E+00 0.  1.
     999902    2    1    2    0    0 -0.14429488299E-01  0.90847990349E-02  0.15201469897E-01  0.10210864365E+01  0.10208308785E+01 0.  0.
     999903    2    3    3    0    0 -0.30245456435E-01 -0.12061511980E+00 -0.32321817053E-01  0.13017079707E+00  0.20903152658E-01 0.  0.
         14    1    1    2    0    0  0.14429488299E-01 -0.90847990349E-02 -0.15201469897E-01  0.22843563494E-01  0.00000000000E+00 0. -1.
     999901    1    3    3    0    0  0.15815968136E-01  0.12969991884E+00  0.47523286950E-01  0.89091563944E+00  0.88000000000E+00 0. -1.
        -11    1    4    4    0    0 -0.28441548761E-01 -0.75554975734E-01 -0.24744923532E-01  0.84439614019E-01  0.51100000000E-03 0.  1.
         11    1    4    4    0    0 -0.18039076741E-02 -0.45060144070E-01 -0.75768935212E-02  0.45731183048E-01  0.51100000000E-03 0. -1.
</event>
<event>
 8    1  0.1207611E+005  0.1043930E+01  0.7957747E-01            NaN
         13   -1    0    0    0    0  0.00000000000E+00  0.00000000000E+00  0.74505805969E-08  0.10566000000E+00  0.10566000000E+00 0.  1.
     999900   -1    0    0    0    0 -0.00000000000E+00 -0.00000000000E+00 -0.74505805969E-08  0.93827000000E+00  0.93827000000E+00 0.  1.
     999902    2    1    2    0    0 -0.92049928478E-02  0.21858595551E-01 -0.26880133123E-02  0.10200604481E+01  0.10197811345E+01 0.  0.
     999903    2    3    3    0    0 -0.20351281538E-01 -0.12325164628E+00 -0.19299535167E-01  0.12795217849E+00  0.19853084187E-01 0.  0.
         14    1    1    2    0    0  0.92049928478E-02 -0.21858595551E-01  0.26880133123E-02  0.23869551910E-01  0.00000000000E+00 0.  1.
     999901    1    3    3    0    0  0.11146288691E-01  0.14511024183E+00  0.16611521855E-01  0.89210826960E+00  0.88000000000E+00 0.  1.
        -11    1    4    4    0    0 -0.14852676450E-01 -0.56738032611E-01 -0.17415754523E-01  0.61183134677E-01  0.51100000000E-03 0.  1.
         11    1    4    4    0    0 -0.54986050888E-02 -0.66513613667E-01 -0.18837806442E-02  0.66769043811E-01  0.51100000000E-03 0. -1.
</event>
<event>
 8    1  0.1207611E+005  0.1043930E+01  0.7957747E-01            NaN
         13   -1    0    0    0    0  0.00000000000E+00  0.00000000000E+00  0.74505805969E-08  0.10566000000E+00  0.10566000000E+00 0.  1.
     999900   -1    0    0    0    0 -0.00000000000E+00 -0.00000000000E+00 -0.74505805969E-08  0.93827000000E+00  0.93827000000E+00 0.  1.
     999902    2    1    2    0    0  0.32070697754E-02  0.19989350455E-01  0.92187668754E-03  0.10236640363E+01  0.10234634092E+01 0.  0.
     999903    2    3    3    0    0 -0.55044870189E-01 -0.15659156436E-01 -0.11827116672E+00  0.13300636572E+00  0.20675529752E-01 0.  0.
         14    1    1    2    0    0 -0.32070697754E-02 -0.19989350455E-01 -0.92187668754E-03  0.20265963702E-01  0.00000000000E+00 0. -1.
     999901    1    3    3    0    0  0.58251939965E-01  0.35648506891E-01  0.11919304341E+00  0.89065767057E+00  0.88000000000E+00 0. -1.
        -11    1    4    4    0    0 -0.15117332217E-01 -0.12147225001E-01 -0.52654224398E-01  0.56114323274E-01  0.51100000000E-03 0. -1.
         11    1    4    4    0    0 -0.39927537972E-01 -0.35119314351E-02 -0.65616942326E-01  0.76892042450E-01  0.51100000000E-03 0.  1.
</event>
<event>
 8    1  0.1207611E+005  0.1043930E+01  0.7957747E-01            NaN
         13   -1    0    0    0    0  0.00000000000E+00  0.00000000000E+00  0.74505805969E-08  0.10566000000E+00  0.10566000000E+00 0.  1.
     999900   -1    0    0    0    0 -0.00000000000E+00 -0.00000000000E+00 -0.74505805969E-08  0.93827000000E+00  0.93827000000E+00 0. -1.
     999902    2    1    2    0    0 -0.45186324329E-02  0.70963715896E-03 -0.23681408676E-01  0.10198109051E+01  0.10195256502E+01 0.  0.
     999903    2    3    3    0    0 -0.58573781154E-01 -0.60613813268E-01 -0.10067758312E+00  0.13267453699E+00  0.19016698532E-01 0.  0.
         14    1    1    2    0    0  0.45186324329E-02 -0.70963715896E-03  0.23681408676E-01  0.24119094942E-01  0.00000000000E+00 0.  1.
     999901    1    3    3    0    0  0.54055148722E-01  0.61323450427E-01  0.76996174449E-01  0.88713636807E+00  0.88000000000E+00 0.  1.
        -11    1    4    4    0    0 -0.18033038846E-01 -0.27815143753E-01 -0.29090285475E-01  0.44106445584E-01  0.51100000000E-03 0.  1.
         11    1    4    4    0    0 -0.40540742308E-01 -0.32798669515E-01 -0.71587297650E-01  0.88568091403E-01  0.51100000000E-03 0. -1.
</event>
<event>
 8    1  0.1207611E+005  0.1043930E+01  0.7957747E-01            NaN
         13   -1    0    0    0    0  0.00000000000E+00  0.00000000000E+00  0.74505805969E-08  0.10566000000E+00  0.10566000000E+00 0. -1.
     999900   -1    0    0    0    0 -0.00000000000E+00 -0.00000000000E+00 -0.74505805969E-08  0.93827000000E+00  0.93827000000E+00 0.  1.
     999902    2    1    2    0    0  0.65128863246E-02  0.22432194139E-02 -0.23327305922E-01  0.10196069056E+01  0.10193167461E+01 0.  0.
     999903    2    3    3    0    0 -0.84692227610E-01  0.76838729968E-01 -0.61126373024E-01  0.13094969804E+00  0.18287320658E-01 0.  0.
         14    1    1    2    0    0 -0.65128863246E-02 -0.22432194139E-02  0.23327305922E-01  0.24323094441E-01  0.00000000000E+00 0. -1.
     999901    1    3    3    0    0  0.91205113935E-01 -0.74595510554E-01  0.37799067102E-01  0.88865720752E+00  0.88000000000E+00 0. -1.
        -11    1    4    4    0    0 -0.17860264856E-01  0.23213793743E-01 -0.89687527629E-02  0.30636072329E-01  0.51100000000E-03 0. -1.
         11    1    4    4    0    0 -0.66831962754E-01  0.53624936225E-01 -0.52157620261E-01  0.10031362571E+00  0.51100000000E-03 0.  1.
</event>
<event>
 8    1  0.1207611E+005  0.1043930E+01  0.7957747E-01            NaN
         13   -1    0    0    0    0  0.00000000000E+00  0.00000000000E+00  0.74505805969E-08  0.10566000000E+00  0.10566000000E+00 0.  1.
     999900   -1    0    0    0    0 -0.00000000000E+00 -0.00000000000E+00 -0.74505805969E-08  0.93827000000E+00  0.93827000000E+00 0.  1.
     999902    2    1    2    0    0  0.69549829774E-02  0.56371179912E-02  0.21448174333E-01  0.10206883764E+01  0.10204237299E+01 0.  0.
     999903    2    3    3    0    0  0.33444677227E-01  0.11771920840E+00 -0.41595139916E-01  0.13094765100E+00  0.20994598724E-01 0.  0.
         14    1    1    2    0    0 -0.69549829774E-02 -0.56371179912E-02 -0.21448174333E-01  0.23241623645E-01  0.00000000000E+00 0. -1.
     999901    1    3    3    0    0 -0.26489694250E-01 -0.11208209041E+00  0.63043314249E-01  0.88974072536E+00  0.88000000000E+00 0. -1.
        -11    1    4    4    0    0  0.15505988011E-01  0.23987568973E-01 -0.67767162528E-02  0.29360247506E-01  0.51100000000E-03 0. -1.
         11    1    4    4    0    0  0.17938689216E-01  0.93731639426E-01 -0.34818423663E-01  0.10158740349E+00  0.51100000000E-03 0.  1.
</event>
<event>
 8    1  0.1207611E+005  0.1043930E+01  0.7957747E-01            NaN
         13   -1    0    0    0    0  0.00000000000E+00  0.00000000000E+00  0.74505805969E-08  0.10566000000E+00  0.10566000000E+00 0.  1.
     999900   -1    0    0    0    0 -0.00000000000E+00 -0.00000000000E+00 -0.74505805969E-08  0.93827000000E+00  0.93827000000E+00 0. -1.
     999902    2    1    2    0    0 -0.24854367113E-02  0.71299122259E-02 -0.22602440793E-01  0.10200996963E+01  0.10198213113E+01 0.  0.
     999903    2    3    3    0    0 -0.56538048110E-01 -0.10700538102E+00  0.39440392946E-01  0.12892190082E+00  0.20459947780E-01 0.  0.
         14    1    1    2    0    0  0.24854367113E-02 -0.71299122259E-02  0.22602440793E-01  0.23830303686E-01  0.00000000000E+00 0.  1.
     999901    1    3    3    0    0  0.54052611398E-01  0.11413529325E+00 -0.62042833739E-01  0.89117779549E+00  0.88000000000E+00 0. -1.
        -11    1    4    4    0    0 -0.26723760378E-01 -0.31785570261E-01  0.17646669473E-01  0.45123695661E-01  0.51100000000E-03 0. -1.
         11    1    4    4    0    0 -0.29814287731E-01 -0.75219810762E-01  0.21793723473E-01  0.83798205159E-01  0.51100000000E-03 0.  1.
</event>
<event>
 8    1  0.1207611E+005  0.1043930E+01  0.7957747E-01            NaN
         13   -1    0    0    0    0  0.00000000000E+00  0.00000000000E+00  0.74505805969E-08  0.10566000000E+00  0.10566000000E+00 0. -1.
     999900   -1    0    0    0    0 -0.00000000000E+00 -0.00000000000E+00 -0.74505805969E-08  0.93827000000E+00  0.93827000000E+00 0.  1.
     999902    2    1    2    0    0 -0.42552834419E-02  0.63016980130E-02  0.20808090787E-01  0.10217760957E+01  0.10215358996E+01 0.  0.
     999903    2    3    3    0    0 -0.11663567224E+00 -0.76581867261E-02  0.60986617274E-01  0.13361026421E+00  0.21675039870E-01 0.  0.
         14    1    1    2    0    0  0.42552834419E-02 -0.63016980130E-02 -0.20808090787E-01  0.22153904333E-01  0.00000000000E+00 0.  1.
     999901    1    3    3    0    0  0.11238038880E+00  0.13959884739E-01 -0.40178526487E-01  0.88816583145E+00  0.88000000000E+00 0.  1.
        -11    1    4    4    0    0 -0.10706020741E+00 -0.13022479916E-01  0.54308175629E-01  0.12075227557E+00  0.51100000000E-03 0. -1.
         11    1    4    4    0    0 -0.95754648299E-02  0.53642931899E-02  0.66784416451E-02  0.12857988643E-01  0.51100000000E-03 0.  1.
</event>
<event>
 8    1  0.1207611E+005  0.1043930E+01  0.7957747E-01            NaN
         13   -1    0    0    0    0  0.00000000000E+00  0.00000000000E+00  0.74505805969E-08  0.10566000000E+00  0.10566000000E+00 0. -1.
     999900   -1    0    0    0    0 -0.00000000000E+00 -0.00000000000E+00 -0.74505805969E-08  0.93827000000E+00  0.93827000000E+00 0. -1.
     999902    2    1    2    0    0  0.17069484997E-01 -0.12208492786E-01  0.11571140689E-01  0.10199653195E+01  0.10196837486E+01 0.  0.
     999903    2    3    3    0    0 -0.55953353832E-01 -0.50091301041E-02 -0.11347157360E+00  0.12810218752E+00  0.19455159744E-01 0.  0.
         14    1    1    2    0    0 -0.17069484997E-01  0.12208492786E-01 -0.11571140689E-01  0.23964680490E-01  0.00000000000E+00 0. -1.
     999901    1    3    3    0    0  0.73022838829E-01 -0.71993626820E-02  0.12504271429E+00  0.89186313199E+00  0.88000000000E+00 0. -1.
        -11    1    4    4    0    0 -0.41287721328E-01 -0.61431278844E-02 -0.99088534673E-01  0.10752308021E+00  0.51100000000E-03 0. -1.
         11    1    4    4    0    0 -0.14665632504E-01  0.11339977803E-02 -0.14383038930E-01  0.20579107308E-01  0.51100000000E-03 0.  1.
</event>
<event>
 8    1  0.1207611E+005  0.1043930E+01  0.7957747E-01            NaN
         13   -1    0    0    0    0  0.00000000000E+00  0.00000000000E+00  0.74505805969E-08  0.10566000000E+00  0.10566000000E+00 0.  1.
     999900   -1    0    0    0    0 -0.00000000000E+00 -0.00000000000E+00 -0.74505805969E-08  0.93827000000E+00  0.93827000000E+00 0. -1.
     999902    2    1    2    0    0 -0.45108628616E-03  0.23556730674E-01 -0.40868552351E-02  0.10200171285E+01  0.10197367881E+01 0.  0.
     999903    2    3    3    0    0 -0.67366292266E-01 -0.91894604866E-02 -0.10964233449E+00  0.13058364753E+00  0.20198613117E-01 0.  0.
         14    1    1    2    0    0  0.45108628616E-03 -0.23556730674E-01  0.40868552351E-02  0.23912871526E-01  0.00000000000E+00 0.  1.
     999901    1    3    3    0    0  0.66915205980E-01  0.32746191161E-01  0.10555547925E+00  0.88943348095E+00  0.88000000000E+00 0.  1.
        -11    1    4    4    0    0 -0.38782108376E-01 -0.12292048366E-01 -0.76945117090E-01  0.87039982468E-01  0.51100000000E-03 0. -1.
         11    1    4    4    0    0 -0.28584183890E-01  0.31025878791E-02 -0.32697217400E-01  0.43543665060E-01  0.51100000000E-03 0.  1.
</event>
<event>
 8    1  0.1207611E+005  0.1043930E+01  0.7957747E-01            NaN
         13   -1    0    0    0    0  0.00000000000E+00  0.00000000000E+00  0.74505805969E-08  0.10566000000E+00  0.10566000000E+00 0. -1.
     999900   -1    0    0    0    0 -0.00000000000E+00 -0.00000000000E+00 -0.74505805969E-08  0.93827000000E+00  0.93827000000E+00 0. -1.
     999902    2    1    2    0    0 -0.25110052095E-02  0.18264486227E-01 -0.14818220059E-01  0.10202767497E+01  0.10200025342E+01 0.  0.
     999903    2    3    3    0    0 -0.33706222899E-01 -0.12150410322E+00 -0.15456420877E-01  0.12870016437E+00  0.20627040556E-01 0.  0.
         14    1    1    2    0    0  0.25110052095E-02 -0.18264486227E-01  0.14818220059E-01  0.23653250305E-01  0.00000000000E+00 0. -1.
     999901    1    3    3    0    0  0.31195217689E-01  0.13976858944E+00  0.63820081814E-03  0.89157658533E+00  0.88000000000E+00 0.  1.
        -11    1    4    4    0    0 -0.60993361603E-02 -0.55172386962E-01 -0.16426406938E-02  0.55535156200E-01  0.51100000000E-03 0.  1.
         11    1    4    4    0    0 -0.27606886738E-01 -0.66331716253E-01 -0.13813780183E-01  0.73165008169E-01  0.51100000000E-03 0. -1.
</event>
<event>
 8    1  0.1207611E+005  0.1043930E+01  0.7957747E-01            NaN
         13   -1    0    0    0    0  0.00000000000E+00  0.00000000000E+00  0.74505805969E-08  0.10566000000E+00  0.10566000000E+00 0. -1.
     999900   -1    0    0    0    0 -0.00000000000E+00 -0.00000000000E+00 -0.74505805969E-08  0.93827000000E+00  0.93827000000E+00 0. -1.
     999902    2    1    2    0    0  0.13833592662E-01 -0.18668591638E-01 -0.43836636127E-02  0.10202846811E+01  0.10200106516E+01 0.  0.
     999903    2    3    3    0    0 -0.11939959931E+00 -0.17500951841E-01 -0.42446859264E-01  0.12944167938E+00  0.19770302704E-01 0.  0.
         14    1    1    2    0    0 -0.13833592662E-01  0.18668591638E-01  0.43836636127E-02  0.23645318910E-01  0.00000000000E+00 0.  1.
     999901    1    3    3    0    0  0.13323319197E+00 -0.11676397971E-02  0.38063195651E-01  0.89084300171E+00  0.88000000000E+00 0. -1.
        -11    1    4    4    0    0 -0.71021493770E-01 -0.12786171671E-01 -0.15314582260E-01  0.73772192011E-01  0.51100000000E-03 0.  1.
         11    1    4    4    0    0 -0.48378105542E-01 -0.47147801702E-02 -0.27132277003E-01  0.55669487372E-01  0.51100000000E-03 0. -1.
</event>
<event>
 8    1  0.1207611E+005  0.1043930E+01  0.7957747E-01            NaN
         13   -1    0    0    0    0  0.00000000000E+00  0.00000000000E+00  0.74505805969E-08  0.10566000000E+00  0.10566000000E+00 0. -1.
     999900   -1    0    0    0    0 -0.00000000000E+00 -0.00000000000E+00 -0.74505805969E-08  0.93827000000E+00  0.93827000000E+00 0. -1.
     999902    2    1    2    0    0  0.65816449425E-02  0.11912413926E-01  0.18907810326E-01  0.10206334563E+01  0.10203675432E+01 0.  0.
     999903    2    3    3    0    0  0.73106611039E-01  0.18772353260E-01  0.10844508006E+00  0.13356550372E+00  0.19555832109E-01 0.  0.
         14    1    1    2    0    0 -0.65816449425E-02 -0.11912413926E-01 -0.18907810326E-01  0.23296543671E-01  0.00000000000E+00 0.  1.
     999901    1    3    3    0    0 -0.66524966096E-01 -0.68599393334E-02 -0.89537269733E-01  0.88706795261E+00  0.88000000000E+00 0. -1.
        -11    1    4    4    0    0  0.55532510969E-01  0.75341392845E-02  0.88149472686E-01  0.10445675510E+00  0.51100000000E-03 0. -1.
         11    1    4    4    0    0  0.17574100070E-01  0.11238213975E-01  0.20295607373E-01  0.29108748621E-01  0.51100000000E-03 0.  1.
</event>
<event>
 8    1  0.1207611E+005  0.1043930E+01  0.7957747E-01            NaN
         13   -1    0    0    0    0  0.00000000000E+00  0.00000000000E+00  0.74505805969E-08  0.10566000000E+00  0.10566000000E+00 0.  1.
     999900   -1    0    0    0    0 -0.00000000000E+00 -0.00000000000E+00 -0.74505805969E-08  0.93827000000E+00  0.93827000000E+00 0.  1.
     999902    2    1    2    0    0  0.14523496908E-02  0.24181307745E-01  0.78122981087E-02  0.10184765726E+01  0.10181584611E+01 0.  0.
     999903    2    3    3    0    0 -0.33306083211E-01  0.70674695072E-01  0.10373055887E+00  0.13136322221E+00  0.19800495001E-01 0.  0.
         14    1    1    2    0    0 -0.14523496908E-02 -0.24181307745E-01 -0.78122981087E-02  0.25453427385E-01  0.00000000000E+00 0. -1.
     999901    1    3    3    0    0  0.34758432902E-01 -0.46493387327E-01 -0.95918260765E-01  0.88711335041E+00  0.88000000000E+00 0.  1.
        -11    1    4    4    0    0 -0.16864180322E-01  0.29152602339E-01  0.29714913911E-01  0.44916723287E-01  0.51100000000E-03 0. -1.
         11    1    4    4    0    0 -0.16441902889E-01  0.41522092733E-01  0.74015644962E-01  0.86446498921E-01  0.51100000000E-03 0.  1.
</event>
<event>
 8    1  0.1207611E+005  0.1043930E+01  0.7957747E-01            NaN
         13   -1    0    0    0    0  0.00000000000E+00  0.00000000000E+00  0.74505805969E-08  0.10566000000E+00  0.10566000000E+00 0. -1.
     999900   -1    0    0    0    0 -0.00000000000E+00 -0.00000000000E+00 -0.74505805969E-08  0.93827000000E+00  0.93827000000E+00 0.  1.
     999902    2    1    2    0    0  0.61598504197E-02  0.20771338207E-01  0.83844840611E-02  0.10206987318E+01  0.10204343239E+01 0.  0.
     999903    2    3    3    0    0 -0.57032692549E-01 -0.11276566185E+00  0.12984162989E-01  0.12837223053E+00  0.18493744078E-01 0.  0.
         14    1    1    2    0    0 -0.61598504197E-02 -0.20771338207E-01 -0.83844840611E-02  0.23231268176E-01  0.00000000000E+00 0.  1.
     999901    1    3    3    0    0  0.63192542969E-01  0.13353700006E+00 -0.45996789278E-02  0.89232650130E+00  0.88000000000E+00 0. -1.
        -11    1    4    4    0    0 -0.57214957865E-02 -0.21657785719E-01 -0.29521449167E-02  0.22600253912E-01  0.51100000000E-03 0.  1.
         11    1    4    4    0    0 -0.51311196762E-01 -0.91107876132E-01  0.15936307906E-01  0.10577197661E+00  0.51100000000E-03 0. -1.
</event>
<event>
 8    1  0.1207611E+005  0.1043930E+01  0.7957747E-01            NaN
         13   -1    0    0    0    0  0.00000000000E+00  0.00000000000E+00  0.74505805969E-08  0.10566000000E+00  0.10566000000E+00 0. -1.
     999900   -1    0    0    0    0 -0.00000000000E+00 -0.00000000000E+00 -0.74505805969E-08  0.93827000000E+00  0.93827000000E+00 0. -1.
     999902    2    1    2    0    0 -0.49370384926E-02  0.35204222096E-02 -0.23279310776E-01  0.10198739398E+01  0.10195901917E+01 0.  0.
     999903    2    3    3    0    0  0.38762552359E-02  0.38976873414E-01 -0.12571077927E+00  0.13317949424E+00  0.19983884642E-01 0.  0.
         14    1    1    2    0    0  0.49370384926E-02 -0.35204222096E-02  0.23279310776E-01  0.24056060189E-01  0.00000000000E+00 0. -1.
     999901    1    3    3    0    0 -0.88132937285E-02 -0.35456451204E-01  0.10243146849E+00  0.88669444558E+00  0.88000000000E+00 0.  1.
        -11    1    4    4    0    0  0.75915265916E-02  0.46757147146E-02 -0.35178370811E-01  0.36294248553E-01  0.51100000000E-03 0. -1.
         11    1    4    4    0    0 -0.37152713557E-02  0.34301158699E-01 -0.90532408455E-01  0.96885245682E-01  0.51100000000E-03 0.  1.
</event>
<event>
 8    1  0.1207611E+005  0.1043930E+01  0.7957747E-01            NaN
         13   -1    0    0    0    0  0.00000000000E+00  0.00000000000E+00  0.74505805969E-08  0.10566000000E+00  0.10566000000E+00 0.  1.
     999900   -1    0    0    0    0 -0.00000000000E+00 -0.00000000000E+00 -0.74505805969E-08  0.93827000000E+00  0.93827000000E+00 0.  1.
     999902    2    1    2    0    0  0.19198481735E-02 -0.22597504050E-01 -0.30142410852E-02  0.10210516553E+01  0.10207953096E+01 0.  0.
     999903    2    3    3    0    0 -0.70258056651E-01  0.86552626877E-01  0.61782295571E-01  0.12901914907E+00  0.20033398059E-01 0.  0.
         14    1    1    2    0    0 -0.19198481735E-02  0.22597504050E-01  0.30142410852E-02  0.22878344687E-01  0.00000000000E+00 0. -1.
     999901    1    3    3    0    0  0.72177904824E-01 -0.10915013093E+00 -0.64796536657E-01  0.89203250624E+00  0.88000000000E+00 0.  1.
        -11    1    4    4    0    0 -0.75055382897E-03  0.86651605574E-02  0.30062734883E-02  0.92166772658E-02  0.51100000000E-03 0. -1.
         11    1    4    4    0    0 -0.69507502822E-01  0.77887466319E-01  0.58776022083E-01  0.11980247181E+00  0.51100000000E-03 0.  1.
</event>
<event>
 8    1  0.1207611E+005  0.1043930E+01  0.7957747E-01            NaN
         13   -1    0    0    0    0  0.00000000000E+00  0.00000000000E+00  0.74505805969E-08  0.10566000000E+00  0.10566000000E+00 0. -1.
     999900   -1    0    0    0    0 -0.00000000000E+00 -0.00000000000E+00 -0.74505805969E-08  0.93827000000E+00  0.93827000000E+00 0. -1.
     999902    2    1    2    0    0 -0.66280835571E-02 -0.17049747610E-01  0.12607896077E-01  0.10217132399E+01  0.10214716639E+01 0.  0.
     999903    2    3    3    0    0  0.98150015876E-01 -0.87037391031E-01  0.39989379231E-02  0.13269646026E+00  0.19581266715E-01 0.  0.
         14    1    1    2    0    0  0.66280835571E-02  0.17049747610E-01 -0.12607896077E-01  0.22216760085E-01  0.00000000000E+00 0.  1.
     999901    1    3    3    0    0 -0.10477809943E+00  0.69987643421E-01  0.86089581542E-02  0.88901677966E+00  0.88000000000E+00 0.  1.
        -11    1    4    4    0    0  0.54638613413E-01 -0.35428448013E-01  0.27450047956E-02  0.65179361585E-01  0.51100000000E-03 0.  1.
         11    1    4    4    0    0  0.43511402464E-01 -0.51608943018E-01  0.12539331275E-02  0.67517098672E-01  0.51100000000E-03 0. -1.
</event>
<event>
 8    1  0.1207611E+005  0.1043930E+01  0.7957747E-01            NaN
         13   -1    0    0    0    0  0.00000000000E+00  0.00000000000E+00  0.74505805969E-08  0.10566000000E+00  0.10566000000E+00 0. -1.
     999900   -1    0    0    0    0 -0.00000000000E+00 -0.00000000000E+00 -0.74505805969E-08  0.93827000000E+00  0.93827000000E+00 0. -1.
     999902    2    1    2    0    0  0.91377313523E-02  0.67453715620E-02 -0.21025971620E-01  0.10200325178E+01  0.10197525424E+01 0.  0.
     999903    2    3    3    0    0  0.88392254577E-01 -0.50111557946E-01 -0.82690934253E-01  0.13249854242E+00  0.19842233397E-01 0.  0.
         14    1    1    2    0    0 -0.91377313523E-02 -0.67453715620E-02  0.21025971620E-01  0.23897482176E-01  0.00000000000E+00 0. -1.
     999901    1    3    3    0    0 -0.79254523225E-01  0.56856929508E-01  0.61664962632E-01  0.88753397541E+00  0.88000000000E+00 0. -1.
        -11    1    4    4    0    0  0.64441493918E-01 -0.34571657546E-01 -0.47601876113E-01  0.87258841239E-01  0.51100000000E-03 0.  1.
         11    1    4    4    0    0  0.23950760659E-01 -0.15539900400E-01 -0.35089058140E-01  0.45239701179E-01  0.51100000000E-03 0. -1.
</event>
<event>
 8    1  0.1207611E+005  0.1043930E+01  0.7957747E-01            NaN
         13   -1    0    0    0    0  0.00000000000E+00  0.00000000000E+00  0.74505805969E-08  0.10566000000E+00  0.10566000000E+00 0. -1.
     999900   -1    0    0    0    0 -0.00000000000E+00 -0.00000000000E+00 -0.74505805969E-08  0.93827000000E+00  0.93827000000E+00 0.  1.
     999902    2    1    2    0    0 -0.59724725194E-02 -0.15208726322E-01  0.17471084685E-01  0.10200089928E+01  0.10197284594E+01 0.  0.
     999903    2    3    3    0    0  0.86761595523E-02  0.14657445194E-01  0.12952445159E+00  0.13228013351E+00  0.20768575222E-01 0.  0.
         14    1    1    2    0    0  0.59724725194E-02  0.15208726322E-01 -0.17471084685E-01  0.23921007178E-01  0.00000000000E+00 0.  1.
     999901    1    3    3    0    0 -0.14648632072E-01 -0.29866171516E-01 -0.11205336691E+00  0.88772885931E+00  0.88000000000E+00 0.  1.
        -11    1    4    4    0    0  0.92069758050E-02 -0.26034381300E-02  0.46902243933E-01  0.47870950487E-01  0.51100000000E-03 0. -1.
         11    1    4    4    0    0 -0.53081625268E-03  0.17260883324E-01  0.82622207659E-01  0.84409183022E-01  0.51100000000E-03 0.  1.
</event>
<event>
 8    1  0.1207611E+005  0.1043930E+01  0.7957747E-01            NaN
         13   -1    0    0    0    0  0.00000000000E+00  0.00000000000E+00  0.74505805969E-08  0.10566000000E+00  0.10566000000E+00 0. -1.
     999900   -1    0    0    0    0 -0.00000000000E+00 -0.00000000000E+00 -0.74505805969E-08  0.93827000000E+00  0.93827000000E+00 0. -1.
     999902    2    1    2    0    0 -0.74425488598E-02 -0.36297993678E-02  0.21458213781E-01  0.10209295236E+01  0.10206704023E+01 0.  0.
     999903    2    3    3    0    0  0.69696456354E-01  0.29842111487E-01  0.10730601699E+00  0.13276251211E+00  0.19056644360E-01 0.  0.
         14    1    1    2    0    0  0.74425488598E-02  0.36297993678E-02 -0.21458213781E-01  0.23000476422E-01  0.00000000000E+00 0.  1.
     999901    1    3    3    0    0 -0.77139005214E-01 -0.33471910855E-01 -0.85847803206E-01  0.88816701147E+00  0.88000000000E+00 0. -1.
        -11    1    4    4    0    0  0.22313231798E-01  0.20303565530E-02  0.40271888310E-01  0.46087837550E-01  0.51100000000E-03 0.  1.
         11    1    4    4    0    0  0.47383224557E-01  0.27811754934E-01  0.67034128677E-01  0.86674674562E-01  0.51100000000E-03 0. -1.
</event>
<event>
 8    1  0.1207611E+005  0.1043930E+01  0.7957747E-01            NaN
         13   -1    0    0    0    0  0.00000000000E+00  0.00000000000E+00  0.74505805969E-08  0.10566000000E+00  0.10566000000E+00 0. -1.
     999900   -1    0    0    0    0 -0.00000000000E+00 -0.00000000000E+00 -0.74505805969E-08  0.93827000000E+00  0.93827000000E+00 0.  1.
     999902    2    1    2    0    0 -0.20658903103E-01  0.12966944641E-01  0.19191981145E-05  0.10195387734E+01  0.10192469664E+01 0.  0.
     999903    2    3    3    0    0  0.89056024812E-01 -0.65359445504E-02 -0.89574089880E-01  0.12799988503E+00  0.19666185797E-01 0.  0.
         14    1    1    2    0    0  0.20658903103E-01 -0.12966944641E-01 -0.19191981145E-05  0.24391226587E-01  0.00000000000E+00 0.  1.
     999901    1    3    3    0    0 -0.10971492792E+00  0.19502889191E-01  0.89576009078E-01  0.89153888838E+00  0.88000000000E+00 0.  1.
        -11    1    4    4    0    0  0.30589011859E-01 -0.99824579288E-02 -0.39438799515E-01  0.50902034743E-01  0.51100000000E-03 0. -1.
         11    1    4    4    0    0  0.58467012953E-01  0.34465133784E-02 -0.50135290365E-01  0.77097850288E-01  0.51100000000E-03 0.  1.
</event>
<event>
 8    1  0.1207611E+005  0.1043930E+01  0.7957747E-01            NaN
         13   -1    0    0    0    0  0.00000000000E+00  0.00000000000E+00  0.74505805969E-08  0.10566000000E+00  0.10566000000E+00 0.  1.
     999900   -1    0    0    0    0 -0.00000000000E+00 -0.00000000000E+00 -0.74505805969E-08  0.93827000000E+00  0.93827000000E+00 0. -1.
     999902    2    1    2    0    0  0.84734577941E-02  0.19908921902E-01  0.72163597372E-02  0.10211212187E+01  0.10208664470E+01 0.  0.
     999903    2    3    3    0    0 -0.10416793238E+00 -0.62904337641E-01 -0.37088495981E-01  0.12898387555E+00  0.21292481948E-01 0.  0.
         14    1    1    2    0    0 -0.84734577941E-02 -0.19908921902E-01 -0.72163597372E-02  0.22808781338E-01  0.00000000000E+00 0.  1.
     999901    1    3    3    0    0  0.11264139017E+00  0.82813259543E-01  0.44304855718E-01  0.89213734311E+00  0.88000000000E+00 0.  1.
        -11    1    4    4    0    0 -0.29037240153E-01 -0.25952232897E-01 -0.18952576309E-01  0.43314443062E-01  0.51100000000E-03 0.  1.
         11    1    4    4    0    0 -0.75130692225E-01 -0.36952104744E-01 -0.18135919672E-01  0.85669432487E-01  0.51100000000E-03 0. -1.
</event>
<event>
 8    1  0.1207611E+005  0.1043930E+01  0.7957747E-01            NaN
         13   -1    0    0    0    0  0.00000000000E+00  0.00000000000E+00  0.74505805969E-08  0.10566000000E+00  0.10566000000E+00 0.  1.
     999900   -1    0    0    0    0 -0.00000000000E+00 -0.00000000000E+00 -0.74505805969E-08  0.93827000000E+00  0.93827000000E+00 0.  1.
     999902    2    1    2    0    0  0.18395742121E-01 -0.51140770542E-02 -0.15405487006E-01  0.10193966321E+01  0.10191013724E+01 0.  0.
     999903    2    3    3    0    0 -0.72611167160E-01  0.10198322495E+00 -0.22880361268E-01  0.12821316982E+00  0.15561048056E-01 0.  0.
         14    1    1    2    0    0 -0.18395742121E-01  0.51140770542E-02  0.15405487006E-01  0.24533367934E-01  0.00000000000E+00 0.  1.
     999901    1    3    3    0    0  0.91006909281E-01 -0.10709730200E+00  0.74748742620E-02  0.89118346224E+00  0.88000000000E+00 0.  1.
        -11    1    4    4    0    0 -0.28914597895E-01  0.37970162242E-01 -0.12528975802E-02  0.47745346008E-01  0.51100000000E-03 0. -1.
         11    1    4    4    0    0 -0.43696569265E-01  0.64013062706E-01 -0.21627463688E-01  0.80467823813E-01  0.51100000000E-03 0.  1.
</event>
<event>
 8    1  0.1207611E+005  0.1043930E+01  0.7957747E-01            NaN
         13   -1    0    0    0    0  0.00000000000E+00  0.00000000000E+00  0.74505805969E-08  0.10566000000E+00  0.10566000000E+00 0.  1.
     999900   -1    0    0    0    0 -0.00000000000E+00 -0.00000000000E+00 -0.74505805969E-08  0.93827000000E+00  0.93827000000E+00 0. -1.
     999902    2    1    2    0    0  0.51588914393E-02  0.10052260119E-01 -0.21036095943E-01  0.10200515698E+01  0.10197720460E+01 0.  0.
     999903    2    3    3    0    0  0.67821328060E-01  0.84521838432E-01  0.68970190412E-01  0.13012267906E+00  0.20768984788E-01 0.  0.
         14    1    1    2    0    0 -0.51588914393E-02 -0.10052260119E-01  0.21036095943E-01  0.23878430160E-01  0.00000000000E+00 0.  1.
     999901    1    3    3    0    0 -0.62662436621E-01 -0.74469578313E-01 -0.90006286355E-01  0.88992889078E+00  0.88000000000E+00 0. -1.
        -11    1    4    4    0    0  0.40709447188E-01  0.40682428685E-01  0.26639618033E-01  0.63421206737E-01  0.51100000000E-03 0.  1.
         11    1    4    4    0    0  0.27111880872E-01  0.43839409747E-01  0.42330572379E-01  0.66701472325E-01  0.51100000000E-03 0. -1.
</event>
<event>
 8    1  0.1207611E+005  0.1043930E+01  0.7957747E-01            NaN
         13   -1    0    0    0    0  0.00000000000E+00  0.00000000000E+00  0.74505805969E-08  0.10566000000E+00  0.10566000000E+00 0. -1.
     999900   -1    0    0    0    0 -0.00000000000E+00 -0.00000000000E+00 -0.74505805969E-08  0.93827000000E+00  0.93827000000E+00 0.  1.
     999902    2    1    2    0    0  0.48275477679E-02  0.23210561900E-01 -0.13084830463E-02  0.10201866319E+01  0.10199102982E+01 0.  0.
     999903    2    3    3    0    0  0.98051237863E-01  0.27935191302E-01 -0.80879589318E-01  0.13167971607E+00  0.20090283619E-01 0.  0.
         14    1    1    2    0    0 -0.48275477679E-02 -0.23210561900E-01  0.13084830463E-02  0.23743368106E-01  0.00000000000E+00 0. -1.
     999901    1    3    3    0    0 -0.93223690095E-01 -0.47246294024E-02  0.79571106271E-01  0.88850691583E+00  0.88000000000E+00 0. -1.
        -11    1    4    4    0    0  0.22932145149E-01  0.40033450202E-02 -0.29469042323E-01  0.37557897025E-01  0.51100000000E-03 0. -1.
         11    1    4    4    0    0  0.75119092714E-01  0.23931846282E-01 -0.51410546994E-01  0.94121819043E-01  0.51100000000E-03 0.  1.
</event>
<event>
 8    1  0.1207611E+005  0.1043930E+01  0.7957747E-01            NaN
         13   -1    0    0    0    0  0.00000000000E+00  0.00000000000E+00  0.74505805969E-08  0.10566000000E+00  0.10566000000E+00 0. -1.
     999900   -1    0    0    0    0 -0.00000000000E+00 -0.00000000000E+00 -0.74505805969E-08  0.93827000000E+00  0.93827000000E+00 0. -1.
     999902    2    1    2    0    0  0.93742443516E-02  0.22479738766E-01 -0.22939541641E-02  0.10194662035E+01  0.10191726364E+01 0.  0.
     999903    2    3    3    0    0 -0.83319071097E-01  0.99526966286E-01  0.63568047291E-02  0.13120770420E+00  0.18093315023E-01 0.  0.
         14    1    1    2    0    0 -0.93742443516E-02 -0.22479738766E-01  0.22939541641E-02  0.24463796472E-01  0.00000000000E+00 0.  1.
     999901    1    3    3    0    0  0.92693315449E-01 -0.77047227521E-01 -0.86507588932E-02  0.88825849933E+00  0.88000000000E+00 0.  1.
        -11    1    4    4    0    0 -0.35095826578E-01  0.50231372890E-01 -0.42853968355E-02  0.61429094187E-01  0.51100000000E-03 0.  1.
         11    1    4    4    0    0 -0.48223244519E-01  0.49295593396E-01  0.10642201565E-01  0.69778610013E-01  0.51100000000E-03 0. -1.
</event>
<event>
 8    1  0.1207611E+005  0.1043930E+01  0.7957747E-01            NaN
         13   -1    0    0    0    0  0.00000000000E+00  0.00000000000E+00  0.74505805969E-08  0.10566000000E+00  0.10566000000E+00 0.  1.
     999900   -1    0    0    0    0 -0.00000000000E+00 -0.00000000000E+00 -0.74505805969E-08  0.93827000000E+00  0.93827000000E+00 0. -1.
     999902    2    1    2    0    0  0.27059877328E-01  0.13204188962E-01 -0.68087854595E-02  0.10130601583E+01  0.10125897181E+01 0.  0.
     999903    2    3    3    0    0  0.49563143073E-01 -0.11037329355E+00  0.15908391637E-01  0.12385047477E+00  0.21144599660E-01 0.  0.
         14    1    1    2    0    0 -0.27059877328E-01 -0.13204188962E-01  0.68087854595E-02  0.30869841700E-01  0.00000000000E+00 0. -1.
     999901    1    3    3    0    0 -0.22503265745E-01  0.12357748251E+00 -0.22717177096E-01  0.88920968353E+00  0.88000000000E+00 0. -1.
        -11    1    4    4    0    0  0.30879015563E-01 -0.44983589222E-01  0.31499544191E-02  0.54655468485E-01  0.51100000000E-03 0. -1.
         11    1    4    4    0    0  0.18684127509E-01 -0.65389704330E-01  0.12758437218E-01  0.69195006283E-01  0.51100000000E-03 0.  1.
</event>
<event>
 8    1  0.1207611E+005  0.1043930E+01  0.7957747E-01            NaN
         13   -1    0    0    0    0  0.00000000000E+00  0.00000000000E+00  0.74505805969E-08  0.10566000000E+00  0.10566000000E+00 0. -1.
     999900   -1    0    0    0    0 -0.00000000000E+00 -0.00000000000E+00 -0.74505805969E-08  0.93827000000E+00  0.93827000000E+00 0. -1.
     999902    2    1    2    0    0  0.18927488441E-01 -0.46514121775E-02  0.15017643290E-01  0.10193248163E+01  0.10190278044E+01 0.  0.
     999903    2    3    3    0    0 -0.58434321536E-01 -0.12945377168E-01  0.11397778882E+00  0.13036657776E+00  0.20551290241E-01 0.  0.
         14    1    1    2    0    0 -0.18927488441E-01  0.46514121775E-02 -0.15017643290E-01  0.24605183680E-01  0.00000000000E+00 0.  1.
     999901    1    3    3    0    0  0.77361809977E-01  0.82939649903E-02 -0.98960145526E-01  0.88895823856E+00  0.88000000000E+00 0. -1.
        -11    1    4    4    0    0 -0.23237036429E-01  0.41959947032E-03  0.61753743433E-01  0.65984254748E-01  0.51100000000E-03 0. -1.
         11    1    4    4    0    0 -0.35197285107E-01 -0.13364976638E-01  0.52224045383E-01  0.64382323014E-01  0.51100000000E-03 0.  1.
</event>
<event>
 8    1  0.1207611E+005  0.1043930E+01  0.7957747E-01            NaN
         13   -1    0    0    0    0  0.00000000000E+00  0.00000000000E+00  0.74505805969E-08  0.10566000000E+00  0.10566000000E+00 0.  1.
     999900   -1    0    0    0    0 -0.00000000000E+00 -0.00000000000E+00 -0.74505805969E-08  0.93827000000E+00  0.93827000000E+00 0.  1.
     999902    2    1    2    0    0  0.29475854139E-02  0.92376747555E-02  0.21913344893E-01  0.10199671625E+01  0.10196856354E+01 0.  0.
     999903    2    3    3    0    0 -0.11546352347E+00  0.20351688220E-01 -0.50099532539E-01  0.12905158488E+00  0.19958254817E-01 0.  0.
         14    1    1    2    0    0 -0.29475854139E-02 -0.92376747555E-02 -0.21913344893E-01  0.23962837458E-01  0.00000000000E+00 0. -1.
     999901    1    3    3    0    0  0.11841110888E+00 -0.11114013464E-01  0.72012877432E-01  0.89091557766E+00  0.88000000000E+00 0.  1.
        -11    1    4    4    0    0 -0.52794574634E-01  0.13212116033E-01 -0.33194118442E-01  0.63749021490E-01  0.51100000000E-03 0. -1.
         11    1    4    4    0    0 -0.62668948832E-01  0.71395721864E-02 -0.16905414098E-01  0.65302563391E-01  0.51100000000E-03 0.  1.
</event>
<event>
 8    1  0.1207611E+005  0.1043930E+01  0.7957747E-01            NaN
         13   -1    0    0    0    0  0.00000000000E+00  0.00000000000E+00  0.74505805969E-08  0.10566000000E+00  0.10566000000E+00 0. -1.
     999900   -1    0    0    0    0 -0.00000000000E+00 -0.00000000000E+00 -0.74505805969E-08  0.93827000000E+00  0.93827000000E+00 0.  1.
     999902    2    1    2    0    0 -0.22203225245E-02  0.17909390015E-01 -0.12625369456E-01  0.10219055582E+01  0.10216681917E+01 0.  0.
     999903    2    3    3    0    0 -0.85975943553E-01  0.98339857142E-01 -0.24739635541E-01  0.13419455819E+00  0.18263064030E-01 0.  0.
         14    1    1    2    0    0  0.22203225245E-02 -0.17909390015E-01  0.12625369456E-01  0.22024441803E-01  0.00000000000E+00 0. -1.
     999901    1    3    3    0    0  0.83755621029E-01 -0.80430467127E-01  0.12114266085E-01  0.88771100001E+00  0.88000000000E+00 0. -1.
        -11    1    4    4    0    0 -0.58799538166E-01  0.54416338911E-01 -0.12202522122E-01  0.81041262923E-01  0.51100000000E-03 0. -1.
         11    1    4    4    0    0 -0.27176405387E-01  0.43923518231E-01 -0.12537113419E-01  0.53153295264E-01  0.51100000000E-03 0.  1.
</event>
<event>
 8    1  0.1207611E+005  0.1043930E+01  0.7957747E-01            NaN
         13   -1    0    0    0    0  0.00000000000E+00  0.00000000000E+00  0.74505805969E-08  0.10566000000E+00  0.10566000000E+00 0. -1.
     999900   -1    0    0    0    0 -0.00000000000E+00 -0.00000000000E+00 -0.74505805969E-08  0.93827000000E+00  0.93827000000E+00 0.  1.
     999902    2    1    2    0    0  0.19783535311E-01 -0.30665082537E-02  0.12150729209E-01  0.10205113757E+01  0.10202426359E+01 0.  0.
     999903    2    3    3    0    0  0.77109483342E-01  0.77456317845E-01  0.72965459840E-01  0.13289173799E+00  0.19771244309E-01 0.  0.
         14    1    1    2    0    0 -0.19783535311E-01  0.30665082537E-02 -0.12150729209E-01  0.23418624268E-01  0.00000000000E+00 0.  1.
     999901    1    3    3    0    0 -0.57325948030E-01 -0.80522826099E-01 -0.60814730632E-01  0.88761963774E+00  0.88000000000E+00 0.  1.
        -11    1    4    4    0    0  0.66717697354E-01  0.73327006790E-01  0.69844970126E-01  0.12127110966E+00  0.51100000000E-03 0.  1.
         11    1    4    4    0    0  0.10391785988E-01  0.41293110553E-02  0.31204897144E-02  0.11620628333E-01  0.51100000000E-03 0. -1.
</event>
<event>
 8    1  0.1207611E+005  0.1043930E+01  0.7957747E-01            NaN
         13   -1    0    0    0    0  0.00000000000E+00  0.00000000000E+00  0.74505805969E-08  0.10566000000E+00  0.10566000000E+00 0.  1.
     999900   -1    0    0    0    0 -0.00000000000E+00 -0.00000000000E+00 -0.74505805969E-08  0.93827000000E+00  0.93827000000E+00 0. -1.
     999902    2    1    2    0    0  0.21659984670E-01  0.10635004520E-01 -0.26332609470E-01  0.10082135531E+01  0.10075807184E+01 0.  0.
     999903    2    3    3    0    0  0.11239541764E+00  0.45304315928E-01 -0.89924442343E-03  0.12250381736E+00  0.17921095892E-01 0.  0.
         14    1    1    2    0    0 -0.21659984670E-01 -0.10635004520E-01  0.26332609470E-01  0.35716446891E-01  0.00000000000E+00 0.  1.
     999901    1    3    3    0    0 -0.90735432971E-01 -0.34669311408E-01 -0.25433365046E-01  0.88570973575E+00  0.88000000000E+00 0. -1.
        -11    1    4    4    0    0  0.60688292135E-01  0.30729943848E-01 -0.72199924266E-02  0.68408973555E-01  0.51100000000E-03 0. -1.
         11    1    4    4    0    0  0.51707125506E-01  0.14574372080E-01  0.63207480032E-02  0.54094843801E-01  0.51100000000E-03 0.  1.
</event>
<event>
 8    1  0.1207611E+005  0.1043930E+01  0.7957747E-01            NaN
         13   -1    0    0    0    0  0.00000000000E+00  0.00000000000E+00  0.74505805969E-08  0.10566000000E+00  0.10566000000E+00 0. -1.
     999900   -1    0    0    0    0 -0.00000000000E+00 -0.00000000000E+00 -0.74505805969E-08  0.93827000000E+00  0.93827000000E+00 0. -1.
     999902    2    1    2    0    0  0.10871508367E-01 -0.15915959868E-01  0.13218233308E-01  0.10205584540E+01  0.10202908060E+01 0.  0.
     999903    2    3    3    0    0 -0.57692031085E-01  0.10178405331E+00 -0.47807472466E-01  0.12799003148E+00  0.20187366701E-01 0.  0.
         14    1    1    2    0    0 -0.10871508367E-01  0.15915959868E-01 -0.13218233308E-01  0.23371546044E-01  0.00000000000E+00 0.  1.
     999901    1    3    3    0    0  0.68563539451E-01 -0.11770001318E+00  0.61025705774E-01  0.89256842248E+00  0.88000000000E+00 0. -1.
        -11    1    4    4    0    0 -0.42222204395E-01  0.69620970738E-01 -0.42671093802E-01  0.91928654280E-01  0.51100000000E-03 0.  1.
         11    1    4    4    0    0 -0.15469826690E-01  0.32163082574E-01 -0.51363786633E-02  0.36061377195E-01  0.51100000000E-03 0. -1.
</event>
<event>
 8    1  0.1207611E+005  0.1043930E+01  0.7957747E-01            NaN
         13   -1    0    0    0    0  0.00000000000E+00  0.00000000000E+00  0.74505805969E-08  0.10566000000E+00  0.10566000000E+00 0.  1.
     999900   -1    0    0    0    0 -0.00000000000E+00 -0.00000000000E+00 -0.74505805969E-08  0.93827000000E+00  0.93827000000E+00 0. -1.
     999902    2    1    2    0    0 -0.22763732622E-01  0.17910853459E-02  0.57152647030E-02  0.10203915260E+01  0.10201199961E+01 0.  0.
     999903    2    3    3    0    0 -0.84617476632E-01 -0.99779197613E-01 -0.27328944563E-02  0.13235223661E+00  0.19840367842E-01 0.  0.
         14    1    1    2    0    0  0.22763732622E-01 -0.17910853459E-02 -0.57152647030E-02  0.23538474042E-01  0.00000000000E+00 0. -1.
     999901    1    3    3    0    0  0.61853744010E-01  0.10157028296E+00  0.84481591594E-02  0.88803928935E+00  0.88000000000E+00 0. -1.
        -11    1    4    4    0    0 -0.48498469987E-01 -0.67985986625E-01 -0.82313948856E-02  0.83917894106E-01  0.51100000000E-03 0.  1.
         11    1    4    4    0    0 -0.36119006645E-01 -0.31793210988E-01  0.54985004292E-02  0.48434342505E-01  0.51100000000E-03 0. -1.
</event>
<event>
 8    1  0.1207611E+005  0.1043930E+01  0.7957747E-01            NaN
         13   -1    0    0    0    0  0.00000000000E+00  0.00000000000E+00  0.74505805969E-08  0.10566000000E+00  0.10566000000E+00 0. -1.
     999900   -1    0    0    0    0 -0.00000000000E+00 -0.00000000000E+00 -0.74505805969E-08  0.93827000000E+00  0.93827000000E+00 0.  1.
     999902    2    1    2    0    0 -0.20880144279E-01  0.12242204194E-01  0.68083751957E-02  0.10187862938E+01  0.10184759725E+01 0.  0.
     999903    2    3    3    0    0  0.85557455868E-01  0.92782962068E-01 -0.13360803722E-01  0.12849276233E+00  0.20077912981E-01 0.  0.
         14    1    1    2    0    0  0.20880144279E-01 -0.12242204194E-01 -0.68083751957E-02  0.25143706200E-01  0.00000000000E+00 0.  1.
     999901    1    3    3    0    0 -0.10643760015E+00 -0.80540757874E-01  0.20169178917E-01  0.89029353147E+00  0.88000000000E+00 0.  1.
        -11    1    4    4    0    0  0.39882056920E-01  0.57923866052E-01 -0.66259955522E-02  0.70639349237E-01  0.51100000000E-03 0.  1.
         11    1    4    4    0    0  0.45675398948E-01  0.34859096017E-01 -0.67348081693E-02  0.57853413091E-01  0.51100000000E-03 0. -1.
</event>
<event>
 8    1  0.1207611E+005  0.1043930E+01  0.7957747E-01            NaN
         13   -1    0    0    0    0  0.00000000000E+00  0.00000000000E+00  0.74505805969E-08  0.10566000000E+00  0.10566000000E+00 0.  1.
     999900   -1    0    0    0    0 -0.00000000000E+00 -0.00000000000E+00 -0.74505805969E-08  0.93827000000E+00  0.93827000000E+00 0. -1.
     999902    2    1    2    0    0  0.12800775701E-01  0.33851330976E-02  0.19501678503E-01  0.10203581004E+01  0.10200857899E+01 0.  0.
     999903    2    3    3    0    0  0.47961809129E-01 -0.11379620028E+00 -0.36163170085E-01  0.13015231606E+00  0.19543289675E-01 0.  0.
         14    1    1    2    0    0 -0.12800775701E-01 -0.33851330976E-02 -0.19501678503E-01  0.23571899565E-01  0.00000000000E+00 0. -1.
     999901    1    3    3    0    0 -0.35161033428E-01  0.11718133338E+00  0.55664848588E-01  0.89020578437E+00  0.88000000000E+00 0. -1.
        -11    1    4    4    0    0  0.12372105583E-01 -0.49331656560E-01 -0.20672283980E-01  0.54902511613E-01  0.51100000000E-03 0. -1.
         11    1    4    4    0    0  0.35589703546E-01 -0.64464543725E-01 -0.15490886105E-01  0.75249804448E-01  0.51100000000E-03 0.  1.
</event>
<event>
 8    1  0.1207611E+005  0.1043930E+01  0.7957747E-01            NaN
         13   -1    0    0    0    0  0.00000000000E+00  0.00000000000E+00  0.74505805969E-08  0.10566000000E+00  0.10566000000E+00 0. -1.
     999900   -1    0    0    0    0 -0.00000000000E+00 -0.00000000000E+00 -0.74505805969E-08  0.93827000000E+00  0.93827000000E+00 0. -1.
     999902    2    1    2    0    0  0.11449069044E-02 -0.20221035519E-01  0.14574767786E-01  0.10189775463E+01  0.10186719859E+01 0.  0.
     999903    2    3    3    0    0 -0.24410740070E-01  0.19993183541E-01 -0.12158158692E+00  0.12723272438E+00  0.20260114929E-01 0.  0.
         14    1    1    2    0    0 -0.11449069044E-02  0.20221035519E-01 -0.14574767786E-01  0.24952453693E-01  0.00000000000E+00 0.  1.
     999901    1    3    3    0    0  0.25555646975E-01 -0.40214219060E-01  0.13615635470E+00  0.89174482193E+00  0.88000000000E+00 0.  1.
        -11    1    4    4    0    0 -0.95171748328E-02  0.16503357824E-01 -0.91699776845E-01  0.93659210069E-01  0.51100000000E-03 0. -1.
         11    1    4    4    0    0 -0.14893565238E-01  0.34898257176E-02 -0.29881810073E-01  0.33573514312E-01  0.51100000000E-03 0.  1.
</event>
<event>
 8    1  0.1207611E+005  0.1043930E+01  0.7957747E-01            NaN
         13   -1    0    0    0    0  0.00000000000E+00  0.00000000000E+00  0.74505805969E-08  0.10566000000E+00  0.10566000000E+00 0. -1.
     999900   -1    0    0    0    0 -0.00000000000E+00 -0.00000000000E+00 -0.74505805969E-08  0.93827000000E+00  0.93827000000E+00 0.  1.
     999902    2    1    2    0    0 -0.16834811097E-01  0.12374076423E-01  0.13496823868E-01  0.10190564621E+01  0.10187528553E+01 0.  0.
     999903    2    3    3    0    0  0.10745594976E+00 -0.51081649740E-01  0.41796470648E-01  0.12761061832E+00  0.19529692057E-01 0.  0.
         14    1    1    2    0    0  0.16834811097E-01 -0.12374076423E-01 -0.13496823868E-01  0.24873537877E-01  0.00000000000E+00 0.  1.
     999901    1    3    3    0    0 -0.12429076086E+00  0.63455726163E-01 -0.28299646780E-01  0.89144584380E+00  0.88000000000E+00 0.  1.
        -11    1    4    4    0    0  0.49565532003E-01 -0.22351346432E-01  0.29361759568E-01  0.61795620363E-01  0.51100000000E-03 0.  1.
         11    1    4    4    0    0  0.57890417756E-01 -0.28730303307E-01  0.12434711080E-01  0.65814997962E-01  0.51100000000E-03 0. -1.
</event>
<event>
 8    1  0.1207611E+005  0.1043930E+01  0.7957747E-01            NaN
         13   -1    0    0    0    0  0.00000000000E+00  0.00000000000E+00  0.74505805969E-08  0.10566000000E+00  0.10566000000E+00 0. -1.
     999900   -1    0    0    0    0 -0.00000000000E+00 -0.00000000000E+00 -0.74505805969E-08  0.93827000000E+00  0.93827000000E+00 0.  1.
     999902    2    1    2    0    0 -0.17709242067E-01  0.10102997254E-01  0.92933344322E-02  0.10215234413E+01  0.10212776739E+01 0.  0.
     999903    2    3    3    0    0 -0.23794611630E-01  0.11126234930E+00 -0.65204519482E-01  0.13258014925E+00  0.19503145942E-01 0.  0.
         14    1    1    2    0    0  0.17709242067E-01 -0.10102997254E-01 -0.92933344322E-02  0.22406558704E-01  0.00000000000E+00 0. -1.
     999901    1    3    3    0    0  0.60853695632E-02 -0.10115935204E+00  0.74497853915E-01  0.88894329204E+00  0.88000000000E+00 0.  1.
        -11    1    4    4    0    0 -0.24762893309E-03  0.46497393574E-01 -0.27550448860E-01  0.54049581707E-01  0.51100000000E-03 0.  1.
         11    1    4    4    0    0 -0.23546982697E-01  0.64764955723E-01 -0.37654070623E-01  0.78530567548E-01  0.51100000000E-03 0. -1.
</event>
<event>
 8    1  0.1207611E+005  0.1043930E+01  0.7957747E-01            NaN
         13   -1    0    0    0    0  0.00000000000E+00  0.00000000000E+00  0.74505805969E-08  0.10566000000E+00  0.10566000000E+00 0. -1.
     999900   -1    0    0    0    0 -0.00000000000E+00 -0.00000000000E+00 -0.74505805969E-08  0.93827000000E+00  0.93827000000E+00 0.  1.
     999902    2    1    2    0    0 -0.14117847614E-01 -0.18025025730E-01  0.64922334195E-02  0.10201315910E+01  0.10198539595E+01 0.  0.
     999903    2    3    3    0    0 -0.16483142277E-01  0.12566390082E+00  0.78784243365E-02  0.12847357154E+00  0.19500745244E-01 0.  0.
         14    1    1    2    0    0  0.14117847614E-01  0.18025025730E-01 -0.64922334195E-02  0.23798408951E-01  0.00000000000E+00 0.  1.
     999901    1    3    3    0    0  0.23652946622E-02 -0.14368892655E+00 -0.13861909170E-02  0.89165801951E+00  0.88000000000E+00 0. -1.
        -11    1    4    4    0    0 -0.18560426007E-01  0.10693290160E+00  0.11941690700E-01  0.10918791121E+00  0.51100000000E-03 0. -1.
         11    1    4    4    0    0  0.20772837299E-02  0.18730999223E-01 -0.40632663639E-02  0.19285660324E-01  0.51100000000E-03 0.  1.
</event>
<event>
 8    1  0.1207611E+005  0.1043930E+01  0.7957747E-01            NaN
         13   -1    0    0    0    0  0.00000000000E+00  0.00000000000E+00  0.74505805969E-08  0.10566000000E+00  0.10566000000E+00 0.  1.
     999900   -1    0    0    0    0 -0.00000000000E+00 -0.00000000000E+00 -0.74505805969E-08  0.93827000000E+00  0.93827000000E+00 0. -1.
     999902    2    1    2    0    0  0.40524158990E-02  0.19073949569E-01  0.13591572143E-01  0.10201609348E+01  0.10198839956E+01 0.  0.
     999903    2    3    3    0    0  0.20589356671E-01  0.43507048553E-01 -0.11884340656E+00  0.12976244519E+00  0.19943721250E-01 0.  0.
         14    1    1    2    0    0 -0.40524158990E-02 -0.19073949569E-01 -0.13591572143E-01  0.23769065192E-01  0.00000000000E+00 0. -1.
     999901    1    3    3    0    0 -0.16536940772E-01 -0.24433098984E-01  0.13243497870E+00  0.89039848962E+00  0.88000000000E+00 0.  1.
        -11    1    4    4    0    0  0.13773650403E-01  0.21773823329E-01 -0.39098873494E-01  0.46827298206E-01  0.51100000000E-03 0.  1.
         11    1    4    4    0    0  0.68157062676E-02  0.21733225225E-01 -0.79744533061E-01  0.82935146981E-01  0.51100000000E-03 0. -1.
</event>
<event>
 8    1  0.1207611E+005  0.1043930E+01  0.7957747E-01            NaN
         13   -1    0    0    0    0  0.00000000000E+00  0.00000000000E+00  0.74505805969E-08  0.10566000000E+00  0.10566000000E+00 0. -1.
     999900   -1    0    0    0    0 -0.00000000000E+00 -0.00000000000E+00 -0.74505805969E-08  0.93827000000E+00  0.93827000000E+00 0.  1.
     999902    2    1    2    0    0 -0.28953840591E-01 -0.14076495038E-02  0.28370031831E-02  0.10148034666E+01  0.10143853907E+01 0.  0.
     999903    2    3    3    0    0 -0.67503367701E-02  0.60750061627E-01  0.10839486006E+00  0.12604082235E+00  0.20017646620E-01 0.  0.
         14    1    1    2    0    0  0.28953840591E-01  0.14076495038E-02 -0.28370031831E-02  0.29126533422E-01  0.00000000000E+00 0.  1.
     999901    1    3    3    0    0 -0.22203503821E-01 -0.62157711131E-01 -0.10555785688E+00  0.88876264423E+00  0.88000000000E+00 0.  1.
        -11    1    4    4    0    0 -0.90274016306E-02  0.31876577315E-01  0.41220023642E-01  0.52886308545E-01  0.51100000000E-03 0. -1.
         11    1    4    4    0    0  0.22770648605E-02  0.28873484312E-01  0.67174836418E-01  0.73154513801E-01  0.51100000000E-03 0.  1.
</event>
<event>
 8    1  0.1207611E+005  0.1043930E+01  0.7957747E-01            NaN
         13   -1    0    0    0    0  0.00000000000E+00  0.00000000000E+00  0.74505805969E-08  0.10566000000E+00  0.10566000000E+00 0. -1.
     999900   -1    0    0    0    0 -0.00000000000E+00 -0.00000000000E+00 -0.74505805969E-08  0.93827000000E+00  0.93827000000E+00 0. -1.
     999902    2    1    2    0    0  0.23333420368E-01 -0.31858190034E-03 -0.15337452298E-02  0.10205440560E+01  0.10202760744E+01 0.  0.
     999903    2    3    3    0    0  0.13232494209E+00  0.10993839605E-02 -0.69845320569E-03  0.13381869825E+00  0.19896160912E-01 0.  0.
         14    1    1    2    0    0 -0.23333420368E-01  0.31858190034E-03  0.15337452298E-02  0.23385943960E-01  0.00000000000E+00 0. -1.
     999901    1    3    3    0    0 -0.10899152173E+00 -0.14179658609E-02 -0.83529202410E-03  0.88672535779E+00  0.88000000000E+00 0. -1.
        -11    1    4    4    0    0  0.90006223404E-01  0.27369894526E-02  0.85919682697E-02  0.90458246735E-01  0.51100000000E-03 0.  1.
         11    1    4    4    0    0  0.42318718691E-01 -0.16376054920E-02 -0.92904214754E-02  0.43360451515E-01  0.51100000000E-03 0. -1.
</event>
<event>
 8    1  0.1207611E+005  0.1043930E+01  0.7957747E-01            NaN
         13   -1    0    0    0    0  0.00000000000E+00  0.00000000000E+00  0.74505805969E-08  0.10566000000E+00  0.10566000000E+00 0.  1.
     999900   -1    0    0    0    0 -0.00000000000E+00 -0.00000000000E+00 -0.74505805969E-08  0.93827000000E+00  0.93827000000E+00 0. -1.
     999902    2    1    2    0    0  0.75037408396E-02 -0.74600111963E-02 -0.21333788734E-01  0.10201163813E+01  0.10198383906E+01 0.  0.
     999903    2    3    3    0    0 -0.22967694702E-01  0.51515021138E-01 -0.11801394555E+00  0.13233621958E+00  0.20106498091E-01 0.  0.
         14    1    1    2    0    0 -0.75037408396E-02  0.74600111963E-02  0.21333788734E-01  0.23813618696E-01  0.00000000000E+00 0.  1.
     999901    1    3    3    0    0  0.30471435542E-01 -0.58975032334E-01  0.96680156820E-01  0.88778016172E+00  0.88000000000E+00 0.  1.
        -11    1    4    4    0    0  0.19508868331E-02  0.36136876814E-02 -0.20084277611E-01  0.20506194826E-01  0.51100000000E-03 0. -1.
         11    1    4    4    0    0 -0.24918581535E-01  0.47901333457E-01 -0.97929667943E-01  0.11183002476E+00  0.51100000000E-03 0.  1.
</event>
<event>
 8    1  0.1207611E+005  0.1043930E+01  0.7957747E-01            NaN
         13   -1    0    0    0    0  0.00000000000E+00  0.00000000000E+00  0.74505805969E-08  0.10566000000E+00  0.10566000000E+00 0.  1.
     999900   -1    0    0    0    0 -0.00000000000E+00 -0.00000000000E+00 -0.74505805969E-08  0.93827000000E+00  0.93827000000E+00 0. -1.
     999902    2    1    2    0    0 -0.73463453896E-02  0.88110486876E-02  0.20773426973E-01  0.10201994577E+01  0.10199234260E+01 0.  0.
     999903    2    3    3    0    0  0.43590146741E-01  0.50814399906E-01  0.11297431093E+00  0.13292283187E+00  0.20568912756E-01 0.  0.
         14    1    1    2    0    0  0.73463453896E-02 -0.88110486876E-02 -0.20773426973E-01  0.23730542298E-01  0.00000000000E+00 0. -1.
     999901    1    3    3    0    0 -0.50936492131E-01 -0.42003351218E-01 -0.92200883956E-01  0.88727662583E+00  0.88000000000E+00 0. -1.
        -11    1    4    4    0    0  0.37840621613E-01  0.30640519783E-01  0.72528888743E-01  0.87358198928E-01  0.51100000000E-03 0. -1.
         11    1    4    4    0    0  0.57495251281E-02  0.20173880123E-01  0.40445422186E-01  0.45564632943E-01  0.51100000000E-03 0.  1.
</event>
<event>
 8    1  0.1207611E+005  0.1043930E+01  0.7957747E-01            NaN
         13   -1    0    0    0    0  0.00000000000E+00  0.00000000000E+00  0.74505805969E-08  0.10566000000E+00  0.10566000000E+00 0. -1.
     999900   -1    0    0    0    0 -0.00000000000E+00 -0.00000000000E+00 -0.74505805969E-08  0.93827000000E+00  0.93827000000E+00 0.  1.
     999902    2    1    2    0    0  0.11006327233E-01  0.15190636548E-02  0.19005670604E-01  0.10219149527E+01  0.10216777908E+01 0.  0.
     999903    2    3    3    0    0 -0.60335905388E-01  0.92976113015E-04  0.11732298227E+00  0.13356927578E+00  0.20871970224E-01 0.  0.
         14    1    1    2    0    0 -0.11006327233E-01 -0.15190636548E-02 -0.19005670604E-01  0.22015047323E-01  0.00000000000E+00 0.  1.
     999901    1    3    3    0    0  0.71342232621E-01  0.14260875418E-02 -0.98317311667E-01  0.88834567689E+00  0.88000000000E+00 0. -1.
        -11    1    4    4    0    0 -0.25686327979E-01  0.71667992994E-02  0.66513576983E-01  0.71662176225E-01  0.51100000000E-03 0. -1.
         11    1    4    4    0    0 -0.34649577409E-01 -0.70738231864E-02  0.50809405287E-01  0.61907099558E-01  0.51100000000E-03 0.  1.
</event>
<event>
 8    1  0.1207611E+005  0.1043930E+01  0.7957747E-01            NaN
         13   -1    0    0    0    0  0.00000000000E+00  0.00000000000E+00  0.74505805969E-08  0.10566000000E+00  0.10566000000E+00 0.  1.
     999900   -1    0    0    0    0 -0.00000000000E+00 -0.00000000000E+00 -0.74505805969E-08  0.93827000000E+00  0.93827000000E+00 0.  1.
     999902    2    1    2    0    0 -0.22305448043E-01 -0.44703581904E-02 -0.49609277403E-02  0.10206463594E+01  0.10203807442E+01 0.  0.
     999903    2    3    3    0    0 -0.83895650160E-01  0.78220868282E-01  0.62421791127E-01  0.13206793140E+00  0.19709747510E-01 0.  0.
         14    1    1    2    0    0  0.22305448043E-01  0.44703581904E-02  0.49609277403E-02  0.23283640583E-01  0.00000000000E+00 0.  1.
     999901    1    3    3    0    0  0.61590202117E-01 -0.82691226472E-01 -0.67382718867E-01  0.88857842802E+00  0.88000000000E+00 0.  1.
        -11    1    4    4    0    0 -0.31031632904E-01  0.39827807700E-01  0.20855725039E-01  0.54630018257E-01  0.51100000000E-03 0.  1.
         11    1    4    4    0    0 -0.52864017255E-01  0.38393060582E-01  0.41566066088E-01  0.77437913145E-01  0.51100000000E-03 0. -1.
</event>
<event>
 8    1  0.1207611E+005  0.1043930E+01  0.7957747E-01            NaN
         13   -1    0    0    0    0  0.00000000000E+00  0.00000000000E+00  0.74505805969E-08  0.10566000000E+00  0.10566000000E+00 0. -1.
     999900   -1    0    0    0    0 -0.00000000000E+00 -0.00000000000E+00 -0.74505805969E-08  0.93827000000E+00  0.93827000000E+00 0. -1.
     999902    2    1    2    0    0 -0.16594472584E-01  0.14248240991E-01  0.49197479405E-02  0.10215114182E+01  0.10212653840E+01 0.  0.
     999903    2    3    3    0    0 -0.17024447084E-01  0.10779338037E+00  0.74620521836E-01  0.13381266529E+00  0.20696919156E-01 0.  0.
         14    1    1    2    0    0  0.16594472584E-01 -0.14248240991E-01 -0.49197479405E-02  0.22418581835E-01  0.00000000000E+00 0. -1.
     999901    1    3    3    0    0  0.42997450004E-03 -0.93545139377E-01 -0.69700773896E-01  0.88769875288E+00  0.88000000000E+00 0. -1.
        -11    1    4    4    0    0 -0.20522367532E-01  0.93085632147E-01  0.69003292981E-01  0.11767675235E+00  0.51100000000E-03 0.  1.
         11    1    4    4    0    0  0.34979204477E-02  0.14707748221E-01  0.56172288554E-02  0.16135912934E-01  0.51100000000E-03 0. -1.
</event>
<event>
 8    1  0.1207611E+005  0.1043930E+01  0.7957747E-01            NaN
         13   -1    0    0    0    0  0.00000000000E+00  0.00000000000E+00  0.74505805969E-08  0.10566000000E+00  0.10566000000E+00 0.  1.
     999900   -1    0    0    0    0 -0.00000000000E+00 -0.00000000000E+00 -0.74505805969E-08  0.93827000000E+00  0.93827000000E+00 0. -1.
     999902    2    1    2    0    0 -0.74070974384E-05  0.19850873034E-01 -0.12589129868E-01  0.10204237582E+01  0.10201529801E+01 0.  0.
     999903    2    3    3    0    0 -0.12064785250E+00  0.45303088533E-01 -0.18818441285E-01  0.13180644082E+00  0.20261539084E-01 0.  0.
         14    1    1    2    0    0  0.74070974384E-05 -0.19850873034E-01  0.12589129868E-01  0.23506241850E-01  0.00000000000E+00 0. -1.
     999901    1    3    3    0    0  0.12064044540E+00 -0.25452215499E-01  0.62293114169E-02  0.88861731733E+00  0.88000000000E+00 0. -1.
        -11    1    4    4    0    0 -0.10097191054E+00  0.29475599658E-01 -0.15872726754E-01  0.10637829793E+00  0.51100000000E-03 0.  1.
         11    1    4    4    0    0 -0.19675941953E-01  0.15827488876E-01 -0.29457145315E-02  0.25428142892E-01  0.51100000000E-03 0. -1.
</event>
<event>
 8    1  0.1207611E+005  0.1043930E+01  0.7957747E-01            NaN
         13   -1    0    0    0    0  0.00000000000E+00  0.00000000000E+00  0.74505805969E-08  0.10566000000E+00  0.10566000000E+00 0. -1.
     999900   -1    0    0    0    0 -0.00000000000E+00 -0.00000000000E+00 -0.74505805969E-08  0.93827000000E+00  0.93827000000E+00 0. -1.
     999902    2    1    2    0    0 -0.23946542179E-01  0.33526993801E-02  0.24591035465E-02  0.10196251720E+01  0.10193354534E+01 0.  0.
     999903    2    3    3    0    0 -0.12689165595E+00  0.29493866129E-01 -0.17641214595E-01  0.13301078012E+00  0.20230538448E-01 0.  0.
         14    1    1    2    0    0  0.23946542179E-01 -0.33526993801E-02 -0.24591035465E-02  0.24304828033E-01  0.00000000000E+00 0. -1.
     999901    1    3    3    0    0  0.10294511377E+00 -0.26141166748E-01  0.20100318141E-01  0.88661439185E+00  0.88000000000E+00 0. -1.
        -11    1    4    4    0    0 -0.93245771379E-01  0.12801061070E-01 -0.97233975938E-02  0.94622653875E-01  0.51100000000E-03 0.  1.
         11    1    4    4    0    0 -0.33645884571E-01  0.16692805058E-01 -0.79178170007E-02  0.38388126241E-01  0.51100000000E-03 0. -1.
</event>
<event>
 8    1  0.1207611E+005  0.1043930E+01  0.7957747E-01            NaN
         13   -1    0    0    0    0  0.00000000000E+00  0.00000000000E+00  0.74505805969E-08  0.10566000000E+00  0.10566000000E+00 0. -1.
     999900   -1    0    0    0    0 -0.00000000000E+00 -0.00000000000E+00 -0.74505805969E-08  0.93827000000E+00  0.93827000000E+00 0. -1.
     999902    2    1    2    0    0 -0.19006571863E-02 -0.18785299608E-01 -0.45203341985E-02  0.10245152273E+01  0.10243312538E+01 0.  0.
     999903    2    3    3    0    0  0.16791289765E-01  0.12526722737E+00  0.32049884818E-01  0.13185745391E+00  0.19630776117E-01 0.  0.
         14    1    1    2    0    0  0.19006571863E-02  0.18785299608E-01  0.45203341985E-02  0.19414772735E-01  0.00000000000E+00 0. -1.
     999901    1    3    3    0    0 -0.18691946951E-01 -0.14405252698E+00 -0.36570219017E-01  0.89265777335E+00  0.88000000000E+00 0. -1.
        -11    1    4    4    0    0 -0.39942003699E-02  0.26810523025E-01  0.40971596229E-02  0.27419074008E-01  0.51100000000E-03 0. -1.
         11    1    4    4    0    0  0.20785490135E-01  0.98456704342E-01  0.27952725195E-01  0.10443837990E+00  0.51100000000E-03 0.  1.
</event>
<event>
 8    1  0.1207611E+005  0.1043930E+01  0.7957747E-01            NaN
         13   -1    0    0    0    0  0.00000000000E+00  0.00000000000E+00  0.74505805969E-08  0.10566000000E+00  0.10566000000E+00 0.  1.
     999900   -1    0    0    0    0 -0.00000000000E+00 -0.00000000000E+00 -0.74505805969E-08  0.93827000000E+00  0.93827000000E+00 0. -1.
     999902    2    1    2    0    0 -0.53888211243E-02  0.23275115492E-01 -0.23762769112E-02  0.10199213123E+01  0.10196386939E+01 0.  0.
     999903    2    3    3    0    0 -0.88404844010E-01  0.85806333061E-01 -0.45360896585E-01  0.13276321433E+00  0.19756439503E-01 0.  0.
         14    1    1    2    0    0  0.53888211243E-02 -0.23275115492E-01  0.23762769112E-02  0.24008687724E-01  0.00000000000E+00 0.  1.
     999901    1    3    3    0    0  0.83016022885E-01 -0.62531217568E-01  0.42984619674E-01  0.88715809795E+00  0.88000000000E+00 0.  1.
        -11    1    4    4    0    0 -0.30294164743E-01  0.40465349994E-01 -0.24402671737E-01  0.56133167348E-01  0.51100000000E-03 0. -1.
         11    1    4    4    0    0 -0.58110679267E-01  0.45340983067E-01 -0.20958224848E-01  0.76630046980E-01  0.51100000000E-03 0.  1.
</event>
<event>
 8    1  0.1207611E+005  0.1043930E+01  0.7957747E-01            NaN
         13   -1    0    0    0    0  0.00000000000E+00  0.00000000000E+00  0.74505805969E-08  0.10566000000E+00  0.10566000000E+00 0.  1.
     999900   -1    0    0    0    0 -0.00000000000E+00 -0.00000000000E+00 -0.74505805969E-08  0.93827000000E+00  0.93827000000E+00 0. -1.
     999902    2    1    2    0    0  0.59214672649E-02  0.22588064964E-01 -0.19330931907E-02  0.10204987964E+01  0.10202297644E+01 0.  0.
     999903    2    3    3    0    0  0.97514428690E-01 -0.69079599007E-01  0.46434675846E-01  0.12969484923E+00  0.19583666483E-01 0.  0.
         14    1    1    2    0    0 -0.59214672649E-02 -0.22588064964E-01  0.19330931907E-02  0.23431203611E-01  0.00000000000E+00 0. -1.
     999901    1    3    3    0    0 -0.91592961425E-01  0.91667663971E-01 -0.48367769036E-01  0.89080394716E+00  0.88000000000E+00 0. -1.
        -11    1    4    4    0    0  0.17924389934E-01 -0.45046436218E-02  0.50848119299E-02  0.19175296660E-01  0.51100000000E-03 0.  1.
         11    1    4    4    0    0  0.79590038757E-01 -0.64574955385E-01  0.41349863916E-01  0.11051955256E+00  0.51100000000E-03 0. -1.
</event>
<event>
 8    1  0.1207611E+005  0.1043930E+01  0.7957747E-01            NaN
         13   -1    0    0    0    0  0.00000000000E+00  0.00000000000E+00  0.74505805969E-08  0.10566000000E+00  0.10566000000E+00 0.  1.
     999900   -1    0    0    0    0 -0.00000000000E+00 -0.00000000000E+00 -0.74505805969E-08  0.93827000000E+00  0.93827000000E+00 0.  1.
     999902    2    1    2    0    0  0.19013654708E-01  0.14919674108E-01  0.10700149395E-03  0.10197612766E+01  0.10194748325E+01 0.  0.
     999903    2    3    3    0    0 -0.11490999870E+00 -0.45710232690E-01  0.28322167398E-01  0.12712046076E+00  0.79833078663E-02 0.  0.
         14    1    1    2    0    0 -0.19013654708E-01 -0.14919674108E-01 -0.10700149395E-03  0.24168723387E-01  0.00000000000E+00 0. -1.
     999901    1    3    3    0    0  0.13392365340E+00  0.60629906799E-01 -0.28215165904E-01  0.89264081585E+00  0.88000000000E+00 0.  1.
        -11    1    4    4    0    0 -0.99950842775E-01 -0.41942574345E-01  0.23131710694E-01  0.11083631027E+00  0.51100000000E-03 0. -1.
         11    1    4    4    0    0 -0.14959155922E-01 -0.37676583455E-02  0.51904567039E-02  0.16284150487E-01  0.51100000000E-03 0.  1.
</event>
<event>
 8    1  0.1207611E+005  0.1043930E+01  0.7957747E-01            NaN
         13   -1    0    0    0    0  0.00000000000E+00  0.00000000000E+00  0.74505805969E-08  0.10566000000E+00  0.10566000000E+00 0.  1.
     999900   -1    0    0    0    0 -0.00000000000E+00 -0.00000000000E+00 -0.74505805969E-08  0.93827000000E+00  0.93827000000E+00 0. -1.
     999902    2    1    2    0    0  0.11381611040E-01  0.45068236300E-02  0.20346555822E-01  0.10201847928E+01  0.10199084158E+01 0.  0.
     999903    2    3    3    0    0  0.78596609605E-01  0.43677231311E-01  0.96474116241E-01  0.13347876358E+00  0.20596059014E-01 0.  0.
         14    1    1    2    0    0 -0.11381611040E-01 -0.45068236300E-02 -0.20346555822E-01  0.23745207157E-01  0.00000000000E+00 0. -1.
     999901    1    3    3    0    0 -0.67214998565E-01 -0.39170407681E-01 -0.76127560419E-01  0.88670602926E+00  0.88000000000E+00 0. -1.
        -11    1    4    4    0    0  0.29899467490E-01  0.25556123615E-01  0.51154458387E-01  0.64530096422E-01  0.51100000000E-03 0.  1.
         11    1    4    4    0    0  0.48697142115E-01  0.18121107696E-01  0.45319657854E-01  0.68948667161E-01  0.51100000000E-03 0. -1.
</event>
<event>
 8    1  0.1207611E+005  0.1043930E+01  0.7957747E-01            NaN
         13   -1    0    0    0    0  0.00000000000E+00  0.00000000000E+00  0.74505805969E-08  0.10566000000E+00  0.10566000000E+00 0.  1.
     999900   -1    0    0    0    0 -0.00000000000E+00 -0.00000000000E+00 -0.74505805969E-08  0.93827000000E+00  0.93827000000E+00 0. -1.
     999902    2    1    2    0    0 -0.24488371909E-01  0.15353631319E-01  0.17814364089E-01  0.10099775933E+01  0.10094067431E+01 0.  0.
     999903    2    3    3    0    0  0.30582736423E-01  0.11475166799E+00 -0.18510201103E-01  0.12192789271E+00  0.20506935483E-01 0.  0.
         14    1    1    2    0    0  0.24488371909E-01 -0.15353631319E-01 -0.17814364089E-01  0.33952406709E-01  0.00000000000E+00 0. -1.
     999901    1    3    3    0    0 -0.55071108332E-01 -0.99398036668E-01  0.36324565192E-01  0.88804970058E+00  0.88000000000E+00 0.  1.
        -11    1    4    4    0    0  0.23063706567E-01  0.72317204137E-01 -0.20995607855E-01  0.78757788472E-01  0.51100000000E-03 0.  1.
         11    1    4    4    0    0  0.75190298559E-02  0.42434463850E-01  0.24854067512E-02  0.43170104238E-01  0.51100000000E-03 0. -1.
</event>
<event>
 8    1  0.1207611E+005  0.1043930E+01  0.7957747E-01            NaN
         13   -1    0    0    0    0  0.00000000000E+00  0.00000000000E+00  0.74505805969E-08  0.10566000000E+00  0.10566000000E+00 0.  1.
     999900   -1    0    0    0    0 -0.00000000000E+00 -0.00000000000E+00 -0.74505805969E-08  0.93827000000E+00  0.93827000000E+00 0. -1.
     999902    2    1    2    0    0  0.25177748840E-02  0.21810618060E-01 -0.10773279759E-01  0.10194737982E+01  0.10191804155E+01 0.  0.
     999903    2    3    3    0    0  0.80066033864E-01  0.37223702129E-01  0.93079527953E-01  0.12984651595E+00  0.20003634681E-01 0.  0.
         14    1    1    2    0    0 -0.25177748840E-02 -0.21810618060E-01  0.10773279759E-01  0.24456201816E-01  0.00000000000E+00 0. -1.
     999901    1    3    3    0    0 -0.77548258981E-01 -0.15413084069E-01 -0.10385280771E+00  0.88962728224E+00  0.88000000000E+00 0. -1.
        -11    1    4    4    0    0  0.50649591673E-01  0.33844969067E-01  0.62782253083E-01  0.87479914786E-01  0.51100000000E-03 0.  1.
         11    1    4    4    0    0  0.29416442191E-01  0.33787330615E-02  0.30297274870E-01  0.42366601160E-01  0.51100000000E-03 0. -1.
</event>
<event>
 8    1  0.1207611E+005  0.1043930E+01  0.7957747E-01            NaN
         13   -1    0    0    0    0  0.00000000000E+00  0.00000000000E+00  0.74505805969E-08  0.10566000000E+00  0.10566000000E+00 0.  1.
     999900   -1    0    0    0    0 -0.00000000000E+00 -0.00000000000E+00 -0.74505805969E-08  0.93827000000E+00  0.93827000000E+00 0. -1.
     999902    2    1    2    0    0 -0.15472348933E-01  0.12044658711E-01  0.43829886277E-03  0.10243172620E+01  0.10241294810E+01 0.  0.
     999903    2    3    3    0    0  0.57487035180E-01  0.97052405905E-01  0.70622568008E-01  0.13444355163E+00  0.19068108396E-01 0.  0.
         14    1    1    2    0    0  0.15472348933E-01 -0.12044658711E-01 -0.43829886277E-03  0.19612737974E-01  0.00000000000E+00 0.  1.
     999901    1    3    3    0    0 -0.72959384113E-01 -0.85007747194E-01 -0.70184269146E-01  0.88987371039E+00  0.88000000000E+00 0. -1.
        -11    1    4    4    0    0  0.54088829118E-01  0.95842492441E-01  0.65218543720E-01  0.12792616761E+00  0.51100000000E-03 0. -1.
         11    1    4    4    0    0  0.33982060620E-02  0.12099134638E-02  0.54040242882E-02  0.65173840256E-02  0.51100000000E-03 0.  1.
</event>
<event>
 7    1  0.1207611E+005  0.1043930E+01  0.7957747E-01            NaN
         13   -1    0    0    0    0  0.00000000000E+00  0.00000000000E+00  0.74505805969E-08  0.10566000000E+00  0.10566000000E+00 0.  1.
     999900   -1    0    0    0    0 -0.00000000000E+00 -0.00000000000E+00 -0.74505805969E-08  0.93827000000E+00  0.93827000000E+00 0. -1.
     999902    2    1    2    0    0  0.13814645823E-01  0.19633138254E-01 -0.16924232722E-02  0.10198640728E+01  0.10195800891E+01 0.  0.
         14    1    1    2    0    0 -0.13814645823E-01 -0.19633138254E-01  0.16924232722E-02  0.24065927231E-01  0.00000000000E+00 0.  1.
     999901    1    3    3    0    0  0.12448000072E+00  0.18952778791E-02  0.50873537427E-01  0.89021737765E+00  0.88000000000E+00 0. -1.
        -11    1    3    3    0    0 -0.76533595766E-01  0.29589336287E-01 -0.40838995521E-01  0.91656995254E-01  0.51100000000E-03 0. -1.
         11    1    3    3    0    0 -0.34131759132E-01 -0.11851475911E-01 -0.11726965178E-01  0.37989699867E-01  0.51100000000E-03 0.  1.
</event>
<event>
 8    1  0.1207611E+005  0.1043930E+01  0.7957747E-01            NaN
         13   -1    0    0    0    0  0.00000000000E+00  0.00000000000E+00  0.74505805969E-08  0.10566000000E+00  0.10566000000E+00 0. -1.
     999900   -1    0    0    0    0 -0.00000000000E+00 -0.00000000000E+00 -0.74505805969E-08  0.93827000000E+00  0.93827000000E+00 0. -1.
     999902    2    1    2    0    0 -0.13273310227E-01  0.62505913892E-02 -0.19177021092E-01  0.10197844249E+01  0.10194985358E+01 0.  0.
     999903    2    3    3    0    0  0.75134030382E-01  0.36459379065E-02  0.10082174288E+00  0.12724739745E+00  0.19195336289E-01 0.  0.
         14    1    1    2    0    0  0.13273310227E-01 -0.62505913892E-02  0.19177021092E-01  0.24145575061E-01  0.00000000000E+00 0. -1.
     999901    1    3    3    0    0 -0.88407340608E-01  0.26046534828E-02 -0.11999876397E+00  0.89253702749E+00  0.88000000000E+00 0. -1.
        -11    1    4    4    0    0  0.68179030081E-01  0.79495522295E-02  0.83560598011E-01  0.10813977152E+00  0.51100000000E-03 0.  1.
         11    1    4    4    0    0  0.69550003010E-02 -0.43036143230E-02  0.17261144866E-01  0.19107625926E-01  0.51100000000E-03 0. -1.
</event>
<event>
 8    1  0.1207611E+005  0.1043930E+01  0.7957747E-01            NaN
         13   -1    0    0    0    0  0.00000000000E+00  0.00000000000E+00  0.74505805969E-08  0.10566000000E+00  0.10566000000E+00 0. -1.
     999900   -1    0    0    0    0 -0.00000000000E+00 -0.00000000000E+00 -0.74505805969E-08  0.93827000000E+00  0.93827000000E+00 0.  1.
     999902    2    1    2    0    0 -0.17517272239E-01 -0.15767222079E-01  0.35702494814E-02  0.10200929112E+01  0.10198143658E+01 0.  0.
     999903    2    3    3    0    0 -0.32299658637E-01  0.12311469189E+00 -0.65991357789E-02  0.12902045551E+00  0.20055773279E-01 0.  0.
         14    1    1    2    0    0  0.17517272239E-01  0.15767222079E-01 -0.35702494814E-02  0.23837088751E-01  0.00000000000E+00 0. -1.
     999901    1    3    3    0    0  0.14782386398E-01 -0.13888191396E+00  0.10169385260E-01  0.89107245574E+00  0.88000000000E+00 0. -1.
        -11    1    4    4    0    0 -0.22294390889E-01  0.10104542458E+00 -0.12056357040E-01  0.10417693871E+00  0.51100000000E-03 0.  1.
         11    1    4    4    0    0 -0.10005267748E-01  0.22069267305E-01  0.54572212607E-02  0.24843516799E-01  0.51100000000E-03 0. -1.
</event>
<event>
 8    1  0.1207611E+005  0.1043930E+01  0.7957747E-01            NaN
         13   -1    0    0    0    0  0.00000000000E+00  0.00000000000E+00  0.74505805969E-08  0.10566000000E+00  0.10566000000E+00 0. -1.
     999900   -1    0    0    0    0 -0.00000000000E+00 -0.00000000000E+00 -0.74505805969E-08  0.93827000000E+00  0.93827000000E+00 0.  1.
     999902    2    1    2    0    0 -0.67536283051E-02  0.12113583078E-01  0.10013755882E-01  0.10268236942E+01  0.10266811936E+01 0.  0.
     999903    2    3    3    0    0 -0.13312276297E+00  0.14794725574E-01 -0.21846084990E-01  0.13722187533E+00  0.20298712173E-01 0.  0.
         14    1    1    2    0    0  0.67536283051E-02 -0.12113583078E-01 -0.10013755882E-01  0.17106305771E-01  0.00000000000E+00 0. -1.
     999901    1    3    3    0    0  0.12636913466E+00 -0.26811424957E-02  0.31859840872E-01  0.88960181889E+00  0.88000000000E+00 0. -1.
        -11    1    4    4    0    0 -0.52352677748E-01  0.80660485263E-02  0.11021228946E-02  0.52984335441E-01  0.51100000000E-03 0. -1.
         11    1    4    4    0    0 -0.80770085219E-01  0.67286770478E-02 -0.22948207884E-01  0.84237539893E-01  0.51100000000E-03 0.  1.
</event>
<event>
 8    1  0.1207611E+005  0.1043930E+01  0.7957747E-01            NaN
         13   -1    0    0    0    0  0.00000000000E+00  0.00000000000E+00  0.74505805969E-08  0.10566000000E+00  0.10566000000E+00 0. -1.
     999900   -1    0    0    0    0 -0.00000000000E+00 -0.00000000000E+00 -0.74505805969E-08  0.93827000000E+00  0.93827000000E+00 0. -1.
     999902    2    1    2    0    0 -0.64253569793E-02 -0.51434439053E-03 -0.21904901038E-01  0.10210963745E+01  0.10208410413E+01 0.  0.
     999903    2    3    3    0    0  0.10572831432E+00 -0.60985692208E-01 -0.46237168797E-01  0.13158679665E+00  0.16717600631E-01 0.  0.
         14    1    1    2    0    0  0.64253569793E-02  0.51434439053E-03  0.21904901038E-01  0.22833625467E-01  0.00000000000E+00 0. -1.
     999901    1    3    3    0    0 -0.11215367130E+00  0.60471347818E-01  0.24332267759E-01  0.88950957788E+00  0.88000000000E+00 0.  1.
        -11    1    4    4    0    0  0.28859949552E-01 -0.24172463583E-01 -0.98674014090E-02  0.38920835235E-01  0.51100000000E-03 0. -1.
         11    1    4    4    0    0  0.76868364768E-01 -0.36813228625E-01 -0.36369767388E-01  0.92665961415E-01  0.51100000000E-03 0.  1.
</event>
<event>
 8    1  0.1207611E+005  0.1043930E+01  0.7957747E-01            NaN
         13   -1    0    0    0    0  0.00000000000E+00  0.00000000000E+00  0.74505805969E-08  0.10566000000E+00  0.10566000000E+00 0. -1.
     999900   -1    0    0    0    0 -0.00000000000E+00 -0.00000000000E+00 -0.74505805969E-08  0.93827000000E+00  0.93827000000E+00 0. -1.
     999902    2    1    2    0    0  0.20748837232E-01  0.90391988473E-02 -0.97441751137E-02  0.10192891739E+01  0.10189912903E+01 0.  0.
     999903    2    3    3    0    0  0.59630552602E-01 -0.26776089716E-02 -0.11599562952E+00  0.13196823820E+00  0.19941349808E-01 0.  0.
         14    1    1    2    0    0 -0.20748837232E-01 -0.90391988473E-02  0.97441751137E-02  0.24640826101E-01  0.00000000000E+00 0. -1.
     999901    1    3    3    0    0 -0.38881715370E-01  0.11716807819E-01  0.10625145440E+00  0.88732093570E+00  0.88000000000E+00 0.  1.
        -11    1    4    4    0    0  0.58691228729E-01 -0.24896592658E-02 -0.10031950550E+00  0.11625456137E+00  0.51100000000E-03 0.  1.
         11    1    4    4    0    0  0.93932387224E-03 -0.18794970576E-03 -0.15676124012E-01  0.15713676828E-01  0.51100000000E-03 0. -1.
</event>
<event>
 8    1  0.1207611E+005  0.1043930E+01  0.7957747E-01            NaN
         13   -1    0    0    0    0  0.00000000000E+00  0.00000000000E+00  0.74505805969E-08  0.10566000000E+00  0.10566000000E+00 0. -1.
     999900   -1    0    0    0    0 -0.00000000000E+00 -0.00000000000E+00 -0.74505805969E-08  0.93827000000E+00  0.93827000000E+00 0. -1.
     999902    2    1    2    0    0  0.46098627771E-02  0.13785360906E-01  0.17148566105E-01  0.10214497791E+01  0.10212023751E+01 0.  0.
     999903    2    3    3    0    0  0.61450334501E-02 -0.97915244989E-01 -0.80954722352E-01  0.12897925453E+00  0.21373450593E-01 0.  0.
         14    1    1    2    0    0 -0.46098627771E-02 -0.13785360906E-01 -0.17148566105E-01  0.22480220853E-01  0.00000000000E+00 0.  1.
     999901    1    3    3    0    0 -0.15351706730E-02  0.11170060590E+00  0.98103288458E-01  0.89247052462E+00  0.88000000000E+00 0.  1.
        -11    1    4    4    0    0  0.87467865266E-02 -0.67419756074E-01 -0.43953376277E-01  0.80957335620E-01  0.51100000000E-03 0. -1.
         11    1    4    4    0    0 -0.26017530765E-02 -0.30495488915E-01 -0.37001346075E-01  0.48021918908E-01  0.51100000000E-03 0.  1.
</event>
<event>
 8    1  0.1207611E+005  0.1043930E+01  0.7957747E-01            NaN
         13   -1    0    0    0    0  0.00000000000E+00  0.00000000000E+00  0.74505805969E-08  0.10566000000E+00  0.10566000000E+00 0.  1.
     999900   -1    0    0    0    0 -0.00000000000E+00 -0.00000000000E+00 -0.74505805969E-08  0.93827000000E+00  0.93827000000E+00 0.  1.
     999902    2    1    2    0    0  0.12953261796E-01  0.15195866758E-02 -0.19756464171E-01  0.10202569349E+01  0.10199822544E+01 0.  0.
     999903    2    3    3    0    0  0.24925014946E-01  0.10450647855E+00 -0.74928151736E-01  0.13245428910E+00  0.19673595244E-01 0.  0.
         14    1    1    2    0    0 -0.12953261796E-01 -0.15195866758E-02  0.19756464171E-01  0.23673065103E-01  0.00000000000E+00 0.  1.
     999901    1    3    3    0    0 -0.11971753150E-01 -0.10298689187E+00  0.55171687565E-01  0.88780264579E+00  0.88000000000E+00 0. -1.
        -11    1    4    4    0    0  0.24058161401E-02  0.32000524466E-01 -0.13610551837E-01  0.34861579994E-01  0.51100000000E-03 0.  1.
         11    1    4    4    0    0  0.22519198805E-01  0.72505954085E-01 -0.61317599900E-01  0.97592709108E-01  0.51100000000E-03 0. -1.
</event>
<event>
 8    1  0.1207611E+005  0.1043930E+01  0.7957747E-01            NaN
         13   -1    0    0    0    0  0.00000000000E+00  0.00000000000E+00  0.74505805969E-08  0.10566000000E+00  0.10566000000E+00 0.  1.
     999900   -1    0    0    0    0 -0.00000000000E+00 -0.00000000000E+00 -0.74505805969E-08  0.93827000000E+00  0.93827000000E+00 0.  1.
     999902    2    1    2    0    0 -0.70792273974E-02 -0.24435315959E-02  0.23393192262E-01  0.10193672691E+01  0.10190712936E+01 0.  0.
     999903    2    3    3    0    0 -0.17809490112E-01 -0.67920734010E-01  0.11060173652E+00  0.13257093801E+00  0.20295453568E-01 0.  0.
         14    1    1    2    0    0  0.70792273974E-02  0.24435315959E-02 -0.23393192262E-01  0.24562730943E-01  0.00000000000E+00 0. -1.
     999901    1    3    3    0    0  0.10730262714E-01  0.65477202414E-01 -0.87208544261E-01  0.88679633105E+00  0.88000000000E+00 0.  1.
        -11    1    4    4    0    0 -0.95756354837E-02 -0.10010344552E-01  0.14450998574E-01  0.20024791479E-01  0.51100000000E-03 0.  1.
         11    1    4    4    0    0 -0.82338546279E-02 -0.57910389458E-01  0.96150737948E-01  0.11254614653E+00  0.51100000000E-03 0. -1.
</event>
<event>
 8    1  0.1207611E+005  0.1043930E+01  0.7957747E-01            NaN
         13   -1    0    0    0    0  0.00000000000E+00  0.00000000000E+00  0.74505805969E-08  0.10566000000E+00  0.10566000000E+00 0.  1.
     999900   -1    0    0    0    0 -0.00000000000E+00 -0.00000000000E+00 -0.74505805969E-08  0.93827000000E+00  0.93827000000E+00 0. -1.
     999902    2    1    2    0    0  0.18400443540E-01 -0.10396585438E-01  0.11286736345E-01  0.10199705399E+01  0.10196890931E+01 0.  0.
     999903    2    3    3    0    0  0.11381149626E-01 -0.12958234457E+00  0.97076311788E-02  0.13190691084E+00  0.19597970165E-01 0.  0.
         14    1    1    2    0    0 -0.18400443540E-01  0.10396585438E-01 -0.11286736345E-01  0.23959460106E-01  0.00000000000E+00 0. -1.
     999901    1    3    3    0    0  0.70192939141E-02  0.11918575913E+00  0.15791051667E-02  0.88806362905E+00  0.88000000000E+00 0.  1.
        -11    1    4    4    0    0  0.10160381185E-01 -0.27976336787E-01  0.49807020449E-02  0.30182400165E-01  0.51100000000E-03 0.  1.
         11    1    4    4    0    0  0.12207684412E-02 -0.10160600778E+00  0.47269291340E-02  0.10172451068E+00  0.51100000000E-03 0. -1.
</event>
<event>
 8    1  0.1207611E+005  0.1043930E+01  0.7957747E-01            NaN
         13   -1    0    0    0    0  0.00000000000E+00  0.00000000000E+00  0.74505805969E-08  0.10566000000E+00  0.10566000000E+00 0. -1.
     999900   -1    0    0    0    0 -0.00000000000E+00 -0.00000000000E+00 -0.74505805969E-08  0.93827000000E+00  0.93827000000E+00 0. -1.
     999902    2    1    2    0    0  0.19637848900E-01  0.12768908527E-01  0.13622460959E-02  0.10204662866E+01  0.10201964988E+01 0.  0.
     999903    2    3    3    0    0  0.11126752651E+00 -0.10749642575E-01 -0.68461446708E-01  0.13264622137E+00  0.20298598133E-01 0.  0.
         14    1    1    2    0    0 -0.19637848900E-01 -0.12768908527E-01 -0.13622460959E-02  0.23463713449E-01  0.00000000000E+00 0. -1.
     999901    1    3    3    0    0 -0.91629677612E-01  0.23518551102E-01  0.69823692804E-01  0.88782006518E+00  0.88000000000E+00 0.  1.
        -11    1    4    4    0    0  0.58975229996E-01  0.25249137902E-02 -0.28790887556E-01  0.65678225235E-01  0.51100000000E-03 0.  1.
         11    1    4    4    0    0  0.52292296516E-01 -0.13274556365E-01 -0.39670559151E-01  0.66967996132E-01  0.51100000000E-03 0. -1.
</event>
<event>
 8    1  0.1207611E+005  0.1043930E+01  0.7957747E-01            NaN
         13   -1    0    0    0    0  0.00000000000E+00  0.00000000000E+00  0.74505805969E-08  0.10566000000E+00  0.10566000000E+00 0.  1.
     999900   -1    0    0    0    0 -0.00000000000E+00 -0.00000000000E+00 -0.74505805969E-08  0.93827000000E+00  0.93827000000E+00 0. -1.
     999902    2    1    2    0    0 -0.14252768419E-01  0.13759626253E-01 -0.14913473423E-01  0.10191332177E+01  0.10188315047E+01 0.  0.
     999903    2    3    3    0    0 -0.67015389997E-01  0.44632484382E-01  0.99547784068E-01  0.12961739038E+00  0.20193697488E-01 0.  0.
         14    1    1    2    0    0  0.14252768419E-01 -0.13759626253E-01  0.14913473423E-01  0.24796782287E-01  0.00000000000E+00 0.  1.
     999901    1    3    3    0    0  0.52762621579E-01 -0.30872858130E-01 -0.11446125749E+00  0.88951582733E+00  0.88000000000E+00 0. -1.
        -11    1    4    4    0    0 -0.58016288159E-01  0.43430327633E-01  0.79339666065E-01  0.10745755805E+00  0.51100000000E-03 0. -1.
         11    1    4    4    0    0 -0.89991018383E-02  0.12021567492E-02  0.20208118003E-01  0.22159832331E-01  0.51100000000E-03 0.  1.
</event>
<event>
 8    1  0.1207611E+005  0.1043930E+01  0.7957747E-01            NaN
         13   -1    0    0    0    0  0.00000000000E+00  0.00000000000E+00  0.74505805969E-08  0.10566000000E+00  0.10566000000E+00 0. -1.
     999900   -1    0    0    0    0 -0.00000000000E+00 -0.00000000000E+00 -0.74505805969E-08  0.93827000000E+00  0.93827000000E+00 0. -1.
     999902    2    1    2    0    0 -0.30838638424E-02 -0.18640627814E-01 -0.19425894535E-01  0.10168311329E+01  0.10164699721E+01 0.  0.
     999903    2    3    3    0    0 -0.94530376788E-01  0.77889790671E-01  0.21747276042E-01  0.12589016041E+00  0.19302249783E-01 0.  0.
         14    1    1    2    0    0  0.30838638424E-02  0.18640627814E-01  0.19425894535E-01  0.27098867135E-01  0.00000000000E+00 0. -1.
     999901    1    3    3    0    0  0.91446512945E-01 -0.96530418484E-01 -0.41173170578E-01  0.89094097245E+00  0.88000000000E+00 0. -1.
        -11    1    4    4    0    0 -0.69084795292E-01  0.51730585125E-01  0.23175266354E-01  0.89365074103E-01  0.51100000000E-03 0. -1.
         11    1    4    4    0    0 -0.25445581496E-01  0.26159205546E-01 -0.14279903120E-02  0.36525086307E-01  0.51100000000E-03 0.  1.
</event>
<event>
 8    1  0.1207611E+005  0.1043930E+01  0.7957747E-01            NaN
         13   -1    0    0    0    0  0.00000000000E+00  0.00000000000E+00  0.74505805969E-08  0.10566000000E+00  0.10566000000E+00 0.  1.
     999900   -1    0    0    0    0 -0.00000000000E+00 -0.00000000000E+00 -0.74505805969E-08  0.93827000000E+00  0.93827000000E+00 0. -1.
     999902    2    1    2    0    0  0.21399787962E-01  0.95957499681E-02  0.99836590650E-02  0.10184407319E+01  0.10181217125E+01 0.  0.
     999903    2    3    3    0    0 -0.29530492861E-01  0.11991321367E+00  0.34477845727E-01  0.12975417210E+00  0.19904635433E-01 0.  0.
         14    1    1    2    0    0 -0.21399787962E-01 -0.95957499681E-02 -0.99836590650E-02  0.25489268145E-01  0.00000000000E+00 0.  1.
     999901    1    3    3    0    0  0.50930280822E-01 -0.11031746370E+00 -0.24494186662E-01  0.88868655975E+00  0.88000000000E+00 0. -1.
        -11    1    4    4    0    0 -0.30443142430E-01  0.98212518798E-01  0.23782559632E-01  0.10553840549E+00  0.51100000000E-03 0.  1.
         11    1    4    4    0    0  0.91264956924E-03  0.21700694870E-01  0.10695286095E-01  0.24215766614E-01  0.51100000000E-03 0. -1.
</event>
<event>
 8    1  0.1207611E+005  0.1043930E+01  0.7957747E-01            NaN
         13   -1    0    0    0    0  0.00000000000E+00  0.00000000000E+00  0.74505805969E-08  0.10566000000E+00  0.10566000000E+00 0. -1.
     999900   -1    0    0    0    0 -0.00000000000E+00 -0.00000000000E+00 -0.74505805969E-08  0.93827000000E+00  0.93827000000E+00 0.  1.
     999902    2    1    2    0    0 -0.39343851390E-02 -0.16937884109E-01 -0.16247766768E-01  0.10201316549E+01  0.10198540249E+01 0.  0.
     999903    2    3    3    0    0  0.62139286574E-01 -0.41777751457E-01  0.10338128071E+00  0.12923667899E+00  0.20193032033E-01 0.  0.
         14    1    1    2    0    0  0.39343851390E-02  0.16937884109E-01  0.16247766768E-01  0.23798345099E-01  0.00000000000E+00 0. -1.
     999901    1    3    3    0    0 -0.66073671713E-01  0.24839867348E-01 -0.11962904748E+00  0.89089497591E+00  0.88000000000E+00 0.  1.
        -11    1    4    4    0    0  0.21769529806E-01 -0.25871938586E-01  0.51363147505E-01  0.61495558187E-01  0.51100000000E-03 0.  1.
         11    1    4    4    0    0  0.40369756768E-01 -0.15905812871E-01  0.52018133204E-01  0.67741120803E-01  0.51100000000E-03 0. -1.
</event>
<event>
 8    1  0.1207611E+005  0.1043930E+01  0.7957747E-01            NaN
         13   -1    0    0    0    0  0.00000000000E+00  0.00000000000E+00  0.74505805969E-08  0.10566000000E+00  0.10566000000E+00 0.  1.
     999900   -1    0    0    0    0 -0.00000000000E+00 -0.00000000000E+00 -0.74505805969E-08  0.93827000000E+00  0.93827000000E+00 0.  1.
     999902    2    1    2    0    0 -0.91868233519E-02 -0.21854579745E-01  0.36982906629E-02  0.10199362981E+01  0.10196540366E+01 0.  0.
     999903    2    3    3    0    0 -0.46882934922E-01 -0.93162323197E-01  0.80104408857E-01  0.13295056762E+00  0.19542493732E-01 0.  0.
         14    1    1    2    0    0  0.91868233519E-02  0.21854579745E-01 -0.36982906629E-02  0.23993701944E-01  0.00000000000E+00 0.  1.
     999901    1    3    3    0    0  0.37696111570E-01  0.71307743452E-01 -0.76406118194E-01  0.88698573044E+00  0.88000000000E+00 0.  1.
        -11    1    4    4    0    0 -0.39579138523E-05 -0.56122995041E-02  0.96866663256E-02  0.11206718828E-01  0.51100000000E-03 0. -1.
         11    1    4    4    0    0 -0.46878977008E-01 -0.87550023693E-01  0.70417742531E-01  0.12174384879E+00  0.51100000000E-03 0.  1.
</event>
<event>
 8    1  0.1207611E+005  0.1043930E+01  0.7957747E-01            NaN
         13   -1    0    0    0    0  0.00000000000E+00  0.00000000000E+00  0.74505805969E-08  0.10566000000E+00  0.10566000000E+00 0.  1.
     999900   -1    0    0    0    0 -0.00000000000E+00 -0.00000000000E+00 -0.74505805969E-08  0.93827000000E+00  0.93827000000E+00 0. -1.
     999902    2    1    2    0    0 -0.64590153498E-02  0.20753181125E-01  0.32834392647E-02  0.10219483172E+01  0.10217118814E+01 0.  0.
     999903    2    3    3    0    0  0.99327901940E-02 -0.32528334929E-01  0.12562758371E+00  0.13173727427E+00  0.20387906920E-01 0.  0.
         14    1    1    2    0    0  0.64590153498E-02 -0.20753181125E-01 -0.32834392647E-02  0.21981682818E-01  0.00000000000E+00 0. -1.
     999901    1    3    3    0    0 -0.16391805544E-01  0.53281516054E-01 -0.12234414445E+00  0.89021104291E+00  0.88000000000E+00 0. -1.
        -11    1    4    4    0    0  0.95082067300E-03 -0.20544755883E-01  0.41887767698E-01  0.46667303950E-01  0.51100000000E-03 0. -1.
         11    1    4    4    0    0  0.89819695210E-02 -0.11983579046E-01  0.83739816014E-01  0.85069970320E-01  0.51100000000E-03 0.  1.
</event>
<event>
 8    1  0.1207611E+005  0.1043930E+01  0.7957747E-01            NaN
         13   -1    0    0    0    0  0.00000000000E+00  0.00000000000E+00  0.74505805969E-08  0.10566000000E+00  0.10566000000E+00 0.  1.
     999900   -1    0    0    0    0 -0.00000000000E+00 -0.00000000000E+00 -0.74505805969E-08  0.93827000000E+00  0.93827000000E+00 0. -1.
     999902    2    1    2    0    0 -0.21303771706E-01  0.73741285487E-02 -0.61265908197E-02  0.10205684167E+01  0.10203009995E+01 0.  0.
     999903    2    3    3    0    0  0.78461289399E-01 -0.88535816701E-01 -0.46957167883E-01  0.12881793529E+00  0.19857493888E-01 0.  0.
         14    1    1    2    0    0  0.21303771706E-01 -0.73741285487E-02  0.61265908197E-02  0.23361583333E-01  0.00000000000E+00 0.  1.
     999901    1    3    3    0    0 -0.99765061105E-01  0.95909945250E-01  0.40830577063E-01  0.89175048138E+00  0.88000000000E+00 0.  1.
        -11    1    4    4    0    0  0.22044690218E-01 -0.38447539231E-01 -0.20873969082E-01  0.48991482382E-01  0.51100000000E-03 0.  1.
         11    1    4    4    0    0  0.56416599181E-01 -0.50088277470E-01 -0.26083198801E-01  0.79826452907E-01  0.51100000000E-03 0. -1.
</event>
<event>
 8    1  0.1207611E+005  0.1043930E+01  0.7957747E-01            NaN
         13   -1    0    0    0    0  0.00000000000E+00  0.00000000000E+00  0.74505805969E-08  0.10566000000E+00  0.10566000000E+00 0. -1.
     999900   -1    0    0    0    0 -0.00000000000E+00 -0.00000000000E+00 -0.74505805969E-08  0.93827000000E+00  0.93827000000E+00 0. -1.
     999902    2    1    2    0    0 -0.13151586736E-02 -0.22608882999E-01 -0.11385080416E-01  0.10185821936E+01  0.10182667498E+01 0.  0.
     999903    2    3    3    0    0 -0.99084429492E-01  0.38413962359E-01 -0.70607161611E-01  0.12909364794E+00  0.19658127990E-01 0.  0.
         14    1    1    2    0    0  0.13151586736E-02  0.22608882999E-01  0.11385080416E-01  0.25347806392E-01  0.00000000000E+00 0. -1.
     999901    1    3    3    0    0  0.97769270818E-01 -0.61022845358E-01  0.59222081195E-01  0.88948854567E+00  0.88000000000E+00 0. -1.
        -11    1    4    4    0    0 -0.51682798354E-01  0.13177770755E-01 -0.26290939410E-01  0.59466292165E-01  0.51100000000E-03 0. -1.
         11    1    4    4    0    0 -0.47401631137E-01  0.25236191604E-01 -0.44316222201E-01  0.69627355776E-01  0.51100000000E-03 0.  1.
</event>
<event>
 8    1  0.1207611E+005  0.1043930E+01  0.7957747E-01            NaN
         13   -1    0    0    0    0  0.00000000000E+00  0.00000000000E+00  0.74505805969E-08  0.10566000000E+00  0.10566000000E+00 0. -1.
     999900   -1    0    0    0    0 -0.00000000000E+00 -0.00000000000E+00 -0.74505805969E-08  0.93827000000E+00  0.93827000000E+00 0.  1.
     999902    2    1    2    0    0 -0.34809559775E-02  0.38636686591E-02  0.21065162558E-01  0.10222323950E+01  0.10220020955E+01 0.  0.
     999903    2    3    3    0    0 -0.26359007846E-01  0.12423751567E+00  0.33138179128E-01  0.13366105511E+00  0.25246408518E-01 0.  0.
         14    1    1    2    0    0  0.34809559775E-02 -0.38636686591E-02 -0.21065162558E-01  0.21697605020E-01  0.00000000000E+00 0.  1.
     999901    1    3    3    0    0  0.22878051869E-01 -0.12037384701E+00 -0.12073016570E-01  0.88857133987E+00  0.88000000000E+00 0.  1.
        -11    1    4    4    0    0  0.44028072974E-02  0.30499918036E-01  0.71727677416E-02  0.31643947768E-01  0.51100000000E-03 0.  1.
         11    1    4    4    0    0 -0.30761815144E-01  0.93737597637E-01  0.25965411387E-01  0.10201710735E+00  0.51100000000E-03 0. -1.
</event>
<event>
 8    1  0.1207611E+005  0.1043930E+01  0.7957747E-01            NaN
         13   -1    0    0    0    0  0.00000000000E+00  0.00000000000E+00  0.74505805969E-08  0.10566000000E+00  0.10566000000E+00 0. -1.
     999900   -1    0    0    0    0 -0.00000000000E+00 -0.00000000000E+00 -0.74505805969E-08  0.93827000000E+00  0.93827000000E+00 0. -1.
     999902    2    1    2    0    0  0.16729949909E-01  0.14719738218E-01 -0.61960619329E-02  0.10208009468E+01  0.10205388870E+01 0.  0.
     999903    2    3    3    0    0  0.10060757107E-01 -0.10354298178E+00 -0.75663438939E-01  0.13015159633E+00  0.19801871800E-01 0.  0.
         14    1    1    2    0    0 -0.16729949909E-01 -0.14719738218E-01  0.61960619329E-02  0.23129053172E-01  0.00000000000E+00 0. -1.
     999901    1    3    3    0    0  0.66691928017E-02  0.11826271999E+00  0.69467377006E-01  0.89064935050E+00  0.88000000000E+00 0.  1.
        -11    1    4    4    0    0  0.70488161137E-02 -0.52197660763E-01 -0.26358121499E-01  0.58900707022E-01  0.51100000000E-03 0. -1.
         11    1    4    4    0    0  0.30119409935E-02 -0.51345321013E-01 -0.49305317440E-01  0.71250889309E-01  0.51100000000E-03 0.  1.
</event>
<event>
 8    1  0.1207611E+005  0.1043930E+01  0.7957747E-01            NaN
         13   -1    0    0    0    0  0.00000000000E+00  0.00000000000E+00  0.74505805969E-08  0.10566000000E+00  0.10566000000E+00 0.  1.
     999900   -1    0    0    0    0 -0.00000000000E+00 -0.00000000000E+00 -0.74505805969E-08  0.93827000000E+00  0.93827000000E+00 0. -1.
     999902    2    1    2    0    0 -0.20491279659E-01 -0.53251052702E-02 -0.10423093695E-01  0.10203314795E+01  0.10200585463E+01 0.  0.
     999903    2    3    3    0    0  0.96753691184E-01  0.39328019335E-01  0.70741536996E-01  0.12773527627E+00  0.20098902566E-01 0.  0.
         14    1    1    2    0    0  0.20491279659E-01  0.53251052702E-02  0.10423093695E-01  0.23598520513E-01  0.00000000000E+00 0. -1.
     999901    1    3    3    0    0 -0.11724497084E+00 -0.44653124605E-01 -0.81164630691E-01  0.89259620322E+00  0.88000000000E+00 0.  1.
        -11    1    4    4    0    0  0.13685031028E-01  0.23976773393E-02  0.17615624872E-01  0.22441040339E-01  0.51100000000E-03 0. -1.
         11    1    4    4    0    0  0.83068660156E-01  0.36930341996E-01  0.53125912124E-01  0.10529423593E+00  0.51100000000E-03 0.  1.
</event>
<event>
 8    1  0.1207611E+005  0.1043930E+01  0.7957747E-01            NaN
         13   -1    0    0    0    0  0.00000000000E+00  0.00000000000E+00  0.74505805969E-08  0.10566000000E+00  0.10566000000E+00 0. -1.
     999900   -1    0    0    0    0 -0.00000000000E+00 -0.00000000000E+00 -0.74505805969E-08  0.93827000000E+00  0.93827000000E+00 0. -1.
     999902    2    1    2    0    0  0.18962265511E-01 -0.56908432599E-02 -0.10594367751E-01  0.10214757390E+01  0.10212289124E+01 0.  0.
     999903    2    3    3    0    0 -0.80559139149E-01  0.57383172624E-01  0.80279812182E-01  0.12898430593E+00  0.20236094796E-01 0.  0.
         14    1    1    2    0    0 -0.18962265511E-01  0.56908432599E-02  0.10594367751E-01  0.22454261029E-01  0.00000000000E+00 0. -1.
     999901    1    3    3    0    0  0.99521404660E-01 -0.63074015884E-01 -0.90874179933E-01  0.89249143304E+00  0.88000000000E+00 0. -1.
        -11    1    4    4    0    0 -0.55596757686E-01  0.48530000656E-01  0.52295991192E-01  0.90450496099E-01  0.51100000000E-03 0.  1.
         11    1    4    4    0    0 -0.24962381463E-01  0.88531719681E-02  0.27983820991E-01  0.38533809836E-01  0.51100000000E-03 0. -1.
</event>
<event>
 8    1  0.1207611E+005  0.1043930E+01  0.7957747E-01            NaN
         13   -1    0    0    0    0  0.00000000000E+00  0.00000000000E+00  0.74505805969E-08  0.10566000000E+00  0.10566000000E+00 0.  1.
     999900   -1    0    0    0    0 -0.00000000000E+00 -0.00000000000E+00 -0.74505805969E-08  0.93827000000E+00  0.93827000000E+00 0.  1.
     999902    2    1    2    0    0  0.20629771339E-01  0.12287393117E-02  0.10417804809E-01  0.10207863632E+01  0.10205239691E+01 0.  0.
     999903    2    3    3    0    0 -0.88188591021E-01  0.64779097436E-01 -0.64485941722E-01  0.12865932337E+00  0.20523785226E-01 0.  0.
         14    1    1    2    0    0 -0.20629771339E-01 -0.12287393117E-02 -0.10417804809E-01  0.23143636768E-01  0.00000000000E+00 0. -1.
     999901    1    3    3    0    0  0.10881836236E+00 -0.63550358125E-01  0.74903746531E-01  0.89212703986E+00  0.88000000000E+00 0. -1.
        -11    1    4    4    0    0 -0.53267134243E-01  0.46912801678E-01 -0.50070151301E-01  0.86864720825E-01  0.51100000000E-03 0.  1.
         11    1    4    4    0    0 -0.34921456778E-01  0.17866295758E-01 -0.14415790420E-01  0.41794602547E-01  0.51100000000E-03 0. -1.
</event>
<event>
 8    1  0.1207611E+005  0.1043930E+01  0.7957747E-01            NaN
         13   -1    0    0    0    0  0.00000000000E+00  0.00000000000E+00  0.74505805969E-08  0.10566000000E+00  0.10566000000E+00 0. -1.
     999900   -1    0    0    0    0 -0.00000000000E+00 -0.00000000000E+00 -0.74505805969E-08  0.93827000000E+00  0.93827000000E+00 0. -1.
     999902    2    1    2    0    0  0.94206325125E-02  0.19127752244E-01  0.98881191157E-02  0.10204269338E+01  0.10201562297E+01 0.  0.
     999903    2    3    3    0    0  0.63481718458E-02 -0.11274491074E+00  0.60181648469E-01  0.12917541015E+00  0.17684501394E-01 0.  0.
         14    1    1    2    0    0 -0.94206325125E-02 -0.19127752244E-01 -0.98881191157E-02  0.23503066236E-01  0.00000000000E+00 0.  1.
     999901    1    3    3    0    0  0.30724606667E-02  0.13187266299E+00 -0.50293529353E-01  0.89125152362E+00  0.88000000000E+00 0.  1.
        -11    1    4    4    0    0  0.30646519344E-02 -0.88138951915E-01  0.38573655537E-01  0.96260349878E-01  0.51100000000E-03 0.  1.
         11    1    4    4    0    0  0.32835199115E-02 -0.24605958828E-01  0.21607992932E-01  0.32915060267E-01  0.51100000000E-03 0. -1.
</event>
<event>
 8    1  0.1207611E+005  0.1043930E+01  0.7957747E-01            NaN
         13   -1    0    0    0    0  0.00000000000E+00  0.00000000000E+00  0.74505805969E-08  0.10566000000E+00  0.10566000000E+00 0.  1.
     999900   -1    0    0    0    0 -0.00000000000E+00 -0.00000000000E+00 -0.74505805969E-08  0.93827000000E+00  0.93827000000E+00 0. -1.
     999902    2    1    2    0    0 -0.13265646218E-01 -0.82758674193E-02  0.17509666664E-01  0.10204554227E+01  0.10201853822E+01 0.  0.
     999903    2    3    3    0    0 -0.91457502994E-01 -0.90517801752E-01 -0.23205907394E-01  0.13223503330E+00  0.19739366937E-01 0.  0.
         14    1    1    2    0    0  0.13265646218E-01  0.82758674193E-02 -0.17509666664E-01  0.23474577266E-01  0.00000000000E+00 0. -1.
     999901    1    3    3    0    0  0.78191856775E-01  0.82241934333E-01  0.40715574058E-01  0.88822038943E+00  0.88000000000E+00 0. -1.
        -11    1    4    4    0    0 -0.42567799256E-01 -0.37701914684E-01 -0.85463504138E-03  0.56872167414E-01  0.51100000000E-03 0.  1.
         11    1    4    4    0    0 -0.48889703737E-01 -0.52815887068E-01 -0.22351272352E-01  0.75362865889E-01  0.51100000000E-03 0. -1.
</event>
<event>
 8    1  0.1207611E+005  0.1043930E+01  0.7957747E-01            NaN
         13   -1    0    0    0    0  0.00000000000E+00  0.00000000000E+00  0.74505805969E-08  0.10566000000E+00  0.10566000000E+00 0. -1.
     999900   -1    0    0    0    0 -0.00000000000E+00 -0.00000000000E+00 -0.74505805969E-08  0.93827000000E+00  0.93827000000E+00 0.  1.
     999902    2    1    2    0    0  0.13110305082E-01  0.20025974944E-01 -0.11160541571E-01  0.10175202014E+01  0.10171774097E+01 0.  0.
     999903    2    3    3    0    0  0.85498034111E-01 -0.64960770525E-01  0.65050401637E-01  0.12719956365E+00  0.20453818578E-01 0.  0.
         14    1    1    2    0    0 -0.13110305082E-01 -0.20025974944E-01  0.11160541571E-01  0.26409798559E-01  0.00000000000E+00 0. -1.
     999901    1    3    3    0    0 -0.72387729029E-01  0.84986745469E-01 -0.76210943208E-01  0.89032063780E+00  0.88000000000E+00 0.  1.
        -11    1    4    4    0    0  0.51095087311E-01 -0.34260004023E-01  0.26058444673E-01  0.66811372406E-01  0.51100000000E-03 0.  1.
         11    1    4    4    0    0  0.34402946800E-01 -0.30700766502E-01  0.38991956964E-01  0.60388191240E-01  0.51100000000E-03 0. -1.
</event>
<event>
 7    1  0.1207611E+005  0.1043930E+01  0.7957747E-01            NaN
         13   -1    0    0    0    0  0.00000000000E+00  0.00000000000E+00  0.74505805969E-08  0.10566000000E+00  0.10566000000E+00 0.  1.
     999900   -1    0    0    0    0 -0.00000000000E+00 -0.00000000000E+00 -0.74505805969E-08  0.93827000000E+00  0.93827000000E+00 0. -1.
     999903    2    1    2    0    0 -0.82868190495E-01  0.98085885923E-01 -0.65297905318E-01  0.14538761355E+00  0.19640868671E-01 0.  0.
         14    1    1    2    0    0  0.54151465538E-02 -0.55034809103E-02 -0.12131111440E-02  0.78156095717E-02  0.00000000000E+00 0.  1.
     999901    1    1    2    0    0  0.77453043941E-01 -0.92582405013E-01  0.66511016462E-01  0.89072677688E+00  0.88000000000E+00 0.  1.
        -11    1    3    3    0    0 -0.47297317208E-02  0.10443395636E-01 -0.10057107907E-02  0.11519871950E-01  0.51100000000E-03 0.  1.
         11    1    3    3    0    0 -0.78138458774E-01  0.87642490288E-01 -0.64292194527E-01  0.13386774160E+00  0.51100000000E-03 0. -1.
</event>
<event>
 8    1  0.1207611E+005  0.1043930E+01  0.7957747E-01            NaN
         13   -1    0    0    0    0  0.00000000000E+00  0.00000000000E+00  0.74505805969E-08  0.10566000000E+00  0.10566000000E+00 0. -1.
     999900   -1    0    0    0    0 -0.00000000000E+00 -0.00000000000E+00 -0.74505805969E-08  0.93827000000E+00  0.93827000000E+00 0.  1.
     999902    2    1    2    0    0  0.17043984527E-01 -0.12807683419E-01  0.25358212640E-02  0.10224599149E+01  0.10222344707E+01 0.  0.
     999903    2    3    3    0    0  0.90813316740E-01 -0.55473687547E-01 -0.80024277911E-01  0.13449681195E+00  0.19003127724E-01 0.  0.
         14    1    1    2    0    0 -0.17043984527E-01  0.12807683419E-01 -0.25358212640E-02  0.21470085063E-01  0.00000000000E+00 0.  1.
     999901    1    3    3    0    0 -0.73769332213E-01  0.42666004128E-01  0.82560099175E-01  0.88796310298E+00  0.88000000000E+00 0. -1.
        -11    1    4    4    0    0  0.76522377266E-01 -0.44280558633E-01 -0.74210142199E-01  0.11542897566E+00  0.51100000000E-03 0. -1.
         11    1    4    4    0    0  0.14290939473E-01 -0.11193128915E-01 -0.58141357119E-02  0.19067836296E-01  0.51100000000E-03 0.  1.
</event>
<event>
 8    1  0.1207611E+005  0.1043930E+01  0.7957747E-01            NaN
         13   -1    0    0    0    0  0.00000000000E+00  0.00000000000E+00  0.74505805969E-08  0.10566000000E+00  0.10566000000E+00 0.  1.
     999900   -1    0    0    0    0 -0.00000000000E+00 -0.00000000000E+00 -0.74505805969E-08  0.93827000000E+00  0.93827000000E+00 0. -1.
     999902    2    1    2    0    0 -0.86164674098E-02  0.13206847316E-01 -0.19215887318E-01  0.10190721109E+01  0.10187688906E+01 0.  0.
     999903    2    3    3    0    0  0.21387926425E-01 -0.68841944455E-01  0.10178640301E+00  0.12650624655E+00  0.21135322700E-01 0.  0.
         14    1    1    2    0    0  0.86164674098E-02 -0.13206847316E-01  0.19215887318E-01  0.24857889131E-01  0.00000000000E+00 0.  1.
     999901    1    3    3    0    0 -0.30004393835E-01  0.82048791771E-01 -0.12100229033E+00  0.89256586432E+00  0.88000000000E+00 0. -1.
        -11    1    4    4    0    0  0.16849550722E-01 -0.26089656204E-01  0.32445211934E-01  0.44916927977E-01  0.51100000000E-03 0.  1.
         11    1    4    4    0    0  0.45383757035E-02 -0.42752288251E-01  0.69341191076E-01  0.81589318575E-01  0.51100000000E-03 0. -1.
</event>
<event>
 8    1  0.1207611E+005  0.1043930E+01  0.7957747E-01            NaN
         13   -1    0    0    0    0  0.00000000000E+00  0.00000000000E+00  0.74505805969E-08  0.10566000000E+00  0.10566000000E+00 0. -1.
     999900   -1    0    0    0    0 -0.00000000000E+00 -0.00000000000E+00 -0.74505805969E-08  0.93827000000E+00  0.93827000000E+00 0.  1.
     999902    2    1    2    0    0 -0.56859897985E-02  0.14249142425E-01 -0.15887147189E-01  0.10218444847E+01  0.10216057855E+01 0.  0.
     999903    2    3    3    0    0  0.11804018363E-01  0.48702752404E-01  0.11947344575E+00  0.13065682672E+00  0.16911806223E-01 0.  0.
         14    1    1    2    0    0  0.56859897985E-02 -0.14249142425E-01  0.15887147189E-01  0.22085515290E-01  0.00000000000E+00 0. -1.
     999901    1    3    3    0    0 -0.17490008161E-01 -0.34453609979E-01 -0.13536059294E+00  0.89118765799E+00  0.88000000000E+00 0.  1.
        -11    1    4    4    0    0  0.61653574418E-02  0.20312503448E-01  0.71877981803E-01  0.74948747940E-01  0.51100000000E-03 0. -1.
         11    1    4    4    0    0  0.56386609210E-02  0.28390248957E-01  0.47595463944E-01  0.55708078785E-01  0.51100000000E-03 0.  1.
</event>
<event>
 8    1  0.1207611E+005  0.1043930E+01  0.7957747E-01            NaN
         13   -1    0    0    0    0  0.00000000000E+00  0.00000000000E+00  0.74505805969E-08  0.10566000000E+00  0.10566000000E+00 0. -1.
     999900   -1    0    0    0    0 -0.00000000000E+00 -0.00000000000E+00 -0.74505805969E-08  0.93827000000E+00  0.93827000000E+00 0.  1.
     999902    2    1    2    0    0 -0.22588460964E-01  0.63034299935E-02 -0.42652526774E-02  0.10200938053E+01  0.10198152810E+01 0.  0.
     999903    2    3    3    0    0 -0.75737588842E-02  0.11841286321E+00  0.52058073805E-01  0.13106833691E+00  0.19745832377E-01 0.  0.
         14    1    1    2    0    0  0.22588460964E-01 -0.63034299935E-02  0.42652526774E-02  0.23836194721E-01  0.00000000000E+00 0. -1.
     999901    1    3    3    0    0 -0.15014702080E-01 -0.11210943322E+00 -0.56323326482E-01  0.88902546836E+00  0.88000000000E+00 0.  1.
        -11    1    4    4    0    0 -0.42049797235E-02  0.20853931745E-01  0.20279979502E-02  0.21376206876E-01  0.51100000000E-03 0.  1.
         11    1    4    4    0    0 -0.33687791607E-02  0.97558931464E-01  0.50030075854E-01  0.10969213004E+00  0.51100000000E-03 0. -1.
</event>
<event>
 8    1  0.1207611E+005  0.1043930E+01  0.7957747E-01            NaN
         13   -1    0    0    0    0  0.00000000000E+00  0.00000000000E+00  0.74505805969E-08  0.10566000000E+00  0.10566000000E+00 0.  1.
     999900   -1    0    0    0    0 -0.00000000000E+00 -0.00000000000E+00 -0.74505805969E-08  0.93827000000E+00  0.93827000000E+00 0.  1.
     999902    2    1    2    0    0  0.42807801674E-02  0.64562644597E-02 -0.21625565098E-01  0.10209588552E+01  0.10207004019E+01 0.  0.
     999903    2    3    3    0    0  0.81125730689E-01  0.10214655141E+00 -0.11164927580E-01  0.13238066368E+00  0.19613321018E-01 0.  0.
         14    1    1    2    0    0 -0.42807801674E-02 -0.64562644597E-02  0.21625565098E-01  0.22971144844E-01  0.00000000000E+00 0.  1.
     999901    1    3    3    0    0 -0.76844950522E-01 -0.95690286955E-01 -0.10460637518E-01  0.88857819148E+00  0.88000000000E+00 0. -1.
        -11    1    4    4    0    0  0.56376036907E-01  0.69606210149E-01  0.14712902495E-02  0.89586315052E-01  0.51100000000E-03 0. -1.
         11    1    4    4    0    0  0.24749693783E-01  0.32540341266E-01 -0.12636217829E-01  0.42794348623E-01  0.51100000000E-03 0.  1.
</event>
<event>
 8    1  0.1207611E+005  0.1043930E+01  0.7957747E-01            NaN
         13   -1    0    0    0    0  0.00000000000E+00  0.00000000000E+00  0.74505805969E-08  0.10566000000E+00  0.10566000000E+00 0.  1.
     999900   -1    0    0    0    0 -0.00000000000E+00 -0.00000000000E+00 -0.74505805969E-08  0.93827000000E+00  0.93827000000E+00 0.  1.
     999902    2    1    2    0    0  0.28266328367E-02 -0.13167739531E-01  0.20121133230E-01  0.10197176226E+01  0.10194301303E+01 0.  0.
     999903    2    3    3    0    0 -0.12209670942E+00  0.37062097306E-01  0.81446608053E-02  0.12939615601E+00  0.19895330671E-01 0.  0.
         14    1    1    2    0    0 -0.28266328367E-02  0.13167739531E-01 -0.20121133230E-01  0.24212377413E-01  0.00000000000E+00 0. -1.
     999901    1    3    3    0    0  0.12492334226E+00 -0.50229836838E-01  0.11976472424E-01  0.89032146657E+00  0.88000000000E+00 0. -1.
        -11    1    4    4    0    0 -0.20092273145E-01  0.35941956380E-02 -0.55806361091E-02  0.21166537336E-01  0.51100000000E-03 0.  1.
         11    1    4    4    0    0 -0.10200443628E+00  0.33467901668E-01  0.13725296914E-01  0.10822961868E+00  0.51100000000E-03 0. -1.
</event>
<event>
 8    1  0.1207611E+005  0.1043930E+01  0.7957747E-01            NaN
         13   -1    0    0    0    0  0.00000000000E+00  0.00000000000E+00  0.74505805969E-08  0.10566000000E+00  0.10566000000E+00 0.  1.
     999900   -1    0    0    0    0 -0.00000000000E+00 -0.00000000000E+00 -0.74505805969E-08  0.93827000000E+00  0.93827000000E+00 0. -1.
     999902    2    1    2    0    0  0.85416761728E-02  0.21751960738E-01  0.37870362365E-02  0.10202561817E+01  0.10199814835E+01 0.  0.
     999903    2    3    3    0    0 -0.42529783574E-01 -0.40418177026E-01 -0.11353901266E+00  0.12883101843E+00  0.16245380536E-01 0.  0.
         14    1    1    2    0    0 -0.85416761728E-02 -0.21751960738E-01 -0.37870362365E-02  0.23673818265E-01  0.00000000000E+00 0. -1.
     999901    1    3    3    0    0  0.51071459747E-01  0.62170137764E-01  0.11732604889E+00  0.89142516331E+00  0.88000000000E+00 0.  1.
        -11    1    4    4    0    0 -0.28467058691E-01 -0.26623549368E-01 -0.90350025650E-01  0.98400076562E-01  0.51100000000E-03 0. -1.
         11    1    4    4    0    0 -0.14062724883E-01 -0.13794627658E-01 -0.23188987007E-01  0.30430941865E-01  0.51100000000E-03 0.  1.
</event>
<event>
 8    1  0.1207611E+005  0.1043930E+01  0.7957747E-01            NaN
         13   -1    0    0    0    0  0.00000000000E+00  0.00000000000E+00  0.74505805969E-08  0.10566000000E+00  0.10566000000E+00 0.  1.
     999900   -1    0    0    0    0 -0.00000000000E+00 -0.00000000000E+00 -0.74505805969E-08  0.93827000000E+00  0.93827000000E+00 0. -1.
     999902    2    1    2    0    0 -0.15454233632E-01  0.15311784776E-01  0.12905631346E-01  0.10186349528E+01  0.10183208373E+01 0.  0.
     999903    2    3    3    0    0  0.50882651180E-01 -0.11402486272E+00  0.92295045501E-02  0.12670330491E+00  0.19437855141E-01 0.  0.
         14    1    1    2    0    0  0.15454233632E-01 -0.15311784776E-01 -0.12905631346E-01  0.25295047156E-01  0.00000000000E+00 0. -1.
     999901    1    3    3    0    0 -0.66336884812E-01  0.12933664749E+00  0.36761267963E-02  0.89193164793E+00  0.88000000000E+00 0.  1.
        -11    1    4    4    0    0  0.22881346522E-01 -0.38133682156E-01 -0.43147980319E-02  0.44683468269E-01  0.51100000000E-03 0.  1.
         11    1    4    4    0    0  0.28001304658E-01 -0.75891180563E-01  0.13544302582E-01  0.82019836645E-01  0.51100000000E-03 0. -1.
</event>
<event>
 8    1  0.1207611E+005  0.1043930E+01  0.7957747E-01            NaN
         13   -1    0    0    0    0  0.00000000000E+00  0.00000000000E+00  0.74505805969E-08  0.10566000000E+00  0.10566000000E+00 0. -1.
     999900   -1    0    0    0    0 -0.00000000000E+00 -0.00000000000E+00 -0.74505805969E-08  0.93827000000E+00  0.93827000000E+00 0.  1.
     999902    2    1    2    0    0 -0.15569059186E-01 -0.10759282333E-01  0.13109641317E-01  0.10209078269E+01  0.10206482109E+01 0.  0.
     999903    2    3    3    0    0  0.29245302027E-01  0.10438348249E+00 -0.67050379729E-01  0.12866805403E+00  0.17564612086E-01 0.  0.
         14    1    1    2    0    0  0.15569059186E-01  0.10759282333E-01 -0.13109641317E-01  0.23022173132E-01  0.00000000000E+00 0.  1.
     999901    1    3    3    0    0 -0.44814361213E-01 -0.11514276483E+00  0.80160021046E-01  0.89223977284E+00  0.88000000000E+00 0. -1.
        -11    1    4    4    0    0  0.24407330576E-01  0.95118387423E-01 -0.54442258506E-01  0.11228288402E+00  0.51100000000E-03 0.  1.
         11    1    4    4    0    0  0.48379714514E-02  0.92650950699E-02 -0.12608121223E-01  0.16385170008E-01  0.51100000000E-03 0. -1.
</event>
<event>
 8    1  0.1207611E+005  0.1043930E+01  0.7957747E-01            NaN
         13   -1    0    0    0    0  0.00000000000E+00  0.00000000000E+00  0.74505805969E-08  0.10566000000E+00  0.10566000000E+00 0.  1.
     999900   -1    0    0    0    0 -0.00000000000E+00 -0.00000000000E+00 -0.74505805969E-08  0.93827000000E+00  0.93827000000E+00 0.  1.
     999902    2    1    2    0    0  0.11460229088E-02 -0.12847387762E-03  0.17322764755E-01  0.10265688925E+01  0.10264220784E+01 0.  0.
     999903    2    3    3    0    0 -0.50474048525E-02 -0.45429975391E-01  0.12892910839E+00  0.13834225448E+00  0.20652007747E-01 0.  0.
         14    1    1    2    0    0 -0.11460229088E-02  0.12847387762E-03 -0.17322764755E-01  0.17361107476E-01  0.00000000000E+00 0. -1.
     999901    1    3    3    0    0  0.61934277613E-02  0.45301501513E-01 -0.11160634364E+00  0.88822663804E+00  0.88000000000E+00 0.  1.
        -11    1    4    4    0    0  0.56922361057E-02 -0.30686063086E-01  0.69797792869E-01  0.76459329254E-01  0.51100000000E-03 0. -1.
         11    1    4    4    0    0 -0.10739640958E-01 -0.14743912305E-01  0.59131315526E-01  0.61882925228E-01  0.51100000000E-03 0.  1.
</event>
<event>
 8    1  0.1207611E+005  0.1043930E+01  0.7957747E-01            NaN
         13   -1    0    0    0    0  0.00000000000E+00  0.00000000000E+00  0.74505805969E-08  0.10566000000E+00  0.10566000000E+00 0. -1.
     999900   -1    0    0    0    0 -0.00000000000E+00 -0.00000000000E+00 -0.74505805969E-08  0.93827000000E+00  0.93827000000E+00 0.  1.
     999902    2    1    2    0    0 -0.81726948776E-02 -0.19182394524E-01 -0.93033683652E-02  0.10210977889E+01  0.10208424877E+01 0.  0.
     999903    2    3    3    0    0  0.63361604215E-01 -0.10916266425E+00  0.34815649385E-01  0.13252584886E+00  0.20488802244E-01 0.  0.
         14    1    1    2    0    0  0.81726948776E-02  0.19182394524E-01  0.93033683652E-02  0.22832211110E-01  0.00000000000E+00 0. -1.
     999901    1    3    3    0    0 -0.71534299093E-01  0.89980269730E-01 -0.44119017750E-01  0.88857194003E+00  0.88000000000E+00 0.  1.
        -11    1    4    4    0    0  0.28514895220E-01 -0.43427002759E-01  0.43794651649E-02  0.52138705912E-01  0.51100000000E-03 0.  1.
         11    1    4    4    0    0  0.34846708995E-01 -0.65735661495E-01  0.30436184220E-01  0.80387142945E-01  0.51100000000E-03 0. -1.
</event>
<event>
 8    1  0.1207611E+005  0.1043930E+01  0.7957747E-01            NaN
         13   -1    0    0    0    0  0.00000000000E+00  0.00000000000E+00  0.74505805969E-08  0.10566000000E+00  0.10566000000E+00 0. -1.
     999900   -1    0    0    0    0 -0.00000000000E+00 -0.00000000000E+00 -0.74505805969E-08  0.93827000000E+00  0.93827000000E+00 0.  1.
     999902    2    1    2    0    0 -0.16260529849E-01 -0.16318891674E-01  0.60966493374E-02  0.10200997631E+01  0.10198213797E+01 0.  0.
     999903    2    3    3    0    0  0.43203117507E-01  0.11849316686E+00  0.31954613301E-02  0.12784496018E+00  0.20663564924E-01 0.  0.
         14    1    1    2    0    0  0.16260529849E-01  0.16318891674E-01 -0.60966493374E-02  0.23830236876E-01  0.00000000000E+00 0.  1.
     999901    1    3    3    0    0 -0.59463647357E-01 -0.13481205853E+00  0.29011880073E-02  0.89225480294E+00  0.88000000000E+00 0.  1.
        -11    1    4    4    0    0  0.64390220393E-02  0.45555079273E-02 -0.14300253458E-02  0.80324187384E-02  0.51100000000E-03 0. -1.
         11    1    4    4    0    0  0.36764095468E-01  0.11393765893E+00  0.46254866759E-02  0.11981254144E+00  0.51100000000E-03 0.  1.
</event>
<event>
 8    1  0.1207611E+005  0.1043930E+01  0.7957747E-01            NaN
         13   -1    0    0    0    0  0.00000000000E+00  0.00000000000E+00  0.74505805969E-08  0.10566000000E+00  0.10566000000E+00 0. -1.
     999900   -1    0    0    0    0 -0.00000000000E+00 -0.00000000000E+00 -0.74505805969E-08  0.93827000000E+00  0.93827000000E+00 0. -1.
     999902    2    1    2    0    0  0.13621817394E-01 -0.20070503615E-01 -0.35654139219E-02  0.10194128386E+01  0.10191179737E+01 0.  0.
     999903    2    3    3    0    0 -0.12507511606E+00 -0.73051663754E-02  0.18377375025E-01  0.12818824340E+00  0.19933582699E-01 0.  0.
         14    1    1    2    0    0 -0.13621817394E-01  0.20070503615E-01  0.35654139219E-02  0.24517161355E-01  0.00000000000E+00 0.  1.
     999901    1    3    3    0    0  0.13869693346E+00 -0.12765337240E-01 -0.21942788947E-01  0.89122459525E+00  0.88000000000E+00 0.  1.
        -11    1    4    4    0    0 -0.90010899560E-01 -0.12049880446E-02  0.21196402054E-01  0.92482228654E-01  0.51100000000E-03 0. -1.
         11    1    4    4    0    0 -0.35064216502E-01 -0.61001783307E-02 -0.28190270293E-02  0.35706014745E-01  0.51100000000E-03 0.  1.
</event>
<event>
 8    1  0.1207611E+005  0.1043930E+01  0.7957747E-01            NaN
         13   -1    0    0    0    0  0.00000000000E+00  0.00000000000E+00  0.74505805969E-08  0.10566000000E+00  0.10566000000E+00 0. -1.
     999900   -1    0    0    0    0 -0.00000000000E+00 -0.00000000000E+00 -0.74505805969E-08  0.93827000000E+00  0.93827000000E+00 0.  1.
     999902    2    1    2    0    0  0.10545971283E-01 -0.10057024187E-01  0.19054218828E-01  0.10199419926E+01  0.10196598667E+01 0.  0.
     999903    2    3    3    0    0  0.25152751656E-01  0.12504340377E+00  0.35028475577E-02  0.12937625730E+00  0.21387666322E-01 0.  0.
         14    1    1    2    0    0 -0.10545971283E-01  0.10057024187E-01 -0.19054218828E-01  0.23988007440E-01  0.00000000000E+00 0.  1.
     999901    1    3    3    0    0 -0.14606780374E-01 -0.13510042796E+00  0.15551371270E-01  0.89056573526E+00  0.88000000000E+00 0. -1.
        -11    1    4    4    0    0 -0.63658587723E-04  0.48090287661E-01  0.52325525470E-02  0.48376859622E-01  0.51100000000E-03 0.  1.
         11    1    4    4    0    0  0.25216410244E-01  0.76953116107E-01 -0.17297049893E-02  0.80999397680E-01  0.51100000000E-03 0. -1.
</event>
<event>
 8    1  0.1207611E+005  0.1043930E+01  0.7957747E-01            NaN
         13   -1    0    0    0    0  0.00000000000E+00  0.00000000000E+00  0.74505805969E-08  0.10566000000E+00  0.10566000000E+00 0.  1.
     999900   -1    0    0    0    0 -0.00000000000E+00 -0.00000000000E+00 -0.74505805969E-08  0.93827000000E+00  0.93827000000E+00 0.  1.
     999902    2    1    2    0    0  0.22847189436E-01  0.59870527262E-02 -0.31371776550E-02  0.10201039481E+01  0.10198256636E+01 0.  0.
     999903    2    3    3    0    0  0.73312861284E-01  0.91444192118E-01  0.58198720656E-01  0.13240366133E+00  0.20169842496E-01 0.  0.
         14    1    1    2    0    0 -0.22847189436E-01 -0.59870527262E-02  0.31371776550E-02  0.23826051899E-01  0.00000000000E+00 0. -1.
     999901    1    3    3    0    0 -0.50465671848E-01 -0.85457139392E-01 -0.61335898311E-01  0.88770028677E+00  0.88000000000E+00 0.  1.
        -11    1    4    4    0    0  0.51670829856E-01  0.73554697393E-01  0.36957593837E-01  0.97192042009E-01  0.51100000000E-03 0. -1.
         11    1    4    4    0    0  0.21642031427E-01  0.17889494726E-01  0.21241126818E-01  0.35211619323E-01  0.51100000000E-03 0.  1.
</event>
<event>
 8    1  0.1207611E+005  0.1043930E+01  0.7957747E-01            NaN
         13   -1    0    0    0    0  0.00000000000E+00  0.00000000000E+00  0.74505805969E-08  0.10566000000E+00  0.10566000000E+00 0.  1.
     999900   -1    0    0    0    0 -0.00000000000E+00 -0.00000000000E+00 -0.74505805969E-08  0.93827000000E+00  0.93827000000E+00 0. -1.
     999902    2    1    2    0    0  0.78045792065E-02  0.15976792797E-01 -0.15308080145E-01  0.10204671212E+01  0.10201973528E+01 0.  0.
     999903    2    3    3    0    0 -0.28681978540E-01  0.25600959078E-01 -0.12542284840E+00  0.13280211925E+00  0.20674790876E-01 0.  0.
         14    1    1    2    0    0 -0.78045792065E-02 -0.15976792797E-01  0.15308080145E-01  0.23462878817E-01  0.00000000000E+00 0.  1.
     999901    1    3    3    0    0  0.36486557746E-01 -0.96241662809E-02  0.11011476825E+00  0.88766500193E+00  0.88000000000E+00 0.  1.
        -11    1    4    4    0    0 -0.24593428490E-01  0.27822185777E-01 -0.94643992225E-01  0.10166935198E+00  0.51100000000E-03 0. -1.
         11    1    4    4    0    0 -0.40885500496E-02 -0.22212266995E-02 -0.30778856173E-01  0.31132767270E-01  0.51100000000E-03 0.  1.
</event>
<event>
 8    1  0.1207611E+005  0.1043930E+01  0.7957747E-01            NaN
         13   -1    0    0    0    0  0.00000000000E+00  0.00000000000E+00  0.74505805969E-08  0.10566000000E+00  0.10566000000E+00 0.  1.
     999900   -1    0    0    0    0 -0.00000000000E+00 -0.00000000000E+00 -0.74505805969E-08  0.93827000000E+00  0.93827000000E+00 0. -1.
     999902    2    1    2    0    0  0.19982797747E-01  0.11051055184E-01  0.78597937189E-02  0.10197801680E+01  0.10194941769E+01 0.  0.
     999903    2    3    3    0    0  0.64754473850E-01 -0.10736253337E+00 -0.22206948029E-01  0.13021269455E+00  0.27245950629E-01 0.  0.
         14    1    1    2    0    0 -0.19982797747E-01 -0.11051055184E-01 -0.78597937189E-02  0.24149831962E-01  0.00000000000E+00 0. -1.
     999901    1    3    3    0    0 -0.44771676103E-01  0.11841358855E+00  0.30066741748E-01  0.88956747349E+00  0.88000000000E+00 0.  1.
        -11    1    4    4    0    0  0.46613556873E-01 -0.71501653680E-01 -0.27495319391E-01  0.89674767203E-01  0.51100000000E-03 0.  1.
         11    1    4    4    0    0  0.18140916977E-01 -0.35860879687E-01  0.52883713623E-02  0.40537927344E-01  0.51100000000E-03 0. -1.
</event>
<event>
 8    1  0.1207611E+005  0.1043930E+01  0.7957747E-01            NaN
         13   -1    0    0    0    0  0.00000000000E+00  0.00000000000E+00  0.74505805969E-08  0.10566000000E+00  0.10566000000E+00 0.  1.
     999900   -1    0    0    0    0 -0.00000000000E+00 -0.00000000000E+00 -0.74505805969E-08  0.93827000000E+00  0.93827000000E+00 0. -1.
     999902    2    1    2    0    0  0.99395393734E-02  0.62920939526E-02 -0.20322201622E-01  0.10204485868E+01  0.10201783871E+01 0.  0.
     999903    2    3    3    0    0 -0.29281942453E-01  0.19304995535E-01  0.12097019613E+00  0.12822036376E+00  0.24011628936E-01 0.  0.
         14    1    1    2    0    0 -0.99395393734E-02 -0.62920939526E-02  0.20322201622E-01  0.23481413246E-01  0.00000000000E+00 0.  1.
     999901    1    3    3    0    0  0.39221481826E-01 -0.13012901583E-01 -0.14129239775E+00  0.89222822299E+00  0.88000000000E+00 0. -1.
        -11    1    4    4    0    0 -0.81662044502E-02  0.10419725310E-01  0.81589059122E-01  0.82657687241E-01  0.51100000000E-03 0.  1.
         11    1    4    4    0    0 -0.21115738003E-01  0.88852702249E-02  0.39381137009E-01  0.45562676518E-01  0.51100000000E-03 0. -1.
</event>
<event>
 8    1  0.1207611E+005  0.1043930E+01  0.7957747E-01            NaN
         13   -1    0    0    0    0  0.00000000000E+00  0.00000000000E+00  0.74505805969E-08  0.10566000000E+00  0.10566000000E+00 0.  1.
     999900   -1    0    0    0    0 -0.00000000000E+00 -0.00000000000E+00 -0.74505805969E-08  0.93827000000E+00  0.93827000000E+00 0.  1.
     999902    2    1    2    0    0  0.20409210849E-01  0.10641349309E-01 -0.77785242744E-02  0.10196343287E+01  0.10193448311E+01 0.  0.
     999903    2    3    3    0    0  0.36077653451E-01 -0.12065179253E+00  0.20487497140E-01  0.12930722190E+00  0.21027790568E-01 0.  0.
         14    1    1    2    0    0 -0.20409210849E-01 -0.10641349309E-01  0.77785242744E-02  0.24295671270E-01  0.00000000000E+00 0.  1.
     999901    1    3    3    0    0 -0.15668442602E-01  0.13129314184E+00 -0.28266021414E-01  0.89032710683E+00  0.88000000000E+00 0.  1.
        -11    1    4    4    0    0 -0.57032327495E-03 -0.21933373931E-01 -0.41184481797E-03  0.21950601308E-01  0.51100000000E-03 0. -1.
         11    1    4    4    0    0  0.36647976726E-01 -0.98718418603E-01  0.20899341958E-01  0.10735662059E+00  0.51100000000E-03 0.  1.
</event>
<event>
 8    1  0.1207611E+005  0.1043930E+01  0.7957747E-01            NaN
         13   -1    0    0    0    0  0.00000000000E+00  0.00000000000E+00  0.74505805969E-08  0.10566000000E+00  0.10566000000E+00 0. -1.
     999900   -1    0    0    0    0 -0.00000000000E+00 -0.00000000000E+00 -0.74505805969E-08  0.93827000000E+00  0.93827000000E+00 0.  1.
     999902    2    1    2    0    0 -0.14452281142E-01  0.21852748544E-02 -0.18595595030E-01  0.10202775158E+01  0.10200033182E+01 0.  0.
     999903    2    3    3    0    0  0.22021375429E-01  0.53606045318E-01 -0.11732859222E+00  0.13251480647E+00  0.20871662909E-01 0.  0.
         14    1    1    2    0    0  0.14452281142E-01 -0.21852748544E-02  0.18595595030E-01  0.23652484244E-01  0.00000000000E+00 0. -1.
     999901    1    3    3    0    0 -0.36473656571E-01 -0.51420770464E-01  0.98732997188E-01  0.88776270928E+00  0.88000000000E+00 0. -1.
        -11    1    4    4    0    0  0.42088095206E-02  0.41545467229E-02 -0.30043104763E-01  0.30623905709E-01  0.51100000000E-03 0. -1.
         11    1    4    4    0    0  0.17812565908E-01  0.49451498595E-01 -0.87285487455E-01  0.10189090077E+00  0.51100000000E-03 0.  1.
</event>
<event>
 8    1  0.1207611E+005  0.1043930E+01  0.7957747E-01            NaN
         13   -1    0    0    0    0  0.00000000000E+00  0.00000000000E+00  0.74505805969E-08  0.10566000000E+00  0.10566000000E+00 0. -1.
     999900   -1    0    0    0    0 -0.00000000000E+00 -0.00000000000E+00 -0.74505805969E-08  0.93827000000E+00  0.93827000000E+00 0.  1.
     999902    2    1    2    0    0  0.16170183394E-02 -0.16230591371E-01  0.25174744794E-01  0.10139330898E+01  0.10134892678E+01 0.  0.
     999903    2    3    3    0    0  0.37287542547E-02 -0.12516295376E+00  0.90082010094E-02  0.12706665335E+00  0.19624426273E-01 0.  0.
         14    1    1    2    0    0 -0.16170183394E-02  0.16230591371E-01 -0.25174744794E-01  0.29996910174E-01  0.00000000000E+00 0.  1.
     999901    1    3    3    0    0 -0.21117359153E-02  0.10893236239E+00  0.16166543785E-01  0.88686643647E+00  0.88000000000E+00 0. -1.
        -11    1    4    4    0    0 -0.48842238519E-02 -0.53221461243E-01  0.11062933816E-01  0.54580483739E-01  0.51100000000E-03 0.  1.
         11    1    4    4    0    0  0.86129781066E-02 -0.71941492517E-01 -0.20547328066E-02  0.72486169614E-01  0.51100000000E-03 0. -1.
</event>
<event>
 8    1  0.1207611E+005  0.1043930E+01  0.7957747E-01            NaN
         13   -1    0    0    0    0  0.00000000000E+00  0.00000000000E+00  0.74505805969E-08  0.10566000000E+00  0.10566000000E+00 0.  1.
     999900   -1    0    0    0    0 -0.00000000000E+00 -0.00000000000E+00 -0.74505805969E-08  0.93827000000E+00  0.93827000000E+00 0.  1.
     999902    2    1    2    0    0 -0.56301519729E-02  0.22802353390E-01  0.83380997444E-02  0.10190067209E+01  0.10187018835E+01 0.  0.
     999903    2    3    3    0    0  0.44374615425E-02 -0.25365717034E-01 -0.12360900717E+00  0.12781002051E+00  0.19826851057E-01 0.  0.
         14    1    1    2    0    0  0.56301519729E-02 -0.22802353390E-01 -0.83380997444E-02  0.24923279052E-01  0.00000000000E+00 0. -1.
     999901    1    3    3    0    0 -0.10067613515E-01  0.48168070425E-01  0.13194710692E+00  0.89119670044E+00  0.88000000000E+00 0. -1.
        -11    1    4    4    0    0  0.11505442566E-01 -0.13463206167E-01 -0.84014851460E-01  0.85862620015E-01  0.51100000000E-03 0.  1.
         11    1    4    4    0    0 -0.70679810232E-02 -0.11902510867E-01 -0.39594155711E-01  0.41947400494E-01  0.51100000000E-03 0. -1.
</event>
<event>
 8    1  0.1207611E+005  0.1043930E+01  0.7957747E-01            NaN
         13   -1    0    0    0    0  0.00000000000E+00  0.00000000000E+00  0.74505805969E-08  0.10566000000E+00  0.10566000000E+00 0. -1.
     999900   -1    0    0    0    0 -0.00000000000E+00 -0.00000000000E+00 -0.74505805969E-08  0.93827000000E+00  0.93827000000E+00 0. -1.
     999902    2    1    2    0    0  0.18663694409E-01  0.12424530968E-01  0.58393796835E-02  0.10207610377E+01  0.10204980624E+01 0.  0.
     999903    2    3    3    0    0 -0.23437270637E-01 -0.34411168464E-01  0.12164250074E+00  0.13094283332E+00  0.24813170748E-01 0.  0.
         14    1    1    2    0    0 -0.18663694409E-01 -0.12424530968E-01 -0.58393796835E-02  0.23168962296E-01  0.00000000000E+00 0.  1.
     999901    1    3    3    0    0  0.42100965046E-01  0.46835699432E-01 -0.11580312106E+00  0.88981820438E+00  0.88000000000E+00 0. -1.
        -11    1    4    4    0    0 -0.67414603161E-02 -0.25215852278E-01  0.92526799834E-01  0.96139254740E-01  0.51100000000E-03 0. -1.
         11    1    4    4    0    0 -0.16695810321E-01 -0.91953161859E-02  0.29115700907E-01  0.34803578585E-01  0.51100000000E-03 0.  1.
</event>
<event>
 8    1  0.1207611E+005  0.1043930E+01  0.7957747E-01            NaN
         13   -1    0    0    0    0  0.00000000000E+00  0.00000000000E+00  0.74505805969E-08  0.10566000000E+00  0.10566000000E+00 0.  1.
     999900   -1    0    0    0    0 -0.00000000000E+00 -0.00000000000E+00 -0.74505805969E-08  0.93827000000E+00  0.93827000000E+00 0. -1.
     999902    2    1    2    0    0 -0.80357593489E-02 -0.12498187162E-01  0.19340437218E-01  0.10195408503E+01  0.10192490936E+01 0.  0.
     999903    2    3    3    0    0  0.27975847451E-01 -0.28871429351E-01  0.12452453828E+00  0.13239451853E+00  0.20142999498E-01 0.  0.
         14    1    1    2    0    0  0.80357593489E-02  0.12498187162E-01 -0.19340437218E-01  0.24389149687E-01  0.00000000000E+00 0. -1.
     999901    1    3    3    0    0 -0.36011606800E-01  0.16373242188E-01 -0.10518410106E+00  0.88714633179E+00  0.88000000000E+00 0. -1.
        -11    1    4    4    0    0 -0.14444415536E-02 -0.45978257112E-02  0.31220075582E-01  0.31593997104E-01  0.51100000000E-03 0.  1.
         11    1    4    4    0    0  0.29420289004E-01 -0.24273603639E-01  0.93304462699E-01  0.10080052142E+00  0.51100000000E-03 0. -1.
</event>
<event>
 8    1  0.1207611E+005  0.1043930E+01  0.7957747E-01            NaN
         13   -1    0    0    0    0  0.00000000000E+00  0.00000000000E+00  0.74505805969E-08  0.10566000000E+00  0.10566000000E+00 0. -1.
     999900   -1    0    0    0    0 -0.00000000000E+00 -0.00000000000E+00 -0.74505805969E-08  0.93827000000E+00  0.93827000000E+00 0. -1.
     999902    2    1    2    0    0 -0.50095489596E-02 -0.22040886589E-01  0.63115799916E-02  0.10204623136E+01  0.10201924334E+01 0.  0.
     999903    2    3    3    0    0  0.78716033240E-01 -0.92557534356E-01 -0.47596960193E-01  0.13204309870E+00  0.20169239906E-01 0.  0.
         14    1    1    2    0    0  0.50095489596E-02  0.22040886589E-01 -0.63115799916E-02  0.23467686388E-01  0.00000000000E+00 0.  1.
     999901    1    3    3    0    0 -0.83725582200E-01  0.70516647767E-01  0.53908540184E-01  0.88841921492E+00  0.88000000000E+00 0.  1.
        -11    1    4    4    0    0  0.51198880901E-02 -0.15858637861E-01 -0.39595200256E-02  0.17136177190E-01  0.51100000000E-03 0.  1.
         11    1    4    4    0    0  0.73596145150E-01 -0.76698896496E-01 -0.43637440167E-01  0.11490692151E+00  0.51100000000E-03 0. -1.
</event>
<event>
 8    1  0.1207611E+005  0.1043930E+01  0.7957747E-01            NaN
         13   -1    0    0    0    0  0.00000000000E+00  0.00000000000E+00  0.74505805969E-08  0.10566000000E+00  0.10566000000E+00 0.  1.
     999900   -1    0    0    0    0 -0.00000000000E+00 -0.00000000000E+00 -0.74505805969E-08  0.93827000000E+00  0.93827000000E+00 0. -1.
     999902    2    1    2    0    0 -0.10779381781E-01 -0.17553035739E-01 -0.38677095001E-02  0.10229713905E+01  0.10227566683E+01 0.  0.
     999903    2    3    3    0    0 -0.79270593181E-02 -0.55595944711E-02  0.13025832836E+00  0.13272323835E+00  0.23547367846E-01 0.  0.
         14    1    1    2    0    0  0.10779381781E-01  0.17553035739E-01  0.38677095001E-02  0.20958609496E-01  0.00000000000E+00 0. -1.
     999901    1    3    3    0    0 -0.28523224627E-02 -0.11993441268E-01 -0.13412603786E+00  0.89024815215E+00  0.88000000000E+00 0. -1.
        -11    1    4    4    0    0 -0.12153962820E-01  0.49939692580E-02  0.87223404503E-01  0.88209080912E-01  0.51100000000E-03 0.  1.
         11    1    4    4    0    0  0.42269035022E-02 -0.10553563729E-01  0.43034923854E-01  0.44514157442E-01  0.51100000000E-03 0. -1.
</event>
<event>
 8    1  0.1207611E+005  0.1043930E+01  0.7957747E-01            NaN
         13   -1    0    0    0    0  0.00000000000E+00  0.00000000000E+00  0.74505805969E-08  0.10566000000E+00  0.10566000000E+00 0. -1.
     999900   -1    0    0    0    0 -0.00000000000E+00 -0.00000000000E+00 -0.74505805969E-08  0.93827000000E+00  0.93827000000E+00 0. -1.
     999902    2    1    2    0    0  0.12941856724E-01  0.11897012646E-02 -0.19872140044E-01  0.10201853376E+01  0.10199089734E+01 0.  0.
     999903    2    3    3    0    0 -0.10956931781E-01  0.10035579472E+00 -0.82829979298E-01  0.13205879494E+00  0.19681970509E-01 0.  0.
         14    1    1    2    0    0 -0.12941856724E-01 -0.11897012646E-02  0.19872140044E-01  0.23744662442E-01  0.00000000000E+00 0. -1.
     999901    1    3    3    0    0  0.23898788505E-01 -0.99166093451E-01  0.62957839254E-01  0.88812654262E+00  0.88000000000E+00 0. -1.
        -11    1    4    4    0    0 -0.52573744311E-02  0.54420428222E-01 -0.57275550013E-01  0.79183159473E-01  0.51100000000E-03 0.  1.
         11    1    4    4    0    0 -0.56995573503E-02  0.45935366493E-01 -0.25554429285E-01  0.52875635466E-01  0.51100000000E-03 0. -1.
</event>
<event>
 8    1  0.1207611E+005  0.1043930E+01  0.7957747E-01            NaN
         13   -1    0    0    0    0  0.00000000000E+00  0.00000000000E+00  0.74505805969E-08  0.10566000000E+00  0.10566000000E+00 0. -1.
     999900   -1    0    0    0    0 -0.00000000000E+00 -0.00000000000E+00 -0.74505805969E-08  0.93827000000E+00  0.93827000000E+00 0.  1.
     999902    2    1    2    0    0  0.20190572159E-01  0.38819799338E-02 -0.12684673617E-01  0.10197715663E+01  0.10194853690E+01 0.  0.
     999903    2    3    3    0    0 -0.49888092104E-01  0.41131357397E-01 -0.11133136155E+00  0.13071042989E+00  0.22581720970E-01 0.  0.
         14    1    1    2    0    0 -0.20190572159E-01 -0.38819799338E-02  0.12684673617E-01  0.24158433664E-01  0.00000000000E+00 0. -1.
     999901    1    3    3    0    0  0.70078664263E-01 -0.37249377463E-01  0.98646687930E-01  0.88906113645E+00  0.88000000000E+00 0. -1.
        -11    1    4    4    0    0 -0.22050736371E-01  0.11927571100E-01 -0.24965661630E-01  0.35384280528E-01  0.51100000000E-03 0.  1.
         11    1    4    4    0    0 -0.27837355732E-01  0.29203786297E-01 -0.86365699917E-01  0.95326149358E-01  0.51100000000E-03 0. -1.
</event>
<event>
 8    1  0.1207611E+005  0.1043930E+01  0.7957747E-01            NaN
         13   -1    0    0    0    0  0.00000000000E+00  0.00000000000E+00  0.74505805969E-08  0.10566000000E+00  0.10566000000E+00 0.  1.
     999900   -1    0    0    0    0 -0.00000000000E+00 -0.00000000000E+00 -0.74505805969E-08  0.93827000000E+00  0.93827000000E+00 0. -1.
     999902    2    1    2    0    0 -0.26228367594E-02 -0.16921290989E-01  0.15746627472E-01  0.10206670329E+01  0.10204018946E+01 0.  0.
     999903    2    3    3    0    0 -0.74754667204E-01 -0.94754525469E-01 -0.49407666124E-01  0.13190041825E+00  0.19746455292E-01 0.  0.
         14    1    1    2    0    0  0.26228367594E-02  0.16921290989E-01 -0.15746627472E-01  0.23262967096E-01  0.00000000000E+00 0. -1.
     999901    1    3    3    0    0  0.72131830445E-01  0.77833234480E-01  0.65154293595E-01  0.88876661466E+00  0.88000000000E+00 0.  1.
        -11    1    4    4    0    0 -0.57159426238E-01 -0.59463938228E-01 -0.38217445947E-01  0.90906513810E-01  0.51100000000E-03 0. -1.
         11    1    4    4    0    0 -0.17595240967E-01 -0.35290587240E-01 -0.11190220176E-01  0.40993904438E-01  0.51100000000E-03 0.  1.
</event>
<event>
 8    1  0.1207611E+005  0.1043930E+01  0.7957747E-01            NaN
         13   -1    0    0    0    0  0.00000000000E+00  0.00000000000E+00  0.74505805969E-08  0.10566000000E+00  0.10566000000E+00 0.  1.
     999900   -1    0    0    0    0 -0.00000000000E+00 -0.00000000000E+00 -0.74505805969E-08  0.93827000000E+00  0.93827000000E+00 0.  1.
     999902    2    1    2    0    0  0.10372235338E-01 -0.17906321912E-01 -0.11566265908E-01  0.10202235001E+01  0.10199480340E+01 0.  0.
     999903    2    3    3    0    0  0.65473279193E-01  0.20621300896E-01  0.10829024982E+00  0.12955740828E+00  0.18610628609E-01 0.  0.
         14    1    1    2    0    0 -0.10372235338E-01  0.17906321912E-01  0.11566265908E-01  0.23706499898E-01  0.00000000000E+00 0. -1.
     999901    1    3    3    0    0 -0.55101043854E-01 -0.38527622809E-01 -0.11985651572E+00  0.89066609182E+00  0.88000000000E+00 0.  1.
        -11    1    4    4    0    0  0.30478710216E-01  0.19295150214E-01  0.53332276646E-01  0.64388255540E-01  0.51100000000E-03 0.  1.
         11    1    4    4    0    0  0.34994568976E-01  0.13261506828E-02  0.54957973170E-01  0.65169152745E-01  0.51100000000E-03 0. -1.
</event>
<event>
 8    1  0.1207611E+005  0.1043930E+01  0.7957747E-01            NaN
         13   -1    0    0    0    0  0.00000000000E+00  0.00000000000E+00  0.74505805969E-08  0.10566000000E+00  0.10566000000E+00 0. -1.
     999900   -1    0    0    0    0 -0.00000000000E+00 -0.00000000000E+00 -0.74505805969E-08  0.93827000000E+00  0.93827000000E+00 0. -1.
     999902    2    1    2    0    0  0.86247480267E-02 -0.18250154317E-01  0.13092362158E-01  0.10198703999E+01  0.10195865673E+01 0.  0.
     999903    2    3    3    0    0 -0.78928524606E-01 -0.58849847970E-01 -0.81935951638E-01  0.12950851216E+00  0.19129504679E-01 0.  0.
         14    1    1    2    0    0 -0.86247480267E-02  0.18250154317E-01 -0.13092362158E-01  0.24059600122E-01  0.00000000000E+00 0.  1.
     999901    1    3    3    0    0  0.87553272632E-01  0.40599693653E-01  0.95028313796E-01  0.89036188772E+00  0.88000000000E+00 0.  1.
        -11    1    4    4    0    0 -0.34845285709E-01 -0.24431414514E-01 -0.47721604841E-01  0.63942948328E-01  0.51100000000E-03 0. -1.
         11    1    4    4    0    0 -0.44083238897E-01 -0.34418433456E-01 -0.34214346796E-01  0.65565563834E-01  0.51100000000E-03 0.  1.
</event>
<event>
 7    1  0.1207611E+005  0.1043930E+01  0.7957747E-01            NaN
         13   -1    0    0    0    0  0.00000000000E+00  0.00000000000E+00  0.74505805969E-08  0.10566000000E+00  0.10566000000E+00 0.  1.
     999900   -1    0    0    0    0 -0.00000000000E+00 -0.00000000000E+00 -0.74505805969E-08  0.93827000000E+00  0.93827000000E+00 0. -1.
     999902    2    1    2    0    0  0.14655535540E-01 -0.13368912026E-01  0.11886035408E-01  0.10208044650E+01  0.10205424858E+01 0.  0.
         14    1    1    2    0    0 -0.14655535540E-01  0.13368912026E-01 -0.11886035408E-01  0.23125534987E-01  0.00000000000E+00 0.  1.
     999901    1    3    3    0    0 -0.11413408121E+00 -0.95262179513E-02  0.42001211542E-01  0.88841512768E+00  0.88000000000E+00 0.  1.
        -11    1    3    3    0    0  0.92952434733E-01 -0.34239601449E-02 -0.23519182722E-01  0.95944211408E-01  0.51100000000E-03 0. -1.
         11    1    3    3    0    0  0.35837182023E-01 -0.41873393011E-03 -0.65959934124E-02  0.36445125923E-01  0.51100000000E-03 0.  1.
</event>
<event>
 8    1  0.1207611E+005  0.1043930E+01  0.7957747E-01            NaN
         13   -1    0    0    0    0  0.00000000000E+00  0.00000000000E+00  0.74505805969E-08  0.10566000000E+00  0.10566000000E+00 0.  1.
     999900   -1    0    0    0    0 -0.00000000000E+00 -0.00000000000E+00 -0.74505805969E-08  0.93827000000E+00  0.93827000000E+00 0. -1.
     999902    2    1    2    0    0  0.13984027639E-01 -0.12532255396E-01  0.14744585703E-01  0.10200550495E+01  0.10197756080E+01 0.  0.
     999903    2    3    3    0    0  0.49451837418E-01 -0.79865689450E-01 -0.88816188449E-01  0.13072013462E+00  0.19375904829E-01 0.  0.
         14    1    1    2    0    0 -0.13984027639E-01  0.12532255396E-01 -0.14744585703E-01  0.23874950510E-01  0.00000000000E+00 0. -1.
     999901    1    3    3    0    0 -0.35467809779E-01  0.67333434054E-01  0.10356077415E+00  0.88933491487E+00  0.88000000000E+00 0.  1.
        -11    1    4    4    0    0  0.38756713285E-01 -0.56157528260E-01 -0.74504085219E-01  0.10102905839E+00  0.51100000000E-03 0. -1.
         11    1    4    4    0    0  0.10695124133E-01 -0.23708161191E-01 -0.14312103230E-01  0.29691076220E-01  0.51100000000E-03 0.  1.
</event>
<event>
 8    1  0.1207611E+005  0.1043930E+01  0.7957747E-01            NaN
         13   -1    0    0    0    0  0.00000000000E+00  0.00000000000E+00  0.74505805969E-08  0.10566000000E+00  0.10566000000E+00 0. -1.
     999900   -1    0    0    0    0 -0.00000000000E+00 -0.00000000000E+00 -0.74505805969E-08  0.93827000000E+00  0.93827000000E+00 0.  1.
     999902    2    1    2    0    0 -0.12459204994E-01 -0.60092164647E-02  0.18054027101E-01  0.10211859817E+01  0.10209326711E+01 0.  0.
     999903    2    3    3    0    0 -0.11612527621E-01  0.10057716690E+00 -0.78039415230E-01  0.12956087912E+00  0.21101037165E-01 0.  0.
         14    1    1    2    0    0  0.12459204994E-01  0.60092164647E-02 -0.18054027101E-01  0.22744018250E-01  0.00000000000E+00 0.  1.
     999901    1    3    3    0    0 -0.84667737310E-03 -0.10658638336E+00  0.96093442331E-01  0.89162510263E+00  0.88000000000E+00 0. -1.
        -11    1    4    4    0    0 -0.59871710705E-02  0.80949103006E-01 -0.51730739290E-01  0.96254527184E-01  0.51100000000E-03 0. -1.
         11    1    4    4    0    0 -0.56253565509E-02  0.19628063894E-01 -0.26308675940E-01  0.33306351935E-01  0.51100000000E-03 0.  1.
</event>
<event>
 8    1  0.1207611E+005  0.1043930E+01  0.7957747E-01            NaN
         13   -1    0    0    0    0  0.00000000000E+00  0.00000000000E+00  0.74505805969E-08  0.10566000000E+00  0.10566000000E+00 0.  1.
     999900   -1    0    0    0    0 -0.00000000000E+00 -0.00000000000E+00 -0.74505805969E-08  0.93827000000E+00  0.93827000000E+00 0.  1.
     999902    2    1    2    0    0 -0.13109785103E-01  0.62721509551E-02 -0.18028634077E-01  0.10207731870E+01  0.10205104905E+01 0.  0.
     999903    2    3    3    0    0  0.14738540788E-01  0.65362876992E-01 -0.11333553917E+00  0.13322000585E+00  0.20324744681E-01 0.  0.
         14    1    1    2    0    0  0.13109785103E-01 -0.62721509551E-02  0.18028634077E-01  0.23156813031E-01  0.00000000000E+00 0.  1.
     999901    1    3    3    0    0 -0.27848325891E-01 -0.59090726037E-01  0.95306905092E-01  0.88755318112E+00  0.88000000000E+00 0. -1.
        -11    1    4    4    0    0  0.19461729885E-01  0.44192284081E-01 -0.80017380817E-01  0.93459933963E-01  0.51100000000E-03 0.  1.
         11    1    4    4    0    0 -0.47231890967E-02  0.21170592911E-01 -0.33318158352E-01  0.39760071886E-01  0.51100000000E-03 0. -1.
</event>
<event>
 8    1  0.1207611E+005  0.1043930E+01  0.7957747E-01            NaN
         13   -1    0    0    0    0  0.00000000000E+00  0.00000000000E+00  0.74505805969E-08  0.10566000000E+00  0.10566000000E+00 0.  1.
     999900   -1    0    0    0    0 -0.00000000000E+00 -0.00000000000E+00 -0.74505805969E-08  0.93827000000E+00  0.93827000000E+00 0. -1.
     999902    2    1    2    0    0  0.23123035129E-01 -0.10110498762E-02 -0.50667179308E-02  0.10202367814E+01  0.10199616275E+01 0.  0.
     999903    2    3    3    0    0  0.11809960111E-01 -0.12703678234E+00  0.18970316172E-01  0.13086157944E+00  0.22069455237E-01 0.  0.
         14    1    1    2    0    0 -0.23123035129E-01  0.10110498762E-02  0.50667179308E-02  0.23693218566E-01  0.00000000000E+00 0.  1.
     999901    1    3    3    0    0  0.11313075019E-01  0.12602573246E+00 -0.24037034102E-01  0.88937520199E+00  0.88000000000E+00 0. -1.
        -11    1    4    4    0    0 -0.17515374300E-02 -0.36849136566E-01 -0.31058739702E-02  0.37024779853E-01  0.51100000000E-03 0. -1.
         11    1    4    4    0    0  0.13561497541E-01 -0.90187645770E-01  0.22076190142E-01  0.93836799590E-01  0.51100000000E-03 0.  1.
</event>
<event>
 8    1  0.1207611E+005  0.1043930E+01  0.7957747E-01            NaN
         13   -1    0    0    0    0  0.00000000000E+00  0.00000000000E+00  0.74505805969E-08  0.10566000000E+00  0.10566000000E+00 0. -1.
     999900   -1    0    0    0    0 -0.00000000000E+00 -0.00000000000E+00 -0.74505805969E-08  0.93827000000E+00  0.93827000000E+00 0. -1.
     999902    2    1    2    0    0 -0.17105574016E-01 -0.65887691380E-02  0.14527420160E-01  0.10205407187E+01  0.10202726597E+01 0.  0.
     999903    2    3    3    0    0 -0.94217127766E-01  0.42155349603E-01 -0.77933489590E-01  0.13100645821E+00  0.20859593189E-01 0.  0.
         14    1    1    2    0    0  0.17105574016E-01  0.65887691380E-02 -0.14527420160E-01  0.23389281257E-01  0.00000000000E+00 0.  1.
     999901    1    3    3    0    0  0.77111553750E-01 -0.48744118741E-01  0.92460909750E-01  0.88953426053E+00  0.88000000000E+00 0.  1.
        -11    1    4    4    0    0 -0.87532598891E-01  0.32570307287E-01 -0.66526709614E-01  0.11466841326E+00  0.51100000000E-03 0.  1.
         11    1    4    4    0    0 -0.66845288753E-02  0.95850423158E-02 -0.11406779976E-01  0.16338044953E-01  0.51100000000E-03 0. -1.
</event>
<event>
 8    1  0.1207611E+005  0.1043930E+01  0.7957747E-01            NaN
         13   -1    0    0    0    0  0.00000000000E+00  0.00000000000E+00  0.74505805969E-08  0.10566000000E+00  0.10566000000E+00 0. -1.
     999900   -1    0    0    0    0 -0.00000000000E+00 -0.00000000000E+00 -0.74505805969E-08  0.93827000000E+00  0.93827000000E+00 0.  1.
     999902    2    1    2    0    0 -0.11069600012E-02  0.67759759702E-02  0.23720856767E-01  0.10192355015E+01  0.10189363028E+01 0.  0.
     999903    2    3    3    0    0 -0.79774910587E-01  0.74425389165E-01 -0.65377292195E-01  0.12867187676E+00  0.19470146933E-01 0.  0.
         14    1    1    2    0    0  0.11069600012E-02 -0.67759759702E-02 -0.23720856767E-01  0.24694498508E-01  0.00000000000E+00 0.  1.
     999901    1    3    3    0    0  0.78667950586E-01 -0.67649413195E-01  0.89098148962E-01  0.89056362474E+00  0.88000000000E+00 0. -1.
        -11    1    4    4    0    0 -0.61112111495E-01  0.46641718921E-01 -0.50896943605E-01  0.92200325946E-01  0.51100000000E-03 0.  1.
         11    1    4    4    0    0 -0.18662799092E-01  0.27783670243E-01 -0.14480348591E-01  0.36471550810E-01  0.51100000000E-03 0. -1.
</event>
<event>
 8    1  0.1207611E+005  0.1043930E+01  0.7957747E-01            NaN
         13   -1    0    0    0    0  0.00000000000E+00  0.00000000000E+00  0.74505805969E-08  0.10566000000E+00  0.10566000000E+00 0.  1.
     999900   -1    0    0    0    0 -0.00000000000E+00 -0.00000000000E+00 -0.74505805969E-08  0.93827000000E+00  0.93827000000E+00 0. -1.
     999902    2    1    2    0    0  0.23200581443E-02 -0.23159548018E-01  0.29523842518E-02  0.10204680328E+01  0.10201982856E+01 0.  0.
     999903    2    3    3    0    0  0.11827913447E+00  0.49837306753E-01 -0.83648849521E-02  0.12979237418E+00  0.17389028165E-01 0.  0.
         14    1    1    2    0    0 -0.23200581443E-02  0.23159548018E-01 -0.29523842518E-02  0.23461967244E-01  0.00000000000E+00 0. -1.
     999901    1    3    3    0    0 -0.11595907633E+00 -0.72996854771E-01  0.11317269204E-01  0.89067565857E+00  0.88000000000E+00 0.  1.
        -11    1    4    4    0    0  0.35681173822E-01  0.21636917385E-01  0.26665940165E-02  0.41817152030E-01  0.51100000000E-03 0. -1.
         11    1    4    4    0    0  0.82597960649E-01  0.28200389368E-01 -0.11031478969E-01  0.87975222154E-01  0.51100000000E-03 0.  1.
</event>
<event>
 8    1  0.1207611E+005  0.1043930E+01  0.7957747E-01            NaN
         13   -1    0    0    0    0  0.00000000000E+00  0.00000000000E+00  0.74505805969E-08  0.10566000000E+00  0.10566000000E+00 0. -1.
     999900   -1    0    0    0    0 -0.00000000000E+00 -0.00000000000E+00 -0.74505805969E-08  0.93827000000E+00  0.93827000000E+00 0. -1.
     999902    2    1    2    0    0  0.34033788382E-02 -0.16623685537E-01  0.17860680374E-01  0.10192939733E+01  0.10189962071E+01 0.  0.
     999903    2    3    3    0    0 -0.22826681125E-01  0.34241771672E-01 -0.11801288164E+00  0.12702891423E+00  0.22710097249E-01 0.  0.
         14    1    1    2    0    0 -0.34033788382E-02  0.16623685537E-01 -0.17860680374E-01  0.24636026704E-01  0.00000000000E+00 0.  1.
     999901    1    3    3    0    0  0.26230059963E-01 -0.50865457208E-01  0.13587356202E+00  0.89226505907E+00  0.88000000000E+00 0.  1.
        -11    1    4    4    0    0  0.23499014523E-02  0.12398050976E-01 -0.45505406465E-01  0.47225383465E-01  0.51100000000E-03 0. -1.
         11    1    4    4    0    0 -0.25176582577E-01  0.21843720696E-01 -0.72507475178E-01  0.79803530760E-01  0.51100000000E-03 0.  1.
</event>
<event>
 8    1  0.1207611E+005  0.1043930E+01  0.7957747E-01            NaN
         13   -1    0    0    0    0  0.00000000000E+00  0.00000000000E+00  0.74505805969E-08  0.10566000000E+00  0.10566000000E+00 0.  1.
     999900   -1    0    0    0    0 -0.00000000000E+00 -0.00000000000E+00 -0.74505805969E-08  0.93827000000E+00  0.93827000000E+00 0.  1.
     999902    2    1    2    0    0  0.17596554508E-01  0.10217369153E-01 -0.15167616288E-01  0.10185510728E+01  0.10182348442E+01 0.  0.
     999903    2    3    3    0    0 -0.12517738676E+00  0.40109016861E-02 -0.40446986078E-02  0.12695327229E+00  0.20379113557E-01 0.  0.
         14    1    1    2    0    0 -0.17596554508E-01 -0.10217369153E-01  0.15167616288E-01  0.25378927220E-01  0.00000000000E+00 0.  1.
     999901    1    3    3    0    0  0.14277394127E+00  0.62064674670E-02 -0.11122917680E-01  0.89159780049E+00  0.88000000000E+00 0.  1.
        -11    1    4    4    0    0 -0.52699290790E-01 -0.75933190777E-02  0.21501192426E-02  0.53289378662E-01  0.51100000000E-03 0. -1.
         11    1    4    4    0    0 -0.72478095970E-01  0.11604220764E-01 -0.61948178504E-02  0.73663893626E-01  0.51100000000E-03 0.  1.
</event>
<event>
 8    1  0.1207611E+005  0.1043930E+01  0.7957747E-01            NaN
         13   -1    0    0    0    0  0.00000000000E+00  0.00000000000E+00  0.74505805969E-08  0.10566000000E+00  0.10566000000E+00 0.  1.
     999900   -1    0    0    0    0 -0.00000000000E+00 -0.00000000000E+00 -0.74505805969E-08  0.93827000000E+00  0.93827000000E+00 0. -1.
     999902    2    1    2    0    0 -0.23663618560E-01 -0.97398349683E-03 -0.47672174682E-02  0.10197713194E+01  0.10194851161E+01 0.  0.
     999903    2    3    3    0    0  0.11733924650E+00  0.25626941298E-01  0.39176337643E-01  0.12706730729E+00  0.13640977326E-01 0.  0.
         14    1    1    2    0    0  0.23663618560E-01  0.97398349683E-03  0.47672174682E-02  0.24158680626E-01  0.00000000000E+00 0.  1.
     999901    1    3    3    0    0 -0.14100286506E+00 -0.26600924795E-01 -0.43943555111E-01  0.89270401208E+00  0.88000000000E+00 0. -1.
        -11    1    4    4    0    0  0.92656940836E-01  0.25531857744E-01  0.32994414132E-01  0.10161730625E+00  0.51100000000E-03 0. -1.
         11    1    4    4    0    0  0.24682305660E-01  0.95083553847E-04  0.61819235105E-02  0.25450001039E-01  0.51100000000E-03 0.  1.
</event>
<event>
 8    1  0.1207611E+005  0.1043930E+01  0.7957747E-01            NaN
         13   -1    0    0    0    0  0.00000000000E+00  0.00000000000E+00  0.74505805969E-08  0.10566000000E+00  0.10566000000E+00 0. -1.
     999900   -1    0    0    0    0 -0.00000000000E+00 -0.00000000000E+00 -0.74505805969E-08  0.93827000000E+00  0.93827000000E+00 0.  1.
     999902    2    1    2    0    0 -0.92338481776E-02  0.14141189309E-01 -0.16253167305E-01  0.10204906605E+01  0.10202214395E+01 0.  0.
     999903    2    3    3    0    0  0.12659023666E-01  0.97065007546E-01 -0.88842461741E-01  0.13334644276E+00  0.17504976929E-01 0.  0.
         14    1    1    2    0    0  0.92338481776E-02 -0.14141189309E-01  0.16253167305E-01  0.23439339468E-01  0.00000000000E+00 0. -1.
     999901    1    3    3    0    0 -0.21892871844E-01 -0.82923818237E-01  0.72589294436E-01  0.88714421778E+00  0.88000000000E+00 0. -1.
        -11    1    4    4    0    0  0.31487143755E-02  0.63928628938E-01 -0.66283082597E-01  0.92143866642E-01  0.51100000000E-03 0. -1.
         11    1    4    4    0    0  0.95103092907E-02  0.33136378608E-01 -0.22559379144E-01  0.41202576113E-01  0.51100000000E-03 0.  1.
</event>
<event>
 8    1  0.1207611E+005  0.1043930E+01  0.7957747E-01            NaN
         13   -1    0    0    0    0  0.00000000000E+00  0.00000000000E+00  0.74505805969E-08  0.10566000000E+00  0.10566000000E+00 0. -1.
     999900   -1    0    0    0    0 -0.00000000000E+00 -0.00000000000E+00 -0.74505805969E-08  0.93827000000E+00  0.93827000000E+00 0. -1.
     999902    2    1    2    0    0  0.79812577068E-02  0.12693858062E-01 -0.18551060116E-01  0.10200767751E+01  0.10197978480E+01 0.  0.
     999903    2    3    3    0    0 -0.35729863431E-01  0.10950802984E+00 -0.62526403998E-01  0.13259861940E+00  0.20104997610E-01 0.  0.
         14    1    1    2    0    0 -0.79812577068E-02 -0.12693858062E-01  0.18551060116E-01  0.23853224907E-01  0.00000000000E+00 0. -1.
     999901    1    3    3    0    0  0.43711121137E-01 -0.96814171778E-01  0.43975343882E-01  0.88747815570E+00  0.88000000000E+00 0. -1.
        -11    1    4    4    0    0 -0.34447631580E-02  0.38631021264E-01 -0.16685754427E-01  0.42224373517E-01  0.51100000000E-03 0.  1.
         11    1    4    4    0    0 -0.32285100273E-01  0.70877008576E-01 -0.45840649571E-01  0.90374245880E-01  0.51100000000E-03 0. -1.
</event>
<event>
 8    1  0.1207611E+005  0.1043930E+01  0.7957747E-01            NaN
         13   -1    0    0    0    0  0.00000000000E+00  0.00000000000E+00  0.74505805969E-08  0.10566000000E+00  0.10566000000E+00 0. -1.
     999900   -1    0    0    0    0 -0.00000000000E+00 -0.00000000000E+00 -0.74505805969E-08  0.93827000000E+00  0.93827000000E+00 0.  1.
     999902    2    1    2    0    0  0.20741197299E-01 -0.11954545276E-01  0.17323313087E-01  0.10143799476E+01  0.10139494428E+01 0.  0.
     999903    2    3    3    0    0  0.42029305943E-01  0.87076693486E-01 -0.74714266700E-01  0.12380076199E+00  0.19889542834E-01 0.  0.
         14    1    1    2    0    0 -0.20741197299E-01  0.11954545276E-01 -0.17323313087E-01  0.29550052360E-01  0.00000000000E+00 0.  1.
     999901    1    3    3    0    0 -0.21288108644E-01 -0.99031238763E-01  0.92037579787E-01  0.89057918565E+00  0.88000000000E+00 0. -1.
        -11    1    4    4    0    0  0.41233440217E-01  0.73411169368E-01 -0.69374856534E-01  0.10909870861E+00  0.51100000000E-03 0. -1.
         11    1    4    4    0    0  0.79586572632E-03  0.13665524118E-01 -0.53394101662E-02  0.14702053381E-01  0.51100000000E-03 0.  1.
</event>
<event>
 7    1  0.1207611E+005  0.1043930E+01  0.7957747E-01            NaN
         13   -1    0    0    0    0  0.00000000000E+00  0.00000000000E+00  0.74505805969E-08  0.10566000000E+00  0.10566000000E+00 0. -1.
     999900   -1    0    0    0    0 -0.00000000000E+00 -0.00000000000E+00 -0.74505805969E-08  0.93827000000E+00  0.93827000000E+00 0. -1.
     999902    2    1    2    0    0  0.46054946646E-02 -0.85095814379E-02 -0.21529307359E-01  0.10203263004E+01  0.10200532460E+01 0.  0.
         14    1    1    2    0    0 -0.46054946646E-02  0.85095814379E-02  0.21529307359E-01  0.23603699556E-01  0.00000000000E+00 0. -1.
     999901    1    3    3    0    0  0.25403675785E-01 -0.12068993845E+00 -0.32222224315E-01  0.88918484002E+00  0.88000000000E+00 0. -1.
        -11    1    3    3    0    0 -0.18916955411E-01  0.26657338862E-01  0.28952819678E-01  0.43669117297E-01  0.51100000000E-03 0.  1.
         11    1    3    3    0    0 -0.18812257086E-02  0.85523018148E-01 -0.18259902722E-01  0.87472343125E-01  0.51100000000E-03 0. -1.
</event>
<event>
 8    1  0.1207611E+005  0.1043930E+01  0.7957747E-01            NaN
         13   -1    0    0    0    0  0.00000000000E+00  0.00000000000E+00  0.74505805969E-08  0.10566000000E+00  0.10566000000E+00 0.  1.
     999900   -1    0    0    0    0 -0.00000000000E+00 -0.00000000000E+00 -0.74505805969E-08  0.93827000000E+00  0.93827000000E+00 0. -1.
     999902    2    1    2    0    0  0.21368762665E-01  0.12807636688E-01  0.15033240182E-02  0.10189716435E+01  0.10186659368E+01 0.  0.
     999903    2    3    3    0    0 -0.75314868411E-01  0.10086872667E+00  0.22368196377E-01  0.12906275886E+00  0.17607671396E-01 0.  0.
         14    1    1    2    0    0 -0.21368762665E-01 -0.12807636688E-01 -0.15033240182E-02  0.24958356486E-01  0.00000000000E+00 0.  1.
     999901    1    3    3    0    0  0.96683631076E-01 -0.88061089981E-01 -0.20864872358E-01  0.88990888465E+00  0.88000000000E+00 0.  1.
        -11    1    4    4    0    0 -0.41191403239E-01  0.45525104997E-01  0.17594784277E-01  0.63867867043E-01  0.51100000000E-03 0. -1.
         11    1    4    4    0    0 -0.34123465171E-01  0.55343621672E-01  0.47734120994E-02  0.65194891818E-01  0.51100000000E-03 0.  1.
</event>
<event>
 8    1  0.1207611E+005  0.1043930E+01  0.7957747E-01            NaN
         13   -1    0    0    0    0  0.00000000000E+00  0.00000000000E+00  0.74505805969E-08  0.10566000000E+00  0.10566000000E+00 0. -1.
     999900   -1    0    0    0    0 -0.00000000000E+00 -0.00000000000E+00 -0.74505805969E-08  0.93827000000E+00  0.93827000000E+00 0. -1.
     999902    2    1    2    0    0 -0.19068969556E-01 -0.66746782402E-02 -0.11740617681E-01  0.10205629498E+01  0.10202954060E+01 0.  0.
     999903    2    3    3    0    0  0.11832761539E+00 -0.11102479424E-01  0.42983645646E-01  0.12821090498E+00  0.21581305565E-01 0.  0.
         14    1    1    2    0    0  0.19068969556E-01  0.66746782402E-02  0.11740617681E-01  0.23367050157E-01  0.00000000000E+00 0.  1.
     999901    1    3    3    0    0 -0.13739658494E+00  0.44278011833E-02 -0.54724263328E-01  0.89235204486E+00  0.88000000000E+00 0. -1.
        -11    1    4    4    0    0  0.71691226766E-01 -0.15246024856E-01  0.19588412443E-01  0.75868572493E-01  0.51100000000E-03 0. -1.
         11    1    4    4    0    0  0.46636388621E-01  0.41435454329E-02  0.23395233204E-01  0.52342332485E-01  0.51100000000E-03 0.  1.
</event>
<event>
 8    1  0.1207611E+005  0.1043930E+01  0.7957747E-01            NaN
         13   -1    0    0    0    0  0.00000000000E+00  0.00000000000E+00  0.74505805969E-08  0.10566000000E+00  0.10566000000E+00 0.  1.
     999900   -1    0    0    0    0 -0.00000000000E+00 -0.00000000000E+00 -0.74505805969E-08  0.93827000000E+00  0.93827000000E+00 0.  1.
     999902    2    1    2    0    0 -0.16506595326E-02 -0.23789023064E-01 -0.48709388105E-04  0.10200837284E+01  0.10198049658E+01 0.  0.
     999903    2    3    3    0    0 -0.10255208495E-01  0.56525017112E-01 -0.11377225317E+00  0.12909695652E+00  0.20534160101E-01 0.  0.
         14    1    1    2    0    0  0.16506595326E-02  0.23789023064E-01  0.48709388105E-04  0.23846271571E-01  0.00000000000E+00 0. -1.
     999901    1    3    3    0    0  0.86045489622E-02 -0.80314040175E-01  0.11372354378E+00  0.89098677191E+00  0.88000000000E+00 0.  1.
        -11    1    4    4    0    0 -0.22014500290E-02  0.41793540063E-01 -0.95545140577E-01  0.10431050466E+00  0.51100000000E-03 0.  1.
         11    1    4    4    0    0 -0.80537584658E-02  0.14731477048E-01 -0.18227112588E-01  0.24786451859E-01  0.51100000000E-03 0. -1.
</event>
<event>
 8    1  0.1207611E+005  0.1043930E+01  0.7957747E-01            NaN
         13   -1    0    0    0    0  0.00000000000E+00  0.00000000000E+00  0.74505805969E-08  0.10566000000E+00  0.10566000000E+00 0.  1.
     999900   -1    0    0    0    0 -0.00000000000E+00 -0.00000000000E+00 -0.74505805969E-08  0.93827000000E+00  0.93827000000E+00 0.  1.
     999902    2    1    2    0    0  0.18626057663E-01 -0.75716294502E-02 -0.37557445960E-02  0.10234760220E+01  0.10232716172E+01 0.  0.
     999903    2    3    3    0    0  0.50544512415E-01  0.23814892720E-01 -0.12077511172E+00  0.13460177121E+00  0.20226525892E-01 0.  0.
         14    1    1    2    0    0 -0.18626057663E-01  0.75716294502E-02  0.37557445960E-02  0.20453977952E-01  0.00000000000E+00 0.  1.
     999901    1    3    3    0    0 -0.31918454752E-01 -0.31386522170E-01  0.11701936713E+00  0.88887425084E+00  0.88000000000E+00 0. -1.
        -11    1    4    4    0    0  0.15217984552E-01  0.17257714923E-01 -0.39082697836E-01  0.45355640987E-01  0.51100000000E-03 0. -1.
         11    1    4    4    0    0  0.35326527863E-01  0.65571777974E-02 -0.81692413886E-01  0.89246130219E-01  0.51100000000E-03 0.  1.
</event>
<event>
 8    1  0.1207611E+005  0.1043930E+01  0.7957747E-01            NaN
         13   -1    0    0    0    0  0.00000000000E+00  0.00000000000E+00  0.74505805969E-08  0.10566000000E+00  0.10566000000E+00 0. -1.
     999900   -1    0    0    0    0 -0.00000000000E+00 -0.00000000000E+00 -0.74505805969E-08  0.93827000000E+00  0.93827000000E+00 0. -1.
     999902    2    1    2    0    0  0.34605453963E-02  0.22042587797E-01  0.76931530121E-02  0.10203283972E+01  0.10200553919E+01 0.  0.
     999903    2    3    3    0    0 -0.27923108889E-01 -0.11011093183E+00  0.56642689543E-01  0.12856298880E+00  0.20394374034E-01 0.  0.
         14    1    1    2    0    0 -0.34605453963E-02 -0.22042587797E-01 -0.76931530121E-02  0.23601602795E-01  0.00000000000E+00 0.  1.
     999901    1    3    3    0    0  0.31383654285E-01  0.13215351962E+00 -0.48949536531E-01  0.89176540841E+00  0.88000000000E+00 0.  1.
        -11    1    4    4    0    0 -0.21938707565E-01 -0.45484468641E-01  0.25438301452E-01  0.56546547896E-01  0.51100000000E-03 0. -1.
         11    1    4    4    0    0 -0.59844013243E-02 -0.64626463184E-01  0.31204388091E-01  0.72016440901E-01  0.51100000000E-03 0.  1.
</event>
<event>
 8    1  0.1207611E+005  0.1043930E+01  0.7957747E-01            NaN
         13   -1    0    0    0    0  0.00000000000E+00  0.00000000000E+00  0.74505805969E-08  0.10566000000E+00  0.10566000000E+00 0. -1.
     999900   -1    0    0    0    0 -0.00000000000E+00 -0.00000000000E+00 -0.74505805969E-08  0.93827000000E+00  0.93827000000E+00 0. -1.
     999902    2    1    2    0    0  0.76998367371E-02 -0.51115137846E-02  0.25835770063E-01  0.10164909389E+01  0.10161205277E+01 0.  0.
     999903    2    3    3    0    0  0.14209152949E-02  0.11942869889E+00 -0.33156029998E-01  0.12574421738E+00  0.21143622233E-01 0.  0.
         14    1    1    2    0    0 -0.76998367371E-02  0.51115137846E-02 -0.25835770063E-01  0.27439061093E-01  0.00000000000E+00 0.  1.
     999901    1    3    3    0    0  0.62789214422E-02 -0.12454021268E+00  0.58991800060E-01  0.89074672152E+00  0.88000000000E+00 0.  1.
        -11    1    4    4    0    0  0.10181035109E-01  0.87465010734E-01 -0.26246802562E-01  0.91885457742E-01  0.51100000000E-03 0.  1.
         11    1    4    4    0    0 -0.87601198143E-02  0.31963688158E-01 -0.69092274362E-02  0.33858759643E-01  0.51100000000E-03 0. -1.
</event>
<event>
 8    1  0.1207611E+005  0.1043930E+01  0.7957747E-01            NaN
         13   -1    0    0    0    0  0.00000000000E+00  0.00000000000E+00  0.74505805969E-08  0.10566000000E+00  0.10566000000E+00 0.  1.
     999900   -1    0    0    0    0 -0.00000000000E+00 -0.00000000000E+00 -0.74505805969E-08  0.93827000000E+00  0.93827000000E+00 0. -1.
     999902    2    1    2    0    0  0.23963507049E-01 -0.29509615755E-02  0.10301970555E-02  0.10197635118E+01  0.10194771213E+01 0.  0.
     999903    2    3    3    0    0  0.12375814245E+00 -0.46236584997E-02  0.45383620439E-01  0.13301157734E+00  0.17174127654E-01 0.  0.
         14    1    1    2    0    0 -0.23963507049E-01  0.29509615755E-02 -0.10301970555E-02  0.24166488166E-01  0.00000000000E+00 0.  1.
     999901    1    3    3    0    0 -0.99794635401E-01  0.16726969243E-02 -0.44353423383E-01  0.88675193450E+00  0.88000000000E+00 0. -1.
        -11    1    4    4    0    0  0.22393820837E-01  0.23225060908E-02  0.14634799532E-01  0.26857321619E-01  0.51100000000E-03 0.  1.
         11    1    4    4    0    0  0.10136432161E+00 -0.69461645906E-02  0.30748820907E-01  0.10615425572E+00  0.51100000000E-03 0. -1.
</event>
<event>
 8    1  0.1207611E+005  0.1043930E+01  0.7957747E-01            NaN
         13   -1    0    0    0    0  0.00000000000E+00  0.00000000000E+00  0.74505805969E-08  0.10566000000E+00  0.10566000000E+00 0.  1.
     999900   -1    0    0    0    0 -0.00000000000E+00 -0.00000000000E+00 -0.74505805969E-08  0.93827000000E+00  0.93827000000E+00 0.  1.
     999902    2    1    2    0    0  0.16879769630E-01 -0.59477618971E-02 -0.20773867921E-01  0.10165100058E+01  0.10161401162E+01 0.  0.
     999903    2    3    3    0    0 -0.59620053521E-01  0.10873511126E+00 -0.37955736673E-02  0.12561570969E+00  0.19672949391E-01 0.  0.
         14    1    1    2    0    0 -0.16879769630E-01  0.59477618971E-02  0.20773867921E-01  0.27419994215E-01  0.00000000000E+00 0.  1.
     999901    1    3    3    0    0  0.76499823152E-01 -0.11468287316E+00 -0.16978294254E-01  0.89089429610E+00  0.88000000000E+00 0.  1.
        -11    1    4    4    0    0 -0.21535759410E-01  0.43027275605E-01 -0.10893129946E-01  0.49336160981E-01  0.51100000000E-03 0.  1.
         11    1    4    4    0    0 -0.38084294111E-01  0.65707835660E-01  0.70975562784E-02  0.76279548709E-01  0.51100000000E-03 0. -1.
</event>
<event>
 8    1  0.1207611E+005  0.1043930E+01  0.7957747E-01            NaN
         13   -1    0    0    0    0  0.00000000000E+00  0.00000000000E+00  0.74505805969E-08  0.10566000000E+00  0.10566000000E+00 0. -1.
     999900   -1    0    0    0    0 -0.00000000000E+00 -0.00000000000E+00 -0.74505805969E-08  0.93827000000E+00  0.93827000000E+00 0.  1.
     999902    2    1    2    0    0 -0.13066982580E-01  0.29575407703E-02 -0.18931592237E-01  0.10207373661E+01  0.10204738470E+01 0.  0.
     999903    2    3    3    0    0  0.12545164025E+00 -0.22484417632E-01 -0.10457322513E-01  0.12949861284E+00  0.20417444905E-01 0.  0.
         14    1    1    2    0    0  0.13066982580E-01 -0.29575407703E-02  0.18931592237E-01  0.23192633869E-01  0.00000000000E+00 0. -1.
     999901    1    3    3    0    0 -0.13851862283E+00  0.25441958402E-01 -0.84742697239E-02  0.89123875329E+00  0.88000000000E+00 0. -1.
        -11    1    4    4    0    0  0.12074103723E-01  0.16104457335E-02 -0.57828424096E-02  0.13493698660E-01  0.51100000000E-03 0. -1.
         11    1    4    4    0    0  0.11337753653E+00 -0.24094863365E-01 -0.46744801034E-02  0.11600491418E+00  0.51100000000E-03 0.  1.
</event>
<event>
 8    1  0.1207611E+005  0.1043930E+01  0.7957747E-01            NaN
         13   -1    0    0    0    0  0.00000000000E+00  0.00000000000E+00  0.74505805969E-08  0.10566000000E+00  0.10566000000E+00 0.  1.
     999900   -1    0    0    0    0 -0.00000000000E+00 -0.00000000000E+00 -0.74505805969E-08  0.93827000000E+00  0.93827000000E+00 0. -1.
     999902    2    1    2    0    0 -0.19410196643E-01 -0.12754251510E-02  0.12752175195E-01  0.10206705844E+01  0.10204055279E+01 0.  0.
     999903    2    3    3    0    0  0.89368955824E-01  0.85674171019E-01  0.33305470927E-01  0.12948285205E+00  0.18157112538E-01 0.  0.
         14    1    1    2    0    0  0.19410196643E-01  0.12754251510E-02 -0.12752175195E-01  0.23259415625E-01  0.00000000000E+00 0. -1.
     999901    1    3    3    0    0 -0.10877915247E+00 -0.86949596170E-01 -0.20553295733E-01  0.89118773233E+00  0.88000000000E+00 0.  1.
        -11    1    4    4    0    0  0.82411378273E-01  0.84486732690E-01  0.30823532331E-01  0.12198358306E+00  0.51100000000E-03 0. -1.
         11    1    4    4    0    0  0.69575775511E-02  0.11874383288E-02  0.24819385968E-02  0.74992689885E-02  0.51100000000E-03 0.  1.
</event>
<event>
 8    1  0.1207611E+005  0.1043930E+01  0.7957747E-01            NaN
         13   -1    0    0    0    0  0.00000000000E+00  0.00000000000E+00  0.74505805969E-08  0.10566000000E+00  0.10566000000E+00 0. -1.
     999900   -1    0    0    0    0 -0.00000000000E+00 -0.00000000000E+00 -0.74505805969E-08  0.93827000000E+00  0.93827000000E+00 0.  1.
     999902    2    1    2    0    0  0.13808865259E-02 -0.14697041360E-01  0.16722593010E-01  0.10216240593E+01  0.10213805185E+01 0.  0.
     999903    2    3    3    0    0  0.25345218188E-01  0.12514634441E+00 -0.11842164740E-01  0.12980210001E+00  0.20108721925E-01 0.  0.
         14    1    1    2    0    0 -0.13808865259E-02  0.14697041360E-01 -0.16722593010E-01  0.22305940674E-01  0.00000000000E+00 0. -1.
     999901    1    3    3    0    0 -0.23964331662E-01 -0.13984338577E+00  0.28564757751E-01  0.89182195932E+00  0.88000000000E+00 0. -1.
        -11    1    4    4    0    0  0.14834644645E-01  0.53455844875E-01  0.40327056794E-02  0.55624795453E-01  0.51100000000E-03 0.  1.
         11    1    4    4    0    0  0.10510573543E-01  0.71690499533E-01 -0.15874870420E-01  0.74177304557E-01  0.51100000000E-03 0. -1.
</event>
<event>
 8    1  0.1207611E+005  0.1043930E+01  0.7957747E-01            NaN
         13   -1    0    0    0    0  0.00000000000E+00  0.00000000000E+00  0.74505805969E-08  0.10566000000E+00  0.10566000000E+00 0.  1.
     999900   -1    0    0    0    0 -0.00000000000E+00 -0.00000000000E+00 -0.74505805969E-08  0.93827000000E+00  0.93827000000E+00 0.  1.
     999902    2    1    2    0    0 -0.21467361140E-01 -0.60269754379E-02  0.10432325526E-01  0.10193128222E+01  0.10190155171E+01 0.  0.
     999903    2    3    3    0    0 -0.44498290238E-01  0.11244180425E+00  0.44504628407E-01  0.13042239178E+00  0.20151455334E-01 0.  0.
         14    1    1    2    0    0  0.21467361140E-01  0.60269754379E-02 -0.10432325526E-01  0.24617177806E-01  0.00000000000E+00 0. -1.
     999901    1    3    3    0    0  0.23030929097E-01 -0.11846877968E+00 -0.34072302881E-01  0.88889043041E+00  0.88000000000E+00 0.  1.
        -11    1    4    4    0    0 -0.12929971578E-01  0.21598103913E-01  0.19462636814E-02  0.25252946778E-01  0.51100000000E-03 0.  1.
         11    1    4    4    0    0 -0.31568318660E-01  0.90843700333E-01  0.42558364726E-01  0.10516944500E+00  0.51100000000E-03 0. -1.
</event>
<event>
 8    1  0.1207611E+005  0.1043930E+01  0.7957747E-01            NaN
         13   -1    0    0    0    0  0.00000000000E+00  0.00000000000E+00  0.74505805969E-08  0.10566000000E+00  0.10566000000E+00 0.  1.
     999900   -1    0    0    0    0 -0.00000000000E+00 -0.00000000000E+00 -0.74505805969E-08  0.93827000000E+00  0.93827000000E+00 0. -1.
     999902    2    1    2    0    0 -0.16818744270E-01  0.13056709920E-01  0.42489859790E-02  0.10222182125E+01  0.10219876087E+01 0.  0.
     999903    2    3    3    0    0  0.13468932858E-02  0.13005780148E+00 -0.24875418049E-01  0.13381094292E+00  0.19228525039E-01 0.  0.
         14    1    1    2    0    0  0.16818744270E-01 -0.13056709920E-01 -0.42489859790E-02  0.21711787458E-01  0.00000000000E+00 0.  1.
     999901    1    3    3    0    0 -0.18165637556E-01 -0.11700109156E+00  0.29124404028E-01  0.88840726963E+00  0.88000000000E+00 0. -1.
        -11    1    4    4    0    0  0.26790129553E-02  0.97681266331E-01 -0.26855907405E-01  0.10134252704E+00  0.51100000000E-03 0. -1.
         11    1    4    4    0    0 -0.13321196695E-02  0.32376535144E-01  0.19804893559E-02  0.32468415881E-01  0.51100000000E-03 0.  1.
</event>
<event>
 8    1  0.1207611E+005  0.1043930E+01  0.7957747E-01            NaN
         13   -1    0    0    0    0  0.00000000000E+00  0.00000000000E+00  0.74505805969E-08  0.10566000000E+00  0.10566000000E+00 0.  1.
     999900   -1    0    0    0    0 -0.00000000000E+00 -0.00000000000E+00 -0.74505805969E-08  0.93827000000E+00  0.93827000000E+00 0. -1.
     999902    2    1    2    0    0  0.22785703513E-02  0.17166330810E-01 -0.34993969431E-02  0.10262630655E+01  0.10261109877E+01 0.  0.
     999903    2    3    3    0    0 -0.53664253487E-01  0.11528217125E+00 -0.49184638197E-01  0.13786931328E+00  0.20469191464E-01 0.  0.
         14    1    1    2    0    0 -0.22785703513E-02 -0.17166330810E-01  0.34993969431E-02  0.17666934519E-01  0.00000000000E+00 0. -1.
     999901    1    3    3    0    0  0.55942823838E-01 -0.98115840439E-01  0.45685241254E-01  0.88839375220E+00  0.88000000000E+00 0. -1.
        -11    1    4    4    0    0 -0.21200389558E-01  0.35580327887E-01 -0.69375125931E-02  0.41997695793E-01  0.51100000000E-03 0.  1.
         11    1    4    4    0    0 -0.32463863929E-01  0.79701843362E-01 -0.42247125604E-01  0.95871617485E-01  0.51100000000E-03 0. -1.
</event>
<event>
 8    1  0.1207611E+005  0.1043930E+01  0.7957747E-01            NaN
         13   -1    0    0    0    0  0.00000000000E+00  0.00000000000E+00  0.74505805969E-08  0.10566000000E+00  0.10566000000E+00 0.  1.
     999900   -1    0    0    0    0 -0.00000000000E+00 -0.00000000000E+00 -0.74505805969E-08  0.93827000000E+00  0.93827000000E+00 0. -1.
     999902    2    1    2    0    0  0.23955542857E-01  0.78547831163E-02  0.25972148362E-02  0.10185861413E+01  0.10182707970E+01 0.  0.
     999903    2    3    3    0    0  0.86602061738E-01  0.70133530194E-01  0.67218680325E-01  0.13180591906E+00  0.20876306193E-01 0.  0.
         14    1    1    2    0    0 -0.23955542857E-01 -0.78547831163E-02 -0.25972148362E-02  0.25343858749E-01  0.00000000000E+00 0. -1.
     999901    1    3    3    0    0 -0.62646518881E-01 -0.62278747078E-01 -0.64621465489E-01  0.88678022219E+00  0.88000000000E+00 0.  1.
        -11    1    4    4    0    0  0.60524189205E-01  0.59277817906E-01  0.55124691282E-01  0.10107437798E+00  0.51100000000E-03 0. -1.
         11    1    4    4    0    0  0.26077872532E-01  0.10855712288E-01  0.12093989043E-01  0.30731541079E-01  0.51100000000E-03 0.  1.
</event>
<event>
 8    1  0.1207611E+005  0.1043930E+01  0.7957747E-01            NaN
         13   -1    0    0    0    0  0.00000000000E+00  0.00000000000E+00  0.74505805969E-08  0.10566000000E+00  0.10566000000E+00 0. -1.
     999900   -1    0    0    0    0 -0.00000000000E+00 -0.00000000000E+00 -0.74505805969E-08  0.93827000000E+00  0.93827000000E+00 0.  1.
     999902    2    1    2    0    0  0.47977599350E-02 -0.15984173943E-01 -0.15697720683E-01  0.10210186327E+01  0.10207615381E+01 0.  0.
     999903    2    3    3    0    0  0.35251902406E-01  0.10768085063E+00 -0.63328235854E-01  0.13057539528E+00  0.14198809087E-01 0.  0.
         14    1    1    2    0    0 -0.47977599350E-02  0.15984173943E-01  0.15697720683E-01  0.22911367302E-01  0.00000000000E+00 0. -1.
     999901    1    3    3    0    0 -0.30454142471E-01 -0.12366502457E+00  0.47630515171E-01  0.89044323742E+00  0.88000000000E+00 0.  1.
        -11    1    4    4    0    0  0.18911688966E-01  0.36914592451E-01 -0.20677340253E-01  0.46348167561E-01  0.51100000000E-03 0.  1.
         11    1    4    4    0    0  0.16340213440E-01  0.70766258178E-01 -0.42650895601E-01  0.84227227714E-01  0.51100000000E-03 0. -1.
</event>
<event>
 8    1  0.1207611E+005  0.1043930E+01  0.7957747E-01            NaN
         13   -1    0    0    0    0  0.00000000000E+00  0.00000000000E+00  0.74505805969E-08  0.10566000000E+00  0.10566000000E+00 0. -1.
     999900   -1    0    0    0    0 -0.00000000000E+00 -0.00000000000E+00 -0.74505805969E-08  0.93827000000E+00  0.93827000000E+00 0.  1.
     999902    2    1    2    0    0 -0.58481564689E-02  0.20696072518E-01  0.83007033810E-02  0.10208772338E+01  0.10206169196E+01 0.  0.
     999903    2    3    3    0    0  0.62610675657E-01  0.10148014680E+00 -0.52693984399E-01  0.13243307109E+00  0.23314060699E-01 0.  0.
         14    1    1    2    0    0  0.58481564689E-02 -0.20696072518E-01 -0.83007033810E-02  0.23052766176E-01  0.00000000000E+00 0.  1.
     999901    1    3    3    0    0 -0.68458832126E-01 -0.80784074283E-01  0.60994687780E-01  0.88844416273E+00  0.88000000000E+00 0.  1.
        -11    1    4    4    0    0  0.43134841970E-01  0.81813296123E-01 -0.31994813925E-01  0.97867048864E-01  0.51100000000E-03 0. -1.
         11    1    4    4    0    0  0.19475833687E-01  0.19666850678E-01 -0.20699170474E-01  0.34566022228E-01  0.51100000000E-03 0.  1.
</event>
