<event>
 8    1  0.1145101E+005  0.1043930E+01  0.7957747E-01            NaN
         13   -1    0    0    0    0  0.00000000000E+00  0.00000000000E+00  0.74505805969E-08  0.10566000000E+00  0.10566000000E+00 0.  1.
     999900   -1    0    0    0    0 -0.00000000000E+00 -0.00000000000E+00 -0.74505805969E-08  0.93827000000E+00  0.93827000000E+00 0.  1.
     999902    2    1    2    0    0  0.83861508883E-02  0.10401143968E-01  0.19206291583E-01  0.10205335695E+01  0.10202653447E+01 0.  0.
     999903    2    3    3    0    0 -0.29618863428E-01  0.11597360100E+00 -0.48772024816E-01  0.13080834436E+00  0.20123601783E-01 0.  0.
         14    1    1    2    0    0 -0.83861508883E-02 -0.10401143968E-01 -0.19206291583E-01  0.23396430474E-01  0.00000000000E+00 0. -1.
     999901    1    3    3    0    0  0.38005014316E-01 -0.10557245704E+00  0.67978316398E-01  0.88972522517E+00  0.88000000000E+00 0. -1.
        -11    1    4    4    0    0 -0.36737751335E-02  0.34786107069E-01 -0.61795535525E-02  0.35524890878E-01  0.51100000000E-03 0. -1.
         11    1    4    4    0    0 -0.25945088295E-01  0.81187493935E-01 -0.42592471263E-01  0.95283453482E-01  0.51100000000E-03 0.  1.
</event>
<event>
 8    1  0.1145101E+005  0.1043930E+01  0.7957747E-01            NaN
         13   -1    0    0    0    0  0.00000000000E+00  0.00000000000E+00  0.74505805969E-08  0.10566000000E+00  0.10566000000E+00 0. -1.
     999900   -1    0    0    0    0 -0.00000000000E+00 -0.00000000000E+00 -0.74505805969E-08  0.93827000000E+00  0.93827000000E+00 0.  1.
     999902    2    1    2    0    0 -0.41645591449E-02 -0.21692698186E-01 -0.58340531457E-02  0.10210837118E+01  0.10208280921E+01 0.  0.
     999903    2    3    3    0    0  0.93007068747E-01  0.77439177390E-01 -0.41671761633E-01  0.12948189746E+00  0.19541878633E-01 0.  0.
         14    1    1    2    0    0  0.41645591449E-02  0.21692698186E-01  0.58340531457E-02  0.22846288179E-01  0.00000000000E+00 0. -1.
     999901    1    3    3    0    0 -0.97171627892E-01 -0.99131875576E-01  0.35837708487E-01  0.89160181436E+00  0.88000000000E+00 0. -1.
        -11    1    4    4    0    0  0.86629272562E-01  0.75784642578E-01 -0.35529927572E-01  0.12045986796E+00  0.51100000000E-03 0. -1.
         11    1    4    4    0    0  0.63777961849E-02  0.16545348119E-02 -0.61418340604E-02  0.90220294971E-02  0.51100000000E-03 0.  1.
</event>
<event>
 8    1  0.1145101E+005  0.1043930E+01  0.7957747E-01            NaN
         13   -1    0    0    0    0  0.00000000000E+00  0.00000000000E+00  0.74505805969E-08  0.10566000000E+00  0.10566000000E+00 0. -1.
     999900   -1    0    0    0    0 -0.00000000000E+00 -0.00000000000E+00 -0.74505805969E-08  0.93827000000E+00  0.93827000000E+00 0. -1.
     999902    2    1    2    0    0 -0.10048456631E-01 -0.21337693289E-01 -0.29302674100E-02  0.10201633195E+01  0.10198864365E+01 0.  0.
     999903    2    3    3    0    0  0.33531013241E-01 -0.11712288058E+00 -0.48852885484E-01  0.13270466741E+00  0.19540376817E-01 0.  0.
         14    1    1    2    0    0  0.10048456631E-01  0.21337693289E-01  0.29302674100E-02  0.23766680514E-01  0.00000000000E+00 0. -1.
     999901    1    3    3    0    0 -0.43579469872E-01  0.95785187296E-01  0.45922618074E-01  0.88745865208E+00  0.88000000000E+00 0.  1.
        -11    1    4    4    0    0  0.22860427501E-01 -0.83004013297E-01 -0.24736823010E-01  0.89579221377E-01  0.51100000000E-03 0.  1.
         11    1    4    4    0    0  0.10670585740E-01 -0.34118867288E-01 -0.24116062474E-01  0.43125446030E-01  0.51100000000E-03 0. -1.
</event>
<event>
 8    1  0.1145101E+005  0.1043930E+01  0.7957747E-01            NaN
         13   -1    0    0    0    0  0.00000000000E+00  0.00000000000E+00  0.74505805969E-08  0.10566000000E+00  0.10566000000E+00 0.  1.
     999900   -1    0    0    0    0 -0.00000000000E+00 -0.00000000000E+00 -0.74505805969E-08  0.93827000000E+00  0.93827000000E+00 0. -1.
     999902    2    1    2    0    0 -0.97013036277E-02  0.14313732235E-01  0.71021976088E-02  0.10252367008E+01  0.10250662678E+01 0.  0.
     999903    2    3    3    0    0  0.61883868571E-02 -0.12462221582E+00  0.43140835270E-01  0.13346629130E+00  0.19573615835E-01 0.  0.
         14    1    1    2    0    0  0.97013036277E-02 -0.14313732235E-01 -0.71021976088E-02  0.18693299159E-01  0.00000000000E+00 0.  1.
     999901    1    3    3    0    0 -0.15889690485E-01  0.13893594806E+00 -0.36038637662E-01  0.89177040954E+00  0.88000000000E+00 0.  1.
        -11    1    4    4    0    0 -0.41063080738E-02 -0.69454834372E-02  0.15559695321E-02  0.82330837696E-02  0.51100000000E-03 0.  1.
         11    1    4    4    0    0  0.10294694931E-01 -0.11767673239E+00  0.41584865738E-01  0.12523320753E+00  0.51100000000E-03 0. -1.
</event>
<event>
 8    1  0.1145101E+005  0.1043930E+01  0.7957747E-01            NaN
         13   -1    0    0    0    0  0.00000000000E+00  0.00000000000E+00  0.74505805969E-08  0.10566000000E+00  0.10566000000E+00 0. -1.
     999900   -1    0    0    0    0 -0.00000000000E+00 -0.00000000000E+00 -0.74505805969E-08  0.93827000000E+00  0.93827000000E+00 0. -1.
     999902    2    1    2    0    0 -0.15103970065E-01 -0.16982082664E-01 -0.69927089596E-02  0.10201514588E+01  0.10198742961E+01 0.  0.
     999903    2    3    3    0    0 -0.24083349195E-01  0.87913126841E-01 -0.90679220146E-01  0.12993403233E+00  0.18745831846E-01 0.  0.
         14    1    1    2    0    0  0.15103970065E-01  0.16982082664E-01  0.69927089596E-02  0.23778541207E-01  0.00000000000E+00 0.  1.
     999901    1    3    3    0    0  0.89793791292E-02 -0.10489520950E+00  0.83686511186E-01  0.89021742646E+00  0.88000000000E+00 0. -1.
        -11    1    4    4    0    0 -0.94243317715E-02  0.65994179431E-01 -0.63746957271E-01  0.92238741484E-01  0.51100000000E-03 0.  1.
         11    1    4    4    0    0 -0.14659017423E-01  0.21918947409E-01 -0.26932262875E-01  0.37695290845E-01  0.51100000000E-03 0. -1.
</event>
<event>
 8    1  0.1145101E+005  0.1043930E+01  0.7957747E-01            NaN
         13   -1    0    0    0    0  0.00000000000E+00  0.00000000000E+00  0.74505805969E-08  0.10566000000E+00  0.10566000000E+00 0.  1.
     999900   -1    0    0    0    0 -0.00000000000E+00 -0.00000000000E+00 -0.74505805969E-08  0.93827000000E+00  0.93827000000E+00 0. -1.
     999902    2    1    2    0    0 -0.10487937011E-01  0.74251420306E-02  0.21052239838E-01  0.10192657271E+01  0.10189672694E+01 0.  0.
     999903    2    3    3    0    0 -0.11883032321E+00 -0.42670755849E-01  0.30166097634E-01  0.13116059026E+00  0.18752809724E-01 0.  0.
         14    1    1    2    0    0  0.10487937011E-01 -0.74251420306E-02 -0.21052239838E-01  0.24664272929E-01  0.00000000000E+00 0. -1.
     999901    1    3    3    0    0  0.10834238619E+00  0.50095897880E-01 -0.91138577965E-02  0.88810513681E+00  0.88000000000E+00 0. -1.
        -11    1    4    4    0    0 -0.43259005016E-01 -0.24029856562E-01  0.16256522841E-01  0.52089453609E-01  0.51100000000E-03 0.  1.
         11    1    4    4    0    0 -0.75571318189E-01 -0.18640899287E-01  0.13909574793E-01  0.79071136649E-01  0.51100000000E-03 0. -1.
</event>
<event>
 8    1  0.1145101E+005  0.1043930E+01  0.7957747E-01            NaN
         13   -1    0    0    0    0  0.00000000000E+00  0.00000000000E+00  0.74505805969E-08  0.10566000000E+00  0.10566000000E+00 0. -1.
     999900   -1    0    0    0    0 -0.00000000000E+00 -0.00000000000E+00 -0.74505805969E-08  0.93827000000E+00  0.93827000000E+00 0. -1.
     999902    2    1    2    0    0 -0.10753864697E-01 -0.14873887105E-01  0.15366887688E-01  0.10199921772E+01  0.10197112445E+01 0.  0.
     999903    2    3    3    0    0 -0.11083501483E+00 -0.69724829218E-01  0.24049968966E-02  0.13252788322E+00  0.20295405874E-01 0.  0.
         14    1    1    2    0    0  0.10753864697E-01  0.14873887105E-01 -0.15366887688E-01  0.23937822807E-01  0.00000000000E+00 0.  1.
     999901    1    3    3    0    0  0.10008115013E+00  0.54850942112E-01  0.12961890791E-01  0.88746429397E+00  0.88000000000E+00 0.  1.
        -11    1    4    4    0    0 -0.66730372517E-01 -0.48937016623E-01  0.93326115060E-02  0.83277445750E-01  0.51100000000E-03 0.  1.
         11    1    4    4    0    0 -0.44104642311E-01 -0.20787812595E-01 -0.69276146094E-02  0.49250437471E-01  0.51100000000E-03 0. -1.
</event>
<event>
 8    1  0.1145101E+005  0.1043930E+01  0.7957747E-01            NaN
         13   -1    0    0    0    0  0.00000000000E+00  0.00000000000E+00  0.74505805969E-08  0.10566000000E+00  0.10566000000E+00 0. -1.
     999900   -1    0    0    0    0 -0.00000000000E+00 -0.00000000000E+00 -0.74505805969E-08  0.93827000000E+00  0.93827000000E+00 0.  1.
     999902    2    1    2    0    0 -0.11499139244E-01 -0.11132890249E-01  0.15696421272E-01  0.10215123933E+01  0.10212663808E+01 0.  0.
     999903    2    3    3    0    0  0.62841799699E-01  0.10560558168E+00 -0.34788295641E-01  0.12926626546E+00  0.19947711649E-01 0.  0.
         14    1    1    2    0    0  0.11499139244E-01  0.11132890249E-01 -0.15696421272E-01  0.22417606684E-01  0.00000000000E+00 0.  1.
     999901    1    3    3    0    0 -0.74340938943E-01 -0.11673847193E+00  0.50484716913E-01  0.89224612786E+00  0.88000000000E+00 0. -1.
        -11    1    4    4    0    0  0.33860420975E-01  0.38045966323E-01 -0.12478456862E-01  0.52440410646E-01  0.51100000000E-03 0.  1.
         11    1    4    4    0    0  0.28981378723E-01  0.67559615362E-01 -0.22309838779E-01  0.76825854814E-01  0.51100000000E-03 0. -1.
</event>
<event>
 8    1  0.1145101E+005  0.1043930E+01  0.7957747E-01            NaN
         13   -1    0    0    0    0  0.00000000000E+00  0.00000000000E+00  0.74505805969E-08  0.10566000000E+00  0.10566000000E+00 0.  1.
     999900   -1    0    0    0    0 -0.00000000000E+00 -0.00000000000E+00 -0.74505805969E-08  0.93827000000E+00  0.93827000000E+00 0.  1.
     999902    2    1    2    0    0 -0.23708015089E-02  0.62874318699E-02  0.25079146001E-01  0.10179662548E+01  0.10176350917E+01 0.  0.
     999903    2    3    3    0    0  0.43992876197E-02  0.97112401020E-01 -0.79286369872E-01  0.12713115783E+00  0.20635665278E-01 0.  0.
         14    1    1    2    0    0  0.23708015089E-02 -0.62874318699E-02 -0.25079146001E-01  0.25963745174E-01  0.00000000000E+00 0. -1.
     999901    1    3    3    0    0 -0.67700891286E-02 -0.90824969150E-01  0.10436551587E+00  0.89083509699E+00  0.88000000000E+00 0.  1.
        -11    1    4    4    0    0 -0.50679677727E-02  0.74017328555E-01 -0.55562463083E-01  0.92691410868E-01  0.51100000000E-03 0. -1.
         11    1    4    4    0    0  0.94672553924E-02  0.23095072465E-01 -0.23723906789E-01  0.34439746967E-01  0.51100000000E-03 0.  1.
</event>
<event>
 8    1  0.1145101E+005  0.1043930E+01  0.7957747E-01            NaN
         13   -1    0    0    0    0  0.00000000000E+00  0.00000000000E+00  0.74505805969E-08  0.10566000000E+00  0.10566000000E+00 0.  1.
     999900   -1    0    0    0    0 -0.00000000000E+00 -0.00000000000E+00 -0.74505805969E-08  0.93827000000E+00  0.93827000000E+00 0.  1.
     999902    2    1    2    0    0 -0.17946609129E-01 -0.65273592080E-02  0.13559709504E-01  0.10205087934E+01  0.10202399936E+01 0.  0.
     999903    2    3    3    0    0 -0.36908681522E-02 -0.83563386697E-01  0.10107693948E+00  0.13270417455E+00  0.19934596688E-01 0.  0.
         14    1    1    2    0    0  0.17946609129E-01  0.65273592080E-02 -0.13559709504E-01  0.23421206615E-01  0.00000000000E+00 0. -1.
     999901    1    3    3    0    0 -0.14255740977E-01  0.77036027489E-01 -0.87517229973E-01  0.88780461883E+00  0.88000000000E+00 0. -1.
        -11    1    4    4    0    0 -0.79178361689E-02 -0.34813580243E-01  0.31330668733E-01  0.47503151719E-01  0.51100000000E-03 0.  1.
         11    1    4    4    0    0  0.42269680167E-02 -0.48749806453E-01  0.69746270745E-01  0.85201022832E-01  0.51100000000E-03 0. -1.
</event>
<event>
 8    1  0.1145101E+005  0.1043930E+01  0.7957747E-01            NaN
         13   -1    0    0    0    0  0.00000000000E+00  0.00000000000E+00  0.74505805969E-08  0.10566000000E+00  0.10566000000E+00 0.  1.
     999900   -1    0    0    0    0 -0.00000000000E+00 -0.00000000000E+00 -0.74505805969E-08  0.93827000000E+00  0.93827000000E+00 0. -1.
     999902    2    1    2    0    0 -0.10139028682E-01  0.94698563944E-02 -0.19085550236E-01  0.10203347397E+01  0.10200618828E+01 0.  0.
     999903    2    3    3    0    0 -0.84019661566E-01  0.37051474125E-01  0.89538201511E-01  0.13015598626E+00  0.22167001739E-01 0.  0.
         14    1    1    2    0    0  0.10139028682E-01 -0.94698563944E-02  0.19085550236E-01  0.23595260341E-01  0.00000000000E+00 0.  1.
     999901    1    3    3    0    0  0.73880632884E-01 -0.27581617731E-01 -0.10862375175E+00  0.89017875339E+00  0.88000000000E+00 0.  1.
        -11    1    4    4    0    0 -0.43873295575E-01  0.79018085108E-02  0.47269650686E-01  0.64976808472E-01  0.51100000000E-03 0.  1.
         11    1    4    4    0    0 -0.40146365992E-01  0.29149665614E-01  0.42268550825E-01  0.65179177792E-01  0.51100000000E-03 0. -1.
</event>
<event>
 8    1  0.1145101E+005  0.1043930E+01  0.7957747E-01            NaN
         13   -1    0    0    0    0  0.00000000000E+00  0.00000000000E+00  0.74505805969E-08  0.10566000000E+00  0.10566000000E+00 0.  1.
     999900   -1    0    0    0    0 -0.00000000000E+00 -0.00000000000E+00 -0.74505805969E-08  0.93827000000E+00  0.93827000000E+00 0.  1.
     999902    2    1    2    0    0  0.21015261819E-01  0.10477417541E-01 -0.41468614973E-02  0.10200843721E+01  0.10198056248E+01 0.  0.
     999903    2    3    3    0    0  0.31381501625E-01 -0.11635315031E+00  0.44763901629E-01  0.12958691868E+00  0.16312828506E-01 0.  0.
         14    1    1    2    0    0 -0.21015261819E-01 -0.10477417541E-01  0.41468614973E-02  0.23845627858E-01  0.00000000000E+00 0. -1.
     999901    1    3    3    0    0 -0.10366239806E-01  0.12683056785E+00 -0.48910763126E-01  0.89049745346E+00  0.88000000000E+00 0.  1.
        -11    1    4    4    0    0  0.15218163058E-01 -0.31282438242E-01  0.93064907511E-02  0.36014654244E-01  0.51100000000E-03 0.  1.
         11    1    4    4    0    0  0.16163338567E-01 -0.85070712066E-01  0.35457410877E-01  0.93572264439E-01  0.51100000000E-03 0. -1.
</event>
<event>
 8    1  0.1145101E+005  0.1043930E+01  0.7957747E-01            NaN
         13   -1    0    0    0    0  0.00000000000E+00  0.00000000000E+00  0.74505805969E-08  0.10566000000E+00  0.10566000000E+00 0. -1.
     999900   -1    0    0    0    0 -0.00000000000E+00 -0.00000000000E+00 -0.74505805969E-08  0.93827000000E+00  0.93827000000E+00 0. -1.
     999902    2    1    2    0    0  0.32559970115E-02 -0.17337614412E-01 -0.11096515397E-01  0.10230894855E+01  0.10228772010E+01 0.  0.
     999903    2    3    3    0    0  0.78102301178E-01  0.90657727018E-01 -0.52956826585E-01  0.13234976558E+00  0.19830331554E-01 0.  0.
         14    1    1    2    0    0 -0.32559970115E-02  0.17337614412E-01  0.11096515397E-01  0.20840514485E-01  0.00000000000E+00 0. -1.
     999901    1    3    3    0    0 -0.74846304167E-01 -0.10799534143E+00  0.41860311187E-01  0.89073971994E+00  0.88000000000E+00 0. -1.
        -11    1    4    4    0    0  0.65366689043E-01  0.65289080573E-01 -0.35222619524E-01  0.98875487992E-01  0.51100000000E-03 0.  1.
         11    1    4    4    0    0  0.12735612135E-01  0.25368646446E-01 -0.17734207061E-01  0.33474277587E-01  0.51100000000E-03 0. -1.
</event>
<event>
 8    1  0.1145101E+005  0.1043930E+01  0.7957747E-01            NaN
         13   -1    0    0    0    0  0.00000000000E+00  0.00000000000E+00  0.74505805969E-08  0.10566000000E+00  0.10566000000E+00 0. -1.
     999900   -1    0    0    0    0 -0.00000000000E+00 -0.00000000000E+00 -0.74505805969E-08  0.93827000000E+00  0.93827000000E+00 0. -1.
     999902    2    1    2    0    0  0.13679700743E-01 -0.10348042789E-01 -0.16204689609E-01  0.10203332170E+01  0.10200603245E+01 0.  0.
     999903    2    3    3    0    0 -0.10400467635E+00 -0.42897468900E-01  0.54734808590E-01  0.12907484249E+00  0.31737204531E-01 0.  0.
         14    1    1    2    0    0 -0.13679700743E-01  0.10348042789E-01  0.16204689609E-01  0.23596782986E-01  0.00000000000E+00 0. -1.
     999901    1    3    3    0    0  0.11768437710E+00  0.32549426111E-01 -0.70939498199E-01  0.89125837452E+00  0.88000000000E+00 0. -1.
        -11    1    4    4    0    0 -0.44931793800E-01 -0.74614471087E-02  0.34915145764E-01  0.57392227799E-01  0.51100000000E-03 0.  1.
         11    1    4    4    0    0 -0.59072882553E-01 -0.35436021791E-01  0.19819662825E-01  0.71682614691E-01  0.51100000000E-03 0. -1.
</event>
<event>
 8    1  0.1145101E+005  0.1043930E+01  0.7957747E-01            NaN
         13   -1    0    0    0    0  0.00000000000E+00  0.00000000000E+00  0.74505805969E-08  0.10566000000E+00  0.10566000000E+00 0. -1.
     999900   -1    0    0    0    0 -0.00000000000E+00 -0.00000000000E+00 -0.74505805969E-08  0.93827000000E+00  0.93827000000E+00 0. -1.
     999902    2    1    2    0    0  0.18450004251E-03 -0.17736670799E-01 -0.14613078924E-01  0.10209481461E+01  0.10206894491E+01 0.  0.
     999903    2    3    3    0    0  0.12107171333E+00 -0.33442754166E-01  0.32331839506E-01  0.13130539494E+00  0.20469033201E-01 0.  0.
         14    1    1    2    0    0 -0.18450004251E-03  0.17736670799E-01  0.14613078924E-01  0.22981853862E-01  0.00000000000E+00 0. -1.
     999901    1    3    3    0    0 -0.12088721329E+00  0.15706083367E-01 -0.46944918430E-01  0.88964275120E+00  0.88000000000E+00 0. -1.
        -11    1    4    4    0    0  0.45590385228E-01 -0.10796842398E-01  0.21081650963E-02  0.46901604579E-01  0.51100000000E-03 0.  1.
         11    1    4    4    0    0  0.75481328101E-01 -0.22645911768E-01  0.30223674410E-01  0.84403790362E-01  0.51100000000E-03 0. -1.
</event>
<event>
 8    1  0.1145101E+005  0.1043930E+01  0.7957747E-01            NaN
         13   -1    0    0    0    0  0.00000000000E+00  0.00000000000E+00  0.74505805969E-08  0.10566000000E+00  0.10566000000E+00 0. -1.
     999900   -1    0    0    0    0 -0.00000000000E+00 -0.00000000000E+00 -0.74505805969E-08  0.93827000000E+00  0.93827000000E+00 0.  1.
     999902    2    1    2    0    0  0.19351137777E-01  0.12905901102E-01  0.33367513294E-02  0.10204318570E+01  0.10201612676E+01 0.  0.
     999903    2    3    3    0    0  0.74190657069E-01  0.84083111511E-01  0.69433944549E-01  0.13339047850E+00  0.19943015366E-01 0.  0.
         14    1    1    2    0    0 -0.19351137777E-01 -0.12905901102E-01 -0.33367513294E-02  0.23498143032E-01  0.00000000000E+00 0.  1.
     999901    1    3    3    0    0 -0.54839519291E-01 -0.71177210410E-01 -0.66097193219E-01  0.88704137847E+00  0.88000000000E+00 0.  1.
        -11    1    4    4    0    0  0.26846286999E-01  0.28412882549E-01  0.35533079514E-01  0.52828741051E-01  0.51100000000E-03 0. -1.
         11    1    4    4    0    0  0.47344370070E-01  0.55670228962E-01  0.33900865035E-01  0.80561737451E-01  0.51100000000E-03 0.  1.
</event>
<event>
 8    1  0.1145101E+005  0.1043930E+01  0.7957747E-01            NaN
         13   -1    0    0    0    0  0.00000000000E+00  0.00000000000E+00  0.74505805969E-08  0.10566000000E+00  0.10566000000E+00 0.  1.
     999900   -1    0    0    0    0 -0.00000000000E+00 -0.00000000000E+00 -0.74505805969E-08  0.93827000000E+00  0.93827000000E+00 0.  1.
     999902    2    1    2    0    0 -0.94681362666E-02  0.38839118288E-02 -0.20964483351E-01  0.10206010494E+01  0.10203343874E+01 0.  0.
     999903    2    3    3    0    0  0.58169028338E-01 -0.10613369842E+00  0.41784768071E-01  0.12896427963E+00  0.15421438966E-01 0.  0.
         14    1    1    2    0    0  0.94681362666E-02 -0.38839118288E-02  0.20964483351E-01  0.23328950633E-01  0.00000000000E+00 0.  1.
     999901    1    3    3    0    0 -0.67637164605E-01  0.11001761024E+00 -0.62749251422E-01  0.89163676974E+00  0.88000000000E+00 0.  1.
        -11    1    4    4    0    0  0.46889655152E-01 -0.72333051481E-01  0.26463221580E-01  0.90173573258E-01  0.51100000000E-03 0. -1.
         11    1    4    4    0    0  0.11279373186E-01 -0.33800646935E-01  0.15321546492E-01  0.38790706368E-01  0.51100000000E-03 0.  1.
</event>
<event>
 8    1  0.1145101E+005  0.1043930E+01  0.7957747E-01            NaN
         13   -1    0    0    0    0  0.00000000000E+00  0.00000000000E+00  0.74505805969E-08  0.10566000000E+00  0.10566000000E+00 0. -1.
     999900   -1    0    0    0    0 -0.00000000000E+00 -0.00000000000E+00 -0.74505805969E-08  0.93827000000E+00  0.93827000000E+00 0.  1.
     999902    2    1    2    0    0  0.72865616843E-02  0.51295469385E-04  0.22304595231E-01  0.10204653120E+01  0.10201955016E+01 0.  0.
     999903    2    3    3    0    0  0.53634194843E-01  0.99696202835E-01 -0.60228969249E-01  0.12979758504E+00  0.20097876234E-01 0.  0.
         14    1    1    2    0    0 -0.72865616843E-02 -0.51295469385E-04 -0.22304595231E-01  0.23464687955E-01  0.00000000000E+00 0.  1.
     999901    1    3    3    0    0 -0.46347633159E-01 -0.99644907365E-01  0.82533564480E-01  0.89066772701E+00  0.88000000000E+00 0. -1.
        -11    1    4    4    0    0  0.44847113602E-01  0.64571354340E-01 -0.38151806270E-01  0.87387326555E-01  0.51100000000E-03 0. -1.
         11    1    4    4    0    0  0.87870812412E-02  0.35124848495E-01 -0.22077162980E-01  0.42410258485E-01  0.51100000000E-03 0.  1.
</event>
<event>
 8    1  0.1145101E+005  0.1043930E+01  0.7957747E-01            NaN
         13   -1    0    0    0    0  0.00000000000E+00  0.00000000000E+00  0.74505805969E-08  0.10566000000E+00  0.10566000000E+00 0.  1.
     999900   -1    0    0    0    0 -0.00000000000E+00 -0.00000000000E+00 -0.74505805969E-08  0.93827000000E+00  0.93827000000E+00 0. -1.
     999902    2    1    2    0    0 -0.52757485512E-02 -0.77056818916E-02 -0.22121870332E-01  0.10199177489E+01  0.10196350456E+01 0.  0.
     999903    2    3    3    0    0  0.48914906797E-01 -0.86628376652E-01  0.79562712833E-01  0.12890418372E+00  0.19721043539E-01 0.  0.
         14    1    1    2    0    0  0.52757485512E-02  0.77056818916E-02  0.22121870332E-01  0.24012251106E-01  0.00000000000E+00 0.  1.
     999901    1    3    3    0    0 -0.54190655348E-01  0.78922694760E-01 -0.10168458316E+00  0.89101356518E+00  0.88000000000E+00 0. -1.
        -11    1    4    4    0    0  0.33461514117E-01 -0.62764065448E-01  0.67355262324E-01  0.97959141086E-01  0.51100000000E-03 0.  1.
         11    1    4    4    0    0  0.15453392679E-01 -0.23864311203E-01  0.12207450509E-01  0.30945042631E-01  0.51100000000E-03 0. -1.
</event>
<event>
 8    1  0.1145101E+005  0.1043930E+01  0.7957747E-01            NaN
         13   -1    0    0    0    0  0.00000000000E+00  0.00000000000E+00  0.74505805969E-08  0.10566000000E+00  0.10566000000E+00 0.  1.
     999900   -1    0    0    0    0 -0.00000000000E+00 -0.00000000000E+00 -0.74505805969E-08  0.93827000000E+00  0.93827000000E+00 0.  1.
     999902    2    1    2    0    0  0.17329680932E-01  0.16209524253E-01  0.20199374059E-02  0.10201151587E+01  0.10198371392E+01 0.  0.
     999903    2    3    3    0    0 -0.97250296116E-01  0.75793291732E-01 -0.35594524066E-01  0.12989403777E+00  0.20081029314E-01 0.  0.
         14    1    1    2    0    0 -0.17329680932E-01 -0.16209524253E-01 -0.20199374059E-02  0.23814841273E-01  0.00000000000E+00 0.  1.
     999901    1    3    3    0    0  0.11457997705E+00 -0.59583767479E-01  0.37614461472E-01  0.89022112096E+00  0.88000000000E+00 0.  1.
        -11    1    4    4    0    0 -0.64471891827E-01  0.55439486952E-01 -0.33030372397E-01  0.91221862352E-01  0.51100000000E-03 0.  1.
         11    1    4    4    0    0 -0.32778404289E-01  0.20353804780E-01 -0.25641516698E-02  0.38672175418E-01  0.51100000000E-03 0. -1.
</event>
<event>
 8    1  0.1145101E+005  0.1043930E+01  0.7957747E-01            NaN
         13   -1    0    0    0    0  0.00000000000E+00  0.00000000000E+00  0.74505805969E-08  0.10566000000E+00  0.10566000000E+00 0. -1.
     999900   -1    0    0    0    0 -0.00000000000E+00 -0.00000000000E+00 -0.74505805969E-08  0.93827000000E+00  0.93827000000E+00 0.  1.
     999902    2    1    2    0    0  0.14965024551E-01 -0.17204020107E-02 -0.21119272902E-01  0.10179890010E+01  0.10176584253E+01 0.  0.
     999903    2    3    3    0    0 -0.10731351563E-01 -0.12307079423E+00  0.26836022570E-01  0.12799690449E+00  0.20036295857E-01 0.  0.
         14    1    1    2    0    0 -0.14965024551E-01  0.17204020107E-02  0.21119272902E-01  0.25940999032E-01  0.00000000000E+00 0. -1.
     999901    1    3    3    0    0  0.25696376114E-01  0.12135039222E+00 -0.47955295473E-01  0.88999209648E+00  0.88000000000E+00 0.  1.
        -11    1    4    4    0    0 -0.14936777207E-01 -0.90426999513E-01  0.14248172993E-01  0.92754628504E-01  0.51100000000E-03 0. -1.
         11    1    4    4    0    0  0.42054256442E-02 -0.32643794717E-01  0.12587849577E-01  0.35242275981E-01  0.51100000000E-03 0.  1.
</event>
<event>
 8    1  0.1145101E+005  0.1043930E+01  0.7957747E-01            NaN
         13   -1    0    0    0    0  0.00000000000E+00  0.00000000000E+00  0.74505805969E-08  0.10566000000E+00  0.10566000000E+00 0.  1.
     999900   -1    0    0    0    0 -0.00000000000E+00 -0.00000000000E+00 -0.74505805969E-08  0.93827000000E+00  0.93827000000E+00 0.  1.
     999902    2    1    2    0    0  0.16988215515E-01  0.71964206298E-02  0.13505260712E-01  0.10210656171E+01  0.10208095878E+01 0.  0.
     999903    2    3    3    0    0 -0.84361022322E-01  0.94986073362E-01  0.24089459054E-01  0.13084614062E+00  0.20031831112E-01 0.  0.
         14    1    1    2    0    0 -0.16988215515E-01 -0.71964206298E-02 -0.13505260712E-01  0.22864382851E-01  0.00000000000E+00 0. -1.
     999901    1    3    3    0    0  0.10134923784E+00 -0.87789652732E-01 -0.10584198342E-01  0.89021947653E+00  0.88000000000E+00 0.  1.
        -11    1    4    4    0    0 -0.49313313783E-01  0.42241038980E-01  0.16992138711E-01  0.67120058026E-01  0.51100000000E-03 0.  1.
         11    1    4    4    0    0 -0.35047708538E-01  0.52745034382E-01  0.70973203435E-02  0.63726082594E-01  0.51100000000E-03 0. -1.
</event>
<event>
 8    1  0.1145101E+005  0.1043930E+01  0.7957747E-01            NaN
         13   -1    0    0    0    0  0.00000000000E+00  0.00000000000E+00  0.74505805969E-08  0.10566000000E+00  0.10566000000E+00 0.  1.
     999900   -1    0    0    0    0 -0.00000000000E+00 -0.00000000000E+00 -0.74505805969E-08  0.93827000000E+00  0.93827000000E+00 0. -1.
     999902    2    1    2    0    0  0.17942028913E-01 -0.91192906985E-02 -0.11281016409E-01  0.10208575230E+01  0.10205967583E+01 0.  0.
     999903    2    3    3    0    0  0.18949123952E-01  0.12737285120E+00 -0.76844366754E-02  0.13032731326E+00  0.18526885701E-01 0.  0.
         14    1    1    2    0    0 -0.17942028913E-01  0.91192906985E-02  0.11281016409E-01  0.23072477014E-01  0.00000000000E+00 0. -1.
     999901    1    3    3    0    0 -0.10070950395E-02 -0.13649214190E+00 -0.35965797338E-02  0.89053020972E+00  0.88000000000E+00 0.  1.
        -11    1    4    4    0    0  0.20865595666E-01  0.95438069763E-01 -0.13115361226E-02  0.97702505037E-01  0.51100000000E-03 0.  1.
         11    1    4    4    0    0 -0.19164717138E-02  0.31934781439E-01 -0.63729005527E-02  0.32624808227E-01  0.51100000000E-03 0. -1.
</event>
<event>
 8    1  0.1309250E+005  0.1043930E+01  0.7957747E-01            NaN
         13   -1    0    0    0    0  0.00000000000E+00  0.00000000000E+00  0.74505805969E-08  0.10566000000E+00  0.10566000000E+00 0. -1.
     999900   -1    0    0    0    0 -0.00000000000E+00 -0.00000000000E+00 -0.74505805969E-08  0.93827000000E+00  0.93827000000E+00 0.  1.
     999902    2    1    2    0    0  0.62376574029E-02 -0.20459676751E-02  0.22764626172E-01  0.10202377532E+01  0.10199626221E+01 0.  0.
     999903    2    3    3    0    0  0.10939540705E-01 -0.21844317056E-01 -0.12380629486E+00  0.12788293743E+00  0.20717125742E-01 0.  0.
         14    1    1    2    0    0 -0.62376574029E-02  0.20459676751E-02 -0.22764626172E-01  0.23692246799E-01  0.00000000000E+00 0.  1.
     999901    1    3    3    0    0 -0.47018833024E-02  0.19798349381E-01  0.14657092103E+00  0.89235481578E+00  0.88000000000E+00 0. -1.
        -11    1    4    4    0    0 -0.18855410269E-02 -0.14788044424E-01 -0.37770590559E-01  0.40609360436E-01  0.51100000000E-03 0. -1.
         11    1    4    4    0    0  0.12825081732E-01 -0.70562726326E-02 -0.86035704302E-01  0.87273576990E-01  0.51100000000E-03 0.  1.
</event>
<event>
 8    1  0.1432320E+005  0.1043930E+01  0.7957747E-01            NaN
         13   -1    0    0    0    0  0.00000000000E+00  0.00000000000E+00  0.74505805969E-08  0.10566000000E+00  0.10566000000E+00 0. -1.
     999900   -1    0    0    0    0 -0.00000000000E+00 -0.00000000000E+00 -0.74505805969E-08  0.93827000000E+00  0.93827000000E+00 0. -1.
     999902    2    1    2    0    0 -0.86333118296E-02  0.21672319381E-01 -0.13066516714E-02  0.10205648371E+01  0.10202973370E+01 0.  0.
     999903    2    3    3    0    0 -0.25596261119E-01 -0.10294942611E-02 -0.12666413760E+00  0.13122934735E+00  0.22827820973E-01 0.  0.
         14    1    1    2    0    0  0.86333118296E-02 -0.21672319381E-01  0.13066516714E-02  0.23365162938E-01  0.00000000000E+00 0.  1.
     999901    1    3    3    0    0  0.16962949289E-01  0.22701813642E-01  0.12535748592E+00  0.88933548972E+00  0.88000000000E+00 0.  1.
        -11    1    4    4    0    0 -0.18573876320E-01  0.99270774628E-02 -0.85324749864E-01  0.87886914890E-01  0.51100000000E-03 0. -1.
         11    1    4    4    0    0 -0.70223847984E-02 -0.10956571724E-01 -0.41339387731E-01  0.43342432456E-01  0.51100000000E-03 0.  1.
</event>
<event>
 7    1  0.1145101E+005  0.1043930E+01  0.7957747E-01            NaN
         13   -1    0    0    0    0  0.00000000000E+00  0.00000000000E+00  0.74505805969E-08  0.10566000000E+00  0.10566000000E+00 0. -1.
     999900   -1    0    0    0    0 -0.00000000000E+00 -0.00000000000E+00 -0.74505805969E-08  0.93827000000E+00  0.93827000000E+00 0.  1.
     999903    2    1    2    0    0  0.31170445097E-01  0.10493173524E+00  0.16699344972E-01  0.11269525819E+00  0.20954412107E-01 0.  0.
         14    1    1    2    0    0  0.25385295505E-01  0.29036874752E-01  0.58834138803E-02  0.39014969975E-01  0.00000000000E+00 0.  1.
     999901    1    1    2    0    0 -0.56555740602E-01 -0.13396861000E+00 -0.22582758853E-01  0.89221977184E+00  0.88000000000E+00 0. -1.
        -11    1    3    3    0    0  0.24336618440E-02  0.43099567539E-01  0.87348831649E-02  0.44046052455E-01  0.51100000000E-03 0.  1.
         11    1    3    3    0    0  0.28736783253E-01  0.61832167706E-01  0.79644618073E-02  0.68649205733E-01  0.51100000000E-03 0. -1.
</event>
<event>
 8    1  0.1145101E+005  0.1043930E+01  0.7957747E-01            NaN
         13   -1    0    0    0    0  0.00000000000E+00  0.00000000000E+00  0.74505805969E-08  0.10566000000E+00  0.10566000000E+00 0.  1.
     999900   -1    0    0    0    0 -0.00000000000E+00 -0.00000000000E+00 -0.74505805969E-08  0.93827000000E+00  0.93827000000E+00 0. -1.
     999902    2    1    2    0    0  0.56978749046E-02  0.10889755092E-01 -0.20183484527E-01  0.10202989697E+01  0.10200252752E+01 0.  0.
     999903    2    3    3    0    0  0.91138095204E-01  0.76545388326E-01 -0.56088111249E-01  0.13299978926E+00  0.19434990339E-01 0.  0.
         14    1    1    2    0    0 -0.56978749046E-02 -0.10889755092E-01  0.20183484527E-01  0.23631030279E-01  0.00000000000E+00 0.  1.
     999901    1    3    3    0    0 -0.85440220299E-01 -0.65655633234E-01  0.35904626722E-01  0.88729918046E+00  0.88000000000E+00 0.  1.
        -11    1    4    4    0    0  0.75659809355E-01  0.61277745092E-01 -0.37309991187E-01  0.10426727847E+00  0.51100000000E-03 0. -1.
         11    1    4    4    0    0  0.15478285849E-01  0.15267643234E-01 -0.18778120062E-01  0.28732510799E-01  0.51100000000E-03 0.  1.
</event>
<event>
 8    1  0.1145101E+005  0.1043930E+01  0.7957747E-01            NaN
         13   -1    0    0    0    0  0.00000000000E+00  0.00000000000E+00  0.74505805969E-08  0.10566000000E+00  0.10566000000E+00 0. -1.
     999900   -1    0    0    0    0 -0.00000000000E+00 -0.00000000000E+00 -0.74505805969E-08  0.93827000000E+00  0.93827000000E+00 0. -1.
     999902    2    1    2    0    0 -0.84468782633E-02 -0.74249446312E-02 -0.34624380072E-01  0.10075249557E+01  0.10068670265E+01 0.  0.
     999903    2    3    3    0    0 -0.46173222449E-01 -0.10692378315E+00  0.18416500016E-01  0.11952910499E+00  0.19580030458E-01 0.  0.
         14    1    1    2    0    0  0.84468782633E-02  0.74249446312E-02  0.34624380072E-01  0.36405044301E-01  0.00000000000E+00 0. -1.
     999901    1    3    3    0    0  0.37726344186E-01  0.99498838520E-01 -0.53040880088E-01  0.88799585071E+00  0.88000000000E+00 0.  1.
        -11    1    4    4    0    0 -0.34153567432E-01 -0.58355158897E-01  0.54285718980E-02  0.67834513724E-01  0.51100000000E-03 0.  1.
         11    1    4    4    0    0 -0.12019655017E-01 -0.48568624254E-01  0.12987928118E-01  0.51694591268E-01  0.51100000000E-03 0. -1.
</event>
<event>
 8    1  0.1145101E+005  0.1043930E+01  0.7957747E-01            NaN
         13   -1    0    0    0    0  0.00000000000E+00  0.00000000000E+00  0.74505805969E-08  0.10566000000E+00  0.10566000000E+00 0. -1.
     999900   -1    0    0    0    0 -0.00000000000E+00 -0.00000000000E+00 -0.74505805969E-08  0.93827000000E+00  0.93827000000E+00 0. -1.
     999902    2    1    2    0    0 -0.37159272328E-03 -0.10995869549E-01 -0.21392596735E-01  0.10198740148E+01  0.10195902685E+01 0.  0.
     999903    2    3    3    0    0 -0.12066877461E+00 -0.35964023549E-01 -0.31760576429E-01  0.13127831615E+00  0.19258710218E-01 0.  0.
         14    1    1    2    0    0  0.37159272328E-03  0.10995869549E-01  0.21392596735E-01  0.24055985188E-01  0.00000000000E+00 0. -1.
     999901    1    3    3    0    0  0.12029718189E+00  0.24968154000E-01  0.10367979694E-01  0.88859569867E+00  0.88000000000E+00 0. -1.
        -11    1    4    4    0    0 -0.76191771830E-01 -0.28575215918E-01 -0.27892915856E-01  0.86023281356E-01  0.51100000000E-03 0. -1.
         11    1    4    4    0    0 -0.44477002781E-01 -0.73888076307E-02 -0.38676605739E-02  0.45255034791E-01  0.51100000000E-03 0.  1.
</event>
<event>
 8    1  0.1145101E+005  0.1043930E+01  0.7957747E-01            NaN
         13   -1    0    0    0    0  0.00000000000E+00  0.00000000000E+00  0.74505805969E-08  0.10566000000E+00  0.10566000000E+00 0. -1.
     999900   -1    0    0    0    0 -0.00000000000E+00 -0.00000000000E+00 -0.74505805969E-08  0.93827000000E+00  0.93827000000E+00 0. -1.
     999902    2    1    2    0    0 -0.69909610801E-02  0.21474522587E-01  0.43894305909E-02  0.10209235714E+01  0.10206643145E+01 0.  0.
     999903    2    3    3    0    0 -0.90451181630E-01 -0.13316185749E-02 -0.93470233010E-01  0.13128193439E+00  0.17750278114E-01 0.  0.
         14    1    1    2    0    0  0.69909610801E-02 -0.21474522587E-01 -0.43894305909E-02  0.23006428625E-01  0.00000000000E+00 0.  1.
     999901    1    3    3    0    0  0.83460220550E-01  0.22806141162E-01  0.97859663601E-01  0.88964163698E+00  0.88000000000E+00 0.  1.
        -11    1    4    4    0    0 -0.43224530421E-01 -0.68830955670E-02 -0.35901156277E-01  0.56611758299E-01  0.51100000000E-03 0. -1.
         11    1    4    4    0    0 -0.47226651209E-01  0.55514769921E-02 -0.57569076734E-01  0.74670176096E-01  0.51100000000E-03 0.  1.
</event>
<event>
 8    1  0.1145101E+005  0.1043930E+01  0.7957747E-01            NaN
         13   -1    0    0    0    0  0.00000000000E+00  0.00000000000E+00  0.74505805969E-08  0.10566000000E+00  0.10566000000E+00 0.  1.
     999900   -1    0    0    0    0 -0.00000000000E+00 -0.00000000000E+00 -0.74505805969E-08  0.93827000000E+00  0.93827000000E+00 0.  1.
     999902    2    1    2    0    0  0.10356356484E-01 -0.96669936250E-02 -0.18918940627E-01  0.10202946197E+01  0.10200208233E+01 0.  0.
     999903    2    3    3    0    0  0.83608016374E-01 -0.22328166818E-01  0.94897662627E-01  0.12985633993E+00  0.19189976870E-01 0.  0.
         14    1    1    2    0    0 -0.10356356484E-01  0.96669936250E-02  0.18918940627E-01  0.23635380256E-01  0.00000000000E+00 0.  1.
     999901    1    3    3    0    0 -0.73251659890E-01  0.12661173193E-01 -0.11381660325E+00  0.89043827981E+00  0.88000000000E+00 0.  1.
        -11    1    4    4    0    0  0.45188399659E-01 -0.21066041294E-01  0.47932137103E-01  0.69162999124E-01  0.51100000000E-03 0.  1.
         11    1    4    4    0    0  0.38419616715E-01 -0.12621255243E-02  0.46965525523E-01  0.60693340805E-01  0.51100000000E-03 0. -1.
</event>
<event>
 7    1  0.1145101E+005  0.1043930E+01  0.7957747E-01            NaN
         13   -1    0    0    0    0  0.00000000000E+00  0.00000000000E+00  0.74505805969E-08  0.10566000000E+00  0.10566000000E+00 0. -1.
     999900   -1    0    0    0    0 -0.00000000000E+00 -0.00000000000E+00 -0.74505805969E-08  0.93827000000E+00  0.93827000000E+00 0. -1.
     999903    2    1    2    0    0 -0.15640999031E-01  0.11354193664E+00  0.24730212556E-03  0.11634638271E+00  0.20000184603E-01 0.  0.
         14    1    1    2    0    0 -0.65006852128E-02 -0.26547087423E-01 -0.32455444028E-01  0.42430680007E-01  0.00000000000E+00 0.  1.
     999901    1    1    2    0    0  0.22141684244E-01 -0.86994849221E-01  0.32208141902E-01  0.88515293728E+00  0.88000000000E+00 0. -1.
        -11    1    3    3    0    0  0.14290802564E-02  0.61803076734E-01 -0.13895389449E-02  0.61837322901E-01  0.51100000000E-03 0.  1.
         11    1    3    3    0    0 -0.17070079288E-01  0.51738859910E-01  0.16368410704E-02  0.54509059810E-01  0.51100000000E-03 0. -1.
</event>
<event>
 8    1  0.1145101E+005  0.1043930E+01  0.7957747E-01            NaN
         13   -1    0    0    0    0  0.00000000000E+00  0.00000000000E+00  0.74505805969E-08  0.10566000000E+00  0.10566000000E+00 0.  1.
     999900   -1    0    0    0    0 -0.00000000000E+00 -0.00000000000E+00 -0.74505805969E-08  0.93827000000E+00  0.93827000000E+00 0.  1.
     999902    2    1    2    0    0 -0.10826785734E-01 -0.69538408027E-02  0.20689235294E-01  0.10195656890E+01  0.10192745335E+01 0.  0.
     999903    2    3    3    0    0 -0.17997973442E-01 -0.31265239834E-02  0.12720348384E+00  0.13310567335E+00  0.34679846815E-01 0.  0.
         14    1    1    2    0    0  0.10826785734E-01  0.69538408027E-02 -0.20689235294E-01  0.24364310955E-01  0.00000000000E+00 0. -1.
     999901    1    3    3    0    0  0.71711877089E-02 -0.38273168193E-02 -0.10651424855E+00  0.88646001570E+00  0.88000000000E+00 0.  1.
        -11    1    4    4    0    0 -0.68125160759E-02 -0.17828464433E-01  0.45597970609E-01  0.49433799814E-01  0.51100000000E-03 0. -1.
         11    1    4    4    0    0 -0.11185457367E-01  0.14701940450E-01  0.81605513234E-01  0.83671873534E-01  0.51100000000E-03 0.  1.
</event>
<event>
 8    1  0.1253190E+005  0.1043930E+01  0.7957747E-01            NaN
         13   -1    0    0    0    0  0.00000000000E+00  0.00000000000E+00  0.74505805969E-08  0.10566000000E+00  0.10566000000E+00 0. -1.
     999900   -1    0    0    0    0 -0.00000000000E+00 -0.00000000000E+00 -0.74505805969E-08  0.93827000000E+00  0.93827000000E+00 0. -1.
     999902    2    1    2    0    0 -0.18107281718E-01  0.13653596957E-01  0.86396697244E-02  0.10196619499E+01  0.10193731181E+01 0.  0.
     999903    2    3    3    0    0 -0.30649650327E-01 -0.64057650994E-03 -0.12447128432E+00  0.12944840224E+00  0.17999356072E-01 0.  0.
         14    1    1    2    0    0  0.18107281718E-01 -0.13653596957E-01 -0.86396697244E-02  0.24268050066E-01  0.00000000000E+00 0.  1.
     999901    1    3    3    0    0  0.12542368609E-01  0.14294173467E-01  0.13311095405E+00  0.89021354769E+00  0.88000000000E+00 0.  1.
        -11    1    4    4    0    0 -0.98991254370E-02 -0.73616501855E-02 -0.29057715965E-01  0.31572116748E-01  0.51100000000E-03 0.  1.
         11    1    4    4    0    0 -0.20750524890E-01  0.67210736756E-02 -0.95413568357E-01  0.97876285495E-01  0.51100000000E-03 0. -1.
</event>
<event>
 8    1  0.1145101E+005  0.1043930E+01  0.7957747E-01            NaN
         13   -1    0    0    0    0  0.00000000000E+00  0.00000000000E+00  0.74505805969E-08  0.10566000000E+00  0.10566000000E+00 0.  1.
     999900   -1    0    0    0    0 -0.00000000000E+00 -0.00000000000E+00 -0.74505805969E-08  0.93827000000E+00  0.93827000000E+00 0. -1.
     999902    2    1    2    0    0 -0.22763376024E-01 -0.67387322578E-03  0.11450593079E-01  0.10184399730E+01  0.10181209345E+01 0.  0.
     999903    2    3    3    0    0  0.84465072927E-01 -0.92127550022E-01  0.12384887297E-01  0.12722586398E+00  0.20278091972E-01 0.  0.
         14    1    1    2    0    0  0.22763376024E-01  0.67387322578E-03 -0.11450593079E-01  0.25490026972E-01  0.00000000000E+00 0. -1.
     999901    1    3    3    0    0 -0.10722844895E+00  0.91453676796E-01 -0.93429421764E-03  0.89121410905E+00  0.88000000000E+00 0. -1.
        -11    1    4    4    0    0  0.28204327622E-02  0.27762288136E-03  0.19487809550E-02  0.34771804154E-02  0.51100000000E-03 0. -1.
         11    1    4    4    0    0  0.81644640165E-01 -0.92405172903E-01  0.10436106342E-01  0.12374868356E+00  0.51100000000E-03 0.  1.
</event>
<event>
 8    1  0.1145101E+005  0.1043930E+01  0.7957747E-01            NaN
         13   -1    0    0    0    0  0.00000000000E+00  0.00000000000E+00  0.74505805969E-08  0.10566000000E+00  0.10566000000E+00 0.  1.
     999900   -1    0    0    0    0 -0.00000000000E+00 -0.00000000000E+00 -0.74505805969E-08  0.93827000000E+00  0.93827000000E+00 0. -1.
     999902    2    1    2    0    0  0.13094976963E-01 -0.15951120082E-01 -0.63259237690E-02  0.10223444964E+01  0.10221165958E+01 0.  0.
     999903    2    3    3    0    0 -0.92918710489E-01 -0.79085476168E-01  0.46866946408E-01  0.13214545671E+00  0.19429661979E-01 0.  0.
         14    1    1    2    0    0 -0.13094976963E-01  0.15951120082E-01  0.63259237690E-02  0.21585503586E-01  0.00000000000E+00 0.  1.
     999901    1    3    3    0    0  0.10601368745E+00  0.63134356087E-01 -0.53192870177E-01  0.89019903970E+00  0.88000000000E+00 0. -1.
        -11    1    4    4    0    0 -0.82560633967E-01 -0.60867721440E-01  0.38047316773E-01  0.10940291234E+00  0.51100000000E-03 0.  1.
         11    1    4    4    0    0 -0.10358076523E-01 -0.18217754729E-01  0.88196296351E-02  0.22742544372E-01  0.51100000000E-03 0. -1.
</event>
<event>
 8    1  0.1145101E+005  0.1043930E+01  0.7957747E-01            NaN
         13   -1    0    0    0    0  0.00000000000E+00  0.00000000000E+00  0.74505805969E-08  0.10566000000E+00  0.10566000000E+00 0. -1.
     999900   -1    0    0    0    0 -0.00000000000E+00 -0.00000000000E+00 -0.74505805969E-08  0.93827000000E+00  0.93827000000E+00 0. -1.
     999902    2    1    2    0    0  0.17190664693E-01  0.41892573999E-02  0.15578821156E-01  0.10203552572E+01  0.10200828801E+01 0.  0.
     999903    2    3    3    0    0  0.24653046902E-01 -0.12416722254E+00 -0.23085033791E-01  0.13017214862E+00  0.19662085815E-01 0.  0.
         14    1    1    2    0    0 -0.17190664693E-01 -0.41892573999E-02 -0.15578821156E-01  0.23574742814E-01  0.00000000000E+00 0.  1.
     999901    1    3    3    0    0 -0.74623822094E-02  0.12835647994E+00  0.38663854947E-01  0.89018310856E+00  0.88000000000E+00 0.  1.
        -11    1    4    4    0    0  0.17411545112E-01 -0.41624752631E-01 -0.10894742213E-01  0.46419160523E-01  0.51100000000E-03 0. -1.
         11    1    4    4    0    0  0.72415017902E-02 -0.82542469905E-01 -0.12190291578E-01  0.83752988101E-01  0.51100000000E-03 0.  1.
</event>
<event>
 8    1  0.1145101E+005  0.1043930E+01  0.7957747E-01            NaN
         13   -1    0    0    0    0  0.00000000000E+00  0.00000000000E+00  0.74505805969E-08  0.10566000000E+00  0.10566000000E+00 0. -1.
     999900   -1    0    0    0    0 -0.00000000000E+00 -0.00000000000E+00 -0.74505805969E-08  0.93827000000E+00  0.93827000000E+00 0.  1.
     999902    2    1    2    0    0  0.11042516260E-01  0.18524511275E-01  0.92650633693E-02  0.10204579723E+01  0.10201879911E+01 0.  0.
     999903    2    3    3    0    0  0.10148209052E+00  0.73684606820E-01 -0.38760532588E-01  0.13280465566E+00  0.20165854821E-01 0.  0.
         14    1    1    2    0    0 -0.11042516260E-01 -0.18524511275E-01 -0.92650633693E-02  0.23472027662E-01  0.00000000000E+00 0.  1.
     999901    1    3    3    0    0 -0.90439574262E-01 -0.55160095545E-01  0.48025595957E-01  0.88765331667E+00  0.88000000000E+00 0. -1.
        -11    1    4    4    0    0  0.36414769627E-01  0.28642706683E-01 -0.44384620464E-02  0.46544614720E-01  0.51100000000E-03 0.  1.
         11    1    4    4    0    0  0.65067320896E-01  0.45041900137E-01 -0.34322070542E-01  0.86260040945E-01  0.51100000000E-03 0. -1.
</event>
<event>
 8    1  0.1145101E+005  0.1043930E+01  0.7957747E-01            NaN
         13   -1    0    0    0    0  0.00000000000E+00  0.00000000000E+00  0.74505805969E-08  0.10566000000E+00  0.10566000000E+00 0. -1.
     999900   -1    0    0    0    0 -0.00000000000E+00 -0.00000000000E+00 -0.74505805969E-08  0.93827000000E+00  0.93827000000E+00 0. -1.
     999902    2    1    2    0    0  0.54555213312E-02 -0.10991862975E-01  0.20676762946E-01  0.10198860342E+01  0.10196025748E+01 0.  0.
     999903    2    3    3    0    0 -0.71993977914E-01 -0.51166101258E-01 -0.91256092453E-01  0.12851553971E+00  0.19684175472E-01 0.  0.
         14    1    1    2    0    0 -0.54555213312E-02  0.10991862975E-01 -0.20676762946E-01  0.24043965783E-01  0.00000000000E+00 0.  1.
     999901    1    3    3    0    0  0.77449499245E-01  0.40174238282E-01  0.11193285540E+00  0.89137049450E+00  0.88000000000E+00 0.  1.
        -11    1    4    4    0    0 -0.55077350251E-01 -0.29231631937E-01 -0.68797094926E-01  0.92850978496E-01  0.51100000000E-03 0.  1.
         11    1    4    4    0    0 -0.16916627662E-01 -0.21934469320E-01 -0.22458997528E-01  0.35664561217E-01  0.51100000000E-03 0. -1.
</event>
<event>
 8    1  0.1145101E+005  0.1043930E+01  0.7957747E-01            NaN
         13   -1    0    0    0    0  0.00000000000E+00  0.00000000000E+00  0.74505805969E-08  0.10566000000E+00  0.10566000000E+00 0.  1.
     999900   -1    0    0    0    0 -0.00000000000E+00 -0.00000000000E+00 -0.74505805969E-08  0.93827000000E+00  0.93827000000E+00 0.  1.
     999902    2    1    2    0    0  0.48324421113E-02 -0.10703435651E-01 -0.19240917504E-01  0.10213882845E+01  0.10211395099E+01 0.  0.
     999903    2    3    3    0    0 -0.12093503386E-01  0.47699960189E-01  0.11673643419E+00  0.12887089842E+00  0.23638408665E-01 0.  0.
         14    1    1    2    0    0 -0.48324421113E-02  0.10703435651E-01  0.19240917504E-01  0.22541715505E-01  0.00000000000E+00 0.  1.
     999901    1    3    3    0    0  0.16925945497E-01 -0.58403395840E-01 -0.13597735170E+00  0.89251738608E+00  0.88000000000E+00 0.  1.
        -11    1    4    4    0    0  0.25842669306E-02  0.28620246768E-01  0.46962063234E-01  0.55058999853E-01  0.51100000000E-03 0.  1.
         11    1    4    4    0    0 -0.14677770316E-01  0.19079713421E-01  0.69774370960E-01  0.73811898563E-01  0.51100000000E-03 0. -1.
</event>
<event>
 8    1  0.1145101E+005  0.1043930E+01  0.7957747E-01            NaN
         13   -1    0    0    0    0  0.00000000000E+00  0.00000000000E+00  0.74505805969E-08  0.10566000000E+00  0.10566000000E+00 0.  1.
     999900   -1    0    0    0    0 -0.00000000000E+00 -0.00000000000E+00 -0.74505805969E-08  0.93827000000E+00  0.93827000000E+00 0. -1.
     999902    2    1    2    0    0 -0.16085613776E-01  0.92709979235E-02 -0.14770934836E-01  0.10202049312E+01  0.10199290283E+01 0.  0.
     999903    2    3    3    0    0  0.25278391883E-01  0.12321562175E+00  0.29306428665E-01  0.13080222589E+00  0.20718807819E-01 0.  0.
         14    1    1    2    0    0  0.16085613776E-01 -0.92709979235E-02  0.14770934836E-01  0.23725068788E-01  0.00000000000E+00 0.  1.
     999901    1    3    3    0    0 -0.41364005659E-01 -0.11394462382E+00 -0.44077363501E-01  0.88940270532E+00  0.88000000000E+00 0.  1.
        -11    1    4    4    0    0 -0.27783428541E-02  0.68922862078E-02  0.41481445089E-02  0.85259030051E-02  0.51100000000E-03 0. -1.
         11    1    4    4    0    0  0.28056734737E-01  0.11632333554E+00  0.25158284156E-01  0.12227632288E+00  0.51100000000E-03 0.  1.
</event>
<event>
 8    1  0.1145101E+005  0.1043930E+01  0.7957747E-01            NaN
         13   -1    0    0    0    0  0.00000000000E+00  0.00000000000E+00  0.74505805969E-08  0.10566000000E+00  0.10566000000E+00 0. -1.
     999900   -1    0    0    0    0 -0.00000000000E+00 -0.00000000000E+00 -0.74505805969E-08  0.93827000000E+00  0.93827000000E+00 0.  1.
     999902    2    1    2    0    0 -0.14578278356E-01  0.46846740919E-02  0.18688254941E-01  0.10197696349E+01  0.10194833912E+01 0.  0.
     999903    2    3    3    0    0  0.66708954052E-01 -0.66407396764E-01 -0.83260454515E-01  0.12732622710E+00  0.20485065906E-01 0.  0.
         14    1    1    2    0    0  0.14578278356E-01 -0.46846740919E-02 -0.18688254941E-01  0.24160365145E-01  0.00000000000E+00 0.  1.
     999901    1    3    3    0    0 -0.81287232408E-01  0.71092070856E-01  0.10194870946E+00  0.89244340776E+00  0.88000000000E+00 0. -1.
        -11    1    4    4    0    0  0.26588338202E-01 -0.40837764931E-01 -0.43398113130E-01  0.65255805237E-01  0.51100000000E-03 0.  1.
         11    1    4    4    0    0  0.40120615849E-01 -0.25569631833E-01 -0.39862341385E-01  0.62070421860E-01  0.51100000000E-03 0. -1.
</event>
<event>
 8    1  0.1145101E+005  0.1043930E+01  0.7957747E-01            NaN
         13   -1    0    0    0    0  0.00000000000E+00  0.00000000000E+00  0.74505805969E-08  0.10566000000E+00  0.10566000000E+00 0.  1.
     999900   -1    0    0    0    0 -0.00000000000E+00 -0.00000000000E+00 -0.74505805969E-08  0.93827000000E+00  0.93827000000E+00 0.  1.
     999902    2    1    2    0    0 -0.12270408114E-02  0.48477964398E-02  0.23205847641E-01  0.10201914633E+01  0.10199152434E+01 0.  0.
     999903    2    3    3    0    0 -0.26118897229E-01  0.10130037434E+00 -0.73628827525E-01  0.12929323196E+00  0.18750278791E-01 0.  0.
         14    1    1    2    0    0  0.12270408114E-02 -0.48477964398E-02 -0.23205847641E-01  0.23738536691E-01  0.00000000000E+00 0. -1.
     999901    1    3    3    0    0  0.24891856418E-01 -0.96452577902E-01  0.96834675166E-01  0.89089823135E+00  0.88000000000E+00 0. -1.
        -11    1    4    4    0    0 -0.57150070844E-02  0.58854469676E-01 -0.39034868736E-01  0.70855430314E-01  0.51100000000E-03 0. -1.
         11    1    4    4    0    0 -0.20403890145E-01  0.42445904666E-01 -0.34593958790E-01  0.58437801650E-01  0.51100000000E-03 0.  1.
</event>
<event>
 7    1  0.1145101E+005  0.1043930E+01  0.7957747E-01            NaN
         13   -1    0    0    0    0  0.00000000000E+00  0.00000000000E+00  0.74505805969E-08  0.10566000000E+00  0.10566000000E+00 0. -1.
     999900   -1    0    0    0    0 -0.00000000000E+00 -0.00000000000E+00 -0.74505805969E-08  0.93827000000E+00  0.93827000000E+00 0. -1.
     999902    2    1    2    0    0 -0.11878537718E-01  0.60629476832E-02 -0.17600404533E-01  0.10218475809E+01  0.10216089493E+01 0.  0.
         14    1    1    2    0    0  0.11878537718E-01 -0.60629476832E-02  0.17600404533E-01  0.22082419085E-01  0.00000000000E+00 0. -1.
     999901    1    3    3    0    0 -0.52534155251E-01  0.56942331310E-01  0.92803253815E-01  0.88826500014E+00  0.88000000000E+00 0.  1.
        -11    1    3    3    0    0  0.43251402527E-01 -0.50103307341E-01 -0.83570880776E-01  0.10660852903E+00  0.51100000000E-03 0.  1.
         11    1    3    3    0    0 -0.25957849934E-02 -0.77607628583E-03 -0.26832777572E-01  0.26974051742E-01  0.51100000000E-03 0. -1.
</event>
<event>
 8    1  0.1145101E+005  0.1043930E+01  0.7957747E-01            NaN
         13   -1    0    0    0    0  0.00000000000E+00  0.00000000000E+00  0.74505805969E-08  0.10566000000E+00  0.10566000000E+00 0. -1.
     999900   -1    0    0    0    0 -0.00000000000E+00 -0.00000000000E+00 -0.74505805969E-08  0.93827000000E+00  0.93827000000E+00 0.  1.
     999902    2    1    2    0    0  0.26545565762E-01  0.19198235837E-01  0.66539268496E-03  0.10111629118E+01  0.10106318579E+01 0.  0.
     999903    2    3    3    0    0  0.56285397432E-01 -0.90897432660E-01 -0.55178780232E-01  0.12204869786E+00  0.20513352542E-01 0.  0.
         14    1    1    2    0    0 -0.26545565762E-01 -0.19198235837E-01 -0.66539268496E-03  0.32767088188E-01  0.00000000000E+00 0. -1.
     999901    1    3    3    0    0 -0.29739831670E-01  0.11009566850E+00  0.55844172917E-01  0.88911421396E+00  0.88000000000E+00 0. -1.
        -11    1    4    4    0    0 -0.40028107657E-03 -0.65005428969E-02 -0.68932925866E-02  0.94971514982E-02  0.51100000000E-03 0.  1.
         11    1    4    4    0    0  0.56685678508E-01 -0.84396889763E-01 -0.48285487645E-01  0.11255154636E+00  0.51100000000E-03 0. -1.
</event>
<event>
 8    1  0.1145101E+005  0.1043930E+01  0.7957747E-01            NaN
         13   -1    0    0    0    0  0.00000000000E+00  0.00000000000E+00  0.74505805969E-08  0.10566000000E+00  0.10566000000E+00 0.  1.
     999900   -1    0    0    0    0 -0.00000000000E+00 -0.00000000000E+00 -0.74505805969E-08  0.93827000000E+00  0.93827000000E+00 0. -1.
     999902    2    1    2    0    0 -0.24144409547E-01  0.90625270837E-02 -0.31614104208E-02  0.10179477671E+01  0.10176161261E+01 0.  0.
     999903    2    3    3    0    0  0.11924276005E+00  0.36904009515E-01  0.51719724504E-02  0.12586902967E+00  0.15346712633E-01 0.  0.
         14    1    1    2    0    0  0.24144409547E-01 -0.90625270837E-02  0.31614104208E-02  0.25982232879E-01  0.00000000000E+00 0.  1.
     999901    1    3    3    0    0 -0.14338716959E+00 -0.27841482432E-01 -0.83333828711E-02  0.89207873745E+00  0.88000000000E+00 0.  1.
        -11    1    4    4    0    0  0.59586234453E-01  0.18626987608E-01 -0.50740057731E-02  0.62637773421E-01  0.51100000000E-03 0. -1.
         11    1    4    4    0    0  0.59656525593E-01  0.18277021908E-01  0.10245978223E-01  0.63231256246E-01  0.51100000000E-03 0.  1.
</event>
<event>
 8    1  0.1145101E+005  0.1043930E+01  0.7957747E-01            NaN
         13   -1    0    0    0    0  0.00000000000E+00  0.00000000000E+00  0.74505805969E-08  0.10566000000E+00  0.10566000000E+00 0. -1.
     999900   -1    0    0    0    0 -0.00000000000E+00 -0.00000000000E+00 -0.74505805969E-08  0.93827000000E+00  0.93827000000E+00 0. -1.
     999902    2    1    2    0    0  0.12011828531E-01  0.49604181241E-02  0.19990890714E-01  0.10200862276E+01  0.10198075241E+01 0.  0.
     999903    2    3    3    0    0 -0.80597142908E-01 -0.48339226832E-01 -0.84030924106E-01  0.12754053590E+00  0.19308334883E-01 0.  0.
         14    1    1    2    0    0 -0.12011828531E-01 -0.49604181241E-02 -0.19990890714E-01  0.23843772439E-01  0.00000000000E+00 0.  1.
     999901    1    3    3    0    0  0.92608971438E-01  0.53299644956E-01  0.10402181482E+00  0.89254569166E+00  0.88000000000E+00 0. -1.
        -11    1    4    4    0    0 -0.10844802667E-01 -0.13996521801E-01 -0.20831317109E-01  0.27344419191E-01  0.51100000000E-03 0. -1.
         11    1    4    4    0    0 -0.69752340241E-01 -0.34342705030E-01 -0.63199606997E-01  0.10019611671E+00  0.51100000000E-03 0.  1.
</event>
<event>
 8    1  0.1145101E+005  0.1043930E+01  0.7957747E-01            NaN
         13   -1    0    0    0    0  0.00000000000E+00  0.00000000000E+00  0.74505805969E-08  0.10566000000E+00  0.10566000000E+00 0.  1.
     999900   -1    0    0    0    0 -0.00000000000E+00 -0.00000000000E+00 -0.74505805969E-08  0.93827000000E+00  0.93827000000E+00 0. -1.
     999902    2    1    2    0    0 -0.13757466461E-01  0.75971816474E-02 -0.17666618971E-01  0.10202848212E+01  0.10200107950E+01 0.  0.
     999903    2    3    3    0    0  0.51089551957E-01 -0.98796029640E-01 -0.64749156580E-01  0.13026155382E+00  0.20120172341E-01 0.  0.
         14    1    1    2    0    0  0.13757466461E-01 -0.75971816474E-02  0.17666618971E-01  0.23645178754E-01  0.00000000000E+00 0. -1.
     999901    1    3    3    0    0 -0.64847018418E-01  0.10639321129E+00  0.47082537609E-01  0.89002326742E+00  0.88000000000E+00 0. -1.
        -11    1    4    4    0    0  0.24823661915E-01 -0.42462220188E-01 -0.39836663274E-01  0.63296723422E-01  0.51100000000E-03 0. -1.
         11    1    4    4    0    0  0.26265890042E-01 -0.56333809452E-01 -0.24912493307E-01  0.66964830402E-01  0.51100000000E-03 0.  1.
</event>
<event>
 8    1  0.1145101E+005  0.1043930E+01  0.7957747E-01            NaN
         13   -1    0    0    0    0  0.00000000000E+00  0.00000000000E+00  0.74505805969E-08  0.10566000000E+00  0.10566000000E+00 0.  1.
     999900   -1    0    0    0    0 -0.00000000000E+00 -0.00000000000E+00 -0.74505805969E-08  0.93827000000E+00  0.93827000000E+00 0. -1.
     999902    2    1    2    0    0 -0.17363258086E-01 -0.62420262209E-02 -0.15487320895E-01  0.10198405265E+01  0.10195559802E+01 0.  0.
     999903    2    3    3    0    0 -0.95018659579E-01  0.66345595044E-01  0.55959566965E-01  0.13056892466E+00  0.22056457138E-01 0.  0.
         14    1    1    2    0    0  0.17363258086E-01  0.62420262209E-02  0.15487320895E-01  0.24089473453E-01  0.00000000000E+00 0.  1.
     999901    1    3    3    0    0  0.77655401493E-01 -0.72587621265E-01 -0.71446887860E-01  0.88927160189E+00  0.88000000000E+00 0. -1.
        -11    1    4    4    0    0 -0.43651980171E-01  0.17580451106E-01  0.20024786701E-01  0.51145095926E-01  0.51100000000E-03 0. -1.
         11    1    4    4    0    0 -0.51366679409E-01  0.48765143938E-01  0.35934780264E-01  0.79423828732E-01  0.51100000000E-03 0.  1.
</event>
<event>
 8    1  0.1145101E+005  0.1043930E+01  0.7957747E-01            NaN
         13   -1    0    0    0    0  0.00000000000E+00  0.00000000000E+00  0.74505805969E-08  0.10566000000E+00  0.10566000000E+00 0. -1.
     999900   -1    0    0    0    0 -0.00000000000E+00 -0.00000000000E+00 -0.74505805969E-08  0.93827000000E+00  0.93827000000E+00 0.  1.
     999902    2    1    2    0    0  0.53488457863E-02 -0.31791615207E-02 -0.23170287438E-01  0.10199387633E+01  0.10196565605E+01 0.  0.
     999903    2    3    3    0    0 -0.90342558178E-01  0.72736018257E-01  0.51058949807E-01  0.12840640886E+00  0.20709498115E-01 0.  0.
         14    1    1    2    0    0 -0.53488457863E-02  0.31791615207E-02  0.23170287438E-01  0.23991236716E-01  0.00000000000E+00 0.  1.
     999901    1    3    3    0    0  0.95691403964E-01 -0.75915179778E-01 -0.74229237245E-01  0.89153235442E+00  0.88000000000E+00 0.  1.
        -11    1    4    4    0    0 -0.40534368363E-01  0.41737881900E-01  0.17220020991E-01  0.60678464450E-01  0.51100000000E-03 0. -1.
         11    1    4    4    0    0 -0.49808189815E-01  0.30998136357E-01  0.33838928816E-01  0.67727944415E-01  0.51100000000E-03 0.  1.
</event>
<event>
 8    1  0.1145101E+005  0.1043930E+01  0.7957747E-01            NaN
         13   -1    0    0    0    0  0.00000000000E+00  0.00000000000E+00  0.74505805969E-08  0.10566000000E+00  0.10566000000E+00 0.  1.
     999900   -1    0    0    0    0 -0.00000000000E+00 -0.00000000000E+00 -0.74505805969E-08  0.93827000000E+00  0.93827000000E+00 0. -1.
     999902    2    1    2    0    0  0.62542435651E-03  0.23736985975E-01  0.15870698471E-02  0.10201317973E+01  0.10198541707E+01 0.  0.
     999903    2    3    3    0    0 -0.68270346488E-04 -0.55265914098E-01  0.11501228876E+00  0.12934157529E+00  0.21144517230E-01 0.  0.
         14    1    1    2    0    0 -0.62542435651E-03 -0.23736985975E-01 -0.15870698471E-02  0.23798202653E-01  0.00000000000E+00 0.  1.
     999901    1    3    3    0    0  0.69369470300E-03  0.79002900073E-01 -0.11342521892E+00  0.89079022206E+00  0.88000000000E+00 0. -1.
        -11    1    4    4    0    0  0.61421229953E-02 -0.15578702516E-01  0.51816132837E-01  0.54457271233E-01  0.51100000000E-03 0. -1.
         11    1    4    4    0    0 -0.62103933418E-02 -0.39687211581E-01  0.63196155928E-01  0.74884304054E-01  0.51100000000E-03 0.  1.
</event>
<event>
 8    1  0.1145101E+005  0.1043930E+01  0.7957747E-01            NaN
         13   -1    0    0    0    0  0.00000000000E+00  0.00000000000E+00  0.74505805969E-08  0.10566000000E+00  0.10566000000E+00 0.  1.
     999900   -1    0    0    0    0 -0.00000000000E+00 -0.00000000000E+00 -0.74505805969E-08  0.93827000000E+00  0.93827000000E+00 0.  1.
     999902    2    1    2    0    0 -0.18144651858E-01  0.10947073033E-01  0.10236620113E-01  0.10203958718E+01  0.10201244434E+01 0.  0.
     999903    2    3    3    0    0 -0.54518053796E-01  0.10557996822E+00 -0.54388573449E-01  0.13222087504E+00  0.20122002780E-01 0.  0.
         14    1    1    2    0    0  0.18144651858E-01 -0.10947073033E-01 -0.10236620113E-01  0.23534128206E-01  0.00000000000E+00 0. -1.
     999901    1    3    3    0    0  0.36373401938E-01 -0.94632895183E-01  0.64625193562E-01  0.88817499676E+00  0.88000000000E+00 0. -1.
        -11    1    4    4    0    0 -0.22953855770E-01  0.24918251507E-01 -0.14376609802E-01  0.36806884999E-01  0.51100000000E-03 0.  1.
         11    1    4    4    0    0 -0.31564198026E-01  0.80661716709E-01 -0.40011963646E-01  0.95413990040E-01  0.51100000000E-03 0. -1.
</event>
<event>
 8    1  0.1145101E+005  0.1043930E+01  0.7957747E-01            NaN
         13   -1    0    0    0    0  0.00000000000E+00  0.00000000000E+00  0.74505805969E-08  0.10566000000E+00  0.10566000000E+00 0. -1.
     999900   -1    0    0    0    0 -0.00000000000E+00 -0.00000000000E+00 -0.74505805969E-08  0.93827000000E+00  0.93827000000E+00 0. -1.
     999902    2    1    2    0    0 -0.21568192861E-01  0.21885962415E-02  0.59421457032E-02  0.10214514326E+01  0.10212040654E+01 0.  0.
     999903    2    3    3    0    0  0.12290233932E+00 -0.29096038789E-01  0.22793650027E-01  0.12896365327E+00  0.12669210630E-01 0.  0.
         14    1    1    2    0    0  0.21568192861E-01 -0.21885962415E-02 -0.59421457032E-02  0.22478567400E-01  0.00000000000E+00 0. -1.
     999901    1    3    3    0    0 -0.14447053219E+00  0.31284635031E-01 -0.16851504324E-01  0.89248777933E+00  0.88000000000E+00 0.  1.
        -11    1    4    4    0    0  0.74421515808E-01 -0.11719298274E-01  0.15914705169E-01  0.77002876107E-01  0.51100000000E-03 0. -1.
         11    1    4    4    0    0  0.48480823517E-01 -0.17376740515E-01  0.68789448574E-02  0.51960777161E-01  0.51100000000E-03 0.  1.
</event>
<event>
 8    1  0.1145101E+005  0.1043930E+01  0.7957747E-01            NaN
         13   -1    0    0    0    0  0.00000000000E+00  0.00000000000E+00  0.74505805969E-08  0.10566000000E+00  0.10566000000E+00 0. -1.
     999900   -1    0    0    0    0 -0.00000000000E+00 -0.00000000000E+00 -0.74505805969E-08  0.93827000000E+00  0.93827000000E+00 0. -1.
     999902    2    1    2    0    0  0.12884245688E-01  0.10740718273E-01  0.16599559496E-01  0.10203310129E+01  0.10200580688E+01 0.  0.
     999903    2    3    3    0    0 -0.11307075666E+00  0.26126153331E-01 -0.50787785892E-01  0.12867949548E+00  0.22615071537E-01 0.  0.
         14    1    1    2    0    0 -0.12884245688E-01 -0.10740718273E-01 -0.16599559496E-01  0.23598987085E-01  0.00000000000E+00 0. -1.
     999901    1    3    3    0    0  0.12595500235E+00 -0.15385435058E-01  0.67387345388E-01  0.89165151744E+00  0.88000000000E+00 0.  1.
        -11    1    4    4    0    0 -0.29121534628E-01 -0.19071835538E-02 -0.74134833413E-02  0.30115145433E-01  0.51100000000E-03 0.  1.
         11    1    4    4    0    0 -0.83949222035E-01  0.28033336885E-01 -0.43374302550E-01  0.98564350046E-01  0.51100000000E-03 0. -1.
</event>
<event>
 8    1  0.1145101E+005  0.1043930E+01  0.7957747E-01            NaN
         13   -1    0    0    0    0  0.00000000000E+00  0.00000000000E+00  0.74505805969E-08  0.10566000000E+00  0.10566000000E+00 0. -1.
     999900   -1    0    0    0    0 -0.00000000000E+00 -0.00000000000E+00 -0.74505805969E-08  0.93827000000E+00  0.93827000000E+00 0.  1.
     999902    2    1    2    0    0  0.16697248079E-01  0.11252006369E-01 -0.12314940841E-01  0.10203278071E+01  0.10200547880E+01 0.  0.
     999903    2    3    3    0    0 -0.43518841094E-01 -0.99447278385E-01  0.64609122918E-01  0.12802874256E+00  0.20817527420E-01 0.  0.
         14    1    1    2    0    0 -0.16697248079E-01 -0.11252006369E-01  0.12314940841E-01  0.23602192878E-01  0.00000000000E+00 0. -1.
     999901    1    3    3    0    0  0.60216089173E-01  0.11069928475E+00 -0.76924063758E-01  0.89229906457E+00  0.88000000000E+00 0.  1.
        -11    1    4    4    0    0 -0.17777672907E-02 -0.29909975305E-02  0.78003096641E-02  0.85564288475E-02  0.51100000000E-03 0. -1.
         11    1    4    4    0    0 -0.41741073803E-01 -0.96456280855E-01  0.56808813254E-01  0.11947231371E+00  0.51100000000E-03 0.  1.
</event>
<event>
 8    1  0.1145101E+005  0.1043930E+01  0.7957747E-01            NaN
         13   -1    0    0    0    0  0.00000000000E+00  0.00000000000E+00  0.74505805969E-08  0.10566000000E+00  0.10566000000E+00 0. -1.
     999900   -1    0    0    0    0 -0.00000000000E+00 -0.00000000000E+00 -0.74505805969E-08  0.93827000000E+00  0.93827000000E+00 0.  1.
     999902    2    1    2    0    0 -0.19281225109E-01 -0.10232907151E-01  0.11267368313E-01  0.10193651548E+01  0.10190691278E+01 0.  0.
     999903    2    3    3    0    0 -0.21711400154E-01  0.10931347291E+00 -0.60426818257E-01  0.12838967865E+00  0.20290119832E-01 0.  0.
         14    1    1    2    0    0  0.19281225109E-01  0.10232907151E-01 -0.11267368313E-01  0.24564845189E-01  0.00000000000E+00 0. -1.
     999901    1    3    3    0    0  0.24301750457E-02 -0.11954638006E+00  0.71694186571E-01  0.89097547616E+00  0.88000000000E+00 0. -1.
        -11    1    4    4    0    0 -0.20820469662E-01  0.52869018289E-01 -0.30822199224E-01  0.64644366636E-01  0.51100000000E-03 0.  1.
         11    1    4    4    0    0 -0.89093049214E-03  0.56444454620E-01 -0.29604619033E-01  0.63745312012E-01  0.51100000000E-03 0. -1.
</event>
<event>
 8    1  0.1356104E+005  0.1043930E+01  0.7957747E-01            NaN
         13   -1    0    0    0    0  0.00000000000E+00  0.00000000000E+00  0.74505805969E-08  0.10566000000E+00  0.10566000000E+00 0. -1.
     999900   -1    0    0    0    0 -0.00000000000E+00 -0.00000000000E+00 -0.74505805969E-08  0.93827000000E+00  0.93827000000E+00 0. -1.
     999902    2    1    2    0    0 -0.18591804937E-01  0.35757208969E-02 -0.12792051743E-01  0.10210809830E+01  0.10208253015E+01 0.  0.
     999903    2    3    3    0    0  0.63304800442E-01  0.18500512908E-02 -0.11360305106E+00  0.13154577318E+00  0.19690525149E-01 0.  0.
         14    1    1    2    0    0  0.18591804937E-01 -0.35757208969E-02  0.12792051743E-01  0.22849017014E-01  0.00000000000E+00 0. -1.
     999901    1    3    3    0    0 -0.81896605378E-01  0.17256696061E-02  0.10081099932E+00  0.88953520981E+00  0.88000000000E+00 0.  1.
        -11    1    4    4    0    0  0.41310699053E-01 -0.81803860411E-02 -0.73981776511E-01  0.85129647883E-01  0.51100000000E-03 0.  1.
         11    1    4    4    0    0  0.21994101389E-01  0.10030437332E-01 -0.39621274552E-01  0.46416125292E-01  0.51100000000E-03 0. -1.
</event>
<event>
 8    1  0.1145101E+005  0.1043930E+01  0.7957747E-01            NaN
         13   -1    0    0    0    0  0.00000000000E+00  0.00000000000E+00  0.74505805969E-08  0.10566000000E+00  0.10566000000E+00 0.  1.
     999900   -1    0    0    0    0 -0.00000000000E+00 -0.00000000000E+00 -0.74505805969E-08  0.93827000000E+00  0.93827000000E+00 0. -1.
     999902    2    1    2    0    0 -0.18826556558E-01 -0.14332796134E-01 -0.49485055511E-02  0.10197565438E+01  0.10194699862E+01 0.  0.
     999903    2    3    3    0    0 -0.10794897377E+00  0.70482196221E-01 -0.12994626764E-01  0.13116151330E+00  0.20341124021E-01 0.  0.
         14    1    1    2    0    0  0.18826556558E-01  0.14332796134E-01  0.49485055511E-02  0.24173456188E-01  0.00000000000E+00 0. -1.
     999901    1    3    3    0    0  0.89122417207E-01 -0.84814992355E-01  0.80461212133E-02  0.88859503051E+00  0.88000000000E+00 0.  1.
        -11    1    4    4    0    0 -0.19309811808E-01  0.59137848865E-02 -0.68271614392E-02  0.21323999111E-01  0.51100000000E-03 0.  1.
         11    1    4    4    0    0 -0.88639161957E-01  0.64568411335E-01 -0.61674653251E-02  0.10983751419E+00  0.51100000000E-03 0. -1.
</event>
<event>
 8    1  0.1145101E+005  0.1043930E+01  0.7957747E-01            NaN
         13   -1    0    0    0    0  0.00000000000E+00  0.00000000000E+00  0.74505805969E-08  0.10566000000E+00  0.10566000000E+00 0.  1.
     999900   -1    0    0    0    0 -0.00000000000E+00 -0.00000000000E+00 -0.74505805969E-08  0.93827000000E+00  0.93827000000E+00 0.  1.
     999902    2    1    2    0    0  0.52790069928E-02  0.18050058611E-01  0.12210271233E-01  0.10215076171E+01  0.10212614986E+01 0.  0.
     999903    2    3    3    0    0  0.12139098354E+00  0.41281266423E-01  0.29446195457E-01  0.13340922324E+00  0.22159164634E-01 0.  0.
         14    1    1    2    0    0 -0.52790069928E-02 -0.18050058611E-01 -0.12210271233E-01  0.22422382885E-01  0.00000000000E+00 0. -1.
     999901    1    3    3    0    0 -0.11611197655E+00 -0.23231207812E-01 -0.17235924225E-01  0.88809839387E+00  0.88000000000E+00 0. -1.
        -11    1    4    4    0    0  0.58760518945E-01  0.22350096032E-01  0.25547580754E-01  0.67862105646E-01  0.51100000000E-03 0. -1.
         11    1    4    4    0    0  0.62630464594E-01  0.18931170391E-01  0.38986147032E-02  0.65547117597E-01  0.51100000000E-03 0.  1.
</event>
<event>
 8    1  0.1145101E+005  0.1043930E+01  0.7957747E-01            NaN
         13   -1    0    0    0    0  0.00000000000E+00  0.00000000000E+00  0.74505805969E-08  0.10566000000E+00  0.10566000000E+00 0. -1.
     999900   -1    0    0    0    0 -0.00000000000E+00 -0.00000000000E+00 -0.74505805969E-08  0.93827000000E+00  0.93827000000E+00 0. -1.
     999902    2    1    2    0    0  0.79103137903E-02  0.22122674190E-01 -0.29588577509E-02  0.10202500377E+01  0.10199751951E+01 0.  0.
     999903    2    3    3    0    0  0.93499151857E-01 -0.78778435690E-01 -0.38426998832E-01  0.12965222034E+00  0.19619650130E-01 0.  0.
         14    1    1    2    0    0 -0.79103137903E-02 -0.22122674190E-01  0.29588577509E-02  0.23679962347E-01  0.00000000000E+00 0.  1.
     999901    1    3    3    0    0 -0.85588838067E-01  0.10090110988E+00  0.35468141081E-01  0.89059781732E+00  0.88000000000E+00 0.  1.
        -11    1    4    4    0    0  0.30559049050E-01 -0.34464889797E-01 -0.73880560893E-02  0.46653280714E-01  0.51100000000E-03 0. -1.
         11    1    4    4    0    0  0.62940102807E-01 -0.44313545893E-01 -0.31038942742E-01  0.82998939623E-01  0.51100000000E-03 0.  1.
</event>
<event>
 8    1  0.1145101E+005  0.1043930E+01  0.7957747E-01            NaN
         13   -1    0    0    0    0  0.00000000000E+00  0.00000000000E+00  0.74505805969E-08  0.10566000000E+00  0.10566000000E+00 0.  1.
     999900   -1    0    0    0    0 -0.00000000000E+00 -0.00000000000E+00 -0.74505805969E-08  0.93827000000E+00  0.93827000000E+00 0.  1.
     999902    2    1    2    0    0  0.20246392005E-01 -0.26682427660E-01  0.69404150042E-02  0.10097241862E+01  0.10091446351E+01 0.  0.
     999903    2    3    3    0    0  0.33341519379E-01  0.10429654172E+00 -0.41580282292E-01  0.11861183033E+00  0.18719532305E-01 0.  0.
         14    1    1    2    0    0 -0.20246392005E-01  0.26682427660E-01 -0.69404150042E-02  0.34205813767E-01  0.00000000000E+00 0.  1.
     999901    1    3    3    0    0 -0.13095127374E-01 -0.13097896938E+00  0.48520697296E-01  0.89111235590E+00  0.88000000000E+00 0. -1.
        -11    1    4    4    0    0  0.51099246581E-02  0.57159869330E-02 -0.69972814329E-02  0.10392637061E-01  0.51100000000E-03 0. -1.
         11    1    4    4    0    0  0.28231594720E-01  0.98580554784E-01 -0.34583000859E-01  0.10821919327E+00  0.51100000000E-03 0.  1.
</event>
<event>
 8    1  0.1145101E+005  0.1043930E+01  0.7957747E-01            NaN
         13   -1    0    0    0    0  0.00000000000E+00  0.00000000000E+00  0.74505805969E-08  0.10566000000E+00  0.10566000000E+00 0.  1.
     999900   -1    0    0    0    0 -0.00000000000E+00 -0.00000000000E+00 -0.74505805969E-08  0.93827000000E+00  0.93827000000E+00 0. -1.
     999902    2    1    2    0    0  0.96745242027E-03  0.18326582103E-01 -0.16615506500E-01  0.10191736951E+01  0.10188729784E+01 0.  0.
     999903    2    3    3    0    0 -0.12548365050E+00 -0.10049173139E-01  0.19482472214E-01  0.12895005524E+00  0.20035408579E-01 0.  0.
         14    1    1    2    0    0 -0.96745242027E-03 -0.18326582103E-01  0.16615506500E-01  0.24756304895E-01  0.00000000000E+00 0.  1.
     999901    1    3    3    0    0  0.12645110292E+00  0.28375755242E-01 -0.36097978714E-01  0.89022363987E+00  0.88000000000E+00 0. -1.
        -11    1    4    4    0    0 -0.80698502440E-01 -0.10540934845E-01  0.37336032288E-02  0.81471225089E-01  0.51100000000E-03 0.  1.
         11    1    4    4    0    0 -0.44785148064E-01  0.49176170614E-03  0.15748868985E-01  0.47478830146E-01  0.51100000000E-03 0. -1.
</event>
<event>
 8    1  0.1145101E+005  0.1043930E+01  0.7957747E-01            NaN
         13   -1    0    0    0    0  0.00000000000E+00  0.00000000000E+00  0.74505805969E-08  0.10566000000E+00  0.10566000000E+00 0. -1.
     999900   -1    0    0    0    0 -0.00000000000E+00 -0.00000000000E+00 -0.74505805969E-08  0.93827000000E+00  0.93827000000E+00 0. -1.
     999902    2    1    2    0    0  0.16322734658E-01 -0.12319237470E-01  0.10064673895E-01  0.10211376123E+01  0.10208832109E+01 0.  0.
     999903    2    3    3    0    0 -0.11427789153E+00  0.34576004650E-01 -0.43736433644E-01  0.12864097558E+00  0.19511237288E-01 0.  0.
         14    1    1    2    0    0 -0.16322734658E-01  0.12319237470E-01 -0.10064673895E-01  0.22792387747E-01  0.00000000000E+00 0. -1.
     999901    1    3    3    0    0  0.13060062619E+00 -0.46895242120E-01  0.53801107539E-01  0.89249663667E+00  0.88000000000E+00 0. -1.
        -11    1    4    4    0    0 -0.20176138321E-01  0.56007646807E-02 -0.10928415727E-03  0.20945600650E-01  0.51100000000E-03 0. -1.
         11    1    4    4    0    0 -0.94101753211E-01  0.28975239969E-01 -0.43627149487E-01  0.10769537493E+00  0.51100000000E-03 0.  1.
</event>
<event>
 8    1  0.1145101E+005  0.1043930E+01  0.7957747E-01            NaN
         13   -1    0    0    0    0  0.00000000000E+00  0.00000000000E+00  0.74505805969E-08  0.10566000000E+00  0.10566000000E+00 0.  1.
     999900   -1    0    0    0    0 -0.00000000000E+00 -0.00000000000E+00 -0.74505805969E-08  0.93827000000E+00  0.93827000000E+00 0.  1.
     999902    2    1    2    0    0 -0.11162527028E-01  0.21430102023E-01  0.94464445438E-03  0.10197485270E+01  0.10194617770E+01 0.  0.
     999903    2    3    3    0    0 -0.87382900594E-01  0.83020351725E-01 -0.51194503777E-01  0.13277536227E+00  0.21915051735E-01 0.  0.
         14    1    1    2    0    0  0.11162527028E-01 -0.21430102023E-01 -0.94464445438E-03  0.24181472981E-01  0.00000000000E+00 0.  1.
     999901    1    3    3    0    0  0.76220373566E-01 -0.61590249702E-01  0.52139148231E-01  0.88697316475E+00  0.88000000000E+00 0.  1.
        -11    1    4    4    0    0 -0.72292903363E-01  0.66327538296E-01 -0.50288791526E-01  0.11024894506E+00  0.51100000000E-03 0. -1.
         11    1    4    4    0    0 -0.15089997231E-01  0.16692813429E-01 -0.90571225018E-03  0.22526417210E-01  0.51100000000E-03 0.  1.
</event>
<event>
 8    1  0.1145101E+005  0.1043930E+01  0.7957747E-01            NaN
         13   -1    0    0    0    0  0.00000000000E+00  0.00000000000E+00  0.74505805969E-08  0.10566000000E+00  0.10566000000E+00 0.  1.
     999900   -1    0    0    0    0 -0.00000000000E+00 -0.00000000000E+00 -0.74505805969E-08  0.93827000000E+00  0.93827000000E+00 0. -1.
     999902    2    1    2    0    0 -0.95648707104E-02 -0.44806266622E-02  0.20976443604E-01  0.10204443884E+01  0.10201740909E+01 0.  0.
     999903    2    3    3    0    0  0.82699133278E-01 -0.95802098441E-01 -0.22004086810E-01  0.12988300159E+00  0.19189204144E-01 0.  0.
         14    1    1    2    0    0  0.95648707104E-02  0.44806266622E-02 -0.20976443604E-01  0.23485611622E-01  0.00000000000E+00 0. -1.
     999901    1    3    3    0    0 -0.92264003988E-01  0.91321471779E-01  0.42980530413E-01  0.89056138679E+00  0.88000000000E+00 0. -1.
        -11    1    4    4    0    0  0.47214975727E-01 -0.46926733946E-01 -0.19759273794E-01  0.69441070798E-01  0.51100000000E-03 0.  1.
         11    1    4    4    0    0  0.35484157550E-01 -0.48875364495E-01 -0.22448130154E-02  0.60441930794E-01  0.51100000000E-03 0. -1.
</event>
<event>
 8    1  0.1145101E+005  0.1043930E+01  0.7957747E-01            NaN
         13   -1    0    0    0    0  0.00000000000E+00  0.00000000000E+00  0.74505805969E-08  0.10566000000E+00  0.10566000000E+00 0.  1.
     999900   -1    0    0    0    0 -0.00000000000E+00 -0.00000000000E+00 -0.74505805969E-08  0.93827000000E+00  0.93827000000E+00 0. -1.
     999902    2    1    2    0    0 -0.19381343272E-03  0.22350244703E-01  0.82706852792E-02  0.10200977689E+01  0.10198193384E+01 0.  0.
     999903    2    3    3    0    0 -0.33932800837E-01  0.73363455904E-01  0.10357900444E+00  0.13284113038E+00  0.19609286661E-01 0.  0.
         14    1    1    2    0    0  0.19381343272E-03 -0.22350244703E-01 -0.82706852792E-02  0.23832231052E-01  0.00000000000E+00 0.  1.
     999901    1    3    3    0    0  0.33738987404E-01 -0.51013211201E-01 -0.95308319163E-01  0.88725663857E+00  0.88000000000E+00 0. -1.
        -11    1    4    4    0    0 -0.90318295354E-02  0.30815026023E-01  0.28023681779E-01  0.42623088051E-01  0.51100000000E-03 0. -1.
         11    1    4    4    0    0 -0.24900971301E-01  0.42548429881E-01  0.75555322664E-01  0.90218042325E-01  0.51100000000E-03 0.  1.
</event>
<event>
 8    1  0.1145101E+005  0.1043930E+01  0.7957747E-01            NaN
         13   -1    0    0    0    0  0.00000000000E+00  0.00000000000E+00  0.74505805969E-08  0.10566000000E+00  0.10566000000E+00 0.  1.
     999900   -1    0    0    0    0 -0.00000000000E+00 -0.00000000000E+00 -0.74505805969E-08  0.93827000000E+00  0.93827000000E+00 0.  1.
     999902    2    1    2    0    0  0.50000437828E-02  0.22985424876E-01 -0.41919662581E-02  0.10200364282E+01  0.10197565454E+01 0.  0.
     999903    2    3    3    0    0  0.98429213103E-01 -0.31355903380E-01  0.76045427206E-01  0.12980048811E+00  0.19843312354E-01 0.  0.
         14    1    1    2    0    0 -0.50000437828E-02 -0.22985424876E-01  0.41919662581E-02  0.23893571849E-01  0.00000000000E+00 0. -1.
     999901    1    3    3    0    0 -0.93429169320E-01  0.54341328256E-01 -0.80237393464E-01  0.89023594004E+00  0.88000000000E+00 0.  1.
        -11    1    4    4    0    0  0.66352776504E-01 -0.11270315538E-01  0.47015815023E-01  0.82100298083E-01  0.51100000000E-03 0. -1.
         11    1    4    4    0    0  0.32076436599E-01 -0.20085587842E-01  0.29029612183E-01  0.47700190024E-01  0.51100000000E-03 0.  1.
</event>
<event>
 8    1  0.1145101E+005  0.1043930E+01  0.7957747E-01            NaN
         13   -1    0    0    0    0  0.00000000000E+00  0.00000000000E+00  0.74505805969E-08  0.10566000000E+00  0.10566000000E+00 0. -1.
     999900   -1    0    0    0    0 -0.00000000000E+00 -0.00000000000E+00 -0.74505805969E-08  0.93827000000E+00  0.93827000000E+00 0.  1.
     999902    2    1    2    0    0  0.43013336615E-02  0.19185421482E-01 -0.86778208904E-02  0.10224384565E+01  0.10222125566E+01 0.  0.
     999903    2    3    3    0    0 -0.98785587342E-01  0.36815830709E-01 -0.79308049186E-01  0.13343543409E+00  0.20031244312E-01 0.  0.
         14    1    1    2    0    0 -0.43013336615E-02 -0.19185421482E-01  0.86778208904E-02  0.21491543549E-01  0.00000000000E+00 0.  1.
     999901    1    3    3    0    0  0.10308692100E+00 -0.17630409227E-01  0.70630228296E-01  0.88900302236E+00  0.88000000000E+00 0. -1.
        -11    1    4    4    0    0 -0.73441549365E-01  0.30914821287E-01 -0.49254624673E-01  0.93678527534E-01  0.51100000000E-03 0. -1.
         11    1    4    4    0    0 -0.25344037978E-01  0.59010094214E-02 -0.30053424513E-01  0.39756906560E-01  0.51100000000E-03 0.  1.
</event>
<event>
 8    1  0.1145101E+005  0.1043930E+01  0.7957747E-01            NaN
         13   -1    0    0    0    0  0.00000000000E+00  0.00000000000E+00  0.74505805969E-08  0.10566000000E+00  0.10566000000E+00 0.  1.
     999900   -1    0    0    0    0 -0.00000000000E+00 -0.00000000000E+00 -0.74505805969E-08  0.93827000000E+00  0.93827000000E+00 0.  1.
     999902    2    1    2    0    0 -0.15440198485E-01 -0.20835649193E-01  0.49445443635E-02  0.10175297628E+01  0.10171872225E+01 0.  0.
     999903    2    3    3    0    0 -0.78891256973E-01 -0.72395615938E-01 -0.71442304680E-01  0.13044497669E+00  0.21140799713E-01 0.  0.
         14    1    1    2    0    0  0.15440198485E-01  0.20835649193E-01 -0.49445443635E-02  0.26400237225E-01  0.00000000000E+00 0.  1.
     999901    1    3    3    0    0  0.63451058487E-01  0.51559966745E-01  0.76386849043E-01  0.88708478608E+00  0.88000000000E+00 0. -1.
        -11    1    4    4    0    0 -0.38336066614E-01 -0.46027244807E-01 -0.31329840173E-01  0.67601636624E-01  0.51100000000E-03 0.  1.
         11    1    4    4    0    0 -0.40555190358E-01 -0.26368371130E-01 -0.40112464506E-01  0.62843340067E-01  0.51100000000E-03 0. -1.
</event>
<event>
 8    1  0.1145101E+005  0.1043930E+01  0.7957747E-01            NaN
         13   -1    0    0    0    0  0.00000000000E+00  0.00000000000E+00  0.74505805969E-08  0.10566000000E+00  0.10566000000E+00 0.  1.
     999900   -1    0    0    0    0 -0.00000000000E+00 -0.00000000000E+00 -0.74505805969E-08  0.93827000000E+00  0.93827000000E+00 0. -1.
     999902    2    1    2    0    0  0.96591933646E-03 -0.18402897311E-01 -0.12136984284E-01  0.10218640530E+01  0.10216257812E+01 0.  0.
     999903    2    3    3    0    0 -0.53680282723E-01 -0.36834538838E-01 -0.11530478459E+00  0.13396229727E+00  0.20306347188E-01 0.  0.
         14    1    1    2    0    0 -0.96591933646E-03  0.18402897311E-01  0.12136984284E-01  0.22065947002E-01  0.00000000000E+00 0. -1.
     999901    1    3    3    0    0  0.54646202060E-01  0.18431641527E-01  0.10316780030E+00  0.88790175573E+00  0.88000000000E+00 0.  1.
        -11    1    4    4    0    0 -0.44204000743E-02 -0.89767704355E-02 -0.29673956323E-01  0.31319756530E-01  0.51100000000E-03 0.  1.
         11    1    4    4    0    0 -0.49259882649E-01 -0.27857768403E-01 -0.85630828263E-01  0.10264254074E+00  0.51100000000E-03 0. -1.
</event>
<event>
 8    1  0.1145101E+005  0.1043930E+01  0.7957747E-01            NaN
         13   -1    0    0    0    0  0.00000000000E+00  0.00000000000E+00  0.74505805969E-08  0.10566000000E+00  0.10566000000E+00 0. -1.
     999900   -1    0    0    0    0 -0.00000000000E+00 -0.00000000000E+00 -0.74505805969E-08  0.93827000000E+00  0.93827000000E+00 0. -1.
     999902    2    1    2    0    0 -0.58393338842E-02  0.18197305599E-01 -0.15572194532E-01  0.10192777588E+01  0.10189795958E+01 0.  0.
     999903    2    3    3    0    0  0.11608787279E+00 -0.46147287297E-01  0.18361125629E-01  0.12789796293E+00  0.20366434474E-01 0.  0.
         14    1    1    2    0    0  0.58393338842E-02 -0.18197305599E-01  0.15572194532E-01  0.24652241152E-01  0.00000000000E+00 0. -1.
     999901    1    3    3    0    0 -0.12192720667E+00  0.64344592896E-01 -0.33933320161E-01  0.89137979592E+00  0.88000000000E+00 0.  1.
        -11    1    4    4    0    0  0.32107780351E-01 -0.72071666701E-02  0.12283889938E-01  0.35128448351E-01  0.51100000000E-03 0. -1.
         11    1    4    4    0    0  0.83980092435E-01 -0.38940120627E-01  0.60772356910E-02  0.92769514575E-01  0.51100000000E-03 0.  1.
</event>
<event>
 8    1  0.1145101E+005  0.1043930E+01  0.7957747E-01            NaN
         13   -1    0    0    0    0  0.00000000000E+00  0.00000000000E+00  0.74505805969E-08  0.10566000000E+00  0.10566000000E+00 0.  1.
     999900   -1    0    0    0    0 -0.00000000000E+00 -0.00000000000E+00 -0.74505805969E-08  0.93827000000E+00  0.93827000000E+00 0. -1.
     999902    2    1    2    0    0  0.87950726780E-02 -0.78269365058E-02 -0.20324847435E-01  0.10204414142E+01  0.10201710475E+01 0.  0.
     999903    2    3    3    0    0 -0.12037228590E+00 -0.34227851898E-01 -0.32068369956E-01  0.13054303510E+00  0.18763544526E-01 0.  0.
         14    1    1    2    0    0 -0.87950726780E-02  0.78269365058E-02  0.20324847435E-01  0.23488585775E-01  0.00000000000E+00 0.  1.
     999901    1    3    3    0    0  0.12916735857E+00  0.26400915392E-01  0.11743522521E-01  0.88989837913E+00  0.88000000000E+00 0. -1.
        -11    1    4    4    0    0 -0.98627196664E-01 -0.35048053413E-01 -0.24515389386E-01  0.10750328092E+00  0.51100000000E-03 0.  1.
         11    1    4    4    0    0 -0.21745089231E-01  0.82020151502E-03 -0.75529805701E-02  0.23039754180E-01  0.51100000000E-03 0. -1.
</event>
<event>
 8    1  0.1145101E+005  0.1043930E+01  0.7957747E-01            NaN
         13   -1    0    0    0    0  0.00000000000E+00  0.00000000000E+00  0.74505805969E-08  0.10566000000E+00  0.10566000000E+00 0.  1.
     999900   -1    0    0    0    0 -0.00000000000E+00 -0.00000000000E+00 -0.74505805969E-08  0.93827000000E+00  0.93827000000E+00 0.  1.
     999902    2    1    2    0    0  0.40540687327E-02  0.20352578211E-01  0.10673986472E-01  0.10205934000E+01  0.10203265611E+01 0.  0.
     999903    2    3    3    0    0 -0.68860607002E-01  0.92814239294E-01 -0.59869324530E-01  0.13180568574E+00  0.20787894579E-01 0.  0.
         14    1    1    2    0    0 -0.40540687327E-02 -0.20352578211E-01 -0.10673986472E-01  0.23336600017E-01  0.00000000000E+00 0. -1.
     999901    1    3    3    0    0  0.72914675735E-01 -0.72461661083E-01  0.70543311003E-01  0.88878771424E+00  0.88000000000E+00 0. -1.
        -11    1    4    4    0    0 -0.25586546045E-01  0.40894310461E-01 -0.14405185617E-01  0.50346662851E-01  0.51100000000E-03 0. -1.
         11    1    4    4    0    0 -0.43274060957E-01  0.51919928833E-01 -0.45464138913E-01  0.81459022888E-01  0.51100000000E-03 0.  1.
</event>
<event>
 8    1  0.1145101E+005  0.1043930E+01  0.7957747E-01            NaN
         13   -1    0    0    0    0  0.00000000000E+00  0.00000000000E+00  0.74505805969E-08  0.10566000000E+00  0.10566000000E+00 0.  1.
     999900   -1    0    0    0    0 -0.00000000000E+00 -0.00000000000E+00 -0.74505805969E-08  0.93827000000E+00  0.93827000000E+00 0. -1.
     999902    2    1    2    0    0 -0.13314065344E-01 -0.11835856754E-01 -0.16606809999E-01  0.10195755758E+01  0.10192846593E+01 0.  0.
     999903    2    3    3    0    0  0.11027767170E+00 -0.13646140093E-01  0.59992717006E-01  0.12764189991E+00  0.18599637200E-01 0.  0.
         14    1    1    2    0    0  0.13314065344E-01  0.11835856754E-01  0.16606809999E-01  0.24354424227E-01  0.00000000000E+00 0.  1.
     999901    1    3    3    0    0 -0.12359173705E+00  0.18102833393E-02 -0.76599527005E-01  0.89193367586E+00  0.88000000000E+00 0. -1.
        -11    1    4    4    0    0  0.93951440673E-01 -0.13202508932E-01  0.43323109334E-01  0.10429924434E+00  0.51100000000E-03 0. -1.
         11    1    4    4    0    0  0.16326231032E-01 -0.44363116103E-03  0.16669607672E-01  0.23342655574E-01  0.51100000000E-03 0.  1.
</event>
<event>
 8    1  0.1145101E+005  0.1043930E+01  0.7957747E-01            NaN
         13   -1    0    0    0    0  0.00000000000E+00  0.00000000000E+00  0.74505805969E-08  0.10566000000E+00  0.10566000000E+00 0.  1.
     999900   -1    0    0    0    0 -0.00000000000E+00 -0.00000000000E+00 -0.74505805969E-08  0.93827000000E+00  0.93827000000E+00 0. -1.
     999902    2    1    2    0    0  0.29078715597E-02 -0.14167069270E-01 -0.18269873468E-01  0.10206287158E+01  0.10203626932E+01 0.  0.
     999903    2    3    3    0    0 -0.18458227224E-01 -0.14990049431E-01  0.12458395856E+00  0.12885273227E+00  0.22725671628E-01 0.  0.
         14    1    1    2    0    0 -0.29078715597E-02  0.14167069270E-01  0.18269873468E-01  0.23301284198E-01  0.00000000000E+00 0.  1.
     999901    1    3    3    0    0  0.21366098783E-01  0.82298016019E-03 -0.14285383202E+00  0.89177598353E+00  0.88000000000E+00 0. -1.
        -11    1    4    4    0    0 -0.10849900311E-01 -0.10348121200E-02  0.91466295761E-01  0.92114795523E-01  0.51100000000E-03 0. -1.
         11    1    4    4    0    0 -0.76083269121E-02 -0.13955237311E-01  0.33117662794E-01  0.36737936751E-01  0.51100000000E-03 0.  1.
</event>
<event>
 8    1  0.1145101E+005  0.1043930E+01  0.7957747E-01            NaN
         13   -1    0    0    0    0  0.00000000000E+00  0.00000000000E+00  0.74505805969E-08  0.10566000000E+00  0.10566000000E+00 0. -1.
     999900   -1    0    0    0    0 -0.00000000000E+00 -0.00000000000E+00 -0.74505805969E-08  0.93827000000E+00  0.93827000000E+00 0.  1.
     999902    2    1    2    0    0  0.16533531062E-01  0.93655278225E-02  0.14271008463E-01  0.10201659001E+01  0.10198890779E+01 0.  0.
     999903    2    3    3    0    0  0.30765644919E-01  0.40262315383E-01 -0.11780300404E+00  0.12966002741E+00  0.19146696854E-01 0.  0.
         14    1    1    2    0    0 -0.16533531062E-01 -0.93655278225E-02 -0.14271008463E-01  0.23764099884E-01  0.00000000000E+00 0.  1.
     999901    1    3    3    0    0 -0.14232113857E-01 -0.30896787561E-01  0.13207401250E+00  0.89050587271E+00  0.88000000000E+00 0. -1.
        -11    1    4    4    0    0  0.26368603762E-01  0.20749279478E-01 -0.82800982309E-01  0.89342597094E-01  0.51100000000E-03 0.  1.
         11    1    4    4    0    0  0.43970411573E-02  0.19513035906E-01 -0.35002021728E-01  0.40317430315E-01  0.51100000000E-03 0. -1.
</event>
<event>
 8    1  0.1145101E+005  0.1043930E+01  0.7957747E-01            NaN
         13   -1    0    0    0    0  0.00000000000E+00  0.00000000000E+00  0.74505805969E-08  0.10566000000E+00  0.10566000000E+00 0.  1.
     999900   -1    0    0    0    0 -0.00000000000E+00 -0.00000000000E+00 -0.74505805969E-08  0.93827000000E+00  0.93827000000E+00 0.  1.
     999902    2    1    2    0    0 -0.11033763812E-01 -0.15409753199E-01 -0.14836438078E-01  0.10198608427E+01  0.10195767819E+01 0.  0.
     999903    2    3    3    0    0 -0.10382903251E+00  0.27914273585E-01 -0.74133518667E-01  0.13193963171E+00  0.18777996826E-01 0.  0.
         14    1    1    2    0    0  0.11033763812E-01  0.15409753199E-01  0.14836438078E-01  0.24069157283E-01  0.00000000000E+00 0.  1.
     999901    1    3    3    0    0  0.92795268695E-01 -0.43324026783E-01  0.59297080590E-01  0.88792121101E+00  0.88000000000E+00 0.  1.
        -11    1    4    4    0    0 -0.45328406740E-01  0.45542113237E-02 -0.24417254360E-01  0.51690122169E-01  0.51100000000E-03 0. -1.
         11    1    4    4    0    0 -0.58500625767E-01  0.23360062261E-01 -0.49716264308E-01  0.80249509541E-01  0.51100000000E-03 0.  1.
</event>
<event>
 8    1  0.1145101E+005  0.1043930E+01  0.7957747E-01            NaN
         13   -1    0    0    0    0  0.00000000000E+00  0.00000000000E+00  0.74505805969E-08  0.10566000000E+00  0.10566000000E+00 0. -1.
     999900   -1    0    0    0    0 -0.00000000000E+00 -0.00000000000E+00 -0.74505805969E-08  0.93827000000E+00  0.93827000000E+00 0. -1.
     999902    2    1    2    0    0 -0.13157668674E-01 -0.14295946210E-01  0.11725912581E-01  0.10212364910E+01  0.10209843169E+01 0.  0.
     999903    2    3    3    0    0 -0.77671205077E-01  0.75010566997E-01 -0.70549157170E-01  0.13055875090E+00  0.20223812703E-01 0.  0.
         14    1    1    2    0    0  0.13157668674E-01  0.14295946210E-01 -0.11725912581E-01  0.22693508958E-01  0.00000000000E+00 0.  1.
     999901    1    3    3    0    0  0.64513536403E-01 -0.89306513207E-01  0.82275069750E-01  0.89067774014E+00  0.88000000000E+00 0.  1.
        -11    1    4    4    0    0 -0.34838357651E-01  0.32847269695E-01 -0.19509191045E-01  0.51706130647E-01  0.51100000000E-03 0.  1.
         11    1    4    4    0    0 -0.42832847426E-01  0.42163297302E-01 -0.51039966125E-01  0.78852620254E-01  0.51100000000E-03 0. -1.
</event>
<event>
 8    1  0.1175080E+005  0.1043930E+01  0.7957747E-01            NaN
         13   -1    0    0    0    0  0.00000000000E+00  0.00000000000E+00  0.74505805969E-08  0.10566000000E+00  0.10566000000E+00 0.  1.
     999900   -1    0    0    0    0 -0.00000000000E+00 -0.00000000000E+00 -0.74505805969E-08  0.93827000000E+00  0.93827000000E+00 0.  1.
     999902    2    1    2    0    0  0.17206161219E-01  0.16049360072E-01  0.51803147691E-02  0.10198370632E+01  0.10195524341E+01 0.  0.
     999903    2    3    3    0    0  0.33283743587E-01  0.11573246448E+00  0.52475687745E-01  0.13280151585E+00  0.19512403343E-01 0.  0.
         14    1    1    2    0    0 -0.17206161219E-01 -0.16049360072E-01 -0.51803147691E-02  0.24092936802E-01  0.00000000000E+00 0. -1.
     999901    1    3    3    0    0 -0.16077582368E-01 -0.99683104412E-01 -0.47295372975E-01  0.88703554735E+00  0.88000000000E+00 0.  1.
        -11    1    4    4    0    0  0.11027365929E-01  0.33803922852E-01  0.25359753838E-01  0.43677067613E-01  0.51100000000E-03 0.  1.
         11    1    4    4    0    0  0.22256377658E-01  0.81928541632E-01  0.27115933906E-01  0.89124448234E-01  0.51100000000E-03 0. -1.
</event>
<event>
 8    1  0.1145101E+005  0.1043930E+01  0.7957747E-01            NaN
         13   -1    0    0    0    0  0.00000000000E+00  0.00000000000E+00  0.74505805969E-08  0.10566000000E+00  0.10566000000E+00 0.  1.
     999900   -1    0    0    0    0 -0.00000000000E+00 -0.00000000000E+00 -0.74505805969E-08  0.93827000000E+00  0.93827000000E+00 0.  1.
     999902    2    1    2    0    0 -0.27795739951E-01  0.10194525882E-01  0.12144091715E-01  0.10119298362E+01  0.10114237406E+01 0.  0.
     999903    2    3    3    0    0  0.23336895623E-01 -0.11321543688E+00 -0.30118969319E-01  0.12084581570E+00  0.18281493778E-01 0.  0.
         14    1    1    2    0    0  0.27795739951E-01 -0.10194525882E-01 -0.12144091715E-01  0.32000163765E-01  0.00000000000E+00 0.  1.
     999901    1    3    3    0    0 -0.51132635574E-01  0.12340996276E+00  0.42263061034E-01  0.89108402054E+00  0.88000000000E+00 0.  1.
        -11    1    4    4    0    0  0.74885363880E-02 -0.58928310232E-01 -0.23581280182E-01  0.63913706043E-01  0.51100000000E-03 0.  1.
         11    1    4    4    0    0  0.15848359235E-01 -0.54287126643E-01 -0.65376891365E-02  0.56932109656E-01  0.51100000000E-03 0. -1.
</event>
<event>
 8    1  0.1145101E+005  0.1043930E+01  0.7957747E-01            NaN
         13   -1    0    0    0    0  0.00000000000E+00  0.00000000000E+00  0.74505805969E-08  0.10566000000E+00  0.10566000000E+00 0.  1.
     999900   -1    0    0    0    0 -0.00000000000E+00 -0.00000000000E+00 -0.74505805969E-08  0.93827000000E+00  0.93827000000E+00 0. -1.
     999902    2    1    2    0    0  0.37286023271E-02 -0.17603229882E-01  0.13712419926E-01  0.10213068561E+01  0.10210562608E+01 0.  0.
     999903    2    3    3    0    0 -0.49638346715E-01 -0.11989572385E+00  0.23676971169E-01  0.13371963347E+00  0.21940632421E-01 0.  0.
         14    1    1    2    0    0 -0.37286023271E-02  0.17603229882E-01 -0.13712419926E-01  0.22623143853E-01  0.00000000000E+00 0. -1.
     999901    1    3    3    0    0  0.53366949042E-01  0.10229249397E+00 -0.99645512429E-02  0.88758722267E+00  0.88000000000E+00 0.  1.
        -11    1    4    4    0    0 -0.21828593790E-01 -0.80101956604E-01  0.13530080825E-01  0.84119766802E-01  0.51100000000E-03 0. -1.
         11    1    4    4    0    0 -0.27809752926E-01 -0.39793767243E-01  0.10146890344E-01  0.49599866671E-01  0.51100000000E-03 0.  1.
</event>
<event>
 8    1  0.1145101E+005  0.1043930E+01  0.7957747E-01            NaN
         13   -1    0    0    0    0  0.00000000000E+00  0.00000000000E+00  0.74505805969E-08  0.10566000000E+00  0.10566000000E+00 0. -1.
     999900   -1    0    0    0    0 -0.00000000000E+00 -0.00000000000E+00 -0.74505805969E-08  0.93827000000E+00  0.93827000000E+00 0. -1.
     999902    2    1    2    0    0  0.16629303324E-01 -0.13566184376E-01  0.10398092755E-01  0.10200826643E+01  0.10198038765E+01 0.  0.
     999903    2    3    3    0    0  0.11274918584E+00 -0.48466980092E-01  0.48490473866E-01  0.13334249555E+00  0.19169454766E-01 0.  0.
         14    1    1    2    0    0 -0.16629303324E-01  0.13566184376E-01 -0.10398092755E-01  0.23847335711E-01  0.00000000000E+00 0.  1.
     999901    1    3    3    0    0 -0.96119882519E-01  0.34900795717E-01 -0.38092381112E-01  0.88674016874E+00  0.88000000000E+00 0. -1.
        -11    1    4    4    0    0  0.35439658909E-01 -0.14957606999E-01  0.24958758093E-01  0.45857389342E-01  0.51100000000E-03 0.  1.
         11    1    4    4    0    0  0.77309526935E-01 -0.33509373093E-01  0.23531715773E-01  0.87485106208E-01  0.51100000000E-03 0. -1.
</event>
<event>
 8    1  0.1145101E+005  0.1043930E+01  0.7957747E-01            NaN
         13   -1    0    0    0    0  0.00000000000E+00  0.00000000000E+00  0.74505805969E-08  0.10566000000E+00  0.10566000000E+00 0.  1.
     999900   -1    0    0    0    0 -0.00000000000E+00 -0.00000000000E+00 -0.74505805969E-08  0.93827000000E+00  0.93827000000E+00 0.  1.
     999902    2    1    2    0    0  0.11938026989E-01  0.13455358410E-01  0.14809524581E-01  0.10206301035E+01  0.10203641130E+01 0.  0.
     999903    2    3    3    0    0 -0.12135247725E+00  0.22071941648E-01  0.37136525548E-01  0.13027113152E+00  0.19438411340E-01 0.  0.
         14    1    1    2    0    0 -0.11938026989E-01 -0.13455358410E-01 -0.14809524581E-01  0.23299896495E-01  0.00000000000E+00 0. -1.
     999901    1    3    3    0    0  0.13329050424E+00 -0.86165832382E-02 -0.22327000966E-01  0.89035897199E+00  0.88000000000E+00 0.  1.
        -11    1    4    4    0    0 -0.47577524500E-01  0.18187312932E-01  0.16951337658E-01  0.53684338113E-01  0.51100000000E-03 0. -1.
         11    1    4    4    0    0 -0.73774952746E-01  0.38846287159E-02  0.20185187890E-01  0.76586793405E-01  0.51100000000E-03 0.  1.
</event>
<event>
 8    1  0.1145101E+005  0.1043930E+01  0.7957747E-01            NaN
         13   -1    0    0    0    0  0.00000000000E+00  0.00000000000E+00  0.74505805969E-08  0.10566000000E+00  0.10566000000E+00 0.  1.
     999900   -1    0    0    0    0 -0.00000000000E+00 -0.00000000000E+00 -0.74505805969E-08  0.93827000000E+00  0.93827000000E+00 0. -1.
     999902    2    1    2    0    0 -0.76009631337E-02  0.18525961236E-01 -0.10515433897E-01  0.10213123027E+01  0.10210618294E+01 0.  0.
     999903    2    3    3    0    0  0.11897282927E+00 -0.31928361281E-01 -0.37571520780E-01  0.13041466807E+00  0.20552666863E-01 0.  0.
         14    1    1    2    0    0  0.76009631337E-02 -0.18525961236E-01  0.10515433897E-01  0.22617697281E-01  0.00000000000E+00 0.  1.
     999901    1    3    3    0    0 -0.12657379241E+00  0.50454322517E-01  0.27056086883E-01  0.89089763465E+00  0.88000000000E+00 0.  1.
        -11    1    4    4    0    0  0.20396449227E-01 -0.87080741509E-02  0.58079166873E-03  0.22191082363E-01  0.51100000000E-03 0. -1.
         11    1    4    4    0    0  0.98576380045E-01 -0.23220287130E-01 -0.38152312449E-01  0.10822358571E+00  0.51100000000E-03 0.  1.
</event>
<event>
 8    1  0.1145101E+005  0.1043930E+01  0.7957747E-01            NaN
         13   -1    0    0    0    0  0.00000000000E+00  0.00000000000E+00  0.74505805969E-08  0.10566000000E+00  0.10566000000E+00 0.  1.
     999900   -1    0    0    0    0 -0.00000000000E+00 -0.00000000000E+00 -0.74505805969E-08  0.93827000000E+00  0.93827000000E+00 0. -1.
     999902    2    1    2    0    0 -0.19848929310E-01 -0.14690527599E-01 -0.15352142030E-01  0.10148528636E+01  0.10144362252E+01 0.  0.
     999903    2    3    3    0    0  0.50275416047E-01 -0.94254735339E-01 -0.65749607985E-01  0.12705345409E+00  0.20198927037E-01 0.  0.
         14    1    1    2    0    0  0.19848929310E-01  0.14690527599E-01  0.15352142030E-01  0.29077136393E-01  0.00000000000E+00 0.  1.
     999901    1    3    3    0    0 -0.70124345357E-01  0.79564207740E-01  0.50397465954E-01  0.88779940952E+00  0.88000000000E+00 0.  1.
        -11    1    4    4    0    0  0.79511140994E-02 -0.19499840351E-01 -0.22686293097E-01  0.30957923132E-01  0.51100000000E-03 0.  1.
         11    1    4    4    0    0  0.42324301948E-01 -0.74754894988E-01 -0.43063314888E-01  0.96095530958E-01  0.51100000000E-03 0. -1.
</event>
<event>
 8    1  0.1145101E+005  0.1043930E+01  0.7957747E-01            NaN
         13   -1    0    0    0    0  0.00000000000E+00  0.00000000000E+00  0.74505805969E-08  0.10566000000E+00  0.10566000000E+00 0. -1.
     999900   -1    0    0    0    0 -0.00000000000E+00 -0.00000000000E+00 -0.74505805969E-08  0.93827000000E+00  0.93827000000E+00 0.  1.
     999902    2    1    2    0    0 -0.16229858082E-01  0.14869823945E-01 -0.12018428710E-01  0.10188508735E+01  0.10185421640E+01 0.  0.
     999903    2    3    3    0    0 -0.11087206698E+00  0.39267500867E-01 -0.57273459668E-01  0.13228423067E+00  0.19603995506E-01 0.  0.
         14    1    1    2    0    0  0.16229858082E-01 -0.14869823945E-01  0.12018428710E-01  0.25079126504E-01  0.00000000000E+00 0.  1.
     999901    1    3    3    0    0  0.94642208903E-01 -0.24397676921E-01  0.45255030958E-01  0.88656664283E+00  0.88000000000E+00 0. -1.
        -11    1    4    4    0    0 -0.23134255522E-01  0.12045585855E-01 -0.21104730516E-01  0.33555337702E-01  0.51100000000E-03 0.  1.
         11    1    4    4    0    0 -0.87737811463E-01  0.27221915012E-01 -0.36168729152E-01  0.98728892968E-01  0.51100000000E-03 0. -1.
</event>
<event>
 8    1  0.1145101E+005  0.1043930E+01  0.7957747E-01            NaN
         13   -1    0    0    0    0  0.00000000000E+00  0.00000000000E+00  0.74505805969E-08  0.10566000000E+00  0.10566000000E+00 0.  1.
     999900   -1    0    0    0    0 -0.00000000000E+00 -0.00000000000E+00 -0.74505805969E-08  0.93827000000E+00  0.93827000000E+00 0. -1.
     999902    2    1    2    0    0 -0.17401232108E-01  0.79084017465E-02  0.94521452308E-02  0.10226065681E+01  0.10223842254E+01 0.  0.
     999903    2    3    3    0    0 -0.48667884910E-01 -0.10981448158E+00  0.53810905183E-01  0.13311009236E+00  0.19872085558E-01 0.  0.
         14    1    1    2    0    0  0.17401232108E-01 -0.79084017465E-02 -0.94521452308E-02  0.21323431866E-01  0.00000000000E+00 0.  1.
     999901    1    3    3    0    0  0.31266652802E-01  0.11772288333E+00 -0.44358759952E-01  0.88949647578E+00  0.88000000000E+00 0. -1.
        -11    1    4    4    0    0 -0.12999994274E-01 -0.32476346651E-01  0.25743189225E-01  0.43435997230E-01  0.51100000000E-03 0.  1.
         11    1    4    4    0    0 -0.35667890636E-01 -0.77338134929E-01  0.28067715958E-01  0.89674095127E-01  0.51100000000E-03 0. -1.
</event>
<event>
 8    1  0.1145101E+005  0.1043930E+01  0.7957747E-01            NaN
         13   -1    0    0    0    0  0.00000000000E+00  0.00000000000E+00  0.74505805969E-08  0.10566000000E+00  0.10566000000E+00 0. -1.
     999900   -1    0    0    0    0 -0.00000000000E+00 -0.00000000000E+00 -0.74505805969E-08  0.93827000000E+00  0.93827000000E+00 0. -1.
     999902    2    1    2    0    0 -0.18556445853E-01  0.14341501023E-01 -0.29262010330E-02  0.10202956397E+01  0.10200218671E+01 0.  0.
     999903    2    3    3    0    0 -0.78233073500E-01 -0.89566387807E-01  0.50400400936E-01  0.13057552881E+00  0.19162898918E-01 0.  0.
         14    1    1    2    0    0  0.18556445853E-01 -0.14341501023E-01  0.29262010330E-02  0.23634360300E-01  0.00000000000E+00 0.  1.
     999901    1    3    3    0    0  0.59676627646E-01  0.10390788883E+00 -0.53326601969E-01  0.88972011089E+00  0.88000000000E+00 0.  1.
        -11    1    4    4    0    0 -0.52367513676E-01 -0.60584284677E-01  0.23984336193E-01  0.83596181384E-01  0.51100000000E-03 0. -1.
         11    1    4    4    0    0 -0.25865559824E-01 -0.28982103130E-01  0.26416064743E-01  0.46979347423E-01  0.51100000000E-03 0.  1.
</event>
<event>
 8    1  0.1145101E+005  0.1043930E+01  0.7957747E-01            NaN
         13   -1    0    0    0    0  0.00000000000E+00  0.00000000000E+00  0.74505805969E-08  0.10566000000E+00  0.10566000000E+00 0. -1.
     999900   -1    0    0    0    0 -0.00000000000E+00 -0.00000000000E+00 -0.74505805969E-08  0.93827000000E+00  0.93827000000E+00 0.  1.
     999902    2    1    2    0    0 -0.19133540693E-01  0.13953154913E-01  0.26936312894E-02  0.10200964404E+01  0.10198179785E+01 0.  0.
     999903    2    3    3    0    0 -0.32611933646E-01  0.10085329725E+00  0.77053151357E-01  0.13259284043E+00  0.20217502723E-01 0.  0.
         14    1    1    2    0    0  0.19133540693E-01 -0.13953154913E-01 -0.26936312894E-02  0.23833559553E-01  0.00000000000E+00 0.  1.
     999901    1    3    3    0    0  0.13478392954E-01 -0.86900142342E-01 -0.74359520068E-01  0.88750360002E+00  0.88000000000E+00 0. -1.
        -11    1    4    4    0    0 -0.13209305483E-01  0.29538082025E-01  0.34529100151E-01  0.47323397165E-01  0.51100000000E-03 0.  1.
         11    1    4    4    0    0 -0.19402628163E-01  0.71315215230E-01  0.42524051206E-01  0.85269443266E-01  0.51100000000E-03 0. -1.
</event>
<event>
 8    1  0.1145101E+005  0.1043930E+01  0.7957747E-01            NaN
         13   -1    0    0    0    0  0.00000000000E+00  0.00000000000E+00  0.74505805969E-08  0.10566000000E+00  0.10566000000E+00 0. -1.
     999900   -1    0    0    0    0 -0.00000000000E+00 -0.00000000000E+00 -0.74505805969E-08  0.93827000000E+00  0.93827000000E+00 0.  1.
     999902    2    1    2    0    0 -0.47482636448E-02  0.13963959738E-01 -0.20743425413E-01  0.10184775369E+01  0.10181594499E+01 0.  0.
     999903    2    3    3    0    0  0.63269652539E-01 -0.54445491612E-01  0.92304242153E-01  0.12601685705E+00  0.19819552298E-01 0.  0.
         14    1    1    2    0    0  0.47482636448E-02 -0.13963959738E-01  0.20743425413E-01  0.25452463084E-01  0.00000000000E+00 0.  1.
     999901    1    3    3    0    0 -0.68017916184E-01  0.68409451350E-01 -0.11304766757E+00  0.89246067986E+00  0.88000000000E+00 0.  1.
        -11    1    4    4    0    0  0.41188939331E-01 -0.29364245575E-01  0.67721200476E-01  0.84529342576E-01  0.51100000000E-03 0. -1.
         11    1    4    4    0    0  0.22080713208E-01 -0.25081246037E-01  0.24583041676E-01  0.41487514479E-01  0.51100000000E-03 0.  1.
</event>
<event>
 7    1  0.1145101E+005  0.1043930E+01  0.7957747E-01            NaN
         13   -1    0    0    0    0  0.00000000000E+00  0.00000000000E+00  0.74505805969E-08  0.10566000000E+00  0.10566000000E+00 0. -1.
     999900   -1    0    0    0    0 -0.00000000000E+00 -0.00000000000E+00 -0.74505805969E-08  0.93827000000E+00  0.93827000000E+00 0.  1.
     999903    2    1    2    0    0 -0.45986780070E-01  0.75336216855E-01  0.18468772807E-01  0.92373950586E-01  0.20038005554E-01 0.  0.
         14    1    1    2    0    0 -0.41671307373E-01 -0.40738165039E-01  0.29317971360E-01  0.65235261888E-01  0.00000000000E+00 0. -1.
     999901    1    1    2    0    0  0.87658087443E-01 -0.34598051816E-01 -0.47786744167E-01  0.88632078753E+00  0.88000000000E+00 0.  1.
        -11    1    3    3    0    0 -0.25477544637E-01  0.55921274581E-01  0.18325035857E-01  0.64127702997E-01  0.51100000000E-03 0.  1.
         11    1    3    3    0    0 -0.20509235433E-01  0.19414942274E-01  0.14373695010E-03  0.28246247589E-01  0.51100000000E-03 0. -1.
</event>
<event>
 8    1  0.1345586E+005  0.1043930E+01  0.7957747E-01            NaN
         13   -1    0    0    0    0  0.00000000000E+00  0.00000000000E+00  0.74505805969E-08  0.10566000000E+00  0.10566000000E+00 0.  1.
     999900   -1    0    0    0    0 -0.00000000000E+00 -0.00000000000E+00 -0.74505805969E-08  0.93827000000E+00  0.93827000000E+00 0. -1.
     999902    2    1    2    0    0  0.12039110831E-01 -0.18855550831E-01 -0.10612575131E-01  0.10191691693E+01  0.10188683413E+01 0.  0.
     999903    2    3    3    0    0  0.72884903973E-01  0.31915220148E-01 -0.10173283490E+00  0.13092214088E+00  0.21453362707E-01 0.  0.
         14    1    1    2    0    0 -0.12039110831E-01  0.18855550831E-01  0.10612575131E-01  0.24760830714E-01  0.00000000000E+00 0. -1.
     999901    1    3    3    0    0 -0.60845793142E-01 -0.50770770979E-01  0.91120259771E-01  0.88824702840E+00  0.88000000000E+00 0.  1.
        -11    1    4    4    0    0  0.40828954174E-01  0.75369032729E-02 -0.43680993401E-01  0.60266895684E-01  0.51100000000E-03 0.  1.
         11    1    4    4    0    0  0.32055949798E-01  0.24378316875E-01 -0.58051841501E-01  0.70655245197E-01  0.51100000000E-03 0. -1.
</event>
<event>
 8    1  0.1145101E+005  0.1043930E+01  0.7957747E-01            NaN
         13   -1    0    0    0    0  0.00000000000E+00  0.00000000000E+00  0.74505805969E-08  0.10566000000E+00  0.10566000000E+00 0.  1.
     999900   -1    0    0    0    0 -0.00000000000E+00 -0.00000000000E+00 -0.74505805969E-08  0.93827000000E+00  0.93827000000E+00 0.  1.
     999902    2    1    2    0    0  0.12793805260E-02 -0.11208721479E-01 -0.20169968672E-01  0.10208193988E+01  0.10205577618E+01 0.  0.
     999903    2    3    3    0    0  0.12407575158E+00  0.20692285502E-01 -0.32655213988E-01  0.13163297046E+00  0.20926373374E-01 0.  0.
         14    1    1    2    0    0 -0.12793805260E-02  0.11208721479E-01  0.20169968672E-01  0.23110601203E-01  0.00000000000E+00 0.  1.
     999901    1    3    3    0    0 -0.12279637105E+00 -0.31901006982E-01  0.12485245315E-01  0.88918642834E+00  0.88000000000E+00 0. -1.
        -11    1    4    4    0    0  0.46590777756E-01  0.18107345812E-01 -0.12808825515E-01  0.51603330090E-01  0.51100000000E-03 0. -1.
         11    1    4    4    0    0  0.77484973821E-01  0.25849396901E-02 -0.19846388473E-01  0.80029640369E-01  0.51100000000E-03 0.  1.
</event>
<event>
 8    1  0.1145101E+005  0.1043930E+01  0.7957747E-01            NaN
         13   -1    0    0    0    0  0.00000000000E+00  0.00000000000E+00  0.74505805969E-08  0.10566000000E+00  0.10566000000E+00 0.  1.
     999900   -1    0    0    0    0 -0.00000000000E+00 -0.00000000000E+00 -0.74505805969E-08  0.93827000000E+00  0.93827000000E+00 0. -1.
     999902    2    1    2    0    0 -0.22925064992E-01 -0.39877869959E-02  0.82418857534E-02  0.10192441796E+01  0.10189451937E+01 0.  0.
     999903    2    3    3    0    0  0.14170758262E-01 -0.12568085618E+00  0.22264222232E-01  0.12998497713E+00  0.20097529401E-01 0.  0.
         14    1    1    2    0    0  0.22925064992E-01  0.39877869959E-02 -0.82418857534E-02  0.24685820440E-01  0.00000000000E+00 0. -1.
     999901    1    3    3    0    0 -0.37095823254E-01  0.12169306918E+00 -0.14022336479E-01  0.88925920243E+00  0.88000000000E+00 0. -1.
        -11    1    4    4    0    0  0.33534034572E-03 -0.48745469525E-01  0.17031679472E-01  0.51638865973E-01  0.51100000000E-03 0. -1.
         11    1    4    4    0    0  0.13835417916E-01 -0.76935386653E-01  0.52325427606E-02  0.78346111155E-01  0.51100000000E-03 0.  1.
</event>
<event>
 8    1  0.1145101E+005  0.1043930E+01  0.7957747E-01            NaN
         13   -1    0    0    0    0  0.00000000000E+00  0.00000000000E+00  0.74505805969E-08  0.10566000000E+00  0.10566000000E+00 0.  1.
     999900   -1    0    0    0    0 -0.00000000000E+00 -0.00000000000E+00 -0.74505805969E-08  0.93827000000E+00  0.93827000000E+00 0. -1.
     999902    2    1    2    0    0 -0.10498695252E-01 -0.74632721634E-02  0.20275554561E-01  0.10199087355E+01  0.10196258175E+01 0.  0.
     999903    2    3    3    0    0 -0.45747984999E-01 -0.17824258668E-01  0.12237683563E+00  0.13324389804E+00  0.19164136724E-01 0.  0.
         14    1    1    2    0    0  0.10498695252E-01  0.74632721634E-02 -0.20275554561E-01  0.24021264458E-01  0.00000000000E+00 0. -1.
     999901    1    3    3    0    0  0.35249289747E-01  0.10360986505E-01 -0.10210128107E+00  0.88666483750E+00  0.88000000000E+00 0. -1.
        -11    1    4    4    0    0 -0.22375533064E-01 -0.93982174966E-02  0.84700821236E-01  0.88110619173E-01  0.51100000000E-03 0.  1.
         11    1    4    4    0    0 -0.23372451936E-01 -0.84260411719E-02  0.37676014397E-01  0.45133278866E-01  0.51100000000E-03 0. -1.
</event>
<event>
 8    1  0.1145101E+005  0.1043930E+01  0.7957747E-01            NaN
         13   -1    0    0    0    0  0.00000000000E+00  0.00000000000E+00  0.74505805969E-08  0.10566000000E+00  0.10566000000E+00 0. -1.
     999900   -1    0    0    0    0 -0.00000000000E+00 -0.00000000000E+00 -0.74505805969E-08  0.93827000000E+00  0.93827000000E+00 0. -1.
     999902    2    1    2    0    0 -0.16994499554E-02  0.91594673250E-03 -0.20308864040E-01  0.10235295822E+01  0.10233262571E+01 0.  0.
     999903    2    3    3    0    0  0.45703121595E-01  0.16237350095E-01  0.12000355955E+00  0.13102225705E+00  0.20335945419E-01 0.  0.
         14    1    1    2    0    0  0.16994499554E-02 -0.91594673250E-03  0.20308864040E-01  0.20400417819E-01  0.00000000000E+00 0. -1.
     999901    1    3    3    0    0 -0.47402571551E-01 -0.15321403363E-01 -0.14031242360E+00  0.89250732513E+00  0.88000000000E+00 0. -1.
        -11    1    4    4    0    0  0.38323459833E-01  0.82825094547E-02  0.73925900282E-01  0.83681463837E-01  0.51100000000E-03 0.  1.
         11    1    4    4    0    0  0.73796617623E-02  0.79548406405E-02  0.46077659273E-01  0.47340793217E-01  0.51100000000E-03 0. -1.
</event>
<event>
 8    1  0.1145101E+005  0.1043930E+01  0.7957747E-01            NaN
         13   -1    0    0    0    0  0.00000000000E+00  0.00000000000E+00  0.74505805969E-08  0.10566000000E+00  0.10566000000E+00 0. -1.
     999900   -1    0    0    0    0 -0.00000000000E+00 -0.00000000000E+00 -0.74505805969E-08  0.93827000000E+00  0.93827000000E+00 0. -1.
     999902    2    1    2    0    0 -0.98485542091E-02 -0.23498431909E-02 -0.21663924902E-01  0.10200167939E+01  0.10197364456E+01 0.  0.
     999903    2    3    3    0    0 -0.29002003627E-01 -0.56053186502E-01  0.11022966790E+00  0.12836281197E+00  0.18529864526E-01 0.  0.
         14    1    1    2    0    0  0.98485542091E-02  0.23498431909E-02  0.21663924902E-01  0.23913206083E-01  0.00000000000E+00 0. -1.
     999901    1    3    3    0    0  0.19153449418E-01  0.53703343311E-01 -0.13189359280E+00  0.89165398195E+00  0.88000000000E+00 0. -1.
        -11    1    4    4    0    0 -0.21382222747E-01 -0.34948113690E-01  0.86424726043E-01  0.95645514755E-01  0.51100000000E-03 0.  1.
         11    1    4    4    0    0 -0.76197808802E-02 -0.21105072812E-01  0.23804941855E-01  0.32717297211E-01  0.51100000000E-03 0. -1.
</event>
<event>
 8    1  0.1145101E+005  0.1043930E+01  0.7957747E-01            NaN
         13   -1    0    0    0    0  0.00000000000E+00  0.00000000000E+00  0.74505805969E-08  0.10566000000E+00  0.10566000000E+00 0.  1.
     999900   -1    0    0    0    0 -0.00000000000E+00 -0.00000000000E+00 -0.74505805969E-08  0.93827000000E+00  0.93827000000E+00 0.  1.
     999902    2    1    2    0    0 -0.29081664025E-02  0.95956719273E-02 -0.21036055117E-01  0.10206265675E+01  0.10203604953E+01 0.  0.
     999903    2    3    3    0    0  0.37851360455E-01  0.12418750193E+00 -0.16019615140E-01  0.13224726157E+00  0.19428046710E-01 0.  0.
         14    1    1    2    0    0  0.29081664025E-02 -0.95956719273E-02  0.21036055117E-01  0.23303432504E-01  0.00000000000E+00 0.  1.
     999901    1    3    3    0    0 -0.40759526858E-01 -0.11459183000E+00 -0.50164399774E-02  0.88837930593E+00  0.88000000000E+00 0.  1.
        -11    1    4    4    0    0  0.16131361956E-01  0.66864503151E-01  0.39379092317E-03  0.68785891086E-01  0.51100000000E-03 0.  1.
         11    1    4    4    0    0  0.21719998499E-01  0.57322998779E-01 -0.16413406063E-01  0.63461370481E-01  0.51100000000E-03 0. -1.
</event>
<event>
 8    1  0.1145101E+005  0.1043930E+01  0.7957747E-01            NaN
         13   -1    0    0    0    0  0.00000000000E+00  0.00000000000E+00  0.74505805969E-08  0.10566000000E+00  0.10566000000E+00 0. -1.
     999900   -1    0    0    0    0 -0.00000000000E+00 -0.00000000000E+00 -0.74505805969E-08  0.93827000000E+00  0.93827000000E+00 0.  1.
     999902    2    1    2    0    0  0.28008751733E-02  0.16025477502E-01 -0.19084718386E-01  0.10188523744E+01  0.10185437023E+01 0.  0.
     999903    2    3    3    0    0  0.28400165435E-01 -0.82345128157E-01 -0.94106965755E-01  0.12983019394E+00  0.20309326081E-01 0.  0.
         14    1    1    2    0    0 -0.28008751733E-02 -0.16025477502E-01  0.19084718386E-01  0.25077625621E-01  0.00000000000E+00 0. -1.
     999901    1    3    3    0    0 -0.25599290262E-01  0.98370605659E-01  0.75022247369E-01  0.88902218044E+00  0.88000000000E+00 0. -1.
        -11    1    4    4    0    0  0.97192576408E-02 -0.53605158015E-01 -0.65373107329E-01  0.85099243345E-01  0.51100000000E-03 0.  1.
         11    1    4    4    0    0  0.18680907795E-01 -0.28739970142E-01 -0.28733858426E-01  0.44730950592E-01  0.51100000000E-03 0. -1.
</event>
<event>
 8    1  0.1145101E+005  0.1043930E+01  0.7957747E-01            NaN
         13   -1    0    0    0    0  0.00000000000E+00  0.00000000000E+00  0.74505805969E-08  0.10566000000E+00  0.10566000000E+00 0.  1.
     999900   -1    0    0    0    0 -0.00000000000E+00 -0.00000000000E+00 -0.74505805969E-08  0.93827000000E+00  0.93827000000E+00 0.  1.
     999902    2    1    2    0    0 -0.59709391590E-02  0.34738831836E-02 -0.22901245212E-01  0.10200095692E+01  0.10197290494E+01 0.  0.
     999903    2    3    3    0    0 -0.86592850248E-01  0.93986235120E-01 -0.25134506711E-01  0.13169804394E+00  0.19516588942E-01 0.  0.
         14    1    1    2    0    0  0.59709391590E-02 -0.34738831836E-02  0.22901245212E-01  0.23920430829E-01  0.00000000000E+00 0.  1.
     999901    1    3    3    0    0  0.80621911089E-01 -0.90512351937E-01  0.22332614993E-02  0.88831152523E+00  0.88000000000E+00 0. -1.
        -11    1    4    4    0    0 -0.77346922875E-01  0.83190097776E-01 -0.15803733728E-01  0.11468721798E+00  0.51100000000E-03 0.  1.
         11    1    4    4    0    0 -0.92459273725E-02  0.10796137344E-01 -0.93307729827E-02  0.17010825964E-01  0.51100000000E-03 0. -1.
</event>
<event>
 8    1  0.1145101E+005  0.1043930E+01  0.7957747E-01            NaN
         13   -1    0    0    0    0  0.00000000000E+00  0.00000000000E+00  0.74505805969E-08  0.10566000000E+00  0.10566000000E+00 0. -1.
     999900   -1    0    0    0    0 -0.00000000000E+00 -0.00000000000E+00 -0.74505805969E-08  0.93827000000E+00  0.93827000000E+00 0. -1.
     999902    2    1    2    0    0 -0.65042393357E-02  0.20784312827E-01  0.94150245836E-02  0.10202037387E+01  0.10199278077E+01 0.  0.
     999903    2    3    3    0    0  0.90542638026E-01  0.62371373031E-01 -0.65967817566E-01  0.13069255106E+00  0.25310718558E-01 0.  0.
         14    1    1    2    0    0  0.65042393357E-02 -0.20784312827E-01 -0.94150245836E-02  0.23726261335E-01  0.00000000000E+00 0.  1.
     999901    1    3    3    0    0 -0.97046877361E-01 -0.41587060204E-01  0.75382842150E-01  0.88951118760E+00  0.88000000000E+00 0.  1.
        -11    1    4    4    0    0  0.29426921405E-01  0.30657719469E-01 -0.15163006308E-01  0.45122248921E-01  0.51100000000E-03 0.  1.
         11    1    4    4    0    0  0.61115716621E-01  0.31713653563E-01 -0.50804811258E-01  0.85570302140E-01  0.51100000000E-03 0. -1.
</event>
<event>
 8    1  0.1706759E+005  0.1043930E+01  0.7957747E-01            NaN
         13   -1    0    0    0    0  0.00000000000E+00  0.00000000000E+00  0.74505805969E-08  0.10566000000E+00  0.10566000000E+00 0. -1.
     999900   -1    0    0    0    0 -0.00000000000E+00 -0.00000000000E+00 -0.74505805969E-08  0.93827000000E+00  0.93827000000E+00 0. -1.
     999902    2    1    2    0    0  0.12852608742E-01 -0.48576524794E-02  0.20900711237E-01  0.10189174817E+01  0.10186104302E+01 0.  0.
     999903    2    3    3    0    0 -0.17645939173E-01  0.32055817983E-02 -0.12340348849E+00  0.12660650500E+00  0.21889066038E-01 0.  0.
         14    1    1    2    0    0 -0.12852608742E-01  0.48576524794E-02 -0.20900711237E-01  0.25012518252E-01  0.00000000000E+00 0.  1.
     999901    1    3    3    0    0  0.30498547915E-01 -0.80632342777E-02  0.14430419973E+00  0.89231097675E+00  0.88000000000E+00 0.  1.
        -11    1    4    4    0    0 -0.16229428955E-01 -0.71429997874E-02 -0.72347060054E-01  0.74490100212E-01  0.51100000000E-03 0. -1.
         11    1    4    4    0    0 -0.14165102185E-02  0.10348581586E-01 -0.51056428437E-01  0.52116404785E-01  0.51100000000E-03 0.  1.
</event>
<event>
 8    1  0.1145101E+005  0.1043930E+01  0.7957747E-01            NaN
         13   -1    0    0    0    0  0.00000000000E+00  0.00000000000E+00  0.74505805969E-08  0.10566000000E+00  0.10566000000E+00 0.  1.
     999900   -1    0    0    0    0 -0.00000000000E+00 -0.00000000000E+00 -0.74505805969E-08  0.93827000000E+00  0.93827000000E+00 0.  1.
     999902    2    1    2    0    0 -0.23211918241E-01 -0.12006260485E-02  0.42693919131E-02  0.10202981918E+01  0.10200244790E+01 0.  0.
     999903    2    3    3    0    0 -0.11035642087E+00  0.44650007788E-01  0.55871979269E-01  0.13330367548E+00  0.21818089002E-01 0.  0.
         14    1    1    2    0    0  0.23211918241E-01  0.12006260485E-02 -0.42693919131E-02  0.23631808197E-01  0.00000000000E+00 0. -1.
     999901    1    3    3    0    0  0.87144502626E-01 -0.45850633837E-01 -0.51602587355E-01  0.88699451632E+00  0.88000000000E+00 0.  1.
        -11    1    4    4    0    0 -0.68215908062E-01  0.35049233626E-01  0.26930611747E-01  0.81285778957E-01  0.51100000000E-03 0. -1.
         11    1    4    4    0    0 -0.42140512805E-01  0.96007741619E-02  0.28941367521E-01  0.52017896525E-01  0.51100000000E-03 0.  1.
</event>
<event>
 8    1  0.1145101E+005  0.1043930E+01  0.7957747E-01            NaN
         13   -1    0    0    0    0  0.00000000000E+00  0.00000000000E+00  0.74505805969E-08  0.10566000000E+00  0.10566000000E+00 0.  1.
     999900   -1    0    0    0    0 -0.00000000000E+00 -0.00000000000E+00 -0.74505805969E-08  0.93827000000E+00  0.93827000000E+00 0.  1.
     999902    2    1    2    0    0 -0.19871658316E-01  0.76396899237E-02 -0.51927126024E-02  0.10220162616E+01  0.10217813010E+01 0.  0.
     999903    2    3    3    0    0  0.73429454369E-01  0.10324622085E+00 -0.29411454737E-01  0.13160497806E+00  0.20079085959E-01 0.  0.
         14    1    1    2    0    0  0.19871658316E-01 -0.76396899237E-02  0.51927126024E-02  0.21913738397E-01  0.00000000000E+00 0.  1.
     999901    1    3    3    0    0 -0.93301112684E-01 -0.95606530926E-01  0.24218742134E-01  0.89041128354E+00  0.88000000000E+00 0. -1.
        -11    1    4    4    0    0  0.33457175465E-01  0.64161405891E-01 -0.15947632019E-01  0.74098965472E-01  0.51100000000E-03 0. -1.
         11    1    4    4    0    0  0.39972278903E-01  0.39084814959E-01 -0.13463822718E-01  0.57506012592E-01  0.51100000000E-03 0.  1.
</event>
<event>
 8    1  0.1145101E+005  0.1043930E+01  0.7957747E-01            NaN
         13   -1    0    0    0    0  0.00000000000E+00  0.00000000000E+00  0.74505805969E-08  0.10566000000E+00  0.10566000000E+00 0.  1.
     999900   -1    0    0    0    0 -0.00000000000E+00 -0.00000000000E+00 -0.74505805969E-08  0.93827000000E+00  0.93827000000E+00 0. -1.
     999902    2    1    2    0    0 -0.81364619527E-02  0.21625199614E-01  0.40361966522E-02  0.10204748906E+01  0.10202053030E+01 0.  0.
     999903    2    3    3    0    0 -0.99049357439E-01  0.24604239426E-01 -0.80922470489E-01  0.13171620328E+00  0.19610409727E-01 0.  0.
         14    1    1    2    0    0  0.81364619527E-02 -0.21625199614E-01 -0.40361966522E-02  0.23455109356E-01  0.00000000000E+00 0.  1.
     999901    1    3    3    0    0  0.90912895486E-01 -0.29790398119E-02  0.84958667141E-01  0.88875868736E+00  0.88000000000E+00 0.  1.
        -11    1    4    4    0    0 -0.29728759185E-01  0.11569721057E-02 -0.31956454458E-01  0.43664789129E-01  0.51100000000E-03 0.  1.
         11    1    4    4    0    0 -0.69320598254E-01  0.23447267321E-01 -0.48966016031E-01  0.88051414151E-01  0.51100000000E-03 0. -1.
</event>
<event>
 8    1  0.1145101E+005  0.1043930E+01  0.7957747E-01            NaN
         13   -1    0    0    0    0  0.00000000000E+00  0.00000000000E+00  0.74505805969E-08  0.10566000000E+00  0.10566000000E+00 0.  1.
     999900   -1    0    0    0    0 -0.00000000000E+00 -0.00000000000E+00 -0.74505805969E-08  0.93827000000E+00  0.93827000000E+00 0. -1.
     999902    2    1    2    0    0  0.13938571824E-01  0.18580223760E-01  0.12739490641E-02  0.10206677678E+01  0.10204026464E+01 0.  0.
     999903    2    3    3    0    0 -0.33499205527E-01 -0.11437432152E+00  0.43780065213E-01  0.12840434050E+00  0.19165029532E-01 0.  0.
         14    1    1    2    0    0 -0.13938571824E-01 -0.18580223760E-01 -0.12739490641E-02  0.23262232173E-01  0.00000000000E+00 0.  1.
     999901    1    3    3    0    0  0.47437777351E-01  0.13295454528E+00 -0.42506116149E-01  0.89226342732E+00  0.88000000000E+00 0. -1.
        -11    1    4    4    0    0 -0.18712871486E-01 -0.43782349687E-01  0.95352065548E-02  0.48561785268E-01  0.51100000000E-03 0.  1.
         11    1    4    4    0    0 -0.14786334041E-01 -0.70591971828E-01  0.34244858658E-01  0.79842555235E-01  0.51100000000E-03 0. -1.
</event>
<event>
 8    1  0.1145101E+005  0.1043930E+01  0.7957747E-01            NaN
         13   -1    0    0    0    0  0.00000000000E+00  0.00000000000E+00  0.74505805969E-08  0.10566000000E+00  0.10566000000E+00 0. -1.
     999900   -1    0    0    0    0 -0.00000000000E+00 -0.00000000000E+00 -0.74505805969E-08  0.93827000000E+00  0.93827000000E+00 0. -1.
     999902    2    1    2    0    0  0.37676447062E-02 -0.45461280358E-02  0.25465881374E-01  0.10177885857E+01  0.10174528155E+01 0.  0.
     999903    2    3    3    0    0 -0.12433012453E+00  0.18961565872E-01 -0.71617037234E-02  0.12760534083E+00  0.20354659498E-01 0.  0.
         14    1    1    2    0    0 -0.37676447062E-02  0.45461280358E-02 -0.25465881374E-01  0.26141414287E-01  0.00000000000E+00 0.  1.
     999901    1    3    3    0    0  0.12809776924E+00 -0.23507693907E-01  0.32627585097E-01  0.89018324488E+00  0.88000000000E+00 0.  1.
        -11    1    4    4    0    0 -0.44777965004E-01  0.57348000050E-02 -0.12311656203E-01  0.46795214291E-01  0.51100000000E-03 0. -1.
         11    1    4    4    0    0 -0.79552159525E-01  0.13226765867E-01  0.51499524800E-02  0.80810126543E-01  0.51100000000E-03 0.  1.
</event>
<event>
 8    1  0.1145101E+005  0.1043930E+01  0.7957747E-01            NaN
         13   -1    0    0    0    0  0.00000000000E+00  0.00000000000E+00  0.74505805969E-08  0.10566000000E+00  0.10566000000E+00 0. -1.
     999900   -1    0    0    0    0 -0.00000000000E+00 -0.00000000000E+00 -0.74505805969E-08  0.93827000000E+00  0.93827000000E+00 0. -1.
     999902    2    1    2    0    0 -0.18208353131E-01  0.70531081208E-02  0.13628273859E-01  0.10201178118E+01  0.10198398549E+01 0.  0.
     999903    2    3    3    0    0  0.72795477776E-01 -0.10172698453E+00 -0.23016196641E-01  0.12800928533E+00  0.14459282771E-01 0.  0.
         14    1    1    2    0    0  0.18208353131E-01 -0.70531081208E-02 -0.13628273859E-01  0.23812188188E-01  0.00000000000E+00 0.  1.
     999901    1    3    3    0    0 -0.91003830907E-01  0.10878009265E+00  0.36644470500E-01  0.89210852648E+00  0.88000000000E+00 0.  1.
        -11    1    4    4    0    0  0.21284039721E-01 -0.36469988047E-01 -0.21129823263E-02  0.42282338988E-01  0.51100000000E-03 0.  1.
         11    1    4    4    0    0  0.51511438055E-01 -0.65256996481E-01 -0.20903214315E-01  0.85726946346E-01  0.51100000000E-03 0. -1.
</event>
<event>
 8    1  0.1941544E+005  0.1043930E+01  0.7957747E-01            NaN
         13   -1    0    0    0    0  0.00000000000E+00  0.00000000000E+00  0.74505805969E-08  0.10566000000E+00  0.10566000000E+00 0.  1.
     999900   -1    0    0    0    0 -0.00000000000E+00 -0.00000000000E+00 -0.74505805969E-08  0.93827000000E+00  0.93827000000E+00 0. -1.
     999902    2    1    2    0    0 -0.70085598129E-02  0.28046143726E-02  0.22649118553E-01  0.10200559902E+01  0.10197765710E+01 0.  0.
     999903    2    3    3    0    0 -0.68915720212E-02  0.28514951923E-01 -0.12261215959E+00  0.12777695646E+00  0.20799343123E-01 0.  0.
         14    1    1    2    0    0  0.70085598129E-02 -0.28046143726E-02 -0.22649118553E-01  0.23874009794E-01  0.00000000000E+00 0. -1.
     999901    1    3    3    0    0 -0.11698779171E-03 -0.25710337551E-01  0.14526127814E+00  0.89227903375E+00  0.88000000000E+00 0.  1.
        -11    1    4    4    0    0  0.72103620013E-02  0.12850891633E-01 -0.45117172071E-01  0.47465303883E-01  0.51100000000E-03 0.  1.
         11    1    4    4    0    0 -0.14101934023E-01  0.15664060291E-01 -0.77494987516E-01  0.80311652574E-01  0.51100000000E-03 0. -1.
</event>
<event>
 8    1  0.1145101E+005  0.1043930E+01  0.7957747E-01            NaN
         13   -1    0    0    0    0  0.00000000000E+00  0.00000000000E+00  0.74505805969E-08  0.10566000000E+00  0.10566000000E+00 0. -1.
     999900   -1    0    0    0    0 -0.00000000000E+00 -0.00000000000E+00 -0.74505805969E-08  0.93827000000E+00  0.93827000000E+00 0.  1.
     999902    2    1    2    0    0  0.69133340241E-02  0.14882330711E-01  0.16744241944E-01  0.10204854357E+01  0.10202160933E+01 0.  0.
     999903    2    3    3    0    0 -0.47318987068E-01  0.96129760056E-01  0.76388970279E-01  0.13307359052E+00  0.19831500417E-01 0.  0.
         14    1    1    2    0    0 -0.69133340241E-02 -0.14882330711E-01 -0.16744241944E-01  0.23444564253E-01  0.00000000000E+00 0.  1.
     999901    1    3    3    0    0  0.54232321092E-01 -0.81247429344E-01 -0.59644728335E-01  0.88741184522E+00  0.88000000000E+00 0.  1.
        -11    1    4    4    0    0 -0.15700818953E-01  0.49414325688E-01  0.44137718829E-01  0.68093249618E-01  0.51100000000E-03 0. -1.
         11    1    4    4    0    0 -0.31618168114E-01  0.46715434367E-01  0.32251251450E-01  0.64980340905E-01  0.51100000000E-03 0.  1.
</event>
<event>
 8    1  0.1145101E+005  0.1043930E+01  0.7957747E-01            NaN
         13   -1    0    0    0    0  0.00000000000E+00  0.00000000000E+00  0.74505805969E-08  0.10566000000E+00  0.10566000000E+00 0.  1.
     999900   -1    0    0    0    0 -0.00000000000E+00 -0.00000000000E+00 -0.74505805969E-08  0.93827000000E+00  0.93827000000E+00 0.  1.
     999902    2    1    2    0    0  0.69963893857E-02 -0.49691473333E-02 -0.21721229567E-01  0.10205750497E+01  0.10203077861E+01 0.  0.
     999903    2    3    3    0    0  0.84057753636E-01  0.72899225112E-01 -0.69174443488E-01  0.13251325861E+00  0.19865978614E-01 0.  0.
         14    1    1    2    0    0 -0.69963893857E-02  0.49691473333E-02  0.21721229567E-01  0.23354950301E-01  0.00000000000E+00 0.  1.
     999901    1    3    3    0    0 -0.77061364251E-01 -0.77868372445E-01  0.47453213921E-01  0.88806179109E+00  0.88000000000E+00 0. -1.
        -11    1    4    4    0    0  0.82106792640E-01  0.70709343334E-01 -0.70479043209E-01  0.12926288441E+00  0.51100000000E-03 0. -1.
         11    1    4    4    0    0  0.19509609960E-02  0.21898817779E-02  0.13045997208E-02  0.32503742001E-02  0.51100000000E-03 0.  1.
</event>
<event>
 8    1  0.1145101E+005  0.1043930E+01  0.7957747E-01            NaN
         13   -1    0    0    0    0  0.00000000000E+00  0.00000000000E+00  0.74505805969E-08  0.10566000000E+00  0.10566000000E+00 0. -1.
     999900   -1    0    0    0    0 -0.00000000000E+00 -0.00000000000E+00 -0.74505805969E-08  0.93827000000E+00  0.93827000000E+00 0. -1.
     999902    2    1    2    0    0 -0.31137830415E-02  0.13226014771E-01  0.18927944218E-01  0.10206299961E+01  0.10203640030E+01 0.  0.
     999903    2    3    3    0    0 -0.51213239905E-01 -0.10346568441E+00 -0.53216685366E-01  0.12870210772E+00  0.20106544669E-01 0.  0.
         14    1    1    2    0    0  0.31137830415E-02 -0.13226014771E-01 -0.18927944218E-01  0.23300003946E-01  0.00000000000E+00 0.  1.
     999901    1    3    3    0    0  0.48099456863E-01  0.11669169918E+00  0.72144629584E-01  0.89192788833E+00  0.88000000000E+00 0.  1.
        -11    1    4    4    0    0 -0.74878753104E-02 -0.23792956040E-01 -0.37523104550E-02  0.25229228854E-01  0.51100000000E-03 0. -1.
         11    1    4    4    0    0 -0.43725364595E-01 -0.79672728370E-01 -0.49464374911E-01  0.10347287887E+00  0.51100000000E-03 0.  1.
</event>
<event>
 8    1  0.1145101E+005  0.1043930E+01  0.7957747E-01            NaN
         13   -1    0    0    0    0  0.00000000000E+00  0.00000000000E+00  0.74505805969E-08  0.10566000000E+00  0.10566000000E+00 0. -1.
     999900   -1    0    0    0    0 -0.00000000000E+00 -0.00000000000E+00 -0.74505805969E-08  0.93827000000E+00  0.93827000000E+00 0. -1.
     999902    2    1    2    0    0  0.18050996946E-01  0.64942695196E-03 -0.14803241731E-01  0.10205762806E+01  0.10203090454E+01 0.  0.
     999903    2    3    3    0    0  0.12507329843E-01  0.32056835828E-01  0.12296127534E+00  0.12928720302E+00  0.20288706387E-01 0.  0.
         14    1    1    2    0    0 -0.18050996946E-01 -0.64942695196E-03  0.14803241731E-01  0.23353719444E-01  0.00000000000E+00 0. -1.
     999901    1    3    3    0    0  0.55436671033E-02 -0.31407408876E-01 -0.13776451707E+00  0.89128907754E+00  0.88000000000E+00 0. -1.
        -11    1    4    4    0    0  0.93491488088E-02  0.24625435557E-01  0.11484121513E+00  0.11782437979E+00  0.51100000000E-03 0. -1.
         11    1    4    4    0    0  0.31581810341E-02  0.74314002712E-02  0.81200602143E-02  0.11462823226E-01  0.51100000000E-03 0.  1.
</event>
<event>
 8    1  0.1145101E+005  0.1043930E+01  0.7957747E-01            NaN
         13   -1    0    0    0    0  0.00000000000E+00  0.00000000000E+00  0.74505805969E-08  0.10566000000E+00  0.10566000000E+00 0. -1.
     999900   -1    0    0    0    0 -0.00000000000E+00 -0.00000000000E+00 -0.74505805969E-08  0.93827000000E+00  0.93827000000E+00 0. -1.
     999902    2    1    2    0    0 -0.17047224568E-01  0.32640735704E-02  0.16106804185E-01  0.10202510815E+01  0.10199762635E+01 0.  0.
     999903    2    3    3    0    0 -0.57549447762E-01 -0.87813261432E-01  0.78236875380E-01  0.13244724234E+00  0.19953834517E-01 0.  0.
         14    1    1    2    0    0  0.17047224568E-01 -0.32640735704E-02 -0.16106804185E-01  0.23678918531E-01  0.00000000000E+00 0.  1.
     999901    1    3    3    0    0  0.40502223195E-01  0.91077335002E-01 -0.62130071195E-01  0.88780383913E+00  0.88000000000E+00 0. -1.
        -11    1    4    4    0    0 -0.39869948110E-01 -0.62285173526E-01  0.65811395492E-01  0.98997255018E-01  0.51100000000E-03 0.  1.
         11    1    4    4    0    0 -0.17679499652E-01 -0.25528087906E-01  0.12425479888E-01  0.33449987317E-01  0.51100000000E-03 0. -1.
</event>
<event>
 8    1  0.1145101E+005  0.1043930E+01  0.7957747E-01            NaN
         13   -1    0    0    0    0  0.00000000000E+00  0.00000000000E+00  0.74505805969E-08  0.10566000000E+00  0.10566000000E+00 0. -1.
     999900   -1    0    0    0    0 -0.00000000000E+00 -0.00000000000E+00 -0.74505805969E-08  0.93827000000E+00  0.93827000000E+00 0.  1.
     999902    2    1    2    0    0  0.20203713679E-01  0.17762434527E-02  0.11964312917E-01  0.10203823914E+01  0.10201106483E+01 0.  0.
     999903    2    3    3    0    0 -0.76386818794E-01 -0.37959831494E-01  0.96249151499E-01  0.13020677916E+00  0.20347267183E-01 0.  0.
         14    1    1    2    0    0 -0.20203713679E-01 -0.17762434527E-02 -0.11964312917E-01  0.23547608600E-01  0.00000000000E+00 0.  1.
     999901    1    3    3    0    0  0.96590532473E-01  0.39736074947E-01 -0.84284838582E-01  0.89017561224E+00  0.88000000000E+00 0.  1.
        -11    1    4    4    0    0 -0.71367621249E-01 -0.38237974635E-01  0.82658566478E-01  0.11570730228E+00  0.51100000000E-03 0. -1.
         11    1    4    4    0    0 -0.50191975448E-02  0.27814314125E-03  0.13590585022E-01  0.14499476881E-01  0.51100000000E-03 0.  1.
</event>
<event>
 8    1  0.1145101E+005  0.1043930E+01  0.7957747E-01            NaN
         13   -1    0    0    0    0  0.00000000000E+00  0.00000000000E+00  0.74505805969E-08  0.10566000000E+00  0.10566000000E+00 0. -1.
     999900   -1    0    0    0    0 -0.00000000000E+00 -0.00000000000E+00 -0.74505805969E-08  0.93827000000E+00  0.93827000000E+00 0. -1.
     999902    2    1    2    0    0  0.11765594035E-02  0.14815806147E-02 -0.23665227674E-01  0.10201892676E+01  0.10199129960E+01 0.  0.
     999903    2    3    3    0    0  0.12791975320E+00  0.14654778668E-01  0.47628054215E-02  0.13055702709E+00  0.21076698318E-01 0.  0.
         14    1    1    2    0    0 -0.11765594035E-02 -0.14815806147E-02  0.23665227674E-01  0.23740732382E-01  0.00000000000E+00 0. -1.
     999901    1    3    3    0    0 -0.12674319379E+00 -0.13173198054E-01 -0.28428033096E-01  0.88963224053E+00  0.88000000000E+00 0.  1.
        -11    1    4    4    0    0  0.33173998830E-01  0.40808801311E-02 -0.79979962687E-02  0.34371453946E-01  0.51100000000E-03 0.  1.
         11    1    4    4    0    0  0.94745754366E-01  0.10573898537E-01  0.12760801690E-01  0.96185573146E-01  0.51100000000E-03 0. -1.
</event>
<event>
 8    1  0.1145101E+005  0.1043930E+01  0.7957747E-01            NaN
         13   -1    0    0    0    0  0.00000000000E+00  0.00000000000E+00  0.74505805969E-08  0.10566000000E+00  0.10566000000E+00 0. -1.
     999900   -1    0    0    0    0 -0.00000000000E+00 -0.00000000000E+00 -0.74505805969E-08  0.93827000000E+00  0.93827000000E+00 0. -1.
     999902    2    1    2    0    0  0.68196009976E-02  0.37017258173E-02  0.22244930856E-01  0.10203705713E+01  0.10200985521E+01 0.  0.
     999903    2    3    3    0    0 -0.12251984352E+00  0.16353489687E-01 -0.31585676318E-01  0.12919915496E+00  0.20401421805E-01 0.  0.
         14    1    1    2    0    0 -0.68196009976E-02 -0.37017258173E-02 -0.22244930856E-01  0.23559428698E-01  0.00000000000E+00 0.  1.
     999901    1    3    3    0    0  0.12933944452E+00 -0.12651763870E-01  0.53830607174E-01  0.89117141634E+00  0.88000000000E+00 0. -1.
        -11    1    4    4    0    0 -0.83408981342E-01  0.20555561697E-01 -0.20276181775E-01  0.88266493946E-01  0.51100000000E-03 0.  1.
         11    1    4    4    0    0 -0.39110862181E-01 -0.42020720100E-02 -0.11309494542E-01  0.40932661012E-01  0.51100000000E-03 0. -1.
</event>
<event>
 8    1  0.1145101E+005  0.1043930E+01  0.7957747E-01            NaN
         13   -1    0    0    0    0  0.00000000000E+00  0.00000000000E+00  0.74505805969E-08  0.10566000000E+00  0.10566000000E+00 0.  1.
     999900   -1    0    0    0    0 -0.00000000000E+00 -0.00000000000E+00 -0.74505805969E-08  0.93827000000E+00  0.93827000000E+00 0.  1.
     999902    2    1    2    0    0 -0.15996878409E-01  0.21377907846E-02  0.16712321939E-01  0.10206970068E+01  0.10204325591E+01 0.  0.
     999903    2    3    3    0    0  0.11366633125E+00 -0.34042943941E-01 -0.44403862794E-01  0.12836479202E+00  0.20660588285E-01 0.  0.
         14    1    1    2    0    0  0.15996878409E-01 -0.21377907846E-02 -0.16712321939E-01  0.23232993197E-01  0.00000000000E+00 0. -1.
     999901    1    3    3    0    0 -0.12966320966E+00  0.36180734726E-01  0.61116184733E-01  0.89233221478E+00  0.88000000000E+00 0. -1.
        -11    1    4    4    0    0  0.96974635655E-01 -0.26718898998E-01 -0.29534256423E-01  0.10483564731E+00  0.51100000000E-03 0. -1.
         11    1    4    4    0    0  0.16691695591E-01 -0.73240449433E-02 -0.14869606371E-01  0.23529144707E-01  0.51100000000E-03 0.  1.
</event>
<event>
 8    1  0.1145101E+005  0.1043930E+01  0.7957747E-01            NaN
         13   -1    0    0    0    0  0.00000000000E+00  0.00000000000E+00  0.74505805969E-08  0.10566000000E+00  0.10566000000E+00 0.  1.
     999900   -1    0    0    0    0 -0.00000000000E+00 -0.00000000000E+00 -0.74505805969E-08  0.93827000000E+00  0.93827000000E+00 0.  1.
     999902    2    1    2    0    0  0.58559790525E-02  0.11113555121E-01  0.20273225469E-01  0.10200803193E+01  0.10198014761E+01 0.  0.
     999903    2    3    3    0    0  0.78548555339E-01 -0.48401587192E-01  0.92481743796E-01  0.13213869233E+00  0.19878930695E-01 0.  0.
         14    1    1    2    0    0 -0.58559790525E-02 -0.11113555121E-01 -0.20273225469E-01  0.23849680690E-01  0.00000000000E+00 0. -1.
     999901    1    3    3    0    0 -0.72692576286E-01  0.59515142313E-01 -0.72208518327E-01  0.88794162698E+00  0.88000000000E+00 0.  1.
        -11    1    4    4    0    0  0.27379675295E-01 -0.17337750726E-01  0.46375243884E-01  0.56578870489E-01  0.51100000000E-03 0.  1.
         11    1    4    4    0    0  0.51168880044E-01 -0.31063836466E-01  0.46106499912E-01  0.75559821837E-01  0.51100000000E-03 0. -1.
</event>
<event>
 8    1  0.1145101E+005  0.1043930E+01  0.7957747E-01            NaN
         13   -1    0    0    0    0  0.00000000000E+00  0.00000000000E+00  0.74505805969E-08  0.10566000000E+00  0.10566000000E+00 0. -1.
     999900   -1    0    0    0    0 -0.00000000000E+00 -0.00000000000E+00 -0.74505805969E-08  0.93827000000E+00  0.93827000000E+00 0. -1.
     999902    2    1    2    0    0 -0.39965525325E-02 -0.15686587994E-01 -0.15889949115E-01  0.10212467031E+01  0.10209947584E+01 0.  0.
     999903    2    3    3    0    0 -0.12798619922E-02  0.11755704111E+00  0.48921745661E-01  0.12885564484E+00  0.19726734315E-01 0.  0.
         14    1    1    2    0    0  0.39965525325E-02  0.15686587994E-01  0.15889949115E-01  0.22683296892E-01  0.00000000000E+00 0.  1.
     999901    1    3    3    0    0 -0.27166905403E-02 -0.13324362910E+00 -0.64811694776E-01  0.89239105827E+00  0.88000000000E+00 0. -1.
        -11    1    4    4    0    0  0.61732876063E-02  0.30981756492E-01  0.19425718461E-01  0.37089060030E-01  0.51100000000E-03 0. -1.
         11    1    4    4    0    0 -0.74531495984E-02  0.86575284616E-01  0.29496027200E-01  0.91766584805E-01  0.51100000000E-03 0.  1.
</event>
<event>
 8    1  0.1145101E+005  0.1043930E+01  0.7957747E-01            NaN
         13   -1    0    0    0    0  0.00000000000E+00  0.00000000000E+00  0.74505805969E-08  0.10566000000E+00  0.10566000000E+00 0.  1.
     999900   -1    0    0    0    0 -0.00000000000E+00 -0.00000000000E+00 -0.74505805969E-08  0.93827000000E+00  0.93827000000E+00 0. -1.
     999902    2    1    2    0    0 -0.17288030392E-01 -0.48735625577E-04 -0.26779833520E-01  0.10120546513E+01  0.10115525589E+01 0.  0.
     999903    2    3    3    0    0 -0.34547232885E-01 -0.81835502461E-01 -0.87092658983E-01  0.12603851591E+00  0.20248838987E-01 0.  0.
         14    1    1    2    0    0  0.17288030392E-01  0.48735625577E-04  0.26779833520E-01  0.31875348678E-01  0.00000000000E+00 0. -1.
     999901    1    3    3    0    0  0.17259202493E-01  0.81786766835E-01  0.60312825462E-01  0.88601613541E+00  0.88000000000E+00 0.  1.
        -11    1    4    4    0    0 -0.19416751231E-01 -0.45559297206E-01 -0.62206473230E-01  0.79514566106E-01  0.51100000000E-03 0.  1.
         11    1    4    4    0    0 -0.15130481654E-01 -0.36276205255E-01 -0.24886185752E-01  0.46523949801E-01  0.51100000000E-03 0. -1.
</event>
<event>
 8    1  0.1145101E+005  0.1043930E+01  0.7957747E-01            NaN
         13   -1    0    0    0    0  0.00000000000E+00  0.00000000000E+00  0.74505805969E-08  0.10566000000E+00  0.10566000000E+00 0. -1.
     999900   -1    0    0    0    0 -0.00000000000E+00 -0.00000000000E+00 -0.74505805969E-08  0.93827000000E+00  0.93827000000E+00 0. -1.
     999902    2    1    2    0    0  0.24905152903E-02 -0.20700143198E-01 -0.24662241685E-01  0.10116356544E+01  0.10111200584E+01 0.  0.
     999903    2    3    3    0    0  0.64149874640E-01  0.64955453141E-01 -0.80692560001E-01  0.12356012022E+00  0.20527950720E-01 0.  0.
         14    1    1    2    0    0 -0.24905152903E-02  0.20700143198E-01  0.24662241685E-01  0.32294345631E-01  0.00000000000E+00 0. -1.
     999901    1    3    3    0    0 -0.61659359350E-01 -0.85655596339E-01  0.56030318316E-01  0.88807553415E+00  0.88000000000E+00 0.  1.
        -11    1    4    4    0    0  0.56301050670E-01  0.55188183305E-01 -0.77643936396E-01  0.11065435311E+00  0.51100000000E-03 0. -1.
         11    1    4    4    0    0  0.78488239702E-02  0.97672698359E-02 -0.30486236046E-02  0.12905767108E-01  0.51100000000E-03 0.  1.
</event>
<event>
 8    1  0.1145101E+005  0.1043930E+01  0.7957747E-01            NaN
         13   -1    0    0    0    0  0.00000000000E+00  0.00000000000E+00  0.74505805969E-08  0.10566000000E+00  0.10566000000E+00 0.  1.
     999900   -1    0    0    0    0 -0.00000000000E+00 -0.00000000000E+00 -0.74505805969E-08  0.93827000000E+00  0.93827000000E+00 0.  1.
     999902    2    1    2    0    0 -0.16476012202E-01  0.55912418239E-02 -0.17345987688E-01  0.10193616412E+01  0.10190655285E+01 0.  0.
     999903    2    3    3    0    0  0.59248138816E-01 -0.66378084419E-01  0.88582317551E-01  0.12687380557E+00  0.18268648372E-01 0.  0.
         14    1    1    2    0    0  0.16476012202E-01 -0.55912418239E-02  0.17345987688E-01  0.24568358758E-01  0.00000000000E+00 0.  1.
     999901    1    3    3    0    0 -0.75724151018E-01  0.71969326243E-01 -0.10592830524E+00  0.89248783567E+00  0.88000000000E+00 0.  1.
        -11    1    4    4    0    0  0.27921106040E-01 -0.18112985057E-01  0.32865422002E-01  0.46776762121E-01  0.51100000000E-03 0.  1.
         11    1    4    4    0    0  0.31327032776E-01 -0.48265099362E-01  0.55716895549E-01  0.80097043451E-01  0.51100000000E-03 0. -1.
</event>
<event>
 8    1  0.1145101E+005  0.1043930E+01  0.7957747E-01            NaN
         13   -1    0    0    0    0  0.00000000000E+00  0.00000000000E+00  0.74505805969E-08  0.10566000000E+00  0.10566000000E+00 0. -1.
     999900   -1    0    0    0    0 -0.00000000000E+00 -0.00000000000E+00 -0.74505805969E-08  0.93827000000E+00  0.93827000000E+00 0. -1.
     999902    2    1    2    0    0 -0.63120071663E-02 -0.21975947332E-01  0.41838123688E-02  0.10206859044E+01  0.10204212010E+01 0.  0.
     999903    2    3    3    0    0  0.63492124292E-01  0.10803691586E-01 -0.11146180883E+00  0.12977567814E+00  0.16432352551E-01 0.  0.
         14    1    1    2    0    0  0.63120071663E-02  0.21975947332E-01 -0.41838123688E-02  0.23244095628E-01  0.00000000000E+00 0.  1.
     999901    1    3    3    0    0 -0.69804131458E-01 -0.32779638918E-01  0.11564562120E+00  0.89091022623E+00  0.88000000000E+00 0.  1.
        -11    1    4    4    0    0  0.43374464442E-01  0.13911457481E-01 -0.68957126422E-01  0.82645140331E-01  0.51100000000E-03 0.  1.
         11    1    4    4    0    0  0.20117659850E-01 -0.31077658955E-02 -0.42504682410E-01  0.47130537813E-01  0.51100000000E-03 0. -1.
</event>
<event>
 8    1  0.1145101E+005  0.1043930E+01  0.7957747E-01            NaN
         13   -1    0    0    0    0  0.00000000000E+00  0.00000000000E+00  0.74505805969E-08  0.10566000000E+00  0.10566000000E+00 0. -1.
     999900   -1    0    0    0    0 -0.00000000000E+00 -0.00000000000E+00 -0.74505805969E-08  0.93827000000E+00  0.93827000000E+00 0. -1.
     999902    2    1    2    0    0  0.23119261946E-01  0.46050380815E-02  0.58386905701E-02  0.10196442643E+01  0.10193550063E+01 0.  0.
     999903    2    3    3    0    0  0.78599961103E-01  0.95685545042E-01  0.42516932108E-01  0.13244695815E+00  0.20020734026E-01 0.  0.
         14    1    1    2    0    0 -0.23119261946E-01 -0.46050380815E-02 -0.58386905701E-02  0.24285735653E-01  0.00000000000E+00 0.  1.
     999901    1    3    3    0    0 -0.55480699157E-01 -0.91080506960E-01 -0.36678241538E-01  0.88719730620E+00  0.88000000000E+00 0. -1.
        -11    1    4    4    0    0  0.27429660160E-01  0.35131540985E-01  0.53753784517E-02  0.44897296611E-01  0.51100000000E-03 0.  1.
         11    1    4    4    0    0  0.51170300942E-01  0.60554004056E-01  0.37141553657E-01  0.87549661535E-01  0.51100000000E-03 0. -1.
</event>
<event>
 8    1  0.1145101E+005  0.1043930E+01  0.7957747E-01            NaN
         13   -1    0    0    0    0  0.00000000000E+00  0.00000000000E+00  0.74505805969E-08  0.10566000000E+00  0.10566000000E+00 0.  1.
     999900   -1    0    0    0    0 -0.00000000000E+00 -0.00000000000E+00 -0.74505805969E-08  0.93827000000E+00  0.93827000000E+00 0. -1.
     999902    2    1    2    0    0  0.19763837526E-01 -0.12992816107E-01  0.61570709250E-03  0.10202698724E+01  0.10199954955E+01 0.  0.
     999903    2    3    3    0    0  0.36753573737E-02  0.11842654200E+00 -0.47186212354E-01  0.12908251251E+00  0.19934951648E-01 0.  0.
         14    1    1    2    0    0 -0.19763837526E-01  0.12992816107E-01 -0.61570709250E-03  0.23660127628E-01  0.00000000000E+00 0.  1.
     999901    1    3    3    0    0  0.16088480152E-01 -0.13141935811E+00  0.47801919447E-01  0.89118735986E+00  0.88000000000E+00 0. -1.
        -11    1    4    4    0    0 -0.26769483544E-02  0.52473118331E-01 -0.11364461209E-01  0.53758778813E-01  0.51100000000E-03 0. -1.
         11    1    4    4    0    0  0.63523057280E-02  0.65953423669E-01 -0.35821751145E-01  0.75323733695E-01  0.51100000000E-03 0.  1.
</event>
<event>
 8    1  0.1145101E+005  0.1043930E+01  0.7957747E-01            NaN
         13   -1    0    0    0    0  0.00000000000E+00  0.00000000000E+00  0.74505805969E-08  0.10566000000E+00  0.10566000000E+00 0. -1.
     999900   -1    0    0    0    0 -0.00000000000E+00 -0.00000000000E+00 -0.74505805969E-08  0.93827000000E+00  0.93827000000E+00 0.  1.
     999902    2    1    2    0    0  0.16402021660E-01  0.47522826191E-02  0.15989606965E-01  0.10205360257E+01  0.10202678578E+01 0.  0.
     999903    2    3    3    0    0 -0.71124314816E-01  0.73974689332E-01  0.79297563594E-01  0.13123264742E+00  0.20074395089E-01 0.  0.
         14    1    1    2    0    0 -0.16402021660E-01 -0.47522826191E-02 -0.15989606965E-01  0.23393974342E-01  0.00000000000E+00 0. -1.
     999901    1    3    3    0    0  0.87526336475E-01 -0.69222406712E-01 -0.63307956629E-01  0.88930337824E+00  0.88000000000E+00 0.  1.
        -11    1    4    4    0    0 -0.20145607714E-01  0.33071479909E-01  0.23548821114E-01  0.45325229071E-01  0.51100000000E-03 0.  1.
         11    1    4    4    0    0 -0.50978707102E-01  0.40903209423E-01  0.55748742480E-01  0.85907418352E-01  0.51100000000E-03 0. -1.
</event>
<event>
 8    1  0.1145101E+005  0.1043930E+01  0.7957747E-01            NaN
         13   -1    0    0    0    0  0.00000000000E+00  0.00000000000E+00  0.74505805969E-08  0.10566000000E+00  0.10566000000E+00 0.  1.
     999900   -1    0    0    0    0 -0.00000000000E+00 -0.00000000000E+00 -0.74505805969E-08  0.93827000000E+00  0.93827000000E+00 0. -1.
     999902    2    1    2    0    0  0.13941025592E-01 -0.73003818661E-02  0.17516907930E-01  0.10203823922E+01  0.10201106491E+01 0.  0.
     999903    2    3    3    0    0 -0.44606255777E-01  0.11431939451E+00  0.37431075702E-01  0.12986808673E+00  0.20149255723E-01 0.  0.
         14    1    1    2    0    0 -0.13941025592E-01  0.73003818661E-02 -0.17516907930E-01  0.23547607806E-01  0.00000000000E+00 0. -1.
     999901    1    3    3    0    0  0.58547281369E-01 -0.12161977638E+00 -0.19914167772E-01  0.89051430547E+00  0.88000000000E+00 0. -1.
        -11    1    4    4    0    0 -0.25848454875E-01  0.45013861709E-01  0.92129806161E-02  0.52721252814E-01  0.51100000000E-03 0. -1.
         11    1    4    4    0    0 -0.18757800902E-01  0.69305532803E-01  0.28218095086E-01  0.77146833914E-01  0.51100000000E-03 0.  1.
</event>
<event>
 8    1  0.1145101E+005  0.1043930E+01  0.7957747E-01            NaN
         13   -1    0    0    0    0  0.00000000000E+00  0.00000000000E+00  0.74505805969E-08  0.10566000000E+00  0.10566000000E+00 0. -1.
     999900   -1    0    0    0    0 -0.00000000000E+00 -0.00000000000E+00 -0.74505805969E-08  0.93827000000E+00  0.93827000000E+00 0. -1.
     999902    2    1    2    0    0  0.24683040067E-02 -0.23117061824E-01  0.25179920615E-02  0.10205455745E+01  0.10202776280E+01 0.  0.
     999903    2    3    3    0    0  0.41266369681E-01  0.48298165214E-01 -0.11119901299E+00  0.12951415990E+00  0.19315048447E-01 0.  0.
         14    1    1    2    0    0 -0.24683040067E-02  0.23117061824E-01 -0.25179920615E-02  0.23384425503E-01  0.00000000000E+00 0.  1.
     999901    1    3    3    0    0 -0.38798065675E-01 -0.71415227038E-01  0.11371700505E+00  0.89103141459E+00  0.88000000000E+00 0.  1.
        -11    1    4    4    0    0  0.24693964582E-01  0.32643183091E-01 -0.87630978248E-01  0.96720312028E-01  0.51100000000E-03 0. -1.
         11    1    4    4    0    0  0.16572405099E-01  0.15654982123E-01 -0.23568034741E-01  0.32793847877E-01  0.51100000000E-03 0.  1.
</event>
<event>
 8    1  0.1145101E+005  0.1043930E+01  0.7957747E-01            NaN
         13   -1    0    0    0    0  0.00000000000E+00  0.00000000000E+00  0.74505805969E-08  0.10566000000E+00  0.10566000000E+00 0.  1.
     999900   -1    0    0    0    0 -0.00000000000E+00 -0.00000000000E+00 -0.74505805969E-08  0.93827000000E+00  0.93827000000E+00 0.  1.
     999902    2    1    2    0    0 -0.95259159319E-03 -0.24180005061E-01 -0.18810627564E-02  0.10196582371E+01  0.10193693158E+01 0.  0.
     999903    2    3    3    0    0  0.11497721714E+00  0.75372538984E-03  0.56824948115E-01  0.12976621718E+00  0.19745071019E-01 0.  0.
         14    1    1    2    0    0  0.95259159319E-03  0.24180005061E-01  0.18810627564E-02  0.24271762866E-01  0.00000000000E+00 0.  1.
     999901    1    3    3    0    0 -0.11592980873E+00 -0.24933730451E-01 -0.58706010872E-01  0.88989201995E+00  0.88000000000E+00 0.  1.
        -11    1    4    4    0    0  0.18515423843E-01 -0.43620060172E-02  0.32476962406E-02  0.19304317352E-01  0.51100000000E-03 0.  1.
         11    1    4    4    0    0  0.96461793297E-01  0.51157314070E-02  0.53577251875E-01  0.11046189983E+00  0.51100000000E-03 0. -1.
</event>
<event>
 8    1  0.1145101E+005  0.1043930E+01  0.7957747E-01            NaN
         13   -1    0    0    0    0  0.00000000000E+00  0.00000000000E+00  0.74505805969E-08  0.10566000000E+00  0.10566000000E+00 0.  1.
     999900   -1    0    0    0    0 -0.00000000000E+00 -0.00000000000E+00 -0.74505805969E-08  0.93827000000E+00  0.93827000000E+00 0. -1.
     999902    2    1    2    0    0 -0.27979302770E-02  0.12051302826E-03 -0.23012756415E-01  0.10207474657E+01  0.10204841787E+01 0.  0.
     999903    2    3    3    0    0  0.11242753409E+00 -0.13057728987E-01  0.59083484449E-01  0.12934948140E+00  0.20735850509E-01 0.  0.
         14    1    1    2    0    0  0.27979302770E-02 -0.12051302826E-03  0.23012756415E-01  0.23182534267E-01  0.00000000000E+00 0.  1.
     999901    1    3    3    0    0 -0.11522546437E+00  0.13178242015E-01 -0.82096240863E-01  0.89139798433E+00  0.88000000000E+00 0. -1.
        -11    1    4    4    0    0  0.91499736794E-01 -0.43689020874E-02  0.41038049103E-01  0.10037764559E+00  0.51100000000E-03 0.  1.
         11    1    4    4    0    0  0.20927797299E-01 -0.86888268994E-02  0.18045435345E-01  0.28971835815E-01  0.51100000000E-03 0. -1.
</event>
<event>
 8    1  0.1145101E+005  0.1043930E+01  0.7957747E-01            NaN
         13   -1    0    0    0    0  0.00000000000E+00  0.00000000000E+00  0.74505805969E-08  0.10566000000E+00  0.10566000000E+00 0.  1.
     999900   -1    0    0    0    0 -0.00000000000E+00 -0.00000000000E+00 -0.74505805969E-08  0.93827000000E+00  0.93827000000E+00 0. -1.
     999902    2    1    2    0    0 -0.63800869954E-02 -0.21057593093E-01  0.80489986582E-02  0.10205010838E+01  0.10202321049E+01 0.  0.
     999903    2    3    3    0    0  0.24778018133E-01  0.94083511820E-01  0.82504875905E-01  0.12933781072E+00  0.21343789592E-01 0.  0.
         14    1    1    2    0    0  0.63800869954E-02  0.21057593093E-01 -0.80489986582E-02  0.23428916244E-01  0.00000000000E+00 0. -1.
     999901    1    3    3    0    0 -0.31158105128E-01 -0.11514110491E+00 -0.74455877247E-01  0.89116327304E+00  0.88000000000E+00 0. -1.
        -11    1    4    4    0    0 -0.17158467092E-02  0.14572629347E-01  0.19882388455E-01  0.24715908798E-01  0.51100000000E-03 0.  1.
         11    1    4    4    0    0  0.26493864842E-01  0.79510882474E-01  0.62622487450E-01  0.10462190192E+00  0.51100000000E-03 0. -1.
</event>
<event>
 8    1  0.1145101E+005  0.1043930E+01  0.7957747E-01            NaN
         13   -1    0    0    0    0  0.00000000000E+00  0.00000000000E+00  0.74505805969E-08  0.10566000000E+00  0.10566000000E+00 0. -1.
     999900   -1    0    0    0    0 -0.00000000000E+00 -0.00000000000E+00 -0.74505805969E-08  0.93827000000E+00  0.93827000000E+00 0. -1.
     999902    2    1    2    0    0  0.90646796225E-02 -0.17556137565E-01  0.18263619077E-01  0.10170237523E+01  0.10166677759E+01 0.  0.
     999903    2    3    3    0    0 -0.22853592493E-01  0.10775149025E+00  0.59827426735E-01  0.12660344269E+00  0.17788770899E-01 0.  0.
         14    1    1    2    0    0 -0.90646796225E-02  0.17556137565E-01 -0.18263619077E-01  0.26906247688E-01  0.00000000000E+00 0.  1.
     999901    1    3    3    0    0  0.31918272115E-01 -0.12530762781E+00 -0.41563807658E-01  0.89042030962E+00  0.88000000000E+00 0.  1.
        -11    1    4    4    0    0 -0.92159395179E-02  0.41563287274E-01  0.13486730685E-01  0.44660871194E-01  0.51100000000E-03 0.  1.
         11    1    4    4    0    0 -0.13637652975E-01  0.66188202976E-01  0.46340696050E-01  0.81942571495E-01  0.51100000000E-03 0. -1.
</event>
<event>
 8    1  0.1145101E+005  0.1043930E+01  0.7957747E-01            NaN
         13   -1    0    0    0    0  0.00000000000E+00  0.00000000000E+00  0.74505805969E-08  0.10566000000E+00  0.10566000000E+00 0. -1.
     999900   -1    0    0    0    0 -0.00000000000E+00 -0.00000000000E+00 -0.74505805969E-08  0.93827000000E+00  0.93827000000E+00 0. -1.
     999902    2    1    2    0    0  0.64776518887E-02  0.16029920052E-01 -0.15703800518E-01  0.10205734664E+01  0.10203061661E+01 0.  0.
     999903    2    3    3    0    0 -0.39820702413E-01  0.59027381248E-01  0.10685731560E+00  0.12983582464E+00  0.19207690772E-01 0.  0.
         14    1    1    2    0    0 -0.64776518887E-02 -0.16029920052E-01  0.15703800518E-01  0.23356533595E-01  0.00000000000E+00 0. -1.
     999901    1    3    3    0    0  0.46298354301E-01 -0.42997461196E-01 -0.12256111612E+00  0.89073764177E+00  0.88000000000E+00 0. -1.
        -11    1    4    4    0    0 -0.62033521080E-02  0.97618703398E-02  0.32575308874E-01  0.34571484769E-01  0.51100000000E-03 0.  1.
         11    1    4    4    0    0 -0.33617350305E-01  0.49265510908E-01  0.74282006723E-01  0.95264339868E-01  0.51100000000E-03 0. -1.
</event>
<event>
 8    1  0.1145101E+005  0.1043930E+01  0.7957747E-01            NaN
         13   -1    0    0    0    0  0.00000000000E+00  0.00000000000E+00  0.74505805969E-08  0.10566000000E+00  0.10566000000E+00 0. -1.
     999900   -1    0    0    0    0 -0.00000000000E+00 -0.00000000000E+00 -0.74505805969E-08  0.93827000000E+00  0.93827000000E+00 0.  1.
     999902    2    1    2    0    0  0.19090186113E-01  0.41012729190E-02 -0.13634482617E-01  0.10201149887E+01  0.10198369651E+01 0.  0.
     999903    2    3    3    0    0  0.77927343081E-01 -0.93748630718E-01 -0.46917858915E-01  0.13211487735E+00  0.19788349363E-01 0.  0.
         14    1    1    2    0    0 -0.19090186113E-01 -0.41012729190E-02  0.13634482617E-01  0.23815011267E-01  0.00000000000E+00 0. -1.
     999901    1    3    3    0    0 -0.58837156967E-01  0.97849903637E-01  0.33283376298E-01  0.88800011138E+00  0.88000000000E+00 0. -1.
        -11    1    4    4    0    0  0.38690146857E-01 -0.33053848522E-01 -0.24223144827E-01  0.56360502413E-01  0.51100000000E-03 0. -1.
         11    1    4    4    0    0  0.39237196224E-01 -0.60694782196E-01 -0.22694714088E-01  0.75754374935E-01  0.51100000000E-03 0.  1.
</event>
<event>
 8    1  0.1145101E+005  0.1043930E+01  0.7957747E-01            NaN
         13   -1    0    0    0    0  0.00000000000E+00  0.00000000000E+00  0.74505805969E-08  0.10566000000E+00  0.10566000000E+00 0.  1.
     999900   -1    0    0    0    0 -0.00000000000E+00 -0.00000000000E+00 -0.74505805969E-08  0.93827000000E+00  0.93827000000E+00 0. -1.
     999902    2    1    2    0    0 -0.65714645075E-03  0.43197365544E-02 -0.23319631358E-01  0.10202045459E+01  0.10199286339E+01 0.  0.
     999903    2    3    3    0    0 -0.11631252915E+00 -0.39650567503E-01 -0.45640725666E-01  0.13126822285E+00  0.68919192864E-02 0.  0.
         14    1    1    2    0    0  0.65714645075E-03 -0.43197365544E-02  0.23319631358E-01  0.23725454095E-01  0.00000000000E+00 0.  1.
     999901    1    3    3    0    0  0.11565538270E+00  0.43970304058E-01  0.22321094308E-01  0.88893632305E+00  0.88000000000E+00 0. -1.
        -11    1    4    4    0    0 -0.51715800803E-01 -0.16592549671E-01 -0.23631491173E-01  0.59232974375E-01  0.51100000000E-03 0. -1.
         11    1    4    4    0    0 -0.64596728348E-01 -0.23058017832E-01 -0.22009234493E-01  0.72035248480E-01  0.51100000000E-03 0.  1.
</event>
<event>
 8    1  0.1145101E+005  0.1043930E+01  0.7957747E-01            NaN
         13   -1    0    0    0    0  0.00000000000E+00  0.00000000000E+00  0.74505805969E-08  0.10566000000E+00  0.10566000000E+00 0. -1.
     999900   -1    0    0    0    0 -0.00000000000E+00 -0.00000000000E+00 -0.74505805969E-08  0.93827000000E+00  0.93827000000E+00 0. -1.
     999902    2    1    2    0    0  0.82341447977E-02 -0.22247768396E-02  0.21320814257E-01  0.10209663789E+01  0.10207080969E+01 0.  0.
     999903    2    3    3    0    0 -0.10641583938E+00 -0.69277574793E-01 -0.19383834363E-01  0.13006932258E+00  0.20459286426E-01 0.  0.
         14    1    1    2    0    0 -0.82341447977E-02  0.22247768396E-02 -0.21320814257E-01  0.22963621080E-01  0.00000000000E+00 0.  1.
     999901    1    3    3    0    0  0.11464998417E+00  0.67052797953E-01  0.40704648620E-01  0.89089705634E+00  0.88000000000E+00 0.  1.
        -11    1    4    4    0    0 -0.15200442217E-01 -0.52932140754E-02 -0.82498481598E-02  0.18093995537E-01  0.51100000000E-03 0.  1.
         11    1    4    4    0    0 -0.91215397160E-01 -0.63984360717E-01 -0.11133986204E-01  0.11197532704E+00  0.51100000000E-03 0. -1.
</event>
<event>
 8    1  0.1145101E+005  0.1043930E+01  0.7957747E-01            NaN
         13   -1    0    0    0    0  0.00000000000E+00  0.00000000000E+00  0.74505805969E-08  0.10566000000E+00  0.10566000000E+00 0. -1.
     999900   -1    0    0    0    0 -0.00000000000E+00 -0.00000000000E+00 -0.74505805969E-08  0.93827000000E+00  0.93827000000E+00 0. -1.
     999902    2    1    2    0    0  0.13883211482E-01  0.56163571097E-02 -0.18519210308E-01  0.10201130275E+01  0.10198349576E+01 0.  0.
     999903    2    3    3    0    0 -0.89080041311E-01 -0.91710326336E-02 -0.92825992522E-01  0.13087650318E+00  0.22195328265E-01 0.  0.
         14    1    1    2    0    0 -0.13883211482E-01 -0.56163571097E-02  0.18519210308E-01  0.23816972492E-01  0.00000000000E+00 0. -1.
     999901    1    3    3    0    0  0.10296325279E+00  0.14787389743E-01  0.74306782214E-01  0.88923652433E+00  0.88000000000E+00 0. -1.
        -11    1    4    4    0    0 -0.46864206144E-01  0.56057526585E-02 -0.42130368142E-01  0.63268533420E-01  0.51100000000E-03 0.  1.
         11    1    4    4    0    0 -0.42215835167E-01 -0.14776785292E-01 -0.50695624380E-01  0.67607969757E-01  0.51100000000E-03 0. -1.
</event>
<event>
 8    1  0.1145101E+005  0.1043930E+01  0.7957747E-01            NaN
         13   -1    0    0    0    0  0.00000000000E+00  0.00000000000E+00  0.74505805969E-08  0.10566000000E+00  0.10566000000E+00 0.  1.
     999900   -1    0    0    0    0 -0.00000000000E+00 -0.00000000000E+00 -0.74505805969E-08  0.93827000000E+00  0.93827000000E+00 0. -1.
     999902    2    1    2    0    0 -0.17723649125E-01 -0.75821326253E-02  0.15619614913E-01  0.10191189371E+01  0.10188168722E+01 0.  0.
     999903    2    3    3    0    0 -0.24448279382E-01 -0.12680081166E+00 -0.60953762623E-02  0.13078912505E+00  0.19811042833E-01 0.  0.
         14    1    1    2    0    0  0.17723649125E-01  0.75821326253E-02 -0.15619614913E-01  0.24811062925E-01  0.00000000000E+00 0. -1.
     999901    1    3    3    0    0  0.67246302571E-02  0.11921867904E+00  0.21714991175E-01  0.88832981202E+00  0.88000000000E+00 0. -1.
        -11    1    4    4    0    0 -0.17221928420E-01 -0.40199378909E-01 -0.14014806061E-02  0.43758543760E-01  0.51100000000E-03 0.  1.
         11    1    4    4    0    0 -0.72263509622E-02 -0.86601432752E-01 -0.46938956562E-02  0.87030581294E-01  0.51100000000E-03 0. -1.
</event>
<event>
 8    1  0.1145101E+005  0.1043930E+01  0.7957747E-01            NaN
         13   -1    0    0    0    0  0.00000000000E+00  0.00000000000E+00  0.74505805969E-08  0.10566000000E+00  0.10566000000E+00 0.  1.
     999900   -1    0    0    0    0 -0.00000000000E+00 -0.00000000000E+00 -0.74505805969E-08  0.93827000000E+00  0.93827000000E+00 0.  1.
     999902    2    1    2    0    0 -0.16579702023E-01  0.29284813514E-02  0.15232978850E-01  0.10212252391E+01  0.10209728120E+01 0.  0.
     999903    2    3    3    0    0  0.60259294787E-01  0.11266365869E+00 -0.19281612033E-01  0.13041813454E+00  0.17686906355E-01 0.  0.
         14    1    1    2    0    0  0.16579702023E-01 -0.29284813514E-02 -0.15232978850E-01  0.22704760884E-01  0.00000000000E+00 0.  1.
     999901    1    3    3    0    0 -0.76838996810E-01 -0.10973517734E+00  0.34514590882E-01  0.89080710457E+00  0.88000000000E+00 0. -1.
        -11    1    4    4    0    0  0.40726371717E-01  0.79493274112E-01 -0.53606240420E-02  0.89480810196E-01  0.51100000000E-03 0.  1.
         11    1    4    4    0    0  0.19532923070E-01  0.33170384580E-01 -0.13920987991E-01  0.40937324345E-01  0.51100000000E-03 0. -1.
</event>
<event>
 8    1  0.1145101E+005  0.1043930E+01  0.7957747E-01            NaN
         13   -1    0    0    0    0  0.00000000000E+00  0.00000000000E+00  0.74505805969E-08  0.10566000000E+00  0.10566000000E+00 0.  1.
     999900   -1    0    0    0    0 -0.00000000000E+00 -0.00000000000E+00 -0.74505805969E-08  0.93827000000E+00  0.93827000000E+00 0. -1.
     999902    2    1    2    0    0 -0.17984575594E-01  0.56081638768E-02 -0.13918976762E-01  0.10205070545E+01  0.10202382143E+01 0.  0.
     999903    2    3    3    0    0  0.11018127407E+00 -0.61099793810E-01  0.15808294483E-01  0.12822898838E+00  0.17879410693E-01 0.  0.
         14    1    1    2    0    0  0.17984575594E-01 -0.56081638768E-02  0.13918976762E-01  0.23422945491E-01  0.00000000000E+00 0. -1.
     999901    1    3    3    0    0 -0.12816584967E+00  0.66707957687E-01 -0.29727271244E-01  0.89227806613E+00  0.88000000000E+00 0. -1.
        -11    1    4    4    0    0  0.64158594900E-01 -0.44414089402E-01  0.57124683168E-02  0.78242124538E-01  0.51100000000E-03 0. -1.
         11    1    4    4    0    0  0.46022679172E-01 -0.16685704408E-01  0.10095826166E-01  0.49986863842E-01  0.51100000000E-03 0.  1.
</event>
<event>
 8    1  0.1145101E+005  0.1043930E+01  0.7957747E-01            NaN
         13   -1    0    0    0    0  0.00000000000E+00  0.00000000000E+00  0.74505805969E-08  0.10566000000E+00  0.10566000000E+00 0. -1.
     999900   -1    0    0    0    0 -0.00000000000E+00 -0.00000000000E+00 -0.74505805969E-08  0.93827000000E+00  0.93827000000E+00 0. -1.
     999902    2    1    2    0    0  0.87265539599E-02 -0.19806889248E-01  0.10006929958E-01  0.10200845759E+01  0.10198058333E+01 0.  0.
     999903    2    3    3    0    0  0.89520180615E-01  0.52776809544E-01  0.76964540071E-01  0.13088306607E+00  0.20188664974E-01 0.  0.
         14    1    1    2    0    0 -0.87265539599E-02  0.19806889248E-01 -0.10006929958E-01  0.23845424150E-01  0.00000000000E+00 0.  1.
     999901    1    3    3    0    0 -0.80793626655E-01 -0.72583698792E-01 -0.66957610113E-01  0.88920150978E+00  0.88000000000E+00 0. -1.
        -11    1    4    4    0    0  0.36371855882E-01  0.10257908869E-01  0.27001601186E-01  0.46448726379E-01  0.51100000000E-03 0.  1.
         11    1    4    4    0    0  0.53148324733E-01  0.42518900675E-01  0.49962938885E-01  0.84434339694E-01  0.51100000000E-03 0. -1.
</event>
<event>
 8    1  0.1145101E+005  0.1043930E+01  0.7957747E-01            NaN
         13   -1    0    0    0    0  0.00000000000E+00  0.00000000000E+00  0.74505805969E-08  0.10566000000E+00  0.10566000000E+00 0. -1.
     999900   -1    0    0    0    0 -0.00000000000E+00 -0.00000000000E+00 -0.74505805969E-08  0.93827000000E+00  0.93827000000E+00 0.  1.
     999902    2    1    2    0    0  0.96397673253E-02 -0.18219536695E-01 -0.12823225029E-01  0.10196542563E+01  0.10193652391E+01 0.  0.
     999903    2    3    3    0    0 -0.10449371371E+00  0.59364125739E-01 -0.40929667654E-01  0.12845526154E+00  0.19557118718E-01 0.  0.
         14    1    1    2    0    0 -0.96397673253E-02  0.18219536695E-01  0.12823225029E-01  0.24275743688E-01  0.00000000000E+00 0. -1.
     999901    1    3    3    0    0  0.11413348104E+00 -0.77583662434E-01  0.28106442624E-01  0.89119899477E+00  0.88000000000E+00 0. -1.
        -11    1    4    4    0    0 -0.33372056634E-01  0.29432131259E-01 -0.17426713047E-01  0.47790124116E-01  0.51100000000E-03 0.  1.
         11    1    4    4    0    0 -0.71121657077E-01  0.29931994480E-01 -0.23502954607E-01  0.80665137421E-01  0.51100000000E-03 0. -1.
</event>
<event>
 8    1  0.1145101E+005  0.1043930E+01  0.7957747E-01            NaN
         13   -1    0    0    0    0  0.00000000000E+00  0.00000000000E+00  0.74505805969E-08  0.10566000000E+00  0.10566000000E+00 0.  1.
     999900   -1    0    0    0    0 -0.00000000000E+00 -0.00000000000E+00 -0.74505805969E-08  0.93827000000E+00  0.93827000000E+00 0. -1.
     999902    2    1    2    0    0 -0.22222104811E-01  0.10767188022E-02 -0.72946619005E-02  0.10205164706E+01  0.10202478490E+01 0.  0.
     999903    2    3    3    0    0  0.60313258610E-01 -0.29342182958E-01 -0.10962393760E+00  0.13023074319E+00  0.21070973255E-01 0.  0.
         14    1    1    2    0    0  0.22222104811E-01 -0.10767188022E-02  0.72946619005E-02  0.23413529376E-01  0.00000000000E+00 0.  1.
     999901    1    3    3    0    0 -0.82535363420E-01  0.30418901760E-01  0.10232927570E+00  0.89028572743E+00  0.88000000000E+00 0.  1.
        -11    1    4    4    0    0  0.35038425899E-01 -0.24573010987E-01 -0.53667992435E-01  0.68644291033E-01  0.51100000000E-03 0.  1.
         11    1    4    4    0    0  0.25274832710E-01 -0.47691719705E-02 -0.55955945163E-01  0.61586452162E-01  0.51100000000E-03 0. -1.
</event>
<event>
 8    1  0.1145101E+005  0.1043930E+01  0.7957747E-01            NaN
         13   -1    0    0    0    0  0.00000000000E+00  0.00000000000E+00  0.74505805969E-08  0.10566000000E+00  0.10566000000E+00 0. -1.
     999900   -1    0    0    0    0 -0.00000000000E+00 -0.00000000000E+00 -0.74505805969E-08  0.93827000000E+00  0.93827000000E+00 0. -1.
     999902    2    1    2    0    0  0.15114395737E-01  0.78423850501E-02 -0.13679789488E-01  0.10220877336E+01  0.10218543196E+01 0.  0.
     999903    2    3    3    0    0  0.13154976383E+00  0.16680578849E-01 -0.85415545360E-02  0.13435933476E+00  0.19897000009E-01 0.  0.
         14    1    1    2    0    0 -0.15114395737E-01 -0.78423850501E-02  0.13679789488E-01  0.21842266417E-01  0.00000000000E+00 0. -1.
     999901    1    3    3    0    0 -0.11643536809E+00 -0.88381937993E-02 -0.51382349525E-02  0.88772839882E+00  0.88000000000E+00 0. -1.
        -11    1    4    4    0    0  0.84820944373E-01  0.23936368556E-02 -0.10182680510E-01  0.85465023285E-01  0.51100000000E-03 0.  1.
         11    1    4    4    0    0  0.46728819458E-01  0.14286941994E-01  0.16411259736E-02  0.48894311479E-01  0.51100000000E-03 0. -1.
</event>
<event>
 8    1  0.1145101E+005  0.1043930E+01  0.7957747E-01            NaN
         13   -1    0    0    0    0  0.00000000000E+00  0.00000000000E+00  0.74505805969E-08  0.10566000000E+00  0.10566000000E+00 0.  1.
     999900   -1    0    0    0    0 -0.00000000000E+00 -0.00000000000E+00 -0.74505805969E-08  0.93827000000E+00  0.93827000000E+00 0. -1.
     999902    2    1    2    0    0 -0.14178637207E-01 -0.12783549524E-01 -0.13691609718E-01  0.10204371699E+01  0.10201667043E+01 0.  0.
     999903    2    3    3    0    0 -0.33393037784E-01 -0.16000774156E-02  0.12358719040E+00  0.12951644824E+00  0.19571957324E-01 0.  0.
         14    1    1    2    0    0  0.14178637207E-01  0.12783549524E-01  0.13691609718E-01  0.23492830143E-01  0.00000000000E+00 0.  1.
     999901    1    3    3    0    0  0.19214400578E-01 -0.11183472109E-01 -0.13727880012E+00  0.89092072161E+00  0.88000000000E+00 0. -1.
        -11    1    4    4    0    0 -0.19290379323E-01  0.68873305688E-02  0.87224198871E-01  0.89598415424E-01  0.51100000000E-03 0.  1.
         11    1    4    4    0    0 -0.14102658461E-01 -0.84874079844E-02  0.36362991533E-01  0.39918032819E-01  0.51100000000E-03 0. -1.
</event>
<event>
 8    1  0.1145101E+005  0.1043930E+01  0.7957747E-01            NaN
         13   -1    0    0    0    0  0.00000000000E+00  0.00000000000E+00  0.74505805969E-08  0.10566000000E+00  0.10566000000E+00 0. -1.
     999900   -1    0    0    0    0 -0.00000000000E+00 -0.00000000000E+00 -0.74505805969E-08  0.93827000000E+00  0.93827000000E+00 0.  1.
     999902    2    1    2    0    0  0.55186388111E-02 -0.12765603186E-01  0.18956754289E-01  0.10204188424E+01  0.10201479497E+01 0.  0.
     999903    2    3    3    0    0  0.80804943042E-01  0.40384759490E-02 -0.98708259846E-01  0.12924239508E+00  0.20359961135E-01 0.  0.
         14    1    1    2    0    0 -0.55186388111E-02  0.12765603186E-01 -0.18956754289E-01  0.23511157610E-01  0.00000000000E+00 0.  1.
     999901    1    3    3    0    0 -0.75286304230E-01 -0.16804079135E-01  0.11766501413E+00  0.89117644731E+00  0.88000000000E+00 0. -1.
        -11    1    4    4    0    0  0.20566378649E-01 -0.71567465769E-02 -0.31482003695E-01  0.38282798094E-01  0.51100000000E-03 0.  1.
         11    1    4    4    0    0  0.60238564393E-01  0.11195222526E-01 -0.67226256151E-01  0.90959596990E-01  0.51100000000E-03 0. -1.
</event>
<event>
 8    1  0.1145101E+005  0.1043930E+01  0.7957747E-01            NaN
         13   -1    0    0    0    0  0.00000000000E+00  0.00000000000E+00  0.74505805969E-08  0.10566000000E+00  0.10566000000E+00 0.  1.
     999900   -1    0    0    0    0 -0.00000000000E+00 -0.00000000000E+00 -0.74505805969E-08  0.93827000000E+00  0.93827000000E+00 0. -1.
     999902    2    1    2    0    0  0.18525661405E-02 -0.10376685365E-01  0.22023947315E-01  0.10195135741E+01  0.10192211565E+01 0.  0.
     999903    2    3    3    0    0  0.16018876406E-01 -0.86708976662E-01  0.97560416200E-01  0.13287212388E+00  0.19024075803E-01 0.  0.
         14    1    1    2    0    0 -0.18525661405E-02  0.10376685365E-01 -0.22023947315E-01  0.24416425942E-01  0.00000000000E+00 0. -1.
     999901    1    3    3    0    0 -0.14166310265E-01  0.76332291298E-01 -0.75536468885E-01  0.88664145018E+00  0.88000000000E+00 0. -1.
        -11    1    4    4    0    0  0.18123429673E-01 -0.48144452720E-01  0.59294333590E-01  0.78501121952E-01  0.51100000000E-03 0.  1.
         11    1    4    4    0    0 -0.21045532675E-02 -0.38564523942E-01  0.38266082610E-01  0.54371001928E-01  0.51100000000E-03 0. -1.
</event>
<event>
 8    1  0.1145101E+005  0.1043930E+01  0.7957747E-01            NaN
         13   -1    0    0    0    0  0.00000000000E+00  0.00000000000E+00  0.74505805969E-08  0.10566000000E+00  0.10566000000E+00 0.  1.
     999900   -1    0    0    0    0 -0.00000000000E+00 -0.00000000000E+00 -0.74505805969E-08  0.93827000000E+00  0.93827000000E+00 0. -1.
     999902    2    1    2    0    0 -0.13687604141E-01  0.18482790976E-01 -0.77959132007E-02  0.10196454302E+01  0.10193562002E+01 0.  0.
     999903    2    3    3    0    0 -0.12091017063E+00 -0.42387018512E-01 -0.18767369465E-01  0.13098228514E+00  0.19703201881E-01 0.  0.
         14    1    1    2    0    0  0.13687604141E-01 -0.18482790976E-01  0.77959132007E-02  0.24284569834E-01  0.00000000000E+00 0.  1.
     999901    1    3    3    0    0  0.10722256649E+00  0.60869809488E-01  0.10971456264E-01  0.88866314502E+00  0.88000000000E+00 0.  1.
        -11    1    4    4    0    0 -0.65043208513E-01 -0.21144121754E-01 -0.19792944174E-01  0.71201928474E-01  0.51100000000E-03 0. -1.
         11    1    4    4    0    0 -0.55866962117E-01 -0.21242896758E-01  0.10255747089E-02  0.59780356668E-01  0.51100000000E-03 0.  1.
</event>
<event>
 8    1  0.1145101E+005  0.1043930E+01  0.7957747E-01            NaN
         13   -1    0    0    0    0  0.00000000000E+00  0.00000000000E+00  0.74505805969E-08  0.10566000000E+00  0.10566000000E+00 0.  1.
     999900   -1    0    0    0    0 -0.00000000000E+00 -0.00000000000E+00 -0.74505805969E-08  0.93827000000E+00  0.93827000000E+00 0.  1.
     999902    2    1    2    0    0  0.19414706121E-01 -0.12551148472E-01  0.77700918032E-02  0.10195407305E+01  0.10192489709E+01 0.  0.
     999903    2    3    3    0    0  0.32670934813E-01  0.66196338657E-01  0.10569724770E+00  0.13051507156E+00  0.20320691422E-01 0.  0.
         14    1    1    2    0    0 -0.19414706121E-01  0.12551148472E-01 -0.77700918032E-02  0.24389269533E-01  0.00000000000E+00 0. -1.
     999901    1    3    3    0    0 -0.13256228692E-01 -0.78747487129E-01 -0.97927155900E-01  0.88902565890E+00  0.88000000000E+00 0.  1.
        -11    1    4    4    0    0  0.31030749173E-01  0.42388691023E-01  0.76509943231E-01  0.92810242188E-01  0.51100000000E-03 0.  1.
         11    1    4    4    0    0  0.16401856399E-02  0.23807647633E-01  0.29187304472E-01  0.37704829374E-01  0.51100000000E-03 0. -1.
</event>
<event>
 8    1  0.1145101E+005  0.1043930E+01  0.7957747E-01            NaN
         13   -1    0    0    0    0  0.00000000000E+00  0.00000000000E+00  0.74505805969E-08  0.10566000000E+00  0.10566000000E+00 0. -1.
     999900   -1    0    0    0    0 -0.00000000000E+00 -0.00000000000E+00 -0.74505805969E-08  0.93827000000E+00  0.93827000000E+00 0. -1.
     999902    2    1    2    0    0 -0.18325106903E-01  0.46782827156E-03 -0.13598481879E-01  0.10211057341E+01  0.10208506125E+01 0.  0.
     999903    2    3    3    0    0  0.55234032907E-01  0.75462162413E-01  0.86860790862E-01  0.12918243989E+00  0.19949171395E-01 0.  0.
         14    1    1    2    0    0  0.18325106903E-01 -0.46782827156E-03  0.13598481879E-01  0.22824265941E-01  0.00000000000E+00 0. -1.
     999901    1    3    3    0    0 -0.73559139811E-01 -0.74994334142E-01 -0.10045927274E+00  0.89192329417E+00  0.88000000000E+00 0. -1.
        -11    1    4    4    0    0  0.10000050606E-01  0.26117188913E-01  0.33021166694E-01  0.43275479659E-01  0.51100000000E-03 0.  1.
         11    1    4    4    0    0  0.45233982301E-01  0.49344973500E-01  0.53839624167E-01  0.85906960230E-01  0.51100000000E-03 0. -1.
</event>
<event>
 8    1  0.1145101E+005  0.1043930E+01  0.7957747E-01            NaN
         13   -1    0    0    0    0  0.00000000000E+00  0.00000000000E+00  0.74505805969E-08  0.10566000000E+00  0.10566000000E+00 0.  1.
     999900   -1    0    0    0    0 -0.00000000000E+00 -0.00000000000E+00 -0.74505805969E-08  0.93827000000E+00  0.93827000000E+00 0. -1.
     999902    2    1    2    0    0 -0.11401750910E-01 -0.32896883236E-02 -0.20913744369E-01  0.10198840715E+01  0.10196005652E+01 0.  0.
     999903    2    3    3    0    0  0.22097571029E-01  0.58488351450E-01 -0.11520114673E+00  0.13206154138E+00  0.16116966349E-01 0.  0.
         14    1    1    2    0    0  0.11401750910E-01  0.32896883236E-02  0.20913744369E-01  0.24045928483E-01  0.00000000000E+00 0. -1.
     999901    1    3    3    0    0 -0.33499321939E-01 -0.61778039774E-01  0.94287402360E-01  0.88782253013E+00  0.88000000000E+00 0.  1.
        -11    1    4    4    0    0  0.79737390477E-02  0.73886898206E-02 -0.13229186588E-01  0.17130258330E-01  0.51100000000E-03 0. -1.
         11    1    4    4    0    0  0.14123831981E-01  0.51099661630E-01 -0.10197196014E+00  0.11493128305E+00  0.51100000000E-03 0.  1.
</event>
<event>
 8    1  0.1145101E+005  0.1043930E+01  0.7957747E-01            NaN
         13   -1    0    0    0    0  0.00000000000E+00  0.00000000000E+00  0.74505805969E-08  0.10566000000E+00  0.10566000000E+00 0. -1.
     999900   -1    0    0    0    0 -0.00000000000E+00 -0.00000000000E+00 -0.74505805969E-08  0.93827000000E+00  0.93827000000E+00 0. -1.
     999902    2    1    2    0    0 -0.65834241924E-02 -0.35959761539E-02 -0.30089769033E-01  0.10129192483E+01  0.10124444365E+01 0.  0.
     999903    2    3    3    0    0  0.35343552876E-01  0.11616879122E+00 -0.14853120221E-01  0.12368720529E+00  0.18263482368E-01 0.  0.
         14    1    1    2    0    0  0.65834241924E-02  0.35959761539E-02  0.30089769033E-01  0.31010751668E-01  0.00000000000E+00 0. -1.
     999901    1    3    3    0    0 -0.41926977068E-01 -0.11976476737E+00 -0.15236648811E-01  0.88923204304E+00  0.88000000000E+00 0. -1.
        -11    1    4    4    0    0  0.18552906931E-01  0.61205712780E-01 -0.16985228117E-01  0.66174834550E-01  0.51100000000E-03 0. -1.
         11    1    4    4    0    0  0.16790645945E-01  0.54963078439E-01  0.21321078954E-02  0.57512370738E-01  0.51100000000E-03 0.  1.
</event>
<event>
 8    1  0.1145101E+005  0.1043930E+01  0.7957747E-01            NaN
         13   -1    0    0    0    0  0.00000000000E+00  0.00000000000E+00  0.74505805969E-08  0.10566000000E+00  0.10566000000E+00 0. -1.
     999900   -1    0    0    0    0 -0.00000000000E+00 -0.00000000000E+00 -0.74505805969E-08  0.93827000000E+00  0.93827000000E+00 0.  1.
     999902    2    1    2    0    0  0.21509610257E-03  0.56817025777E-02  0.25794661625E-01  0.10175161290E+01  0.10171732302E+01 0.  0.
     999903    2    3    3    0    0 -0.79778133955E-01 -0.59697200166E-01  0.80775765254E-01  0.12976828222E+00  0.19666633008E-01 0.  0.
         14    1    1    2    0    0 -0.21509610257E-03 -0.56817025777E-02 -0.25794661625E-01  0.26413870955E-01  0.00000000000E+00 0.  1.
     999901    1    3    3    0    0  0.79993230057E-01  0.65378902744E-01 -0.54981103630E-01  0.88774784682E+00  0.88000000000E+00 0.  1.
        -11    1    4    4    0    0 -0.22199673920E-01 -0.72315918344E-02  0.14482153052E-01  0.27479361722E-01  0.51100000000E-03 0.  1.
         11    1    4    4    0    0 -0.57578460035E-01 -0.52465608332E-01  0.66293612203E-01  0.10228892050E+00  0.51100000000E-03 0. -1.
</event>
<event>
 8    1  0.1145101E+005  0.1043930E+01  0.7957747E-01            NaN
         13   -1    0    0    0    0  0.00000000000E+00  0.00000000000E+00  0.74505805969E-08  0.10566000000E+00  0.10566000000E+00 0.  1.
     999900   -1    0    0    0    0 -0.00000000000E+00 -0.00000000000E+00 -0.74505805969E-08  0.93827000000E+00  0.93827000000E+00 0.  1.
     999902    2    1    2    0    0  0.90055955186E-03 -0.89940528980E-03  0.23542777941E-01  0.10203528430E+01  0.10200804096E+01 0.  0.
     999903    2    3    3    0    0  0.44211675164E-01 -0.11205055045E+00  0.49256260120E-01  0.13193198951E+00  0.21676545360E-01 0.  0.
         14    1    1    2    0    0 -0.90055955186E-03  0.89940528980E-03 -0.23542777941E-01  0.23577156966E-01  0.00000000000E+00 0. -1.
     999901    1    3    3    0    0 -0.43311115613E-01  0.11115114516E+00 -0.25713482179E-01  0.88842085352E+00  0.88000000000E+00 0. -1.
        -11    1    4    4    0    0  0.27721247184E-01 -0.50940126342E-01  0.14766220515E-01  0.59847025042E-01  0.51100000000E-03 0.  1.
         11    1    4    4    0    0  0.16490427981E-01 -0.61110424109E-01  0.34490039606E-01  0.72084964471E-01  0.51100000000E-03 0. -1.
</event>
<event>
 8    1  0.1145101E+005  0.1043930E+01  0.7957747E-01            NaN
         13   -1    0    0    0    0  0.00000000000E+00  0.00000000000E+00  0.74505805969E-08  0.10566000000E+00  0.10566000000E+00 0.  1.
     999900   -1    0    0    0    0 -0.00000000000E+00 -0.00000000000E+00 -0.74505805969E-08  0.93827000000E+00  0.93827000000E+00 0. -1.
     999902    2    1    2    0    0 -0.31564743117E-02  0.17812166599E-01 -0.17755930120E-01  0.10185822257E+01  0.10182667827E+01 0.  0.
     999903    2    3    3    0    0  0.48316473648E-01  0.11963742863E+00 -0.12424479465E-01  0.13120053061E+00  0.20288311583E-01 0.  0.
         14    1    1    2    0    0  0.31564743117E-02 -0.17812166599E-01  0.17755930120E-01  0.25347774330E-01  0.00000000000E+00 0. -1.
     999901    1    3    3    0    0 -0.51472947960E-01 -0.10182526203E+00 -0.53314506552E-02  0.88738169506E+00  0.88000000000E+00 0.  1.
        -11    1    4    4    0    0  0.33800626339E-01  0.57288268545E-01 -0.41247261588E-02  0.66646099216E-01  0.51100000000E-03 0.  1.
         11    1    4    4    0    0  0.14515847308E-01  0.62349160088E-01 -0.82997533058E-02  0.64554431395E-01  0.51100000000E-03 0. -1.
</event>
<event>
 8    1  0.1145101E+005  0.1043930E+01  0.7957747E-01            NaN
         13   -1    0    0    0    0  0.00000000000E+00  0.00000000000E+00  0.74505805969E-08  0.10566000000E+00  0.10566000000E+00 0. -1.
     999900   -1    0    0    0    0 -0.00000000000E+00 -0.00000000000E+00 -0.74505805969E-08  0.93827000000E+00  0.93827000000E+00 0. -1.
     999902    2    1    2    0    0  0.16873426502E-01  0.73502210759E-02  0.15647542910E-01  0.10197725194E+01  0.10194863449E+01 0.  0.
     999903    2    3    3    0    0 -0.20698193139E-01 -0.23961532276E-02  0.12837173704E+00  0.13173346484E+00  0.20982043214E-01 0.  0.
         14    1    1    2    0    0 -0.16873426502E-01 -0.73502210759E-02 -0.15647542910E-01  0.24157480640E-01  0.00000000000E+00 0.  1.
     999901    1    3    3    0    0  0.37571619640E-01  0.97463743035E-02 -0.11272419413E+00  0.88803905452E+00  0.88000000000E+00 0. -1.
        -11    1    4    4    0    0 -0.18705880878E-01 -0.75936612505E-02  0.63792317474E-01  0.66912588952E-01  0.51100000000E-03 0. -1.
         11    1    4    4    0    0 -0.19923122613E-02  0.51975080229E-02  0.64579419568E-01  0.64820875885E-01  0.51100000000E-03 0.  1.
</event>
<event>
 8    1  0.1145101E+005  0.1043930E+01  0.7957747E-01            NaN
         13   -1    0    0    0    0  0.00000000000E+00  0.00000000000E+00  0.74505805969E-08  0.10566000000E+00  0.10566000000E+00 0. -1.
     999900   -1    0    0    0    0 -0.00000000000E+00 -0.00000000000E+00 -0.74505805969E-08  0.93827000000E+00  0.93827000000E+00 0.  1.
     999902    2    1    2    0    0  0.37976120246E-02  0.54600885012E-02  0.23208293961E-01  0.10197875202E+01  0.10195017052E+01 0.  0.
     999903    2    3    3    0    0 -0.38773624980E-01  0.91086775442E-01  0.85749170320E-01  0.13240056909E+00  0.19411229505E-01 0.  0.
         14    1    1    2    0    0 -0.37976120246E-02 -0.54600885012E-02 -0.23208293961E-01  0.24142479825E-01  0.00000000000E+00 0.  1.
     999901    1    3    3    0    0  0.42571237005E-01 -0.85626686940E-01 -0.62540876360E-01  0.88738695108E+00  0.88000000000E+00 0.  1.
        -11    1    4    4    0    0 -0.35012701870E-01  0.84832117823E-01  0.71343099614E-01  0.11624317825E+00  0.51100000000E-03 0.  1.
         11    1    4    4    0    0 -0.37609231097E-02  0.62546576183E-02  0.14406070707E-01  0.16157390840E-01  0.51100000000E-03 0. -1.
</event>
<event>
 8    1  0.1145101E+005  0.1043930E+01  0.7957747E-01            NaN
         13   -1    0    0    0    0  0.00000000000E+00  0.00000000000E+00  0.74505805969E-08  0.10566000000E+00  0.10566000000E+00 0.  1.
     999900   -1    0    0    0    0 -0.00000000000E+00 -0.00000000000E+00 -0.74505805969E-08  0.93827000000E+00  0.93827000000E+00 0. -1.
     999902    2    1    2    0    0 -0.17480308465E-01  0.35122936902E-02 -0.14476331653E-01  0.10209634685E+01  0.10207051202E+01 0.  0.
     999903    2    3    3    0    0 -0.89268179601E-01  0.66658569885E-01 -0.71717464180E-01  0.13393613076E+00  0.19578550178E-01 0.  0.
         14    1    1    2    0    0  0.17480308465E-01 -0.35122936902E-02  0.14476331653E-01  0.22966531500E-01  0.00000000000E+00 0. -1.
     999901    1    3    3    0    0  0.71787871136E-01 -0.63146276194E-01  0.57241132527E-01  0.88702733774E+00  0.88000000000E+00 0.  1.
        -11    1    4    4    0    0 -0.11625241712E-01  0.61981752799E-02 -0.16412465326E-01  0.21052167601E-01  0.51100000000E-03 0.  1.
         11    1    4    4    0    0 -0.77642937889E-01  0.60460394605E-01 -0.55304998855E-01  0.11288396316E+00  0.51100000000E-03 0. -1.
</event>
<event>
 8    1  0.1145101E+005  0.1043930E+01  0.7957747E-01            NaN
         13   -1    0    0    0    0  0.00000000000E+00  0.00000000000E+00  0.74505805969E-08  0.10566000000E+00  0.10566000000E+00 0. -1.
     999900   -1    0    0    0    0 -0.00000000000E+00 -0.00000000000E+00 -0.74505805969E-08  0.93827000000E+00  0.93827000000E+00 0.  1.
     999902    2    1    2    0    0  0.17868356189E-01 -0.13375729540E-01  0.78244144646E-02  0.10202781553E+01  0.10200039728E+01 0.  0.
     999903    2    3    3    0    0  0.41905563600E-01  0.99783009661E-01 -0.68191485324E-01  0.12945768824E+00  0.19912033964E-01 0.  0.
         14    1    1    2    0    0 -0.17868356189E-01  0.13375729540E-01 -0.78244144646E-02  0.23651844650E-01  0.00000000000E+00 0.  1.
     999901    1    3    3    0    0 -0.24037207410E-01 -0.11315873920E+00  0.76015899788E-01  0.89082046711E+00  0.88000000000E+00 0.  1.
        -11    1    4    4    0    0  0.16535468133E-01  0.28432067937E-01 -0.30536705791E-01  0.44883802370E-01  0.51100000000E-03 0.  1.
         11    1    4    4    0    0  0.25370095467E-01  0.71350941724E-01 -0.37654779533E-01  0.84573885872E-01  0.51100000000E-03 0. -1.
</event>
<event>
 8    1  0.1145101E+005  0.1043930E+01  0.7957747E-01            NaN
         13   -1    0    0    0    0  0.00000000000E+00  0.00000000000E+00  0.74505805969E-08  0.10566000000E+00  0.10566000000E+00 0.  1.
     999900   -1    0    0    0    0 -0.00000000000E+00 -0.00000000000E+00 -0.74505805969E-08  0.93827000000E+00  0.93827000000E+00 0. -1.
     999902    2    1    2    0    0  0.22038920796E-02  0.19780958062E-01 -0.14086099419E-01  0.10195463653E+01  0.10192547422E+01 0.  0.
     999903    2    3    3    0    0 -0.38935547388E-01 -0.33315410338E-01  0.11506020515E+00  0.12758759623E+00  0.20343315526E-01 0.  0.
         14    1    1    2    0    0 -0.22038920796E-02 -0.19780958062E-01  0.14086099419E-01  0.24383634655E-01  0.00000000000E+00 0.  1.
     999901    1    3    3    0    0  0.41139439467E-01  0.53096368400E-01 -0.12914630457E+00  0.89195876911E+00  0.88000000000E+00 0. -1.
        -11    1    4    4    0    0 -0.15752335697E-01 -0.16078379857E-01  0.74221572498E-01  0.77561287533E-01  0.51100000000E-03 0.  1.
         11    1    4    4    0    0 -0.23183211691E-01 -0.17237030480E-01  0.40838632651E-01  0.50026308698E-01  0.51100000000E-03 0. -1.
</event>
<event>
 8    1  0.1145101E+005  0.1043930E+01  0.7957747E-01            NaN
         13   -1    0    0    0    0  0.00000000000E+00  0.00000000000E+00  0.74505805969E-08  0.10566000000E+00  0.10566000000E+00 0. -1.
     999900   -1    0    0    0    0 -0.00000000000E+00 -0.00000000000E+00 -0.74505805969E-08  0.93827000000E+00  0.93827000000E+00 0.  1.
     999902    2    1    2    0    0  0.52655669629E-02 -0.22999591615E-01  0.48837412193E-02  0.10198352218E+01  0.10195505486E+01 0.  0.
     999903    2    3    3    0    0  0.90104624594E-02  0.12390286067E+00  0.20110204748E-01  0.12752014293E+00  0.20587841073E-01 0.  0.
         14    1    1    2    0    0 -0.52655669629E-02  0.22999591615E-01 -0.48837412193E-02  0.24094778235E-01  0.00000000000E+00 0. -1.
     999901    1    3    3    0    0 -0.37448954965E-02 -0.14690245229E+00 -0.15226463529E-01  0.89231507884E+00  0.88000000000E+00 0.  1.
        -11    1    4    4    0    0 -0.18787915431E-02  0.43130394766E-01 -0.14958218777E-02  0.43200224704E-01  0.51100000000E-03 0.  1.
         11    1    4    4    0    0  0.10889254002E-01  0.80772465907E-01  0.21606026626E-01  0.84319918223E-01  0.51100000000E-03 0. -1.
</event>
<event>
 8    1  0.1145101E+005  0.1043930E+01  0.7957747E-01            NaN
         13   -1    0    0    0    0  0.00000000000E+00  0.00000000000E+00  0.74505805969E-08  0.10566000000E+00  0.10566000000E+00 0. -1.
     999900   -1    0    0    0    0 -0.00000000000E+00 -0.00000000000E+00 -0.74505805969E-08  0.93827000000E+00  0.93827000000E+00 0.  1.
     999902    2    1    2    0    0  0.58021773847E-02 -0.81376315843E-02  0.21434141580E-01  0.10202802910E+01  0.10200061586E+01 0.  0.
     999903    2    3    3    0    0  0.52280167918E-01  0.49837553165E-01  0.10976817583E+00  0.13274199479E+00  0.18825171732E-01 0.  0.
         14    1    1    2    0    0 -0.58021773847E-02  0.81376315843E-02 -0.21434141580E-01  0.23649708994E-01  0.00000000000E+00 0.  1.
     999901    1    3    3    0    0 -0.46477990534E-01 -0.57975184749E-01 -0.88334034254E-01  0.88753829622E+00  0.88000000000E+00 0.  1.
        -11    1    4    4    0    0  0.43036941097E-01  0.36205481911E-01  0.70711597707E-01  0.90351571047E-01  0.51100000000E-03 0.  1.
         11    1    4    4    0    0  0.92432268209E-02  0.13632071255E-01  0.39056578127E-01  0.42390423739E-01  0.51100000000E-03 0. -1.
</event>
<event>
 8    1  0.1145101E+005  0.1043930E+01  0.7957747E-01            NaN
         13   -1    0    0    0    0  0.00000000000E+00  0.00000000000E+00  0.74505805969E-08  0.10566000000E+00  0.10566000000E+00 0.  1.
     999900   -1    0    0    0    0 -0.00000000000E+00 -0.00000000000E+00 -0.74505805969E-08  0.93827000000E+00  0.93827000000E+00 0. -1.
     999902    2    1    2    0    0 -0.32071368115E-02  0.84407060013E-02 -0.22841114252E-01  0.10193688977E+01  0.10190729620E+01 0.  0.
     999903    2    3    3    0    0 -0.94024367065E-01  0.51167681173E-01 -0.74664337522E-01  0.13214907706E+00  0.20734079973E-01 0.  0.
         14    1    1    2    0    0  0.32071368115E-02 -0.84407060013E-02  0.22841114252E-01  0.24561102268E-01  0.00000000000E+00 0.  1.
     999901    1    3    3    0    0  0.90817230254E-01 -0.42726975172E-01  0.51823223269E-01  0.88721982067E+00  0.88000000000E+00 0.  1.
        -11    1    4    4    0    0 -0.63692246124E-01  0.41485660837E-01 -0.61146461679E-01  0.97554667588E-01  0.51100000000E-03 0. -1.
         11    1    4    4    0    0 -0.30332120942E-01  0.96820203367E-02 -0.13517875842E-01  0.34594409475E-01  0.51100000000E-03 0.  1.
</event>
<event>
 8    1  0.1145101E+005  0.1043930E+01  0.7957747E-01            NaN
         13   -1    0    0    0    0  0.00000000000E+00  0.00000000000E+00  0.74505805969E-08  0.10566000000E+00  0.10566000000E+00 0. -1.
     999900   -1    0    0    0    0 -0.00000000000E+00 -0.00000000000E+00 -0.74505805969E-08  0.93827000000E+00  0.93827000000E+00 0.  1.
     999902    2    1    2    0    0  0.15332392568E-03 -0.15148781687E-01 -0.16103508414E-01  0.10218204528E+01  0.10215812281E+01 0.  0.
     999903    2    3    3    0    0  0.63371914609E-01 -0.11609179637E+00 -0.48554053605E-02  0.13372552416E+00  0.19121613606E-01 0.  0.
         14    1    1    2    0    0 -0.15332392568E-03  0.15148781687E-01  0.16103508414E-01  0.22109547215E-01  0.00000000000E+00 0. -1.
     999901    1    3    3    0    0 -0.63218590683E-01  0.10094301468E+00 -0.11248103053E-01  0.88809492862E+00  0.88000000000E+00 0. -1.
        -11    1    4    4    0    0  0.42708195670E-01 -0.76491303969E-01  0.58066466728E-02  0.87800272361E-01  0.51100000000E-03 0.  1.
         11    1    4    4    0    0  0.20663718939E-01 -0.39600492398E-01 -0.10662052033E-01  0.45925251802E-01  0.51100000000E-03 0. -1.
</event>
<event>
 8    1  0.1145101E+005  0.1043930E+01  0.7957747E-01            NaN
         13   -1    0    0    0    0  0.00000000000E+00  0.00000000000E+00  0.74505805969E-08  0.10566000000E+00  0.10566000000E+00 0.  1.
     999900   -1    0    0    0    0 -0.00000000000E+00 -0.00000000000E+00 -0.74505805969E-08  0.93827000000E+00  0.93827000000E+00 0.  1.
     999902    2    1    2    0    0  0.11545938479E-01 -0.15949518123E-02  0.20471361532E-01  0.10203730645E+01  0.10201011036E+01 0.  0.
     999903    2    3    3    0    0  0.28313442956E-01  0.20198811966E-02  0.12895559265E+00  0.13354554767E+00  0.19978424740E-01 0.  0.
         14    1    1    2    0    0 -0.11545938479E-01  0.15949518123E-02 -0.20471361532E-01  0.23556935489E-01  0.00000000000E+00 0. -1.
     999901    1    3    3    0    0 -0.16767504476E-01 -0.36148330089E-02 -0.10848423112E+00  0.88682751684E+00  0.88000000000E+00 0.  1.
        -11    1    4    4    0    0  0.25016791878E-01  0.48804368401E-02  0.71261826308E-01  0.75684658613E-01  0.51100000000E-03 0.  1.
         11    1    4    4    0    0  0.32966510779E-02 -0.28605556435E-02  0.57693766341E-01  0.57860889057E-01  0.51100000000E-03 0. -1.
</event>
<event>
 8    1  0.1145101E+005  0.1043930E+01  0.7957747E-01            NaN
         13   -1    0    0    0    0  0.00000000000E+00  0.00000000000E+00  0.74505805969E-08  0.10566000000E+00  0.10566000000E+00 0. -1.
     999900   -1    0    0    0    0 -0.00000000000E+00 -0.00000000000E+00 -0.74505805969E-08  0.93827000000E+00  0.93827000000E+00 0. -1.
     999902    2    1    2    0    0  0.14917054903E-01 -0.11015030873E-01 -0.13884202655E-01  0.10207649290E+01  0.10205020430E+01 0.  0.
     999903    2    3    3    0    0  0.10920430239E+00 -0.46411243682E-01  0.54608023273E-01  0.13237640928E+00  0.21491726941E-01 0.  0.
         14    1    1    2    0    0 -0.14917054903E-01  0.11015030873E-01  0.13884202655E-01  0.23165071022E-01  0.00000000000E+00 0. -1.
     999901    1    3    3    0    0 -0.94287247488E-01  0.35396212809E-01 -0.68492225928E-01  0.88838851970E+00  0.88000000000E+00 0.  1.
        -11    1    4    4    0    0  0.36788140642E-01 -0.26176396126E-01  0.24581981546E-01  0.51411146104E-01  0.51100000000E-03 0. -1.
         11    1    4    4    0    0  0.72416161749E-01 -0.20234847555E-01  0.30026041728E-01  0.80965263175E-01  0.51100000000E-03 0.  1.
</event>
<event>
 8    1  0.1145101E+005  0.1043930E+01  0.7957747E-01            NaN
         13   -1    0    0    0    0  0.00000000000E+00  0.00000000000E+00  0.74505805969E-08  0.10566000000E+00  0.10566000000E+00 0.  1.
     999900   -1    0    0    0    0 -0.00000000000E+00 -0.00000000000E+00 -0.74505805969E-08  0.93827000000E+00  0.93827000000E+00 0. -1.
     999902    2    1    2    0    0  0.10126756429E-01 -0.13338607258E-01 -0.20572333434E-01  0.10174028339E+01  0.10170569482E+01 0.  0.
     999903    2    3    3    0    0 -0.93508639758E-01 -0.71736019945E-02 -0.86429700169E-01  0.12885598909E+00  0.18396917638E-01 0.  0.
         14    1    1    2    0    0 -0.10126756429E-01  0.13338607258E-01  0.20572333434E-01  0.26527166119E-01  0.00000000000E+00 0.  1.
     999901    1    3    3    0    0  0.10363539619E+00 -0.61650052640E-02  0.65857366735E-01  0.88854684479E+00  0.88000000000E+00 0.  1.
        -11    1    4    4    0    0 -0.28743953778E-01 -0.64348421107E-02 -0.37462231949E-01  0.47658178893E-01  0.51100000000E-03 0.  1.
         11    1    4    4    0    0 -0.64764685979E-01 -0.73875988382E-03 -0.48967468220E-01  0.81197810198E-01  0.51100000000E-03 0. -1.
</event>
<event>
 8    1  0.1145101E+005  0.1043930E+01  0.7957747E-01            NaN
         13   -1    0    0    0    0  0.00000000000E+00  0.00000000000E+00  0.74505805969E-08  0.10566000000E+00  0.10566000000E+00 0.  1.
     999900   -1    0    0    0    0 -0.00000000000E+00 -0.00000000000E+00 -0.74505805969E-08  0.93827000000E+00  0.93827000000E+00 0. -1.
     999902    2    1    2    0    0 -0.12162656263E-01  0.16271988999E-01 -0.11455848989E-01  0.10206073863E+01  0.10203408708E+01 0.  0.
     999903    2    3    3    0    0 -0.98184978484E-01  0.69054567082E-02 -0.87831533986E-01  0.13307101122E+00  0.17479712022E-01 0.  0.
         14    1    1    2    0    0  0.12162656263E-01 -0.16271988999E-01  0.11455848989E-01  0.23322613692E-01  0.00000000000E+00 0.  1.
     999901    1    3    3    0    0  0.86022322221E-01  0.93665322909E-02  0.76375684997E-01  0.88753637509E+00  0.88000000000E+00 0.  1.
        -11    1    4    4    0    0 -0.34671713476E-01  0.12083013792E-02 -0.20346249483E-01  0.40222117008E-01  0.51100000000E-03 0.  1.
         11    1    4    4    0    0 -0.63513265008E-01  0.56971553290E-02 -0.67485284503E-01  0.92848894211E-01  0.51100000000E-03 0. -1.
</event>
<event>
 8    1  0.1145101E+005  0.1043930E+01  0.7957747E-01            NaN
         13   -1    0    0    0    0  0.00000000000E+00  0.00000000000E+00  0.74505805969E-08  0.10566000000E+00  0.10566000000E+00 0.  1.
     999900   -1    0    0    0    0 -0.00000000000E+00 -0.00000000000E+00 -0.74505805969E-08  0.93827000000E+00  0.93827000000E+00 0.  1.
     999902    2    1    2    0    0 -0.14132014013E-01 -0.12521978491E-01 -0.13229173871E-01  0.10208751782E+01  0.10206148170E+01 0.  0.
     999903    2    3    3    0    0  0.11852970762E+00  0.39760406505E-01 -0.26252932492E-01  0.12930229930E+00  0.19992164117E-01 0.  0.
         14    1    1    2    0    0  0.14132014013E-01  0.12521978491E-01  0.13229173871E-01  0.23054821767E-01  0.00000000000E+00 0. -1.
     999901    1    3    3    0    0 -0.13266172163E+00 -0.52282384996E-01  0.13023758620E-01  0.89157287894E+00  0.88000000000E+00 0.  1.
        -11    1    4    4    0    0  0.52941383680E-01  0.28044847422E-01 -0.14542195607E-01  0.61652576158E-01  0.51100000000E-03 0.  1.
         11    1    4    4    0    0  0.65588323935E-01  0.11715559083E-01 -0.11710736885E-01  0.67649723138E-01  0.51100000000E-03 0. -1.
</event>
<event>
 8    1  0.1145101E+005  0.1043930E+01  0.7957747E-01            NaN
         13   -1    0    0    0    0  0.00000000000E+00  0.00000000000E+00  0.74505805969E-08  0.10566000000E+00  0.10566000000E+00 0. -1.
     999900   -1    0    0    0    0 -0.00000000000E+00 -0.00000000000E+00 -0.74505805969E-08  0.93827000000E+00  0.93827000000E+00 0.  1.
     999902    2    1    2    0    0 -0.57705764752E-02 -0.19764265510E-01  0.12139521761E-01  0.10200282483E+01  0.10197481717E+01 0.  0.
     999903    2    3    3    0    0  0.48864760483E-01 -0.12134066195E+00  0.68649456187E-02  0.13248635890E+00  0.19854136979E-01 0.  0.
         14    1    1    2    0    0  0.57705764752E-02  0.19764265510E-01 -0.12139521761E-01  0.23901751664E-01  0.00000000000E+00 0.  1.
     999901    1    3    3    0    0 -0.54635336958E-01  0.10157639644E+00  0.52745761424E-02  0.88754188944E+00  0.88000000000E+00 0. -1.
        -11    1    4    4    0    0  0.29509343144E-01 -0.56932196327E-01 -0.44655924564E-02  0.64282804453E-01  0.51100000000E-03 0.  1.
         11    1    4    4    0    0  0.19355417339E-01 -0.64408465625E-01  0.11330538075E-01  0.68203554442E-01  0.51100000000E-03 0. -1.
</event>
<event>
 8    1  0.1145101E+005  0.1043930E+01  0.7957747E-01            NaN
         13   -1    0    0    0    0  0.00000000000E+00  0.00000000000E+00  0.74505805969E-08  0.10566000000E+00  0.10566000000E+00 0. -1.
     999900   -1    0    0    0    0 -0.00000000000E+00 -0.00000000000E+00 -0.74505805969E-08  0.93827000000E+00  0.93827000000E+00 0. -1.
     999902    2    1    2    0    0 -0.66180972096E-02  0.11749413359E-01  0.20277640378E-01  0.10195777799E+01  0.10192869167E+01 0.  0.
     999903    2    3    3    0    0  0.55603489155E-01 -0.10477440212E+00 -0.42336367825E-01  0.12751845484E+00  0.19979112588E-01 0.  0.
         14    1    1    2    0    0  0.66180972096E-02 -0.11749413359E-01 -0.20277640378E-01  0.24352220109E-01  0.00000000000E+00 0.  1.
     999901    1    3    3    0    0 -0.62221586365E-01  0.11652381547E+00  0.62614008203E-01  0.89205932505E+00  0.88000000000E+00 0.  1.
        -11    1    4    4    0    0  0.38655074364E-01 -0.77107845220E-01 -0.21299744513E-01  0.88846917818E-01  0.51100000000E-03 0.  1.
         11    1    4    4    0    0  0.16948414791E-01 -0.27666556896E-01 -0.21036623312E-01  0.38671537024E-01  0.51100000000E-03 0. -1.
</event>
<event>
 8    1  0.1145101E+005  0.1043930E+01  0.7957747E-01            NaN
         13   -1    0    0    0    0  0.00000000000E+00  0.00000000000E+00  0.74505805969E-08  0.10566000000E+00  0.10566000000E+00 0. -1.
     999900   -1    0    0    0    0 -0.00000000000E+00 -0.00000000000E+00 -0.74505805969E-08  0.93827000000E+00  0.93827000000E+00 0. -1.
     999902    2    1    2    0    0 -0.81524501275E-02  0.19796513652E-01 -0.11325947841E-01  0.10197093169E+01  0.10194216250E+01 0.  0.
     999903    2    3    3    0    0 -0.11395837995E+00 -0.58140850606E-01 -0.11695238965E-01  0.12995133636E+00  0.19588270396E-01 0.  0.
         14    1    1    2    0    0  0.81524501275E-02 -0.19796513652E-01  0.11325947841E-01  0.24220683111E-01  0.00000000000E+00 0. -1.
     999901    1    3    3    0    0  0.10580592983E+00  0.77937364259E-01  0.36929112441E-03  0.88975798053E+00  0.88000000000E+00 0. -1.
        -11    1    4    4    0    0 -0.61300399167E-01 -0.31303204450E-01 -0.16074836414E-01  0.70684446900E-01  0.51100000000E-03 0.  1.
         11    1    4    4    0    0 -0.52657980787E-01 -0.26837646157E-01  0.43795974485E-02  0.59266889462E-01  0.51100000000E-03 0. -1.
</event>
<event>
 8    1  0.1145101E+005  0.1043930E+01  0.7957747E-01            NaN
         13   -1    0    0    0    0  0.00000000000E+00  0.00000000000E+00  0.74505805969E-08  0.10566000000E+00  0.10566000000E+00 0. -1.
     999900   -1    0    0    0    0 -0.00000000000E+00 -0.00000000000E+00 -0.74505805969E-08  0.93827000000E+00  0.93827000000E+00 0.  1.
     999902    2    1    2    0    0 -0.45752160454E-02 -0.85882660694E-02  0.16354801694E-01  0.10248992235E+01  0.10247225224E+01 0.  0.
     999903    2    3    3    0    0  0.46186672178E-01  0.13728753142E-01  0.12600508101E+00  0.13636222235E+00  0.19891905260E-01 0.  0.
         14    1    1    2    0    0  0.45752160454E-02  0.85882660694E-02 -0.16354801694E-01  0.19030776505E-01  0.00000000000E+00 0.  1.
     999901    1    3    3    0    0 -0.50761888223E-01 -0.22317019212E-01 -0.10965027932E+00  0.88853700114E+00  0.88000000000E+00 0.  1.
        -11    1    4    4    0    0  0.29474487919E-01  0.33275648359E-02  0.52888582675E-01  0.60640592215E-01  0.51100000000E-03 0. -1.
         11    1    4    4    0    0  0.16712184259E-01  0.10401188306E-01  0.73116498336E-01  0.75721630139E-01  0.51100000000E-03 0.  1.
</event>
<event>
 8    1  0.1145101E+005  0.1043930E+01  0.7957747E-01            NaN
         13   -1    0    0    0    0  0.00000000000E+00  0.00000000000E+00  0.74505805969E-08  0.10566000000E+00  0.10566000000E+00 0.  1.
     999900   -1    0    0    0    0 -0.00000000000E+00 -0.00000000000E+00 -0.74505805969E-08  0.93827000000E+00  0.93827000000E+00 0.  1.
     999902    2    1    2    0    0 -0.89837035189E-02 -0.89195735210E-02  0.19859026221E-01  0.10203790628E+01  0.10201072420E+01 0.  0.
     999903    2    3    3    0    0  0.11625649983E+00 -0.91395520084E-02 -0.50447390533E-01  0.12873555266E+00  0.20707441742E-01 0.  0.
         14    1    1    2    0    0  0.89837035189E-02  0.89195735210E-02 -0.19859026221E-01  0.23550937203E-01  0.00000000000E+00 0. -1.
     999901    1    3    3    0    0 -0.12524020335E+00  0.21997848745E-03  0.70306416754E-01  0.89164351013E+00  0.88000000000E+00 0. -1.
        -11    1    4    4    0    0  0.48620089054E-01  0.44016223413E-02 -0.14382213540E-01  0.50895938209E-01  0.51100000000E-03 0. -1.
         11    1    4    4    0    0  0.67636410780E-01 -0.13541174350E-01 -0.36065176992E-01  0.77839614455E-01  0.51100000000E-03 0.  1.
</event>
<event>
 8    1  0.1145101E+005  0.1043930E+01  0.7957747E-01            NaN
         13   -1    0    0    0    0  0.00000000000E+00  0.00000000000E+00  0.74505805969E-08  0.10566000000E+00  0.10566000000E+00 0. -1.
     999900   -1    0    0    0    0 -0.00000000000E+00 -0.00000000000E+00 -0.74505805969E-08  0.93827000000E+00  0.93827000000E+00 0. -1.
     999902    2    1    2    0    0  0.85354925342E-02  0.16263009326E-01 -0.15381047226E-01  0.10199734410E+01  0.10196920631E+01 0.  0.
     999903    2    3    3    0    0 -0.18192715486E-01  0.10117023124E+00 -0.81551317005E-01  0.13301113175E+00  0.21793422837E-01 0.  0.
         14    1    1    2    0    0 -0.85354925342E-02 -0.16263009326E-01  0.15381047226E-01  0.23956558996E-01  0.00000000000E+00 0.  1.
     999901    1    3    3    0    0  0.26728208020E-01 -0.84907221910E-01  0.66170269779E-01  0.88696230926E+00  0.88000000000E+00 0.  1.
        -11    1    4    4    0    0 -0.53800758336E-02  0.54103857450E-01 -0.30258891043E-01  0.62225671672E-01  0.51100000000E-03 0.  1.
         11    1    4    4    0    0 -0.12812639653E-01  0.47066373786E-01 -0.51292425963E-01  0.70785460077E-01  0.51100000000E-03 0. -1.
</event>
<event>
 8    1  0.1145101E+005  0.1043930E+01  0.7957747E-01            NaN
         13   -1    0    0    0    0  0.00000000000E+00  0.00000000000E+00  0.74505805969E-08  0.10566000000E+00  0.10566000000E+00 0. -1.
     999900   -1    0    0    0    0 -0.00000000000E+00 -0.00000000000E+00 -0.74505805969E-08  0.93827000000E+00  0.93827000000E+00 0. -1.
     999902    2    1    2    0    0  0.17062892256E-01 -0.98386095306E-02  0.11864947513E-01  0.10209361419E+01  0.10206771715E+01 0.  0.
     999903    2    3    3    0    0  0.92968657688E-01 -0.55553862950E-02  0.94011361791E-01  0.13384648208E+00  0.20067660301E-01 0.  0.
         14    1    1    2    0    0 -0.17062892256E-01  0.98386095306E-02 -0.11864947513E-01  0.22993858074E-01  0.00000000000E+00 0. -1.
     999901    1    3    3    0    0 -0.75905765432E-01 -0.42832232356E-02 -0.82146414278E-01  0.88708965985E+00  0.88000000000E+00 0.  1.
        -11    1    4    4    0    0  0.18493708567E-01  0.43456841653E-02  0.27968106268E-01  0.33813877575E-01  0.51100000000E-03 0.  1.
         11    1    4    4    0    0  0.74474949121E-01 -0.99010704602E-02  0.66043255523E-01  0.10003260450E+00  0.51100000000E-03 0. -1.
</event>
<event>
 8    1  0.1145101E+005  0.1043930E+01  0.7957747E-01            NaN
         13   -1    0    0    0    0  0.00000000000E+00  0.00000000000E+00  0.74505805969E-08  0.10566000000E+00  0.10566000000E+00 0. -1.
     999900   -1    0    0    0    0 -0.00000000000E+00 -0.00000000000E+00 -0.74505805969E-08  0.93827000000E+00  0.93827000000E+00 0. -1.
     999902    2    1    2    0    0 -0.17274821429E-01  0.16819431919E-01  0.43955766665E-02  0.10194221678E+01  0.10191275300E+01 0.  0.
     999903    2    3    3    0    0 -0.12764428163E+00 -0.10007854945E-02 -0.26147550028E-01  0.13182323782E+00  0.19990183926E-01 0.  0.
         14    1    1    2    0    0  0.17274821429E-01 -0.16819431919E-01 -0.43955766665E-02  0.24507832211E-01  0.00000000000E+00 0. -1.
     999901    1    3    3    0    0  0.11036946020E+00  0.17820217413E-01  0.30543126694E-01  0.88759892997E+00  0.88000000000E+00 0. -1.
        -11    1    4    4    0    0 -0.97002239989E-01  0.69312208868E-02 -0.15848221009E-01  0.98533768912E-01  0.51100000000E-03 0. -1.
         11    1    4    4    0    0 -0.30642041638E-01 -0.79320063812E-02 -0.10299329019E-01  0.33289468908E-01  0.51100000000E-03 0.  1.
</event>
<event>
 8    1  0.1145101E+005  0.1043930E+01  0.7957747E-01            NaN
         13   -1    0    0    0    0  0.00000000000E+00  0.00000000000E+00  0.74505805969E-08  0.10566000000E+00  0.10566000000E+00 0.  1.
     999900   -1    0    0    0    0 -0.00000000000E+00 -0.00000000000E+00 -0.74505805969E-08  0.93827000000E+00  0.93827000000E+00 0. -1.
     999902    2    1    2    0    0 -0.18907707479E-02 -0.10196764449E-01 -0.21429251373E-01  0.10201232397E+01  0.10198454111E+01 0.  0.
     999903    2    3    3    0    0  0.10486212236E+00  0.35607245390E-01  0.61959273713E-01  0.12858084950E+00  0.20739880152E-01 0.  0.
         14    1    1    2    0    0  0.18907707479E-02  0.10196764449E-01  0.21429251373E-01  0.23806760251E-01  0.00000000000E+00 0.  1.
     999901    1    3    3    0    0 -0.10675289310E+00 -0.45804009838E-01 -0.83388525085E-01  0.89154239025E+00  0.88000000000E+00 0. -1.
        -11    1    4    4    0    0  0.51768296358E-01  0.76066270048E-02  0.24080705301E-01  0.57601725417E-01  0.51100000000E-03 0. -1.
         11    1    4    4    0    0  0.53093825998E-01  0.28000618385E-01  0.37878568412E-01  0.70979124079E-01  0.51100000000E-03 0.  1.
</event>
<event>
 7    1  0.1349263E+005  0.1043930E+01  0.7957747E-01            NaN
         13   -1    0    0    0    0  0.00000000000E+00  0.00000000000E+00  0.74505805969E-08  0.10566000000E+00  0.10566000000E+00 0.  1.
     999900   -1    0    0    0    0 -0.00000000000E+00 -0.00000000000E+00 -0.74505805969E-08  0.93827000000E+00  0.93827000000E+00 0. -1.
     999903    2    1    2    0    0  0.66219476149E-01  0.68866295113E-01 -0.53001348111E-01  0.11073158263E+00  0.18020956322E-01 0.  0.
         14    1    1    2    0    0 -0.11622845813E-01  0.28582541532E-01 -0.29014090650E-01  0.42354098756E-01  0.00000000000E+00 0.  1.
     999901    1    1    2    0    0 -0.54596630336E-01 -0.97448836644E-01  0.82015438760E-01  0.89084431861E+00  0.88000000000E+00 0.  1.
        -11    1    3    3    0    0  0.18422779015E-01  0.30909885904E-01 -0.23110006165E-01  0.42768602258E-01  0.51100000000E-03 0. -1.
         11    1    3    3    0    0  0.47796697135E-01  0.37956409209E-01 -0.29891341946E-01  0.67962980374E-01  0.51100000000E-03 0.  1.
</event>
<event>
 8    1  0.1145101E+005  0.1043930E+01  0.7957747E-01            NaN
         13   -1    0    0    0    0  0.00000000000E+00  0.00000000000E+00  0.74505805969E-08  0.10566000000E+00  0.10566000000E+00 0.  1.
     999900   -1    0    0    0    0 -0.00000000000E+00 -0.00000000000E+00 -0.74505805969E-08  0.93827000000E+00  0.93827000000E+00 0.  1.
     999902    2    1    2    0    0 -0.20163991947E-01 -0.10790621418E-01  0.46399099544E-02  0.10205943439E+01  0.10203275268E+01 0.  0.
     999903    2    3    3    0    0 -0.85363566497E-01 -0.99095659976E-01  0.18925275851E-01  0.13365982768E+00  0.19997378809E-01 0.  0.
         14    1    1    2    0    0  0.20163991947E-01  0.10790621418E-01 -0.46399099544E-02  0.23335656112E-01  0.00000000000E+00 0.  1.
     999901    1    3    3    0    0  0.65199574550E-01  0.88305038558E-01 -0.14285365897E-01  0.88693451620E+00  0.88000000000E+00 0. -1.
        -11    1    4    4    0    0 -0.12801136803E-01 -0.23939483277E-01 -0.15736003080E-02  0.27197523820E-01  0.51100000000E-03 0. -1.
         11    1    4    4    0    0 -0.72562429694E-01 -0.75156176698E-01  0.20498876159E-01  0.10646230386E+00  0.51100000000E-03 0.  1.
</event>
<event>
 8    1  0.1145101E+005  0.1043930E+01  0.7957747E-01            NaN
         13   -1    0    0    0    0  0.00000000000E+00  0.00000000000E+00  0.74505805969E-08  0.10566000000E+00  0.10566000000E+00 0. -1.
     999900   -1    0    0    0    0 -0.00000000000E+00 -0.00000000000E+00 -0.74505805969E-08  0.93827000000E+00  0.93827000000E+00 0. -1.
     999902    2    1    2    0    0 -0.55776458652E-02 -0.20856717463E-01  0.10202990567E-01  0.10200508498E+01  0.10197713089E+01 0.  0.
     999903    2    3    3    0    0  0.81135673560E-01 -0.96378892034E-01 -0.32432554993E-01  0.13154615745E+00  0.19509806846E-01 0.  0.
         14    1    1    2    0    0  0.55776458652E-02  0.20856717463E-01 -0.10202990567E-01  0.23879150179E-01  0.00000000000E+00 0.  1.
     999901    1    3    3    0    0 -0.86713319425E-01  0.75522174571E-01  0.42635545560E-01  0.88850469237E+00  0.88000000000E+00 0.  1.
        -11    1    4    4    0    0  0.33145592281E-01 -0.38283635263E-01 -0.32754236941E-02  0.50746985506E-01  0.51100000000E-03 0.  1.
         11    1    4    4    0    0  0.47990081279E-01 -0.58095256772E-01 -0.29157131299E-01  0.80799171945E-01  0.51100000000E-03 0. -1.
</event>
<event>
 8    1  0.1145101E+005  0.1043930E+01  0.7957747E-01            NaN
         13   -1    0    0    0    0  0.00000000000E+00  0.00000000000E+00  0.74505805969E-08  0.10566000000E+00  0.10566000000E+00 0.  1.
     999900   -1    0    0    0    0 -0.00000000000E+00 -0.00000000000E+00 -0.74505805969E-08  0.93827000000E+00  0.93827000000E+00 0.  1.
     999902    2    1    2    0    0 -0.19198178792E-02 -0.14713957838E-01  0.17915178808E-01  0.10206675864E+01  0.10204024608E+01 0.  0.
     999903    2    3    3    0    0 -0.88739500498E-01 -0.55183333042E-01  0.81182960040E-01  0.13321153689E+00  0.15321271690E-01 0.  0.
         14    1    1    2    0    0  0.19198178792E-02  0.14713957838E-01 -0.17915178808E-01  0.23262413625E-01  0.00000000000E+00 0. -1.
     999901    1    3    3    0    0  0.86819682619E-01  0.40469375204E-01 -0.63267781232E-01  0.88745604948E+00  0.88000000000E+00 0.  1.
        -11    1    4    4    0    0 -0.31611224948E-01 -0.15235701169E-01  0.19615850370E-01  0.40204960385E-01  0.51100000000E-03 0.  1.
         11    1    4    4    0    0 -0.57128275551E-01 -0.39947631873E-01  0.61567109670E-01  0.93006576508E-01  0.51100000000E-03 0. -1.
</event>
<event>
 8    1  0.1145101E+005  0.1043930E+01  0.7957747E-01            NaN
         13   -1    0    0    0    0  0.00000000000E+00  0.00000000000E+00  0.74505805969E-08  0.10566000000E+00  0.10566000000E+00 0. -1.
     999900   -1    0    0    0    0 -0.00000000000E+00 -0.00000000000E+00 -0.74505805969E-08  0.93827000000E+00  0.93827000000E+00 0.  1.
     999902    2    1    2    0    0 -0.23587589592E-01 -0.11157620119E-02  0.26403216773E-02  0.10201688846E+01  0.10198921328E+01 0.  0.
     999903    2    3    3    0    0  0.10808098472E+00  0.57780892163E-01  0.30963947459E-01  0.12797627246E+00  0.19975723095E-01 0.  0.
         14    1    1    2    0    0  0.23587589592E-01  0.11157620119E-02 -0.26403216773E-02  0.23761115424E-01  0.00000000000E+00 0.  1.
     999901    1    3    3    0    0 -0.13166857431E+00 -0.58896654175E-01 -0.28323625782E-01  0.89219261211E+00  0.88000000000E+00 0.  1.
        -11    1    4    4    0    0  0.17669923729E-01  0.17714605490E-01  0.29932281018E-02  0.25204245430E-01  0.51100000000E-03 0.  1.
         11    1    4    4    0    0  0.90411060993E-01  0.40066286673E-01  0.27970719357E-01  0.10277202703E+00  0.51100000000E-03 0. -1.
</event>
<event>
 8    1  0.1145101E+005  0.1043930E+01  0.7957747E-01            NaN
         13   -1    0    0    0    0  0.00000000000E+00  0.00000000000E+00  0.74505805969E-08  0.10566000000E+00  0.10566000000E+00 0. -1.
     999900   -1    0    0    0    0 -0.00000000000E+00 -0.00000000000E+00 -0.74505805969E-08  0.93827000000E+00  0.93827000000E+00 0.  1.
     999902    2    1    2    0    0  0.86645866738E-02 -0.57498171611E-02  0.21686652321E-01  0.10198790884E+01  0.10195954632E+01 0.  0.
     999903    2    3    3    0    0  0.67647271080E-01  0.67792778477E-01 -0.83473732274E-01  0.12861808459E+00  0.20068223790E-01 0.  0.
         14    1    1    2    0    0 -0.86645866738E-02  0.57498171611E-02 -0.21686652321E-01  0.24050911594E-01  0.00000000000E+00 0.  1.
     999901    1    3    3    0    0 -0.58982684406E-01 -0.73542595638E-01  0.10516038459E+00  0.89126100381E+00  0.88000000000E+00 0. -1.
        -11    1    4    4    0    0  0.45611197009E-01  0.33007005145E-01 -0.53650634142E-01  0.77772073047E-01  0.51100000000E-03 0. -1.
         11    1    4    4    0    0  0.22036074071E-01  0.34785773332E-01 -0.29823098131E-01  0.50846011544E-01  0.51100000000E-03 0.  1.
</event>
<event>
 8    1  0.1145101E+005  0.1043930E+01  0.7957747E-01            NaN
         13   -1    0    0    0    0  0.00000000000E+00  0.00000000000E+00  0.74505805969E-08  0.10566000000E+00  0.10566000000E+00 0. -1.
     999900   -1    0    0    0    0 -0.00000000000E+00 -0.00000000000E+00 -0.74505805969E-08  0.93827000000E+00  0.93827000000E+00 0.  1.
     999902    2    1    2    0    0  0.21109521366E-01 -0.76454260982E-02  0.77864258191E-02  0.10201667330E+01  0.10198899304E+01 0.  0.
     999903    2    3    3    0    0 -0.86632030995E-01 -0.88680125261E-01  0.32786319601E-01  0.12954904886E+00  0.18404887857E-01 0.  0.
         14    1    1    2    0    0 -0.21109521366E-01  0.76454260982E-02 -0.77864258191E-02  0.23763267022E-01  0.00000000000E+00 0.  1.
     999901    1    3    3    0    0  0.10774155236E+00  0.81034699163E-01 -0.24999893782E-01  0.89061768412E+00  0.88000000000E+00 0.  1.
        -11    1    4    4    0    0 -0.50828760023E-01 -0.63211186593E-01  0.25353138784E-01  0.84983879196E-01  0.51100000000E-03 0.  1.
         11    1    4    4    0    0 -0.35803270972E-01 -0.25468938668E-01  0.74331808164E-02  0.44565169664E-01  0.51100000000E-03 0. -1.
</event>
<event>
 8    1  0.1145101E+005  0.1043930E+01  0.7957747E-01            NaN
         13   -1    0    0    0    0  0.00000000000E+00  0.00000000000E+00  0.74505805969E-08  0.10566000000E+00  0.10566000000E+00 0.  1.
     999900   -1    0    0    0    0 -0.00000000000E+00 -0.00000000000E+00 -0.74505805969E-08  0.93827000000E+00  0.93827000000E+00 0. -1.
     999902    2    1    2    0    0 -0.10487461925E-01  0.20661078331E-01  0.54221095272E-03  0.10207532658E+01  0.10204901120E+01 0.  0.
     999903    2    3    3    0    0  0.28602789753E-01 -0.33222093066E-01  0.12079367897E+00  0.13008393350E+00  0.20221024389E-01 0.  0.
         14    1    1    2    0    0  0.10487461925E-01 -0.20661078331E-01 -0.54221095272E-03  0.23176734199E-01  0.00000000000E+00 0.  1.
     999901    1    3    3    0    0 -0.39090251678E-01  0.53883171397E-01 -0.12025146802E+00  0.89066933230E+00  0.88000000000E+00 0. -1.
        -11    1    4    4    0    0  0.18317710673E-01 -0.11108428848E-01  0.36438498038E-01  0.42272461201E-01  0.51100000000E-03 0.  1.
         11    1    4    4    0    0  0.10285079080E-01 -0.22113664217E-01  0.84355180931E-01  0.87811472301E-01  0.51100000000E-03 0. -1.
</event>
<event>
 8    1  0.1145101E+005  0.1043930E+01  0.7957747E-01            NaN
         13   -1    0    0    0    0  0.00000000000E+00  0.00000000000E+00  0.74505805969E-08  0.10566000000E+00  0.10566000000E+00 0.  1.
     999900   -1    0    0    0    0 -0.00000000000E+00 -0.00000000000E+00 -0.74505805969E-08  0.93827000000E+00  0.93827000000E+00 0. -1.
     999902    2    1    2    0    0  0.65158951950E-02 -0.15245168040E-01 -0.16105301052E-01  0.10208160916E+01  0.10205543788E+01 0.  0.
     999903    2    3    3    0    0 -0.91666306691E-01  0.86925809067E-01 -0.19945079345E-01  0.12947250061E+00  0.20162196317E-01 0.  0.
         14    1    1    2    0    0 -0.65158951950E-02  0.15245168040E-01  0.16105301052E-01  0.23113908382E-01  0.00000000000E+00 0.  1.
     999901    1    3    3    0    0  0.98182201886E-01 -0.10217097711E+00  0.38397782933E-02  0.89134359101E+00  0.88000000000E+00 0.  1.
        -11    1    4    4    0    0 -0.42533620068E-01  0.32453625799E-01 -0.16672301163E-01  0.56040819147E-01  0.51100000000E-03 0. -1.
         11    1    4    4    0    0 -0.49132686623E-01  0.54472183268E-01 -0.32727781822E-02  0.73431681465E-01  0.51100000000E-03 0.  1.
</event>
<event>
 8    1  0.1145101E+005  0.1043930E+01  0.7957747E-01            NaN
         13   -1    0    0    0    0  0.00000000000E+00  0.00000000000E+00  0.74505805969E-08  0.10566000000E+00  0.10566000000E+00 0.  1.
     999900   -1    0    0    0    0 -0.00000000000E+00 -0.00000000000E+00 -0.74505805969E-08  0.93827000000E+00  0.93827000000E+00 0. -1.
     999902    2    1    2    0    0  0.15351638648E-01  0.17769752333E-01 -0.90939816900E-02  0.10187479149E+01  0.10184366336E+01 0.  0.
     999903    2    3    3    0    0  0.75629257392E-02  0.84056136783E-01  0.96699927224E-01  0.12990209026E+00  0.20026111760E-01 0.  0.
         14    1    1    2    0    0 -0.15351638648E-01 -0.17769752333E-01  0.90939816900E-02  0.25182085103E-01  0.00000000000E+00 0.  1.
     999901    1    3    3    0    0  0.77887129087E-02 -0.66286384450E-01 -0.10579390891E+00  0.88884582464E+00  0.88000000000E+00 0. -1.
        -11    1    4    4    0    0 -0.63515265863E-02  0.18645099433E-01  0.25398554564E-01  0.32145440077E-01  0.51100000000E-03 0. -1.
         11    1    4    4    0    0  0.13914452325E-01  0.65411037350E-01  0.71301372660E-01  0.97756650182E-01  0.51100000000E-03 0.  1.
</event>
<event>
 8    1  0.1145101E+005  0.1043930E+01  0.7957747E-01            NaN
         13   -1    0    0    0    0  0.00000000000E+00  0.00000000000E+00  0.74505805969E-08  0.10566000000E+00  0.10566000000E+00 0. -1.
     999900   -1    0    0    0    0 -0.00000000000E+00 -0.00000000000E+00 -0.74505805969E-08  0.93827000000E+00  0.93827000000E+00 0. -1.
     999902    2    1    2    0    0 -0.11579476699E-01  0.12887433019E-01  0.13649358248E-01  0.10218738174E+01  0.10216357587E+01 0.  0.
     999903    2    3    3    0    0 -0.12351525361E+00  0.44977463548E-01  0.18561955102E-01  0.13418945805E+00  0.19577394474E-01 0.  0.
         14    1    1    2    0    0  0.11579476699E-01 -0.12887433019E-01 -0.13649358248E-01  0.22056182603E-01  0.00000000000E+00 0.  1.
     999901    1    3    3    0    0  0.11193577691E+00 -0.32090030529E-01 -0.49125968544E-02  0.88768435934E+00  0.88000000000E+00 0.  1.
        -11    1    4    4    0    0 -0.68549929875E-01  0.34996342766E-01  0.12821414445E-01  0.78028755483E-01  0.51100000000E-03 0. -1.
         11    1    4    4    0    0 -0.54965323735E-01  0.99811207820E-02  0.57405406575E-02  0.56160702572E-01  0.51100000000E-03 0.  1.
</event>
<event>
 8    1  0.1145101E+005  0.1043930E+01  0.7957747E-01            NaN
         13   -1    0    0    0    0  0.00000000000E+00  0.00000000000E+00  0.74505805969E-08  0.10566000000E+00  0.10566000000E+00 0. -1.
     999900   -1    0    0    0    0 -0.00000000000E+00 -0.00000000000E+00 -0.74505805969E-08  0.93827000000E+00  0.93827000000E+00 0.  1.
     999902    2    1    2    0    0 -0.25343554420E-01 -0.49036806394E-02  0.62999419269E-02  0.10173587542E+01  0.10170117028E+01 0.  0.
     999903    2    3    3    0    0 -0.89483393199E-01  0.61091209518E-01  0.69895951931E-01  0.13027719261E+00  0.18635699050E-01 0.  0.
         14    1    1    2    0    0  0.25343554420E-01  0.49036806394E-02 -0.62999419269E-02  0.26571245789E-01  0.00000000000E+00 0. -1.
     999901    1    3    3    0    0  0.64139838779E-01 -0.65994890158E-01 -0.63596010004E-01  0.88708156160E+00  0.88000000000E+00 0. -1.
        -11    1    4    4    0    0 -0.43464566842E-02  0.26968458892E-02 -0.72872831378E-03  0.51919966693E-02  0.51100000000E-03 0.  1.
         11    1    4    4    0    0 -0.85136936515E-01  0.58394363629E-01  0.70624680245E-01  0.12508519594E+00  0.51100000000E-03 0. -1.
</event>
<event>
 7    1  0.1145101E+005  0.1043930E+01  0.7957747E-01            NaN
         13   -1    0    0    0    0  0.00000000000E+00  0.00000000000E+00  0.74505805969E-08  0.10566000000E+00  0.10566000000E+00 0.  1.
     999900   -1    0    0    0    0 -0.00000000000E+00 -0.00000000000E+00 -0.74505805969E-08  0.93827000000E+00  0.93827000000E+00 0.  1.
     999902    2    1    2    0    0  0.65896106057E-02 -0.22164874580E-01 -0.67919595698E-02  0.10198294741E+01  0.10195446635E+01 0.  0.
         14    1    1    2    0    0 -0.65896106057E-02  0.22164874580E-01  0.67919595698E-02  0.24100525884E-01  0.00000000000E+00 0. -1.
     999901    1    3    3    0    0 -0.88554142129E-01  0.46674063777E-01  0.43032644839E-01  0.88671986153E+00  0.88000000000E+00 0.  1.
        -11    1    3    3    0    0  0.60408981645E-01 -0.60051370210E-01 -0.46697212303E-01  0.97140634573E-01  0.51100000000E-03 0.  1.
         11    1    3    3    0    0  0.34734771090E-01 -0.87875681474E-02 -0.31273921059E-02  0.35968978009E-01  0.51100000000E-03 0. -1.
</event>
<event>
 8    1  0.1145101E+005  0.1043930E+01  0.7957747E-01            NaN
         13   -1    0    0    0    0  0.00000000000E+00  0.00000000000E+00  0.74505805969E-08  0.10566000000E+00  0.10566000000E+00 0. -1.
     999900   -1    0    0    0    0 -0.00000000000E+00 -0.00000000000E+00 -0.74505805969E-08  0.93827000000E+00  0.93827000000E+00 0.  1.
     999902    2    1    2    0    0 -0.21296184197E-01 -0.33709202287E-02  0.10116069155E-01  0.10201135053E+01  0.10198354467E+01 0.  0.
     999903    2    3    3    0    0  0.51226243300E-01 -0.11376329406E+00 -0.28088699552E-01  0.12943646897E+00  0.19965204228E-01 0.  0.
         14    1    1    2    0    0  0.21296184197E-01  0.33709202287E-02 -0.10116069155E-01  0.23816494698E-01  0.00000000000E+00 0. -1.
     999901    1    3    3    0    0 -0.72522427497E-01  0.11039237383E+00  0.38204768707E-01  0.89067703633E+00  0.88000000000E+00 0. -1.
        -11    1    4    4    0    0  0.16958443723E-01 -0.60624957730E-01 -0.17332183867E-01  0.65296554518E-01  0.51100000000E-03 0. -1.
         11    1    4    4    0    0  0.34267799577E-01 -0.53138336330E-01 -0.10756515686E-01  0.64139914456E-01  0.51100000000E-03 0.  1.
</event>
<event>
 8    1  0.1145101E+005  0.1043930E+01  0.7957747E-01            NaN
         13   -1    0    0    0    0  0.00000000000E+00  0.00000000000E+00  0.74505805969E-08  0.10566000000E+00  0.10566000000E+00 0. -1.
     999900   -1    0    0    0    0 -0.00000000000E+00 -0.00000000000E+00 -0.74505805969E-08  0.93827000000E+00  0.93827000000E+00 0. -1.
     999902    2    1    2    0    0 -0.30998436543E-02  0.20830104539E-01 -0.72832923692E-02  0.10216466288E+01  0.10214035860E+01 0.  0.
     999903    2    3    3    0    0  0.41871604122E-01  0.79683976871E-01  0.95516927550E-01  0.13257177555E+00  0.18682206042E-01 0.  0.
         14    1    1    2    0    0  0.30998436543E-02 -0.20830104539E-01  0.72832923692E-02  0.22283371234E-01  0.00000000000E+00 0. -1.
     999901    1    3    3    0    0 -0.44971447776E-01 -0.58853872332E-01 -0.10280021992E+00  0.88907485321E+00  0.88000000000E+00 0.  1.
        -11    1    4    4    0    0  0.31771571114E-01  0.69141113448E-01  0.71232479194E-01  0.10423172988E+00  0.51100000000E-03 0. -1.
         11    1    4    4    0    0  0.10100033008E-01  0.10542863423E-01  0.24284448357E-01  0.28340045676E-01  0.51100000000E-03 0.  1.
</event>
<event>
 8    1  0.1145101E+005  0.1043930E+01  0.7957747E-01            NaN
         13   -1    0    0    0    0  0.00000000000E+00  0.00000000000E+00  0.74505805969E-08  0.10566000000E+00  0.10566000000E+00 0.  1.
     999900   -1    0    0    0    0 -0.00000000000E+00 -0.00000000000E+00 -0.74505805969E-08  0.93827000000E+00  0.93827000000E+00 0. -1.
     999902    2    1    2    0    0 -0.55952362782E-02  0.22718318188E-01  0.53098688399E-02  0.10199378480E+01  0.10196556235E+01 0.  0.
     999903    2    3    3    0    0  0.42345802107E-01  0.12190890095E+00  0.20209317142E-01  0.13294342388E+00  0.24710126820E-01 0.  0.
         14    1    1    2    0    0  0.55952362782E-02 -0.22718318188E-01 -0.53098688399E-02  0.23992151996E-01  0.00000000000E+00 0. -1.
     999901    1    3    3    0    0 -0.47941038385E-01 -0.99190582758E-01 -0.14899448302E-01  0.88699442413E+00  0.88000000000E+00 0.  1.
        -11    1    4    4    0    0  0.98399189806E-02  0.59371746752E-01  0.23318165273E-02  0.60228953231E-01  0.51100000000E-03 0. -1.
         11    1    4    4    0    0  0.32505883126E-01  0.62537154194E-01  0.17877500615E-01  0.72714470648E-01  0.51100000000E-03 0.  1.
</event>
<event>
 8    1  0.1145101E+005  0.1043930E+01  0.7957747E-01            NaN
         13   -1    0    0    0    0  0.00000000000E+00  0.00000000000E+00  0.74505805969E-08  0.10566000000E+00  0.10566000000E+00 0.  1.
     999900   -1    0    0    0    0 -0.00000000000E+00 -0.00000000000E+00 -0.74505805969E-08  0.93827000000E+00  0.93827000000E+00 0. -1.
     999902    2    1    2    0    0  0.13349594406E-01 -0.59835228994E-02 -0.18853746188E-01  0.10200662626E+01  0.10197870867E+01 0.  0.
     999903    2    3    3    0    0 -0.67867753688E-01  0.10001697119E+00 -0.43418416471E-01  0.12965299597E+00  0.17757081935E-01 0.  0.
         14    1    1    2    0    0 -0.13349594406E-01  0.59835228994E-02  0.18853746188E-01  0.23863737394E-01  0.00000000000E+00 0.  1.
     999901    1    3    3    0    0  0.81217348094E-01 -0.10600049409E+00  0.24564670284E-01  0.89041326664E+00  0.88000000000E+00 0. -1.
        -11    1    4    4    0    0 -0.46927283490E-01  0.55390489759E-01 -0.21608602104E-01  0.75746083050E-01  0.51100000000E-03 0.  1.
         11    1    4    4    0    0 -0.20940470198E-01  0.44626481427E-01 -0.21809814368E-01  0.53906912919E-01  0.51100000000E-03 0. -1.
</event>
<event>
 8    1  0.1145101E+005  0.1043930E+01  0.7957747E-01            NaN
         13   -1    0    0    0    0  0.00000000000E+00  0.00000000000E+00  0.74505805969E-08  0.10566000000E+00  0.10566000000E+00 0.  1.
     999900   -1    0    0    0    0 -0.00000000000E+00 -0.00000000000E+00 -0.74505805969E-08  0.93827000000E+00  0.93827000000E+00 0.  1.
     999902    2    1    2    0    0  0.16980576562E-01  0.15931000085E-01  0.40052376550E-02  0.10203041948E+01  0.10200306227E+01 0.  0.
     999903    2    3    3    0    0  0.72576117616E-01 -0.34486773060E-01 -0.10146465545E+00  0.13083428837E+00  0.19128626330E-01 0.  0.
         14    1    1    2    0    0 -0.16980576562E-01 -0.15931000085E-01 -0.40052376550E-02  0.23625805229E-01  0.00000000000E+00 0.  1.
     999901    1    3    3    0    0 -0.55595541054E-01  0.50417773145E-01  0.10546989310E+00  0.88946990640E+00  0.88000000000E+00 0. -1.
        -11    1    4    4    0    0  0.11364875967E-01 -0.13878108539E-01 -0.19977327902E-01  0.26853622725E-01  0.51100000000E-03 0. -1.
         11    1    4    4    0    0  0.61211241649E-01 -0.20608664521E-01 -0.81487327545E-01  0.10398066565E+00  0.51100000000E-03 0.  1.
</event>
<event>
 8    1  0.1145101E+005  0.1043930E+01  0.7957747E-01            NaN
         13   -1    0    0    0    0  0.00000000000E+00  0.00000000000E+00  0.74505805969E-08  0.10566000000E+00  0.10566000000E+00 0. -1.
     999900   -1    0    0    0    0 -0.00000000000E+00 -0.00000000000E+00 -0.74505805969E-08  0.93827000000E+00  0.93827000000E+00 0. -1.
     999902    2    1    2    0    0  0.19284119586E-01 -0.52614082317E-02 -0.18433832920E-01  0.10167387168E+01  0.10163750550E+01 0.  0.
     999903    2    3    3    0    0  0.98554200871E-01  0.68128608535E-01  0.40969137838E-01  0.12814513521E+00  0.19704507410E-01 0.  0.
         14    1    1    2    0    0 -0.19284119586E-01  0.52614082317E-02  0.18433832920E-01  0.27191283179E-01  0.00000000000E+00 0. -1.
     999901    1    3    3    0    0 -0.79270081285E-01 -0.73390016767E-01 -0.59402970758E-01  0.88859358161E+00  0.88000000000E+00 0.  1.
        -11    1    4    4    0    0  0.48955322549E-01  0.45667099191E-01  0.23714718568E-01  0.71026449667E-01  0.51100000000E-03 0.  1.
         11    1    4    4    0    0  0.49598878321E-01  0.22461509344E-01  0.17254419270E-01  0.57118685542E-01  0.51100000000E-03 0. -1.
</event>
<event>
 8    1  0.1145101E+005  0.1043930E+01  0.7957747E-01            NaN
         13   -1    0    0    0    0  0.00000000000E+00  0.00000000000E+00  0.74505805969E-08  0.10566000000E+00  0.10566000000E+00 0. -1.
     999900   -1    0    0    0    0 -0.00000000000E+00 -0.00000000000E+00 -0.74505805969E-08  0.93827000000E+00  0.93827000000E+00 0. -1.
     999902    2    1    2    0    0  0.18572370099E-01 -0.96736187557E-02 -0.11223657484E-01  0.10201711634E+01  0.10198944652E+01 0.  0.
     999903    2    3    3    0    0  0.52748344833E-01 -0.10394479720E+00  0.58196906649E-01  0.13176007211E+00  0.19670483262E-01 0.  0.
         14    1    1    2    0    0 -0.18572370099E-01  0.96736187557E-02  0.11223657484E-01  0.23758836635E-01  0.00000000000E+00 0. -1.
     999901    1    3    3    0    0 -0.34175974733E-01  0.94271178447E-01 -0.69420564132E-01  0.88841109125E+00  0.88000000000E+00 0.  1.
        -11    1    4    4    0    0  0.34561793666E-01 -0.48032178103E-01  0.33353573473E-01  0.67928857631E-01  0.51100000000E-03 0. -1.
         11    1    4    4    0    0  0.18186551167E-01 -0.55912619100E-01  0.24843333176E-01  0.63831214482E-01  0.51100000000E-03 0.  1.
</event>
<event>
 8    1  0.1145101E+005  0.1043930E+01  0.7957747E-01            NaN
         13   -1    0    0    0    0  0.00000000000E+00  0.00000000000E+00  0.74505805969E-08  0.10566000000E+00  0.10566000000E+00 0.  1.
     999900   -1    0    0    0    0 -0.00000000000E+00 -0.00000000000E+00 -0.74505805969E-08  0.93827000000E+00  0.93827000000E+00 0.  1.
     999902    2    1    2    0    0 -0.21569545331E-01  0.85362642503E-02 -0.72961399294E-02  0.10196123778E+01  0.10193223505E+01 0.  0.
     999903    2    3    3    0    0  0.79924056041E-01 -0.60708464730E-01  0.75743901752E-01  0.12720471748E+00  0.19249131763E-01 0.  0.
         14    1    1    2    0    0  0.21569545331E-01 -0.85362642503E-02  0.72961399294E-02  0.24317622232E-01  0.00000000000E+00 0.  1.
     999901    1    3    3    0    0 -0.10149360137E+00  0.69244728980E-01 -0.83040041681E-01  0.89240766028E+00  0.88000000000E+00 0.  1.
        -11    1    4    4    0    0  0.46846765522E-01 -0.44098917301E-01  0.40077606136E-01  0.75801118604E-01  0.51100000000E-03 0. -1.
         11    1    4    4    0    0  0.33077290519E-01 -0.16609547430E-01  0.35666295616E-01  0.51403598880E-01  0.51100000000E-03 0.  1.
</event>
<event>
 8    1  0.1145101E+005  0.1043930E+01  0.7957747E-01            NaN
         13   -1    0    0    0    0  0.00000000000E+00  0.00000000000E+00  0.74505805969E-08  0.10566000000E+00  0.10566000000E+00 0. -1.
     999900   -1    0    0    0    0 -0.00000000000E+00 -0.00000000000E+00 -0.74505805969E-08  0.93827000000E+00  0.93827000000E+00 0.  1.
     999902    2    1    2    0    0 -0.13258118257E-01 -0.85025626212E-03 -0.21580366417E-01  0.10185880812E+01  0.10182727858E+01 0.  0.
     999903    2    3    3    0    0  0.58098530740E-01  0.96614226274E-01  0.55060422408E-01  0.12703611565E+00  0.19919251247E-01 0.  0.
         14    1    1    2    0    0  0.13258118257E-01  0.85025626212E-03  0.21580366417E-01  0.25341918833E-01  0.00000000000E+00 0. -1.
     999901    1    3    3    0    0 -0.71356648996E-01 -0.97464482536E-01 -0.76640788826E-01  0.89155196552E+00  0.88000000000E+00 0.  1.
        -11    1    4    4    0    0  0.48973477667E-01  0.64669363590E-01  0.41836564984E-01  0.91274790565E-01  0.51100000000E-03 0. -1.
         11    1    4    4    0    0  0.91250530728E-02  0.31944862683E-01  0.13223857425E-01  0.35761325082E-01  0.51100000000E-03 0.  1.
</event>
<event>
 8    1  0.1145101E+005  0.1043930E+01  0.7957747E-01            NaN
         13   -1    0    0    0    0  0.00000000000E+00  0.00000000000E+00  0.74505805969E-08  0.10566000000E+00  0.10566000000E+00 0. -1.
     999900   -1    0    0    0    0 -0.00000000000E+00 -0.00000000000E+00 -0.74505805969E-08  0.93827000000E+00  0.93827000000E+00 0.  1.
     999902    2    1    2    0    0  0.22249516291E-01  0.45025536242E-02 -0.99095109782E-02  0.10191608181E+01  0.10188597846E+01 0.  0.
     999903    2    3    3    0    0 -0.56342690705E-01 -0.11301855053E+00 -0.11560131208E-02  0.12783339866E+00  0.19807823841E-01 0.  0.
         14    1    1    2    0    0 -0.22249516291E-01 -0.45025536242E-02  0.99095109782E-02  0.24769181903E-01  0.00000000000E+00 0. -1.
     999901    1    3    3    0    0  0.78592206996E-01  0.11752110416E+00 -0.87534978574E-02  0.89132741944E+00  0.88000000000E+00 0.  1.
        -11    1    4    4    0    0 -0.12188783792E-01 -0.37340792545E-01 -0.74736266070E-02  0.39987716287E-01  0.51100000000E-03 0.  1.
         11    1    4    4    0    0 -0.44153906913E-01 -0.75677757988E-01  0.63176134862E-02  0.87845682369E-01  0.51100000000E-03 0. -1.
</event>
<event>
 8    1  0.1145101E+005  0.1043930E+01  0.7957747E-01            NaN
         13   -1    0    0    0    0  0.00000000000E+00  0.00000000000E+00  0.74505805969E-08  0.10566000000E+00  0.10566000000E+00 0.  1.
     999900   -1    0    0    0    0 -0.00000000000E+00 -0.00000000000E+00 -0.74505805969E-08  0.93827000000E+00  0.93827000000E+00 0.  1.
     999902    2    1    2    0    0 -0.20911924298E-01 -0.40258360848E-02  0.10549122340E-01  0.10201644805E+01  0.10198876249E+01 0.  0.
     999903    2    3    3    0    0  0.50531171820E-01  0.11467111155E+00 -0.21882108470E-01  0.12873592696E+00  0.19780016925E-01 0.  0.
         14    1    1    2    0    0  0.20911924298E-01  0.40258360848E-02 -0.10549122340E-01  0.23765519480E-01  0.00000000000E+00 0. -1.
     999901    1    3    3    0    0 -0.71443096119E-01 -0.11869694764E+00  0.32431230810E-01  0.89142855356E+00  0.88000000000E+00 0. -1.
        -11    1    4    4    0    0  0.41637358351E-01  0.72871816895E-01 -0.17858762914E-01  0.85808903045E-01  0.51100000000E-03 0.  1.
         11    1    4    4    0    0  0.88938134696E-02  0.41799294660E-01 -0.40233455560E-02  0.42927023919E-01  0.51100000000E-03 0. -1.
</event>
<event>
 8    1  0.1145101E+005  0.1043930E+01  0.7957747E-01            NaN
         13   -1    0    0    0    0  0.00000000000E+00  0.00000000000E+00  0.74505805969E-08  0.10566000000E+00  0.10566000000E+00 0.  1.
     999900   -1    0    0    0    0 -0.00000000000E+00 -0.00000000000E+00 -0.74505805969E-08  0.93827000000E+00  0.93827000000E+00 0.  1.
     999902    2    1    2    0    0  0.11284225581E-01  0.15990674212E-01  0.12086613735E-01  0.10209273558E+01  0.10206681851E+01 0.  0.
     999903    2    3    3    0    0 -0.78747892627E-01 -0.93386379130E-01 -0.34018146203E-01  0.12840577567E+00  0.20212930362E-01 0.  0.
         14    1    1    2    0    0 -0.11284225581E-01 -0.15990674212E-01 -0.12086613735E-01  0.23002644203E-01  0.00000000000E+00 0. -1.
     999901    1    3    3    0    0  0.90032118207E-01  0.10937705334E+00  0.46104759938E-01  0.89252158013E+00  0.88000000000E+00 0.  1.
        -11    1    4    4    0    0 -0.18239503140E-02 -0.78241871761E-02 -0.58448876958E-02  0.99482929637E-02  0.51100000000E-03 0.  1.
         11    1    4    4    0    0 -0.76923942313E-01 -0.85562191954E-01 -0.28173258507E-01  0.11845748270E+00  0.51100000000E-03 0. -1.
</event>
<event>
 8    1  0.1295804E+005  0.1043930E+01  0.7957747E-01            NaN
         13   -1    0    0    0    0  0.00000000000E+00  0.00000000000E+00  0.74505805969E-08  0.10566000000E+00  0.10566000000E+00 0. -1.
     999900   -1    0    0    0    0 -0.00000000000E+00 -0.00000000000E+00 -0.74505805969E-08  0.93827000000E+00  0.93827000000E+00 0.  1.
     999902    2    1    2    0    0  0.21131348651E-01  0.45720053779E-02 -0.11056523941E-01  0.10196465931E+01  0.10193573912E+01 0.  0.
     999903    2    3    3    0    0 -0.61610518346E-01 -0.31408490846E-01  0.10517245707E+00  0.12743025796E+00  0.19871478271E-01 0.  0.
         14    1    1    2    0    0 -0.21131348651E-01 -0.45720053779E-02  0.11056523941E-01  0.24283406900E-01  0.00000000000E+00 0. -1.
     999901    1    3    3    0    0  0.82741866997E-01  0.35980496224E-01 -0.11622898102E+00  0.89221633514E+00  0.88000000000E+00 0. -1.
        -11    1    4    4    0    0 -0.35938042249E-01 -0.76128362542E-02  0.58660842338E-01  0.69215993103E-01  0.51100000000E-03 0.  1.
         11    1    4    4    0    0 -0.25672476097E-01 -0.23795654592E-01  0.46511614737E-01  0.58214264857E-01  0.51100000000E-03 0. -1.
</event>
<event>
 8    1  0.1145101E+005  0.1043930E+01  0.7957747E-01            NaN
         13   -1    0    0    0    0  0.00000000000E+00  0.00000000000E+00  0.74505805969E-08  0.10566000000E+00  0.10566000000E+00 0.  1.
     999900   -1    0    0    0    0 -0.00000000000E+00 -0.00000000000E+00 -0.74505805969E-08  0.93827000000E+00  0.93827000000E+00 0.  1.
     999902    2    1    2    0    0  0.18141587915E-01 -0.29867981937E-03  0.78298706166E-02  0.10241685907E+01  0.10239779241E+01 0.  0.
     999903    2    3    3    0    0 -0.81660230315E-01  0.10105642973E+00  0.18719745006E-01  0.13268003192E+00  0.19307170004E-01 0.  0.
         14    1    1    2    0    0 -0.18141587915E-01  0.29867981937E-03 -0.78298706166E-02  0.19761409251E-01  0.00000000000E+00 0. -1.
     999901    1    3    3    0    0  0.99801818230E-01 -0.10135510955E+00 -0.10889874389E-01  0.89148855883E+00  0.88000000000E+00 0. -1.
        -11    1    4    4    0    0 -0.36961422654E-01  0.57820003172E-01  0.15797976510E-01  0.70421138263E-01  0.51100000000E-03 0. -1.
         11    1    4    4    0    0 -0.44698807661E-01  0.43236426557E-01  0.29217684954E-02  0.62258893661E-01  0.51100000000E-03 0.  1.
</event>
<event>
 8    1  0.1145101E+005  0.1043930E+01  0.7957747E-01            NaN
         13   -1    0    0    0    0  0.00000000000E+00  0.00000000000E+00  0.74505805969E-08  0.10566000000E+00  0.10566000000E+00 0. -1.
     999900   -1    0    0    0    0 -0.00000000000E+00 -0.00000000000E+00 -0.74505805969E-08  0.93827000000E+00  0.93827000000E+00 0.  1.
     999902    2    1    2    0    0  0.21118467279E-01 -0.96333740140E-02 -0.35537996569E-02  0.10204476439E+01  0.10201774223E+01 0.  0.
     999903    2    3    3    0    0 -0.27592176542E-01 -0.12216118369E+00  0.33724654281E-01  0.13116427069E+00  0.19545602909E-01 0.  0.
         14    1    1    2    0    0 -0.21118467279E-01  0.96333740140E-02  0.35537996569E-02  0.23482356080E-01  0.00000000000E+00 0.  1.
     999901    1    3    3    0    0  0.48710643821E-01  0.11252780967E+00 -0.37278453938E-01  0.88928337323E+00  0.88000000000E+00 0. -1.
        -11    1    4    4    0    0 -0.13597639511E-01 -0.72567707398E-01  0.10263816760E-01  0.74542437663E-01  0.51100000000E-03 0.  1.
         11    1    4    4    0    0 -0.13994537031E-01 -0.49593476291E-01  0.23460837520E-01  0.56621833028E-01  0.51100000000E-03 0. -1.
</event>
<event>
 8    1  0.1145101E+005  0.1043930E+01  0.7957747E-01            NaN
         13   -1    0    0    0    0  0.00000000000E+00  0.00000000000E+00  0.74505805969E-08  0.10566000000E+00  0.10566000000E+00 0.  1.
     999900   -1    0    0    0    0 -0.00000000000E+00 -0.00000000000E+00 -0.74505805969E-08  0.93827000000E+00  0.93827000000E+00 0. -1.
     999902    2    1    2    0    0 -0.11537119414E-01  0.24107737327E-01  0.96989638970E-03  0.10171862377E+01  0.10168346047E+01 0.  0.
     999903    2    3    3    0    0 -0.15546032201E-01  0.33576905361E-01  0.12175559557E+00  0.12887608822E+00  0.20384635668E-01 0.  0.
         14    1    1    2    0    0  0.11537119414E-01 -0.24107737327E-01 -0.96989638970E-03  0.26743762308E-01  0.00000000000E+00 0. -1.
     999901    1    3    3    0    0  0.40089127866E-02 -0.94691680339E-02 -0.12078569918E+00  0.88831014947E+00  0.88000000000E+00 0. -1.
        -11    1    4    4    0    0 -0.15653125700E-01  0.26866276733E-01  0.68890935695E-01  0.75584649974E-01  0.51100000000E-03 0. -1.
         11    1    4    4    0    0  0.10709349939E-03  0.67106286274E-02  0.52864659877E-01  0.53291438248E-01  0.51100000000E-03 0.  1.
</event>
<event>
 8    1  0.1145101E+005  0.1043930E+01  0.7957747E-01            NaN
         13   -1    0    0    0    0  0.00000000000E+00  0.00000000000E+00  0.74505805969E-08  0.10566000000E+00  0.10566000000E+00 0.  1.
     999900   -1    0    0    0    0 -0.00000000000E+00 -0.00000000000E+00 -0.74505805969E-08  0.93827000000E+00  0.93827000000E+00 0.  1.
     999902    2    1    2    0    0 -0.13458728671E-01 -0.15983547902E-01  0.10433077084E-01  0.10205749089E+01  0.10203076421E+01 0.  0.
     999903    2    3    3    0    0 -0.10234346924E-01  0.74903179094E-01 -0.10181585732E+00  0.12879544234E+00  0.22507089324E-01 0.  0.
         14    1    1    2    0    0  0.13458728671E-01  0.15983547902E-01 -0.10433077084E-01  0.23355091060E-01  0.00000000000E+00 0.  1.
     999901    1    3    3    0    0 -0.32243817469E-02 -0.90886726996E-01  0.11224893440E+00  0.89177946660E+00  0.88000000000E+00 0. -1.
        -11    1    4    4    0    0 -0.94566308834E-02  0.12783156053E-01 -0.29003537050E-01  0.33080254363E-01  0.51100000000E-03 0.  1.
         11    1    4    4    0    0 -0.77771604084E-03  0.62120023041E-01 -0.72812320268E-01  0.95715187973E-01  0.51100000000E-03 0. -1.
</event>
<event>
 8    1  0.1145101E+005  0.1043930E+01  0.7957747E-01            NaN
         13   -1    0    0    0    0  0.00000000000E+00  0.00000000000E+00  0.74505805969E-08  0.10566000000E+00  0.10566000000E+00 0. -1.
     999900   -1    0    0    0    0 -0.00000000000E+00 -0.00000000000E+00 -0.74505805969E-08  0.93827000000E+00  0.93827000000E+00 0. -1.
     999902    2    1    2    0    0 -0.61038935084E-02 -0.20753145903E-01 -0.37693551969E-03  0.10222945508E+01  0.10220655830E+01 0.  0.
     999903    2    3    3    0    0  0.35757096581E-01  0.73829863838E-01  0.99639342636E-01  0.13060988452E+00  0.20038078313E-01 0.  0.
         14    1    1    2    0    0  0.61038935084E-02  0.20753145903E-01  0.37693551969E-03  0.21635449180E-01  0.00000000000E+00 0.  1.
     999901    1    3    3    0    0 -0.41860990089E-01 -0.94583009741E-01 -0.10001627816E+00  0.89168466630E+00  0.88000000000E+00 0.  1.
        -11    1    4    4    0    0  0.26799452704E-01  0.33912345740E-01  0.45634959246E-01  0.62857525287E-01  0.51100000000E-03 0. -1.
         11    1    4    4    0    0  0.89576438767E-02  0.39917518098E-01  0.54004383390E-01  0.67752359230E-01  0.51100000000E-03 0.  1.
</event>
<event>
 8    1  0.1145101E+005  0.1043930E+01  0.7957747E-01            NaN
         13   -1    0    0    0    0  0.00000000000E+00  0.00000000000E+00  0.74505805969E-08  0.10566000000E+00  0.10566000000E+00 0.  1.
     999900   -1    0    0    0    0 -0.00000000000E+00 -0.00000000000E+00 -0.74505805969E-08  0.93827000000E+00  0.93827000000E+00 0. -1.
     999902    2    1    2    0    0  0.14787770323E-01 -0.13028268384E-01 -0.91588177792E-02  0.10221975848E+01  0.10219665378E+01 0.  0.
     999903    2    3    3    0    0  0.43248292186E-01  0.10344338564E+00 -0.66978157293E-01  0.13218706601E+00  0.20405833906E-01 0.  0.
         14    1    1    2    0    0 -0.14787770323E-01  0.13028268384E-01  0.91588177792E-02  0.21732415221E-01  0.00000000000E+00 0.  1.
     999901    1    3    3    0    0 -0.28460521863E-01 -0.11647165402E+00  0.57819339513E-01  0.89001051877E+00  0.88000000000E+00 0.  1.
        -11    1    4    4    0    0  0.22740666518E-01  0.44204824829E-01 -0.18906507434E-01  0.53187607543E-01  0.51100000000E-03 0. -1.
         11    1    4    4    0    0  0.20507625668E-01  0.59238560808E-01 -0.48071649859E-01  0.78999458469E-01  0.51100000000E-03 0.  1.
</event>
<event>
 8    1  0.1145101E+005  0.1043930E+01  0.7957747E-01            NaN
         13   -1    0    0    0    0  0.00000000000E+00  0.00000000000E+00  0.74505805969E-08  0.10566000000E+00  0.10566000000E+00 0. -1.
     999900   -1    0    0    0    0 -0.00000000000E+00 -0.00000000000E+00 -0.74505805969E-08  0.93827000000E+00  0.93827000000E+00 0. -1.
     999902    2    1    2    0    0 -0.65515814302E-02 -0.20496988252E-01 -0.14175482648E-02  0.10223647690E+01  0.10221373008E+01 0.  0.
     999903    2    3    3    0    0  0.98168096106E-02 -0.93893146515E-01 -0.93490152722E-01  0.13437136540E+00  0.20073925147E-01 0.  0.
         14    1    1    2    0    0  0.65515814302E-02  0.20496988252E-01  0.14175482648E-02  0.21565231038E-01  0.00000000000E+00 0.  1.
     999901    1    3    3    0    0 -0.16368391041E-01  0.73396158263E-01  0.92072604458E-01  0.88799340356E+00  0.88000000000E+00 0.  1.
        -11    1    4    4    0    0 -0.46470433880E-02 -0.83241009765E-02 -0.11895742080E-01  0.15253047891E-01  0.51100000000E-03 0.  1.
         11    1    4    4    0    0  0.14463852999E-01 -0.85569045538E-01 -0.81594410642E-01  0.11911831751E+00  0.51100000000E-03 0. -1.
</event>
<event>
 8    1  0.1145101E+005  0.1043930E+01  0.7957747E-01            NaN
         13   -1    0    0    0    0  0.00000000000E+00  0.00000000000E+00  0.74505805969E-08  0.10566000000E+00  0.10566000000E+00 0.  1.
     999900   -1    0    0    0    0 -0.00000000000E+00 -0.00000000000E+00 -0.74505805969E-08  0.93827000000E+00  0.93827000000E+00 0. -1.
     999902    2    1    2    0    0 -0.15310102734E-01 -0.14814261802E-01 -0.10376050925E-01  0.10202335017E+01  0.10199582707E+01 0.  0.
     999903    2    3    3    0    0  0.54176439272E-01  0.10029290170E+00  0.54057375618E-01  0.12769235136E+00  0.19732816178E-01 0.  0.
         14    1    1    2    0    0  0.15310102734E-01  0.14814261802E-01  0.10376050925E-01  0.23696498292E-01  0.00000000000E+00 0.  1.
     999901    1    3    3    0    0 -0.69486542006E-01 -0.11510716350E+00 -0.64433426543E-01  0.89254115035E+00  0.88000000000E+00 0. -1.
        -11    1    4    4    0    0  0.31361919057E-01  0.37700975702E-01  0.24111878056E-01  0.54649586643E-01  0.51100000000E-03 0.  1.
         11    1    4    4    0    0  0.22814520215E-01  0.62591925995E-01  0.29945497562E-01  0.73042764718E-01  0.51100000000E-03 0. -1.
</event>
<event>
 8    1  0.1145101E+005  0.1043930E+01  0.7957747E-01            NaN
         13   -1    0    0    0    0  0.00000000000E+00  0.00000000000E+00  0.74505805969E-08  0.10566000000E+00  0.10566000000E+00 0.  1.
     999900   -1    0    0    0    0 -0.00000000000E+00 -0.00000000000E+00 -0.74505805969E-08  0.93827000000E+00  0.93827000000E+00 0. -1.
     999902    2    1    2    0    0 -0.13117393229E-01 -0.13612862007E-01 -0.13554684209E-01  0.10206683259E+01  0.10204032174E+01 0.  0.
     999903    2    3    3    0    0  0.65146948620E-01 -0.11310129134E-01  0.10863461491E+00  0.12878221514E+00  0.20281406373E-01 0.  0.
         14    1    1    2    0    0  0.13117393229E-01  0.13612862007E-01  0.13554684209E-01  0.23261674083E-01  0.00000000000E+00 0.  1.
     999901    1    3    3    0    0 -0.78264341849E-01 -0.23027328728E-02 -0.12218929911E+00  0.89188611078E+00  0.88000000000E+00 0. -1.
        -11    1    4    4    0    0  0.23060397534E-01 -0.13298367997E-01  0.35463048720E-01  0.44345433489E-01  0.51100000000E-03 0.  1.
         11    1    4    4    0    0  0.42086551086E-01  0.19882388629E-02  0.73171566185E-01  0.84436781648E-01  0.51100000000E-03 0. -1.
</event>
<event>
 8    1  0.1145101E+005  0.1043930E+01  0.7957747E-01            NaN
         13   -1    0    0    0    0  0.00000000000E+00  0.00000000000E+00  0.74505805969E-08  0.10566000000E+00  0.10566000000E+00 0. -1.
     999900   -1    0    0    0    0 -0.00000000000E+00 -0.00000000000E+00 -0.74505805969E-08  0.93827000000E+00  0.93827000000E+00 0. -1.
     999902    2    1    2    0    0 -0.14342829539E-01  0.13121486324E-01 -0.12939518388E-01  0.10205778845E+01  0.10203106865E+01 0.  0.
     999903    2    3    3    0    0  0.17522538912E-01  0.71579989675E-01 -0.10762077372E+00  0.13299840161E+00  0.25992491278E-01 0.  0.
         14    1    1    2    0    0  0.14342829539E-01 -0.13121486324E-01  0.12939518388E-01  0.23352115507E-01  0.00000000000E+00 0. -1.
     999901    1    3    3    0    0 -0.31865368452E-01 -0.58458503351E-01  0.94681255335E-01  0.88757948288E+00  0.88000000000E+00 0.  1.
        -11    1    4    4    0    0  0.23362816398E-01  0.52533808119E-01 -0.87330567394E-01  0.10455865009E+00  0.51100000000E-03 0. -1.
         11    1    4    4    0    0 -0.58402774854E-02  0.19046181556E-01 -0.20290206328E-01  0.28439751526E-01  0.51100000000E-03 0.  1.
</event>
<event>
 8    1  0.1145101E+005  0.1043930E+01  0.7957747E-01            NaN
         13   -1    0    0    0    0  0.00000000000E+00  0.00000000000E+00  0.74505805969E-08  0.10566000000E+00  0.10566000000E+00 0. -1.
     999900   -1    0    0    0    0 -0.00000000000E+00 -0.00000000000E+00 -0.74505805969E-08  0.93827000000E+00  0.93827000000E+00 0. -1.
     999902    2    1    2    0    0  0.16551421849E-01 -0.18107722818E-02  0.17080399646E-01  0.10200769391E+01  0.10197980159E+01 0.  0.
     999903    2    3    3    0    0  0.99059607573E-01 -0.84757456681E-01 -0.72434826067E-02  0.13200070117E+00  0.19367104902E-01 0.  0.
         14    1    1    2    0    0 -0.16551421849E-01  0.18107722818E-02 -0.17080399646E-01  0.23853060884E-01  0.00000000000E+00 0.  1.
     999901    1    3    3    0    0 -0.82508185724E-01  0.82946684400E-01  0.24323882252E-01  0.88807623795E+00  0.88000000000E+00 0. -1.
        -11    1    4    4    0    0  0.24726185852E-01 -0.10948509565E-01 -0.12900121645E-02  0.27077285331E-01  0.51100000000E-03 0. -1.
         11    1    4    4    0    0  0.74333421721E-01 -0.73808947116E-01 -0.59534704422E-02  0.10492341583E+00  0.51100000000E-03 0.  1.
</event>
<event>
 8    1  0.1145101E+005  0.1043930E+01  0.7957747E-01            NaN
         13   -1    0    0    0    0  0.00000000000E+00  0.00000000000E+00  0.74505805969E-08  0.10566000000E+00  0.10566000000E+00 0.  1.
     999900   -1    0    0    0    0 -0.00000000000E+00 -0.00000000000E+00 -0.74505805969E-08  0.93827000000E+00  0.93827000000E+00 0.  1.
     999902    2    1    2    0    0 -0.18858533443E-01 -0.69527016756E-02 -0.95416863946E-02  0.10216807725E+01  0.10214384821E+01 0.  0.
     999903    2    3    3    0    0 -0.10139767121E+00  0.29238381181E-01  0.78128475595E-01  0.13274401378E+00  0.19507532742E-01 0.  0.
         14    1    1    2    0    0  0.18858533443E-01  0.69527016756E-02  0.95416863946E-02  0.22249227480E-01  0.00000000000E+00 0.  1.
     999901    1    3    3    0    0  0.82539137767E-01 -0.36191082857E-01 -0.87670161989E-01  0.88893675874E+00  0.88000000000E+00 0.  1.
        -11    1    4    4    0    0 -0.98173525353E-01  0.24009475580E-01  0.74812780431E-01  0.12574461911E+00  0.51100000000E-03 0.  1.
         11    1    4    4    0    0 -0.32241458571E-02  0.52289056015E-02  0.33156951641E-02  0.69993946680E-02  0.51100000000E-03 0. -1.
</event>
<event>
 8    1  0.1145101E+005  0.1043930E+01  0.7957747E-01            NaN
         13   -1    0    0    0    0  0.00000000000E+00  0.00000000000E+00  0.74505805969E-08  0.10566000000E+00  0.10566000000E+00 0.  1.
     999900   -1    0    0    0    0 -0.00000000000E+00 -0.00000000000E+00 -0.74505805969E-08  0.93827000000E+00  0.93827000000E+00 0. -1.
     999902    2    1    2    0    0 -0.24494513034E-01  0.10366451583E-01  0.11801270673E-01  0.10148316413E+01  0.10144143856E+01 0.  0.
     999903    2    3    3    0    0 -0.61981560014E-01 -0.98828049201E-01  0.45017813136E-01  0.12666946224E+00  0.20244803620E-01 0.  0.
         14    1    1    2    0    0  0.24494513034E-01 -0.10366451583E-01 -0.11801270673E-01  0.29098358660E-01  0.00000000000E+00 0. -1.
     999901    1    3    3    0    0  0.37487046980E-01  0.10919450078E+00 -0.33216542463E-01  0.88816217910E+00  0.88000000000E+00 0. -1.
        -11    1    4    4    0    0 -0.12184105687E-01 -0.13355435922E-01  0.14397680023E-01  0.23116539773E-01  0.51100000000E-03 0. -1.
         11    1    4    4    0    0 -0.49797454327E-01 -0.85472613279E-01  0.30620133113E-01  0.10355292247E+00  0.51100000000E-03 0.  1.
</event>
<event>
 8    1  0.1145101E+005  0.1043930E+01  0.7957747E-01            NaN
         13   -1    0    0    0    0  0.00000000000E+00  0.00000000000E+00  0.74505805969E-08  0.10566000000E+00  0.10566000000E+00 0. -1.
     999900   -1    0    0    0    0 -0.00000000000E+00 -0.00000000000E+00 -0.74505805969E-08  0.93827000000E+00  0.93827000000E+00 0.  1.
     999902    2    1    2    0    0 -0.24674701916E-02 -0.53050204628E-03 -0.23720032776E-01  0.10200760738E+01  0.10197971301E+01 0.  0.
     999903    2    3    3    0    0  0.21674704197E-01  0.37779709328E-01 -0.12438924505E+00  0.13317990895E+00  0.19159974579E-01 0.  0.
         14    1    1    2    0    0  0.24674701916E-02  0.53050204628E-03  0.23720032776E-01  0.23853926227E-01  0.00000000000E+00 0. -1.
     999901    1    3    3    0    0 -0.24142174389E-01 -0.38310211375E-01  0.10066921227E+00  0.88689616482E+00  0.88000000000E+00 0. -1.
        -11    1    4    4    0    0 -0.31765209222E-02  0.87786741646E-02 -0.22395581395E-01  0.24268881150E-01  0.51100000000E-03 0. -1.
         11    1    4    4    0    0  0.24851225120E-01  0.29001035164E-01 -0.10199366365E+00  0.10891102780E+00  0.51100000000E-03 0.  1.
</event>
<event>
 8    1  0.1145101E+005  0.1043930E+01  0.7957747E-01            NaN
         13   -1    0    0    0    0  0.00000000000E+00  0.00000000000E+00  0.74505805969E-08  0.10566000000E+00  0.10566000000E+00 0.  1.
     999900   -1    0    0    0    0 -0.00000000000E+00 -0.00000000000E+00 -0.74505805969E-08  0.93827000000E+00  0.93827000000E+00 0. -1.
     999902    2    1    2    0    0 -0.18413162859E-01  0.73833370480E-02  0.79977779876E-02  0.10225402201E+01  0.10223164769E+01 0.  0.
     999903    2    3    3    0    0  0.35805004241E-01  0.51062998943E-01 -0.11395528610E+00  0.13140607061E+00  0.19807068760E-01 0.  0.
         14    1    1    2    0    0  0.18413162859E-01 -0.73833370480E-02 -0.79977779876E-02  0.21389779923E-01  0.00000000000E+00 0.  1.
     999901    1    3    3    0    0 -0.54218167099E-01 -0.43679661895E-01  0.12195306409E+00  0.89113414947E+00  0.88000000000E+00 0.  1.
        -11    1    4    4    0    0  0.25532707722E-01  0.48475016518E-01 -0.97099345874E-01  0.11149121257E+00  0.51100000000E-03 0.  1.
         11    1    4    4    0    0  0.10272296519E-01  0.25879824248E-02 -0.16855940227E-01  0.19914858040E-01  0.51100000000E-03 0. -1.
</event>
<event>
 8    1  0.1145101E+005  0.1043930E+01  0.7957747E-01            NaN
         13   -1    0    0    0    0  0.00000000000E+00  0.00000000000E+00  0.74505805969E-08  0.10566000000E+00  0.10566000000E+00 0.  1.
     999900   -1    0    0    0    0 -0.00000000000E+00 -0.00000000000E+00 -0.74505805969E-08  0.93827000000E+00  0.93827000000E+00 0. -1.
     999902    2    1    2    0    0 -0.11228122211E-01 -0.11795828972E-01  0.17761049923E-01  0.10198329628E+01  0.10195482356E+01 0.  0.
     999903    2    3    3    0    0  0.96628598881E-01  0.14960547355E-01  0.83907942536E-01  0.13038122862E+00  0.19945371810E-01 0.  0.
         14    1    1    2    0    0  0.11228122211E-01  0.11795828972E-01 -0.17761049923E-01  0.24097037243E-01  0.00000000000E+00 0. -1.
     999901    1    3    3    0    0 -0.10785672109E+00 -0.26756376327E-01 -0.66146892613E-01  0.88945173414E+00  0.88000000000E+00 0. -1.
        -11    1    4    4    0    0  0.32030370577E-02  0.48293451162E-02  0.47398957751E-02  0.75039825162E-02  0.51100000000E-03 0.  1.
         11    1    4    4    0    0  0.93425561824E-01  0.10131202239E-01  0.79168046761E-01  0.12287724610E+00  0.51100000000E-03 0. -1.
</event>
<event>
 8    1  0.1145101E+005  0.1043930E+01  0.7957747E-01            NaN
         13   -1    0    0    0    0  0.00000000000E+00  0.00000000000E+00  0.74505805969E-08  0.10566000000E+00  0.10566000000E+00 0. -1.
     999900   -1    0    0    0    0 -0.00000000000E+00 -0.00000000000E+00 -0.74505805969E-08  0.93827000000E+00  0.93827000000E+00 0.  1.
     999902    2    1    2    0    0  0.17597666755E-01  0.28219817319E-02  0.12915128781E-01  0.10219199567E+01  0.10216829038E+01 0.  0.
     999903    2    3    3    0    0 -0.83757219236E-01  0.39204730575E-01 -0.88705983481E-01  0.12955043243E+00  0.19033663969E-01 0.  0.
         14    1    1    2    0    0 -0.17597666755E-01 -0.28219817319E-02 -0.12915128781E-01  0.22010043334E-01  0.00000000000E+00 0.  1.
     999901    1    3    3    0    0  0.10135488599E+00 -0.36382748843E-01  0.10162111226E+00  0.89236952424E+00  0.88000000000E+00 0. -1.
        -11    1    4    4    0    0 -0.25071821379E-01  0.18332672566E-01 -0.39004783477E-01  0.49862985929E-01  0.51100000000E-03 0. -1.
         11    1    4    4    0    0 -0.58685397856E-01  0.20872058009E-01 -0.49701200004E-01  0.79687446501E-01  0.51100000000E-03 0.  1.
</event>
<event>
 8    1  0.1145101E+005  0.1043930E+01  0.7957747E-01            NaN
         13   -1    0    0    0    0  0.00000000000E+00  0.00000000000E+00  0.74505805969E-08  0.10566000000E+00  0.10566000000E+00 0. -1.
     999900   -1    0    0    0    0 -0.00000000000E+00 -0.00000000000E+00 -0.74505805969E-08  0.93827000000E+00  0.93827000000E+00 0. -1.
     999902    2    1    2    0    0  0.33293897468E-03 -0.22018290601E-01  0.76340787174E-02  0.10206234531E+01  0.10203573090E+01 0.  0.
     999903    2    3    3    0    0  0.54022230797E-01 -0.74452826405E-01  0.94209101779E-01  0.13319618556E+00  0.20105825268E-01 0.  0.
         14    1    1    2    0    0 -0.33293897468E-03  0.22018290601E-01 -0.76340787174E-02  0.23306546874E-01  0.00000000000E+00 0.  1.
     999901    1    3    3    0    0 -0.53689291822E-01  0.52434535804E-01 -0.86575023062E-01  0.88742726757E+00  0.88000000000E+00 0. -1.
        -11    1    4    4    0    0  0.28462671872E-01 -0.29773585658E-01  0.53771144543E-01  0.67736158730E-01  0.51100000000E-03 0.  1.
         11    1    4    4    0    0  0.25559558925E-01 -0.44679240746E-01  0.40437957236E-01  0.65460026830E-01  0.51100000000E-03 0. -1.
</event>
<event>
 8    1  0.1145101E+005  0.1043930E+01  0.7957747E-01            NaN
         13   -1    0    0    0    0  0.00000000000E+00  0.00000000000E+00  0.74505805969E-08  0.10566000000E+00  0.10566000000E+00 0.  1.
     999900   -1    0    0    0    0 -0.00000000000E+00 -0.00000000000E+00 -0.74505805969E-08  0.93827000000E+00  0.93827000000E+00 0.  1.
     999902    2    1    2    0    0 -0.16323979277E-01 -0.47719567437E-02  0.20538575929E-01  0.10172639735E+01  0.10169144087E+01 0.  0.
     999903    2    3    3    0    0  0.10041329065E+00 -0.70586054728E-01 -0.19709070888E-01  0.12620900390E+00  0.21795530030E-01 0.  0.
         14    1    1    2    0    0  0.16323979277E-01  0.47719567437E-02 -0.20538575929E-01  0.26666026546E-01  0.00000000000E+00 0.  1.
     999901    1    3    3    0    0 -0.11673726993E+00  0.65814097985E-01  0.40247646817E-01  0.89105496955E+00  0.88000000000E+00 0.  1.
        -11    1    4    4    0    0  0.92308503743E-01 -0.64392961358E-01 -0.24084383306E-01  0.11509835783E+00  0.51100000000E-03 0.  1.
         11    1    4    4    0    0  0.81047869100E-02 -0.61930933706E-02  0.43753124179E-02  0.11110646071E-01  0.51100000000E-03 0. -1.
</event>
<event>
 8    1  0.1145101E+005  0.1043930E+01  0.7957747E-01            NaN
         13   -1    0    0    0    0  0.00000000000E+00  0.00000000000E+00  0.74505805969E-08  0.10566000000E+00  0.10566000000E+00 0.  1.
     999900   -1    0    0    0    0 -0.00000000000E+00 -0.00000000000E+00 -0.74505805969E-08  0.93827000000E+00  0.93827000000E+00 0. -1.
     999902    2    1    2    0    0  0.45127697897E-02 -0.13872495960E-01  0.17172065749E-01  0.10213979988E+01  0.10211494410E+01 0.  0.
     999903    2    3    3    0    0  0.10620075211E+00  0.69200334936E-01 -0.24852539657E-01  0.13066369026E+00  0.19699368538E-01 0.  0.
         14    1    1    2    0    0 -0.45127697897E-02  0.13872495960E-01 -0.17172065749E-01  0.22532001185E-01  0.00000000000E+00 0. -1.
     999901    1    3    3    0    0 -0.10168798232E+00 -0.83072830896E-01  0.42024605406E-01  0.89073430856E+00  0.88000000000E+00 0.  1.
        -11    1    4    4    0    0  0.44669930814E-01  0.29670907797E-01 -0.20449652500E-01  0.57395251517E-01  0.51100000000E-03 0.  1.
         11    1    4    4    0    0  0.61530821294E-01  0.39529427140E-01 -0.44028871572E-02  0.73268438740E-01  0.51100000000E-03 0. -1.
</event>
<event>
 8    1  0.1145101E+005  0.1043930E+01  0.7957747E-01            NaN
         13   -1    0    0    0    0  0.00000000000E+00  0.00000000000E+00  0.74505805969E-08  0.10566000000E+00  0.10566000000E+00 0.  1.
     999900   -1    0    0    0    0 -0.00000000000E+00 -0.00000000000E+00 -0.74505805969E-08  0.93827000000E+00  0.93827000000E+00 0.  1.
     999902    2    1    2    0    0  0.24910756429E-01 -0.55782634852E-02  0.20400687626E-01  0.10112520125E+01  0.10107238901E+01 0.  0.
     999903    2    3    3    0    0 -0.10583250042E+00  0.50044209924E-01 -0.12092729625E-01  0.11926351433E+00  0.19303125325E-01 0.  0.
         14    1    1    2    0    0 -0.24910756429E-01  0.55782634852E-02 -0.20400687626E-01  0.32677987468E-01  0.00000000000E+00 0.  1.
     999901    1    3    3    0    0  0.13074325685E+00 -0.55622473409E-01  0.32493417251E-01  0.89198849820E+00  0.88000000000E+00 0. -1.
        -11    1    4    4    0    0 -0.69323258470E-01  0.42501776078E-01 -0.67039545317E-02  0.81592397085E-01  0.51100000000E-03 0.  1.
         11    1    4    4    0    0 -0.36509241955E-01  0.75424338454E-02 -0.53887750931E-02  0.37671117244E-01  0.51100000000E-03 0. -1.
</event>
<event>
 8    1  0.1145101E+005  0.1043930E+01  0.7957747E-01            NaN
         13   -1    0    0    0    0  0.00000000000E+00  0.00000000000E+00  0.74505805969E-08  0.10566000000E+00  0.10566000000E+00 0.  1.
     999900   -1    0    0    0    0 -0.00000000000E+00 -0.00000000000E+00 -0.74505805969E-08  0.93827000000E+00  0.93827000000E+00 0. -1.
     999902    2    1    2    0    0 -0.61489573027E-02  0.22272645345E-01  0.67690267352E-02  0.10198530374E+01  0.10195687901E+01 0.  0.
     999903    2    3    3    0    0  0.14721150568E-01 -0.10428252114E+00 -0.68815329537E-01  0.12734826625E+00  0.19760436418E-01 0.  0.
         14    1    1    2    0    0  0.61489573027E-02 -0.22272645345E-01 -0.67690267352E-02  0.24076962631E-01  0.00000000000E+00 0. -1.
     999901    1    3    3    0    0 -0.20870107871E-01  0.12655516648E+00  0.75584356272E-01  0.89250477112E+00  0.88000000000E+00 0.  1.
        -11    1    4    4    0    0  0.16858698152E-02 -0.20812659519E-01 -0.50141950700E-02  0.21480508060E-01  0.51100000000E-03 0.  1.
         11    1    4    4    0    0  0.13035280753E-01 -0.83469861619E-01 -0.63801134467E-01  0.10586775819E+00  0.51100000000E-03 0. -1.
</event>
<event>
 8    1  0.1145101E+005  0.1043930E+01  0.7957747E-01            NaN
         13   -1    0    0    0    0  0.00000000000E+00  0.00000000000E+00  0.74505805969E-08  0.10566000000E+00  0.10566000000E+00 0. -1.
     999900   -1    0    0    0    0 -0.00000000000E+00 -0.00000000000E+00 -0.74505805969E-08  0.93827000000E+00  0.93827000000E+00 0. -1.
     999902    2    1    2    0    0 -0.78045856858E-02 -0.12425185324E-01  0.18746465263E-01  0.10201239766E+01  0.10198461654E+01 0.  0.
     999903    2    3    3    0    0 -0.42396825501E-01 -0.45498760433E-01 -0.11151667341E+00  0.12924858147E+00  0.20039943856E-01 0.  0.
         14    1    1    2    0    0  0.78045856858E-02  0.12425185324E-01 -0.18746465263E-01  0.23806023354E-01  0.00000000000E+00 0.  1.
     999901    1    3    3    0    0  0.34592239815E-01  0.33073575110E-01  0.13026313868E+00  0.89087539517E+00  0.88000000000E+00 0.  1.
        -11    1    4    4    0    0 -0.52183115389E-02 -0.12464940812E-01 -0.39302034246E-01  0.41563403875E-01  0.51100000000E-03 0. -1.
         11    1    4    4    0    0 -0.37178513962E-01 -0.33033819621E-01 -0.72214639169E-01  0.87685177598E-01  0.51100000000E-03 0.  1.
</event>
<event>
 8    1  0.1148509E+005  0.1043930E+01  0.7957747E-01            NaN
         13   -1    0    0    0    0  0.00000000000E+00  0.00000000000E+00  0.74505805969E-08  0.10566000000E+00  0.10566000000E+00 0.  1.
     999900   -1    0    0    0    0 -0.00000000000E+00 -0.00000000000E+00 -0.74505805969E-08  0.93827000000E+00  0.93827000000E+00 0.  1.
     999902    2    1    2    0    0 -0.40144113455E-02  0.20493315695E-01 -0.11236223735E-01  0.10202162021E+01  0.10199405644E+01 0.  0.
     999903    2    3    3    0    0 -0.91715922572E-01 -0.42863695340E-01 -0.80331913135E-01  0.13090192683E+00  0.20808444169E-01 0.  0.
         14    1    1    2    0    0  0.40144113455E-02 -0.20493315695E-01  0.11236223735E-01  0.23713797891E-01  0.00000000000E+00 0. -1.
     999901    1    3    3    0    0  0.87701511227E-01  0.63357011034E-01  0.69095689400E-01  0.88931427528E+00  0.88000000000E+00 0. -1.
        -11    1    4    4    0    0 -0.35870740839E-01 -0.70532114049E-02 -0.34488097564E-01  0.50260798184E-01  0.51100000000E-03 0. -1.
         11    1    4    4    0    0 -0.55845181733E-01 -0.35810483935E-01 -0.45843815571E-01  0.80641128648E-01  0.51100000000E-03 0.  1.
</event>
<event>
 8    1  0.1145101E+005  0.1043930E+01  0.7957747E-01            NaN
         13   -1    0    0    0    0  0.00000000000E+00  0.00000000000E+00  0.74505805969E-08  0.10566000000E+00  0.10566000000E+00 0. -1.
     999900   -1    0    0    0    0 -0.00000000000E+00 -0.00000000000E+00 -0.74505805969E-08  0.93827000000E+00  0.93827000000E+00 0. -1.
     999902    2    1    2    0    0  0.22868483553E-01 -0.55883777685E-02 -0.14844059441E-01  0.10160993765E+01  0.10157181692E+01 0.  0.
     999903    2    3    3    0    0  0.94268231078E-01 -0.80482097885E-01 -0.32832960240E-01  0.12985415429E+00  0.20499527757E-01 0.  0.
         14    1    1    2    0    0 -0.22868483553E-01  0.55883777685E-02  0.14844059441E-01  0.27830623543E-01  0.00000000000E+00 0. -1.
     999901    1    3    3    0    0 -0.71399747524E-01  0.74893720116E-01  0.17988900799E-01  0.88624522217E+00  0.88000000000E+00 0. -1.
        -11    1    4    4    0    0  0.46410262251E-01 -0.52784121854E-01 -0.16562237066E-01  0.72212497394E-01  0.51100000000E-03 0. -1.
         11    1    4    4    0    0  0.47857968826E-01 -0.27697976030E-01 -0.16270723174E-01  0.57641656898E-01  0.51100000000E-03 0.  1.
</event>
<event>
 8    1  0.1145101E+005  0.1043930E+01  0.7957747E-01            NaN
         13   -1    0    0    0    0  0.00000000000E+00  0.00000000000E+00  0.74505805969E-08  0.10566000000E+00  0.10566000000E+00 0. -1.
     999900   -1    0    0    0    0 -0.00000000000E+00 -0.00000000000E+00 -0.74505805969E-08  0.93827000000E+00  0.93827000000E+00 0. -1.
     999902    2    1    2    0    0 -0.73120583909E-02  0.52250536654E-02 -0.22351236250E-01  0.10198396462E+01  0.10195550789E+01 0.  0.
     999903    2    3    3    0    0 -0.56752270826E-01  0.67006186556E-01 -0.97916937854E-01  0.13306379052E+00  0.20189015507E-01 0.  0.
         14    1    1    2    0    0  0.73120583909E-02 -0.52250536654E-02  0.22351236250E-01  0.24090353787E-01  0.00000000000E+00 0. -1.
     999901    1    3    3    0    0  0.49440212436E-01 -0.61781132891E-01  0.75565701604E-01  0.88677585570E+00  0.88000000000E+00 0.  1.
        -11    1    4    4    0    0 -0.15357520964E-01  0.33450242013E-01 -0.39716753528E-01  0.54152135440E-01  0.51100000000E-03 0.  1.
         11    1    4    4    0    0 -0.41394749862E-01  0.33555944543E-01 -0.58200184326E-01  0.78911655077E-01  0.51100000000E-03 0. -1.
</event>
<event>
 8    1  0.1145101E+005  0.1043930E+01  0.7957747E-01            NaN
         13   -1    0    0    0    0  0.00000000000E+00  0.00000000000E+00  0.74505805969E-08  0.10566000000E+00  0.10566000000E+00 0. -1.
     999900   -1    0    0    0    0 -0.00000000000E+00 -0.00000000000E+00 -0.74505805969E-08  0.93827000000E+00  0.93827000000E+00 0.  1.
     999902    2    1    2    0    0  0.14298930650E-01 -0.99095439940E-02  0.15413007912E-01  0.10206873820E+01  0.10204227126E+01 0.  0.
     999903    2    3    3    0    0 -0.85220051857E-01  0.56830756488E-01 -0.74269776219E-01  0.12805011110E+00  0.19713933410E-01 0.  0.
         14    1    1    2    0    0 -0.14298930650E-01  0.99095439940E-02 -0.15413007912E-01  0.23242618028E-01  0.00000000000E+00 0.  1.
     999901    1    3    3    0    0  0.99518982507E-01 -0.66740300482E-01  0.89682784131E-01  0.89263727088E+00  0.88000000000E+00 0.  1.
        -11    1    4    4    0    0 -0.22446088157E-01  0.23588249113E-01 -0.16594005226E-01  0.36549343362E-01  0.51100000000E-03 0.  1.
         11    1    4    4    0    0 -0.62773963700E-01  0.33242507375E-01 -0.57675770993E-01  0.91500767734E-01  0.51100000000E-03 0. -1.
</event>
<event>
 8    1  0.1145101E+005  0.1043930E+01  0.7957747E-01            NaN
         13   -1    0    0    0    0  0.00000000000E+00  0.00000000000E+00  0.74505805969E-08  0.10566000000E+00  0.10566000000E+00 0. -1.
     999900   -1    0    0    0    0 -0.00000000000E+00 -0.00000000000E+00 -0.74505805969E-08  0.93827000000E+00  0.93827000000E+00 0.  1.
     999902    2    1    2    0    0 -0.20654288197E-02  0.16732188451E-01  0.17447423438E-01  0.10196679986E+01  0.10193793125E+01 0.  0.
     999903    2    3    3    0    0  0.88878948474E-01 -0.73813624423E-01 -0.50879668162E-01  0.12773862056E+00  0.19506304576E-01 0.  0.
         14    1    1    2    0    0  0.20654288197E-02 -0.16732188451E-01 -0.17447423438E-01  0.24262001385E-01  0.00000000000E+00 0.  1.
     999901    1    3    3    0    0 -0.90944377294E-01  0.90545812874E-01  0.68327091599E-01  0.89192937805E+00  0.88000000000E+00 0. -1.
        -11    1    4    4    0    0  0.74876270587E-01 -0.65051836616E-01 -0.36057780101E-01  0.10553967013E+00  0.51100000000E-03 0.  1.
         11    1    4    4    0    0  0.14002677887E-01 -0.87617878073E-02 -0.14821888061E-01  0.22198950432E-01  0.51100000000E-03 0. -1.
</event>
<event>
 8    1  0.1145101E+005  0.1043930E+01  0.7957747E-01            NaN
         13   -1    0    0    0    0  0.00000000000E+00  0.00000000000E+00  0.74505805969E-08  0.10566000000E+00  0.10566000000E+00 0.  1.
     999900   -1    0    0    0    0 -0.00000000000E+00 -0.00000000000E+00 -0.74505805969E-08  0.93827000000E+00  0.93827000000E+00 0.  1.
     999902    2    1    2    0    0 -0.24915421677E-01 -0.60618783586E-02  0.43859431003E-02  0.10179153675E+01  0.10175828882E+01 0.  0.
     999903    2    3    3    0    0  0.54822921645E-01  0.99435854108E-01  0.52385276289E-01  0.12674091156E+00  0.20639759492E-01 0.  0.
         14    1    1    2    0    0  0.24915421677E-01  0.60618783586E-02 -0.43859431003E-02  0.26014632488E-01  0.00000000000E+00 0.  1.
     999901    1    3    3    0    0 -0.79738343322E-01 -0.10549773247E+00 -0.47999333189E-01  0.89117445595E+00  0.88000000000E+00 0. -1.
        -11    1    4    4    0    0  0.26647286897E-01  0.49404962675E-01  0.37209812140E-01  0.67348047309E-01  0.51100000000E-03 0.  1.
         11    1    4    4    0    0  0.28175634748E-01  0.50030891433E-01  0.15175464149E-01  0.59392864253E-01  0.51100000000E-03 0. -1.
</event>
<event>
 8    1  0.1145101E+005  0.1043930E+01  0.7957747E-01            NaN
         13   -1    0    0    0    0  0.00000000000E+00  0.00000000000E+00  0.74505805969E-08  0.10566000000E+00  0.10566000000E+00 0. -1.
     999900   -1    0    0    0    0 -0.00000000000E+00 -0.00000000000E+00 -0.74505805969E-08  0.93827000000E+00  0.93827000000E+00 0. -1.
     999902    2    1    2    0    0  0.99725062263E-02  0.20298116229E-01  0.88552052880E-02  0.10196425740E+01  0.10193532752E+01 0.  0.
     999903    2    3    3    0    0 -0.69311465652E-01  0.10937468509E+00  0.11619808651E-01  0.13159515048E+00  0.20380448167E-01 0.  0.
         14    1    1    2    0    0 -0.99725062263E-02 -0.20298116229E-01 -0.88552052880E-02  0.24287426039E-01  0.00000000000E+00 0. -1.
     999901    1    3    3    0    0  0.79283971878E-01 -0.89076568862E-01 -0.27646033627E-02  0.88804742348E+00  0.88000000000E+00 0.  1.
        -11    1    4    4    0    0 -0.52407541133E-01  0.64666398499E-01  0.90072665921E-02  0.83723864190E-01  0.51100000000E-03 0.  1.
         11    1    4    4    0    0 -0.16903924518E-01  0.44708286593E-01  0.26125420586E-02  0.47871286292E-01  0.51100000000E-03 0. -1.
</event>
<event>
 8    1  0.1145101E+005  0.1043930E+01  0.7957747E-01            NaN
         13   -1    0    0    0    0  0.00000000000E+00  0.00000000000E+00  0.74505805969E-08  0.10566000000E+00  0.10566000000E+00 0. -1.
     999900   -1    0    0    0    0 -0.00000000000E+00 -0.00000000000E+00 -0.74505805969E-08  0.93827000000E+00  0.93827000000E+00 0.  1.
     999902    2    1    2    0    0  0.21315059833E-02 -0.13710905897E-01 -0.19149524644E-01  0.10202818171E+01  0.10200077205E+01 0.  0.
     999903    2    3    3    0    0  0.31635518699E-01 -0.87527520186E-01 -0.93762841798E-01  0.13355382818E+00  0.19577581236E-01 0.  0.
         14    1    1    2    0    0 -0.21315059833E-02  0.13710905897E-01  0.19149524644E-01  0.23648182855E-01  0.00000000000E+00 0. -1.
     999901    1    3    3    0    0 -0.29504012716E-01  0.73816614288E-01  0.74613317154E-01  0.88672798896E+00  0.88000000000E+00 0. -1.
        -11    1    4    4    0    0  0.16228855987E-01 -0.21218099390E-01 -0.21705118227E-01  0.34423201284E-01  0.51100000000E-03 0.  1.
         11    1    4    4    0    0  0.15406662712E-01 -0.66309420795E-01 -0.72057723571E-01  0.99130626899E-01  0.51100000000E-03 0. -1.
</event>
<event>
 8    1  0.1150893E+005  0.1043930E+01  0.7957747E-01            NaN
         13   -1    0    0    0    0  0.00000000000E+00  0.00000000000E+00  0.74505805969E-08  0.10566000000E+00  0.10566000000E+00 0. -1.
     999900   -1    0    0    0    0 -0.00000000000E+00 -0.00000000000E+00 -0.74505805969E-08  0.93827000000E+00  0.93827000000E+00 0.  1.
     999902    2    1    2    0    0  0.13074101776E-01 -0.20754298237E-01  0.31494310858E-02  0.10191996149E+01  0.10188995353E+01 0.  0.
     999903    2    3    3    0    0 -0.53826210467E-01  0.63025641539E-01  0.95164794856E-01  0.12792998268E+00  0.20982132034E-01 0.  0.
         14    1    1    2    0    0 -0.13074101776E-01  0.20754298237E-01 -0.31494310858E-02  0.24730385131E-01  0.00000000000E+00 0.  1.
     999901    1    3    3    0    0  0.66900312242E-01 -0.83779939776E-01 -0.92015363770E-01  0.89126963219E+00  0.88000000000E+00 0.  1.
        -11    1    4    4    0    0 -0.31429385241E-01  0.26547005332E-01  0.58774562531E-01  0.71744407938E-01  0.51100000000E-03 0.  1.
         11    1    4    4    0    0 -0.22396825226E-01  0.36478636208E-01  0.36390232325E-01  0.56185574745E-01  0.51100000000E-03 0. -1.
</event>
<event>
 8    1  0.1145101E+005  0.1043930E+01  0.7957747E-01            NaN
         13   -1    0    0    0    0  0.00000000000E+00  0.00000000000E+00  0.74505805969E-08  0.10566000000E+00  0.10566000000E+00 0. -1.
     999900   -1    0    0    0    0 -0.00000000000E+00 -0.00000000000E+00 -0.74505805969E-08  0.93827000000E+00  0.93827000000E+00 0.  1.
     999902    2    1    2    0    0 -0.23949179811E-01  0.13073412235E-01  0.26582311769E-01  0.10058367379E+01  0.10051151410E+01 0.  0.
     999903    2    3    3    0    0 -0.10306373734E+00  0.49486944395E-01 -0.29639653806E-01  0.11975210988E+00  0.19772888591E-01 0.  0.
         14    1    1    2    0    0  0.23949179811E-01 -0.13073412235E-01 -0.26582311769E-01  0.38093262135E-01  0.00000000000E+00 0.  1.
     999901    1    3    3    0    0  0.79114557528E-01 -0.36413532160E-01  0.56221965575E-01  0.88608462798E+00  0.88000000000E+00 0. -1.
        -11    1    4    4    0    0 -0.11851542309E-01  0.11970250887E-01 -0.85394455528E-02  0.18892570305E-01  0.51100000000E-03 0. -1.
         11    1    4    4    0    0 -0.91212195030E-01  0.37516693508E-01 -0.21100208254E-01  0.10085953958E+00  0.51100000000E-03 0.  1.
</event>
<event>
 8    1  0.1145101E+005  0.1043930E+01  0.7957747E-01            NaN
         13   -1    0    0    0    0  0.00000000000E+00  0.00000000000E+00  0.74505805969E-08  0.10566000000E+00  0.10566000000E+00 0. -1.
     999900   -1    0    0    0    0 -0.00000000000E+00 -0.00000000000E+00 -0.74505805969E-08  0.93827000000E+00  0.93827000000E+00 0.  1.
     999902    2    1    2    0    0 -0.16808933000E-01 -0.13043041010E-01 -0.14370791952E-01  0.10182554833E+01  0.10179317504E+01 0.  0.
     999903    2    3    3    0    0  0.65011132831E-01  0.54941522283E-01  0.90206040672E-01  0.12570143005E+00  0.20462196365E-01 0.  0.
         14    1    1    2    0    0  0.16808933000E-01  0.13043041010E-01  0.14370791952E-01  0.25674516718E-01  0.00000000000E+00 0. -1.
     999901    1    3    3    0    0 -0.81820065832E-01 -0.67984563292E-01 -0.10457683262E+00  0.89255405323E+00  0.88000000000E+00 0.  1.
        -11    1    4    4    0    0  0.27992470432E-01  0.35306427535E-01  0.53910746149E-01  0.70262023153E-01  0.51100000000E-03 0.  1.
         11    1    4    4    0    0  0.37018662399E-01  0.19635094748E-01  0.36295294523E-01  0.55439406897E-01  0.51100000000E-03 0. -1.
</event>
<event>
 8    1  0.1145101E+005  0.1043930E+01  0.7957747E-01            NaN
         13   -1    0    0    0    0  0.00000000000E+00  0.00000000000E+00  0.74505805969E-08  0.10566000000E+00  0.10566000000E+00 0. -1.
     999900   -1    0    0    0    0 -0.00000000000E+00 -0.00000000000E+00 -0.74505805969E-08  0.93827000000E+00  0.93827000000E+00 0.  1.
     999902    2    1    2    0    0 -0.26764150444E-02  0.23703241879E-01  0.23256976292E-02  0.10199630281E+01  0.10196814027E+01 0.  0.
     999903    2    3    3    0    0 -0.91732261070E-01 -0.41127614894E-01 -0.78935575340E-01  0.12938042205E+00  0.20054429109E-01 0.  0.
         14    1    1    2    0    0  0.26764150444E-02 -0.23703241879E-01 -0.23256976292E-02  0.23966971910E-01  0.00000000000E+00 0.  1.
     999901    1    3    3    0    0  0.89055846025E-01  0.64830856774E-01  0.81261272970E-01  0.89058260604E+00  0.88000000000E+00 0. -1.
        -11    1    4    4    0    0 -0.71987169961E-01 -0.23751544834E-01 -0.63437470875E-01  0.98847672471E-01  0.51100000000E-03 0. -1.
         11    1    4    4    0    0 -0.19745091108E-01 -0.17376070060E-01 -0.15498104466E-01  0.30532749576E-01  0.51100000000E-03 0.  1.
</event>
<event>
 8    1  0.1145101E+005  0.1043930E+01  0.7957747E-01            NaN
         13   -1    0    0    0    0  0.00000000000E+00  0.00000000000E+00  0.74505805969E-08  0.10566000000E+00  0.10566000000E+00 0.  1.
     999900   -1    0    0    0    0 -0.00000000000E+00 -0.00000000000E+00 -0.74505805969E-08  0.93827000000E+00  0.93827000000E+00 0.  1.
     999902    2    1    2    0    0  0.46480152990E-02 -0.13282576903E-01 -0.18745583171E-01  0.10204901241E+01  0.10202208906E+01 0.  0.
     999903    2    3    3    0    0  0.30998074259E-01  0.10320717476E+00  0.66597732109E-01  0.12833113077E+00  0.20518763962E-01 0.  0.
         14    1    1    2    0    0 -0.46480152990E-02  0.13282576903E-01  0.18745583171E-01  0.23439875934E-01  0.00000000000E+00 0.  1.
     999901    1    3    3    0    0 -0.26350058960E-01 -0.11648975166E+00 -0.85343315280E-01  0.89215899329E+00  0.88000000000E+00 0.  1.
        -11    1    4    4    0    0  0.29892705966E-01  0.66073952601E-01  0.45237579038E-01  0.85475381020E-01  0.51100000000E-03 0. -1.
         11    1    4    4    0    0  0.11053682929E-02  0.37133222155E-01  0.21360153071E-01  0.42855749753E-01  0.51100000000E-03 0.  1.
</event>
<event>
 8    1  0.1145101E+005  0.1043930E+01  0.7957747E-01            NaN
         13   -1    0    0    0    0  0.00000000000E+00  0.00000000000E+00  0.74505805969E-08  0.10566000000E+00  0.10566000000E+00 0. -1.
     999900   -1    0    0    0    0 -0.00000000000E+00 -0.00000000000E+00 -0.74505805969E-08  0.93827000000E+00  0.93827000000E+00 0.  1.
     999902    2    1    2    0    0 -0.19533358868E-03  0.31453440734E-01 -0.56810056160E-02  0.10119670384E+01  0.10114621377E+01 0.  0.
     999903    2    3    3    0    0  0.54637275474E-01 -0.27046371115E-01 -0.10513348057E+00  0.12274286094E+00  0.17205322278E-01 0.  0.
         14    1    1    2    0    0  0.19533358868E-03 -0.31453440734E-01  0.56810056160E-02  0.31962961596E-01  0.00000000000E+00 0.  1.
     999901    1    3    3    0    0 -0.54832609062E-01  0.58499811848E-01  0.99452474953E-01  0.88922417746E+00  0.88000000000E+00 0. -1.
        -11    1    4    4    0    0  0.23181759304E-02 -0.20272902329E-02 -0.16694840256E-01  0.16984188456E-01  0.51100000000E-03 0. -1.
         11    1    4    4    0    0  0.52319099543E-01 -0.25019080882E-01 -0.88438640313E-01  0.10575867249E+00  0.51100000000E-03 0.  1.
</event>
<event>
 8    1  0.1145101E+005  0.1043930E+01  0.7957747E-01            NaN
         13   -1    0    0    0    0  0.00000000000E+00  0.00000000000E+00  0.74505805969E-08  0.10566000000E+00  0.10566000000E+00 0. -1.
     999900   -1    0    0    0    0 -0.00000000000E+00 -0.00000000000E+00 -0.74505805969E-08  0.93827000000E+00  0.93827000000E+00 0.  1.
     999902    2    1    2    0    0 -0.11420321940E-02  0.14151958117E-01  0.19518843618E-01  0.10197935667E+01  0.10195078966E+01 0.  0.
     999903    2    3    3    0    0 -0.18523281466E-01 -0.12039149263E+00  0.37956336766E-01  0.12920724909E+00  0.20410934897E-01 0.  0.
         14    1    1    2    0    0  0.11420321940E-02 -0.14151958117E-01 -0.19518843618E-01  0.24136433296E-01  0.00000000000E+00 0.  1.
     999901    1    3    3    0    0  0.17381249272E-01  0.13454345075E+00 -0.18437493148E-01  0.89058631761E+00  0.88000000000E+00 0.  1.
        -11    1    4    4    0    0  0.42352643059E-02 -0.18524667907E-01  0.38369935125E-02  0.19392896251E-01  0.51100000000E-03 0. -1.
         11    1    4    4    0    0 -0.22758545772E-01 -0.10186682472E+00  0.34119343254E-01  0.10981435284E+00  0.51100000000E-03 0.  1.
</event>
<event>
 8    1  0.1145101E+005  0.1043930E+01  0.7957747E-01            NaN
         13   -1    0    0    0    0  0.00000000000E+00  0.00000000000E+00  0.74505805969E-08  0.10566000000E+00  0.10566000000E+00 0.  1.
     999900   -1    0    0    0    0 -0.00000000000E+00 -0.00000000000E+00 -0.74505805969E-08  0.93827000000E+00  0.93827000000E+00 0. -1.
     999902    2    1    2    0    0 -0.19602400012E-01  0.19801141132E-02  0.14034286035E-01  0.10197404129E+01  0.10194534681E+01 0.  0.
     999903    2    3    3    0    0 -0.25537427444E-01 -0.12366949674E+00  0.27535139001E-01  0.13069298883E+00  0.19395072214E-01 0.  0.
         14    1    1    2    0    0  0.19602400012E-01 -0.19801141132E-02 -0.14034286035E-01  0.24189587071E-01  0.00000000000E+00 0. -1.
     999901    1    3    3    0    0  0.59350274312E-02  0.12564961085E+00 -0.13500852967E-01  0.88904742409E+00  0.88000000000E+00 0.  1.
        -11    1    4    4    0    0 -0.10811234993E-01 -0.36554786362E-01  0.16905955677E-01  0.41703808775E-01  0.51100000000E-03 0. -1.
         11    1    4    4    0    0 -0.14726192451E-01 -0.87114710379E-01  0.10629183325E-01  0.88989180060E-01  0.51100000000E-03 0.  1.
</event>
<event>
 8    1  0.1145101E+005  0.1043930E+01  0.7957747E-01            NaN
         13   -1    0    0    0    0  0.00000000000E+00  0.00000000000E+00  0.74505805969E-08  0.10566000000E+00  0.10566000000E+00 0. -1.
     999900   -1    0    0    0    0 -0.00000000000E+00 -0.00000000000E+00 -0.74505805969E-08  0.93827000000E+00  0.93827000000E+00 0.  1.
     999902    2    1    2    0    0 -0.22181790035E-01  0.51716140611E-02 -0.11785021776E-02  0.10211228461E+01  0.10208681113E+01 0.  0.
     999903    2    3    3    0    0 -0.40773999899E-01 -0.12270882945E+00  0.13734404829E-01  0.13156032841E+00  0.19987752304E-01 0.  0.
         14    1    1    2    0    0  0.22181790035E-01 -0.51716140611E-02  0.11785021776E-02  0.22807153890E-01  0.00000000000E+00 0.  1.
     999901    1    3    3    0    0  0.18592209863E-01  0.12788044351E+00 -0.14912907007E-01  0.88956251770E+00  0.88000000000E+00 0. -1.
        -11    1    4    4    0    0 -0.18437351670E-01 -0.28768997269E-01  0.59374684355E-02  0.34685815442E-01  0.51100000000E-03 0. -1.
         11    1    4    4    0    0 -0.22336648229E-01 -0.93939832183E-01  0.77969363939E-02  0.96874512968E-01  0.51100000000E-03 0.  1.
</event>
<event>
 8    1  0.1145101E+005  0.1043930E+01  0.7957747E-01            NaN
         13   -1    0    0    0    0  0.00000000000E+00  0.00000000000E+00  0.74505805969E-08  0.10566000000E+00  0.10566000000E+00 0. -1.
     999900   -1    0    0    0    0 -0.00000000000E+00 -0.00000000000E+00 -0.74505805969E-08  0.93827000000E+00  0.93827000000E+00 0.  1.
     999902    2    1    2    0    0 -0.63701414205E-02 -0.43117615069E-02  0.22746490318E-01  0.10199180694E+01  0.10196353738E+01 0.  0.
     999903    2    3    3    0    0  0.96902354158E-01  0.39424195822E-01 -0.70867311336E-01  0.12787458046E+00  0.19631583106E-01 0.  0.
         14    1    1    2    0    0  0.63701414205E-02  0.43117615069E-02 -0.22746490318E-01  0.24011930593E-01  0.00000000000E+00 0.  1.
     999901    1    3    3    0    0 -0.10327249558E+00 -0.43735957329E-01  0.93613801654E-01  0.89204348894E+00  0.88000000000E+00 0. -1.
        -11    1    4    4    0    0  0.89040495764E-02  0.40659786562E-02 -0.14650838371E-01  0.17627321614E-01  0.51100000000E-03 0. -1.
         11    1    4    4    0    0  0.87998304582E-01  0.35358217166E-01 -0.56216472965E-01  0.11024725885E+00  0.51100000000E-03 0.  1.
</event>
<event>
 8    1  0.1145101E+005  0.1043930E+01  0.7957747E-01            NaN
         13   -1    0    0    0    0  0.00000000000E+00  0.00000000000E+00  0.74505805969E-08  0.10566000000E+00  0.10566000000E+00 0. -1.
     999900   -1    0    0    0    0 -0.00000000000E+00 -0.00000000000E+00 -0.74505805969E-08  0.93827000000E+00  0.93827000000E+00 0.  1.
     999902    2    1    2    0    0 -0.15087684510E-01  0.18547152386E-01 -0.14787970237E-02  0.10199754195E+01  0.10196940887E+01 0.  0.
     999903    2    3    3    0    0  0.48865077209E-01  0.77266389950E-01  0.91505929574E-01  0.13082747684E+00  0.19611291689E-01 0.  0.
         14    1    1    2    0    0  0.15087684510E-01 -0.18547152386E-01  0.14787970237E-02  0.23954580484E-01  0.00000000000E+00 0.  1.
     999901    1    3    3    0    0 -0.63952761719E-01 -0.58719237563E-01 -0.92984726598E-01  0.88914794268E+00  0.88000000000E+00 0. -1.
        -11    1    4    4    0    0  0.82386888393E-02  0.28255496465E-01  0.23432626130E-01  0.37624435712E-01  0.51100000000E-03 0.  1.
         11    1    4    4    0    0  0.40626388370E-01  0.49010893485E-01  0.68073303443E-01  0.93203041125E-01  0.51100000000E-03 0. -1.
</event>
<event>
 8    1  0.1145101E+005  0.1043930E+01  0.7957747E-01            NaN
         13   -1    0    0    0    0  0.00000000000E+00  0.00000000000E+00  0.74505805969E-08  0.10566000000E+00  0.10566000000E+00 0.  1.
     999900   -1    0    0    0    0 -0.00000000000E+00 -0.00000000000E+00 -0.74505805969E-08  0.93827000000E+00  0.93827000000E+00 0.  1.
     999902    2    1    2    0    0  0.93375956720E-02  0.84732802331E-02  0.19687277223E-01  0.10205510339E+01  0.10202832140E+01 0.  0.
     999903    2    3    3    0    0  0.11167602857E+00 -0.63042303796E-01 -0.16103681235E-02  0.13148341933E+00  0.28972898488E-01 0.  0.
         14    1    1    2    0    0 -0.93375956720E-02 -0.84732802331E-02 -0.19687277223E-01  0.23378966087E-01  0.00000000000E+00 0. -1.
     999901    1    3    3    0    0 -0.10233843290E+00  0.71515584029E-01  0.21297645347E-01  0.88906761459E+00  0.88000000000E+00 0. -1.
        -11    1    4    4    0    0  0.55480579615E-01 -0.15958447673E-01 -0.59622697363E-02  0.58039439590E-01  0.51100000000E-03 0. -1.
         11    1    4    4    0    0  0.56195448957E-01 -0.47083856123E-01  0.43519016128E-02  0.73443979737E-01  0.51100000000E-03 0.  1.
</event>
<event>
 7    1  0.1778054E+005  0.1043930E+01  0.7957747E-01            NaN
         13   -1    0    0    0    0  0.00000000000E+00  0.00000000000E+00  0.74505805969E-08  0.10566000000E+00  0.10566000000E+00 0. -1.
     999900   -1    0    0    0    0 -0.00000000000E+00 -0.00000000000E+00 -0.74505805969E-08  0.93827000000E+00  0.93827000000E+00 0.  1.
     999903    2    1    2    0    0  0.12670302838E-01  0.25004137344E-01 -0.10473907513E+00  0.11026213202E+00  0.20042964888E-01 0.  0.
         14    1    1    2    0    0 -0.18676833462E-01  0.40354172080E-01  0.13755617052E-01  0.46545679852E-01  0.00000000000E+00 0.  1.
     999901    1    1    2    0    0  0.60065306242E-02 -0.65358309424E-01  0.90983458075E-01  0.88712218813E+00  0.88000000000E+00 0. -1.
        -11    1    3    3    0    0  0.10302637581E-01  0.13176359121E-02 -0.38248392085E-01  0.39636865714E-01  0.51100000000E-03 0.  1.
         11    1    3    3    0    0  0.23676652567E-02  0.23686501432E-01 -0.66490683041E-01  0.70625266309E-01  0.51100000000E-03 0. -1.
</event>
<event>
 7    1  0.1145101E+005  0.1043930E+01  0.7957747E-01            NaN
         13   -1    0    0    0    0  0.00000000000E+00  0.00000000000E+00  0.74505805969E-08  0.10566000000E+00  0.10566000000E+00 0.  1.
     999900   -1    0    0    0    0 -0.00000000000E+00 -0.00000000000E+00 -0.74505805969E-08  0.93827000000E+00  0.93827000000E+00 0.  1.
     999902    2    1    2    0    0 -0.68789079232E-03 -0.20233839063E-01  0.12756015572E-01  0.10200009931E+01  0.10197202698E+01 0.  0.
         14    1    1    2    0    0  0.68789079232E-03  0.20233839063E-01 -0.12756015572E-01  0.23929006880E-01  0.00000000000E+00 0. -1.
     999901    1    3    3    0    0 -0.72816330719E-01 -0.88611576811E-01 -0.63180555843E-01  0.88968871646E+00  0.88000000000E+00 0.  1.
        -11    1    3    3    0    0  0.47810675840E-01  0.42717533470E-01  0.69168124560E-01  0.94314044374E-01  0.51100000000E-03 0. -1.
         11    1    3    3    0    0  0.24317764086E-01  0.25660204277E-01  0.67684468553E-02  0.35998232284E-01  0.51100000000E-03 0.  1.
</event>
<event>
 8    1  0.1145101E+005  0.1043930E+01  0.7957747E-01            NaN
         13   -1    0    0    0    0  0.00000000000E+00  0.00000000000E+00  0.74505805969E-08  0.10566000000E+00  0.10566000000E+00 0.  1.
     999900   -1    0    0    0    0 -0.00000000000E+00 -0.00000000000E+00 -0.74505805969E-08  0.93827000000E+00  0.93827000000E+00 0. -1.
     999902    2    1    2    0    0 -0.33388940010E-02 -0.22643403296E-01 -0.59862546926E-02  0.10202718688E+01  0.10199975388E+01 0.  0.
     999903    2    3    3    0    0  0.36747192373E-01  0.41107428353E-01  0.11482060380E+00  0.12883182040E+00  0.19331065090E-01 0.  0.
         14    1    1    2    0    0  0.33388940010E-02  0.22643403296E-01  0.59862546926E-02  0.23658131186E-01  0.00000000000E+00 0.  1.
     999901    1    3    3    0    0 -0.40086086374E-01 -0.63750831649E-01 -0.12080685849E+00  0.89144004841E+00  0.88000000000E+00 0. -1.
        -11    1    4    4    0    0  0.29116571018E-01  0.28338050031E-01  0.63428269862E-01  0.75327460638E-01  0.51100000000E-03 0. -1.
         11    1    4    4    0    0  0.76306213545E-02  0.12769378322E-01  0.51392333938E-01  0.53504359763E-01  0.51100000000E-03 0.  1.
</event>
<event>
 8    1  0.1145101E+005  0.1043930E+01  0.7957747E-01            NaN
         13   -1    0    0    0    0  0.00000000000E+00  0.00000000000E+00  0.74505805969E-08  0.10566000000E+00  0.10566000000E+00 0.  1.
     999900   -1    0    0    0    0 -0.00000000000E+00 -0.00000000000E+00 -0.74505805969E-08  0.93827000000E+00  0.93827000000E+00 0. -1.
     999902    2    1    2    0    0  0.12713304411E-01 -0.41781368616E-02 -0.19418308087E-01  0.10203470480E+01  0.10200744790E+01 0.  0.
     999903    2    3    3    0    0  0.98617632218E-02  0.39189060727E-01 -0.12518968829E+00  0.13294836082E+00  0.19229449729E-01 0.  0.
         14    1    1    2    0    0 -0.12713304411E-01  0.41781368616E-02  0.19418308087E-01  0.23582952013E-01  0.00000000000E+00 0.  1.
     999901    1    3    3    0    0  0.28515411894E-02 -0.43367197589E-01  0.10577138020E+00  0.88739868717E+00  0.88000000000E+00 0.  1.
        -11    1    4    4    0    0 -0.51462563000E-02  0.17607383158E-01 -0.56090213477E-01  0.59015905182E-01  0.51100000000E-03 0. -1.
         11    1    4    4    0    0  0.15008019522E-01  0.21581677570E-01 -0.69099474811E-01  0.73932455639E-01  0.51100000000E-03 0.  1.
</event>
<event>
 8    1  0.1145101E+005  0.1043930E+01  0.7957747E-01            NaN
         13   -1    0    0    0    0  0.00000000000E+00  0.00000000000E+00  0.74505805969E-08  0.10566000000E+00  0.10566000000E+00 0. -1.
     999900   -1    0    0    0    0 -0.00000000000E+00 -0.00000000000E+00 -0.74505805969E-08  0.93827000000E+00  0.93827000000E+00 0.  1.
     999902    2    1    2    0    0  0.11582478220E-01 -0.19707710546E-01  0.28236902854E-02  0.10208969610E+01  0.10206370972E+01 0.  0.
     999903    2    3    3    0    0 -0.94172549490E-01 -0.34425289780E-01  0.81600659478E-01  0.13094946602E+00  0.20869244595E-01 0.  0.
         14    1    1    2    0    0 -0.11582478220E-01  0.19707710546E-01 -0.28236902854E-02  0.23033038956E-01  0.00000000000E+00 0. -1.
     999901    1    3    3    0    0  0.10575502771E+00  0.14717579233E-01 -0.78776969192E-01  0.88994749502E+00  0.88000000000E+00 0. -1.
        -11    1    4    4    0    0 -0.23719043313E-01  0.60443110072E-03  0.19138599854E-01  0.30487792278E-01  0.51100000000E-03 0. -1.
         11    1    4    4    0    0 -0.70453506177E-01 -0.35029720881E-01  0.62462059624E-01  0.10046167374E+00  0.51100000000E-03 0.  1.
</event>
<event>
 8    1  0.1201465E+005  0.1043930E+01  0.7957747E-01            NaN
         13   -1    0    0    0    0  0.00000000000E+00  0.00000000000E+00  0.74505805969E-08  0.10566000000E+00  0.10566000000E+00 0.  1.
     999900   -1    0    0    0    0 -0.00000000000E+00 -0.00000000000E+00 -0.74505805969E-08  0.93827000000E+00  0.93827000000E+00 0. -1.
     999902    2    1    2    0    0  0.15837340662E-01  0.14358657242E-01  0.77423947689E-02  0.10211937498E+01  0.10209406141E+01 0.  0.
     999903    2    3    3    0    0 -0.56164732732E-01  0.54301120641E-01  0.10451255035E+00  0.13206824573E+00  0.20397535217E-01 0.  0.
         14    1    1    2    0    0 -0.15837340662E-01 -0.14358657242E-01 -0.77423947689E-02  0.22736250214E-01  0.00000000000E+00 0.  1.
     999901    1    3    3    0    0  0.72002073394E-01 -0.39942463399E-01 -0.96770155583E-01  0.88912550406E+00  0.88000000000E+00 0. -1.
        -11    1    4    4    0    0 -0.45338264926E-01  0.38425986220E-01  0.64679594872E-01  0.87839773436E-01  0.51100000000E-03 0.  1.
         11    1    4    4    0    0 -0.10826467806E-01  0.15875134421E-01  0.39832955480E-01  0.44228472292E-01  0.51100000000E-03 0. -1.
</event>
<event>
 8    1  0.1145101E+005  0.1043930E+01  0.7957747E-01            NaN
         13   -1    0    0    0    0  0.00000000000E+00  0.00000000000E+00  0.74505805969E-08  0.10566000000E+00  0.10566000000E+00 0. -1.
     999900   -1    0    0    0    0 -0.00000000000E+00 -0.00000000000E+00 -0.74505805969E-08  0.93827000000E+00  0.93827000000E+00 0.  1.
     999902    2    1    2    0    0  0.21726385129E-01  0.50494243665E-02  0.95007422949E-02  0.10196854831E+01  0.10193972179E+01 0.  0.
     999903    2    3    3    0    0 -0.13461217642E-01 -0.10347839774E+00  0.74671049085E-01  0.12993067165E+00  0.20426225393E-01 0.  0.
         14    1    1    2    0    0 -0.21726385129E-01 -0.50494243665E-02 -0.95007422949E-02  0.24244516934E-01  0.00000000000E+00 0.  1.
     999901    1    3    3    0    0  0.35187602771E-01  0.10852782210E+00 -0.65170306790E-01  0.88975481142E+00  0.88000000000E+00 0.  1.
        -11    1    4    4    0    0 -0.15076170648E-01 -0.99015396823E-01  0.65744641606E-01  0.11980800787E+00  0.51100000000E-03 0. -1.
         11    1    4    4    0    0  0.16149530061E-02 -0.44630009156E-02  0.89264074786E-02  0.10122663773E-01  0.51100000000E-03 0.  1.
</event>
<event>
 8    1  0.1145101E+005  0.1043930E+01  0.7957747E-01            NaN
         13   -1    0    0    0    0  0.00000000000E+00  0.00000000000E+00  0.74505805969E-08  0.10566000000E+00  0.10566000000E+00 0. -1.
     999900   -1    0    0    0    0 -0.00000000000E+00 -0.00000000000E+00 -0.74505805969E-08  0.93827000000E+00  0.93827000000E+00 0. -1.
     999902    2    1    2    0    0 -0.26315925107E-02 -0.13025095031E-01 -0.19776383007E-01  0.10201038861E+01  0.10198256001E+01 0.  0.
     999903    2    3    3    0    0  0.10665201890E+00  0.68348637029E-01 -0.18388846116E-01  0.12961721170E+00  0.20403004356E-01 0.  0.
         14    1    1    2    0    0  0.26315925107E-02  0.13025095031E-01  0.19776383007E-01  0.23826113920E-01  0.00000000000E+00 0. -1.
     999901    1    3    3    0    0 -0.10928361141E+00 -0.81373732060E-01 -0.13875368908E-02  0.89048667438E+00  0.88000000000E+00 0.  1.
        -11    1    4    4    0    0  0.21323394083E-01  0.66996674531E-02  0.17969891201E-02  0.22429065297E-01  0.51100000000E-03 0.  1.
         11    1    4    4    0    0  0.85328624821E-01  0.61648969576E-01 -0.20185835236E-01  0.10718814640E+00  0.51100000000E-03 0. -1.
</event>
<event>
 8    1  0.1145101E+005  0.1043930E+01  0.7957747E-01            NaN
         13   -1    0    0    0    0  0.00000000000E+00  0.00000000000E+00  0.74505805969E-08  0.10566000000E+00  0.10566000000E+00 0. -1.
     999900   -1    0    0    0    0 -0.00000000000E+00 -0.00000000000E+00 -0.74505805969E-08  0.93827000000E+00  0.93827000000E+00 0.  1.
     999902    2    1    2    0    0  0.45093327450E-02 -0.22826436803E-01  0.52522994410E-02  0.10200769719E+01  0.10197980495E+01 0.  0.
     999903    2    3    3    0    0  0.58245990571E-01 -0.30858941045E-01 -0.11203825937E+00  0.13063376142E+00  0.12951386079E-01 0.  0.
         14    1    1    2    0    0 -0.45093327450E-02  0.22826436803E-01 -0.52522994410E-02  0.23853028075E-01  0.00000000000E+00 0.  1.
     999901    1    3    3    0    0 -0.53736657826E-01  0.80325042420E-02  0.11729055881E+00  0.88944321050E+00  0.88000000000E+00 0. -1.
        -11    1    4    4    0    0  0.27990440937E-02 -0.54066002796E-02 -0.87565699289E-02  0.10677294243E-01  0.51100000000E-03 0. -1.
         11    1    4    4    0    0  0.55446946478E-01 -0.25452340766E-01 -0.10328168944E+00  0.11995646718E+00  0.51100000000E-03 0.  1.
</event>
<event>
 8    1  0.1145101E+005  0.1043930E+01  0.7957747E-01            NaN
         13   -1    0    0    0    0  0.00000000000E+00  0.00000000000E+00  0.74505805969E-08  0.10566000000E+00  0.10566000000E+00 0. -1.
     999900   -1    0    0    0    0 -0.00000000000E+00 -0.00000000000E+00 -0.74505805969E-08  0.93827000000E+00  0.93827000000E+00 0. -1.
     999902    2    1    2    0    0 -0.19935292416E-01  0.35680117076E-02 -0.11978181009E-01  0.10204007966E+01  0.10201294831E+01 0.  0.
     999903    2    3    3    0    0 -0.44491396498E-01  0.11958621571E+00 -0.28231847923E-01  0.13229753258E+00  0.20621652211E-01 0.  0.
         14    1    1    2    0    0  0.19935292416E-01 -0.35680117076E-02  0.11978181009E-01  0.23529203377E-01  0.00000000000E+00 0.  1.
     999901    1    3    3    0    0  0.24556104082E-01 -0.11601820401E+00  0.16253666914E-01  0.88810326404E+00  0.88000000000E+00 0.  1.
        -11    1    4    4    0    0 -0.26362460592E-01  0.74859484879E-01 -0.27600389510E-01  0.84029544964E-01  0.51100000000E-03 0.  1.
         11    1    4    4    0    0 -0.18128935906E-01  0.44726730834E-01 -0.63145841294E-03  0.48267987621E-01  0.51100000000E-03 0. -1.
</event>
<event>
 8    1  0.1145101E+005  0.1043930E+01  0.7957747E-01            NaN
         13   -1    0    0    0    0  0.00000000000E+00  0.00000000000E+00  0.74505805969E-08  0.10566000000E+00  0.10566000000E+00 0.  1.
     999900   -1    0    0    0    0 -0.00000000000E+00 -0.00000000000E+00 -0.74505805969E-08  0.93827000000E+00  0.93827000000E+00 0.  1.
     999902    2    1    2    0    0  0.16116328214E-01 -0.17393365478E-01 -0.42068264376E-02  0.10198475876E+01  0.10195632101E+01 0.  0.
     999903    2    3    3    0    0 -0.84579144124E-01 -0.49764449213E-01  0.81788062666E-01  0.12935189073E+00  0.20309909278E-01 0.  0.
         14    1    1    2    0    0 -0.16116328214E-01  0.17393365478E-01  0.42068264376E-02  0.24082412388E-01  0.00000000000E+00 0.  1.
     999901    1    3    3    0    0  0.10069547234E+00  0.32371083736E-01 -0.85994889104E-01  0.89049569688E+00  0.88000000000E+00 0.  1.
        -11    1    4    4    0    0 -0.29492650512E-01 -0.11895255413E-01  0.37459110610E-01  0.49140203746E-01  0.51100000000E-03 0.  1.
         11    1    4    4    0    0 -0.55086493612E-01 -0.37869193801E-01  0.44328952056E-01  0.80211686985E-01  0.51100000000E-03 0. -1.
</event>
<event>
 8    1  0.1145101E+005  0.1043930E+01  0.7957747E-01            NaN
         13   -1    0    0    0    0  0.00000000000E+00  0.00000000000E+00  0.74505805969E-08  0.10566000000E+00  0.10566000000E+00 0.  1.
     999900   -1    0    0    0    0 -0.00000000000E+00 -0.00000000000E+00 -0.74505805969E-08  0.93827000000E+00  0.93827000000E+00 0. -1.
     999902    2    1    2    0    0 -0.13765675299E-01 -0.88632316607E-02 -0.17970121804E-01  0.10196200027E+01  0.10193301594E+01 0.  0.
     999903    2    3    3    0    0  0.45998139668E-01 -0.33028590228E-01  0.11221141962E+00  0.12771030330E+00  0.22623046873E-01 0.  0.
         14    1    1    2    0    0  0.13765675299E-01  0.88632316607E-02  0.17970121804E-01  0.24309997317E-01  0.00000000000E+00 0.  1.
     999901    1    3    3    0    0 -0.59763814967E-01  0.24165358567E-01 -0.13018154142E+00  0.89190969939E+00  0.88000000000E+00 0. -1.
        -11    1    4    4    0    0  0.10622194560E-01 -0.71087992719E-02  0.92166465075E-02  0.15766221431E-01  0.51100000000E-03 0. -1.
         11    1    4    4    0    0  0.35375945108E-01 -0.25919790956E-01  0.10299477311E+00  0.11194408186E+00  0.51100000000E-03 0.  1.
</event>
<event>
 8    1  0.1145101E+005  0.1043930E+01  0.7957747E-01            NaN
         13   -1    0    0    0    0  0.00000000000E+00  0.00000000000E+00  0.74505805969E-08  0.10566000000E+00  0.10566000000E+00 0. -1.
     999900   -1    0    0    0    0 -0.00000000000E+00 -0.00000000000E+00 -0.74505805969E-08  0.93827000000E+00  0.93827000000E+00 0. -1.
     999902    2    1    2    0    0 -0.14061577536E-01  0.12458904174E-01 -0.14679954478E-01  0.10200877409E+01  0.10198090732E+01 0.  0.
     999903    2    3    3    0    0 -0.48630670162E-01  0.24948256094E-01  0.11581424811E+00  0.12970594470E+00  0.20575093242E-01 0.  0.
         14    1    1    2    0    0  0.14061577536E-01 -0.12458904174E-01  0.14679954478E-01  0.23842259110E-01  0.00000000000E+00 0. -1.
     999901    1    3    3    0    0  0.34569092626E-01 -0.12489351921E-01 -0.13049420259E+00  0.89038179619E+00  0.88000000000E+00 0. -1.
        -11    1    4    4    0    0 -0.32944837699E-01  0.20178254358E-01  0.58631561624E-01  0.70217130527E-01  0.51100000000E-03 0.  1.
         11    1    4    4    0    0 -0.15685832464E-01  0.47700017366E-02  0.57182686489E-01  0.59488814173E-01  0.51100000000E-03 0. -1.
</event>
<event>
 8    1  0.1330545E+005  0.1043930E+01  0.7957747E-01            NaN
         13   -1    0    0    0    0  0.00000000000E+00  0.00000000000E+00  0.74505805969E-08  0.10566000000E+00  0.10566000000E+00 0. -1.
     999900   -1    0    0    0    0 -0.00000000000E+00 -0.00000000000E+00 -0.74505805969E-08  0.93827000000E+00  0.93827000000E+00 0.  1.
     999902    2    1    2    0    0  0.10625679842E-01 -0.24200012711E-03 -0.21421961116E-01  0.10200163208E+01  0.10197359612E+01 0.  0.
     999903    2    3    3    0    0  0.16663840989E-01  0.33462009911E-01 -0.12608965936E+00  0.13315232515E+00  0.20821858473E-01 0.  0.
         14    1    1    2    0    0 -0.10625679842E-01  0.24200012711E-03  0.21421961116E-01  0.23913679228E-01  0.00000000000E+00 0. -1.
     999901    1    3    3    0    0 -0.60381611462E-02 -0.33704010038E-01  0.10466769824E+00  0.88686399563E+00  0.88000000000E+00 0. -1.
        -11    1    4    4    0    0  0.59504630304E-02  0.66492098291E-02 -0.64642304329E-01  0.65257249648E-01  0.51100000000E-03 0.  1.
         11    1    4    4    0    0  0.10713377958E-01  0.26812800082E-01 -0.61447355031E-01  0.67895075497E-01  0.51100000000E-03 0. -1.
</event>
<event>
 8    1  0.1145101E+005  0.1043930E+01  0.7957747E-01            NaN
         13   -1    0    0    0    0  0.00000000000E+00  0.00000000000E+00  0.74505805969E-08  0.10566000000E+00  0.10566000000E+00 0.  1.
     999900   -1    0    0    0    0 -0.00000000000E+00 -0.00000000000E+00 -0.74505805969E-08  0.93827000000E+00  0.93827000000E+00 0. -1.
     999902    2    1    2    0    0 -0.50365198592E-03 -0.29223379382E-02 -0.22671822885E-01  0.10210650645E+01  0.10208090226E+01 0.  0.
     999903    2    3    3    0    0 -0.12475086324E+00  0.32589503534E-01  0.11741038991E-01  0.13096242687E+00  0.19709176384E-01 0.  0.
         14    1    1    2    0    0  0.50365198592E-03  0.29223379382E-02  0.22671822885E-01  0.22864935541E-01  0.00000000000E+00 0.  1.
     999901    1    3    3    0    0  0.12424721126E+00 -0.35511841472E-01 -0.34412861876E-01  0.89010263759E+00  0.88000000000E+00 0. -1.
        -11    1    4    4    0    0 -0.62851414657E-01  0.14019960157E-01 -0.37419772949E-02  0.64506768035E-01  0.51100000000E-03 0. -1.
         11    1    4    4    0    0 -0.61899448584E-01  0.18569543377E-01  0.15483016286E-01  0.66455658830E-01  0.51100000000E-03 0.  1.
</event>
<event>
 8    1  0.1145101E+005  0.1043930E+01  0.7957747E-01            NaN
         13   -1    0    0    0    0  0.00000000000E+00  0.00000000000E+00  0.74505805969E-08  0.10566000000E+00  0.10566000000E+00 0.  1.
     999900   -1    0    0    0    0 -0.00000000000E+00 -0.00000000000E+00 -0.74505805969E-08  0.93827000000E+00  0.93827000000E+00 0. -1.
     999902    2    1    2    0    0 -0.90864652502E-02  0.24527499488E-02  0.25008584355E-01  0.10172090508E+01  0.10168580255E+01 0.  0.
     999903    2    3    3    0    0  0.85554008436E-01 -0.91431595295E-01  0.53262763790E-02  0.12695151349E+00  0.20226037186E-01 0.  0.
         14    1    1    2    0    0  0.90864652502E-02 -0.24527499488E-02 -0.25008584355E-01  0.26720949169E-01  0.00000000000E+00 0. -1.
     999901    1    3    3    0    0 -0.94640473686E-01  0.93884345244E-01  0.19682307976E-01  0.89025753734E+00  0.88000000000E+00 0.  1.
        -11    1    4    4    0    0  0.53620650859E-01 -0.70547269842E-01  0.56092746662E-02  0.88790858561E-01  0.51100000000E-03 0.  1.
         11    1    4    4    0    0  0.31933357577E-01 -0.20884325453E-01 -0.28299828722E-03  0.38160654931E-01  0.51100000000E-03 0. -1.
</event>
<event>
 8    1  0.1145101E+005  0.1043930E+01  0.7957747E-01            NaN
         13   -1    0    0    0    0  0.00000000000E+00  0.00000000000E+00  0.74505805969E-08  0.10566000000E+00  0.10566000000E+00 0.  1.
     999900   -1    0    0    0    0 -0.00000000000E+00 -0.00000000000E+00 -0.74505805969E-08  0.93827000000E+00  0.93827000000E+00 0. -1.
     999902    2    1    2    0    0 -0.28401550605E-02 -0.11474560752E-01  0.20533166702E-01  0.10202373226E+01  0.10199621814E+01 0.  0.
     999903    2    3    3    0    0 -0.12854810959E+00 -0.84142497545E-02  0.10404030878E-01  0.13124100391E+00  0.22815371353E-01 0.  0.
         14    1    1    2    0    0  0.28401550605E-02  0.11474560752E-01 -0.20533166702E-01  0.23692677350E-01  0.00000000000E+00 0. -1.
     999901    1    3    3    0    0  0.12570795453E+00 -0.30603109977E-02  0.10129135824E-01  0.88899631874E+00  0.88000000000E+00 0. -1.
        -11    1    4    4    0    0 -0.57525127540E-01  0.11333276643E-02  0.14899860848E-01  0.59436450974E-01  0.51100000000E-03 0. -1.
         11    1    4    4    0    0 -0.71022982055E-01 -0.95475774188E-02 -0.44958299699E-02  0.71804552938E-01  0.51100000000E-03 0.  1.
</event>
<event>
 8    1  0.1145101E+005  0.1043930E+01  0.7957747E-01            NaN
         13   -1    0    0    0    0  0.00000000000E+00  0.00000000000E+00  0.74505805969E-08  0.10566000000E+00  0.10566000000E+00 0. -1.
     999900   -1    0    0    0    0 -0.00000000000E+00 -0.00000000000E+00 -0.74505805969E-08  0.93827000000E+00  0.93827000000E+00 0. -1.
     999902    2    1    2    0    0  0.10916948251E-01 -0.20253698669E-01 -0.46460515992E-02  0.10204570823E+01  0.10201870804E+01 0.  0.
     999903    2    3    3    0    0 -0.83384119104E-01  0.90426345717E-01 -0.30079347036E-01  0.12816250313E+00  0.19774346337E-01 0.  0.
         14    1    1    2    0    0 -0.10916948251E-01  0.20253698669E-01  0.46460515992E-02  0.23472917679E-01  0.00000000000E+00 0.  1.
     999901    1    3    3    0    0  0.94301067356E-01 -0.11068004439E+00  0.25433295437E-01  0.89229457919E+00  0.88000000000E+00 0. -1.
        -11    1    4    4    0    0 -0.44481830300E-01  0.57166700902E-01 -0.25419264650E-01  0.76766301560E-01  0.51100000000E-03 0. -1.
         11    1    4    4    0    0 -0.38902288804E-01  0.33259644815E-01 -0.46600823854E-02  0.51396201574E-01  0.51100000000E-03 0.  1.
</event>
<event>
 8    1  0.1145101E+005  0.1043930E+01  0.7957747E-01            NaN
         13   -1    0    0    0    0  0.00000000000E+00  0.00000000000E+00  0.74505805969E-08  0.10566000000E+00  0.10566000000E+00 0. -1.
     999900   -1    0    0    0    0 -0.00000000000E+00 -0.00000000000E+00 -0.74505805969E-08  0.93827000000E+00  0.93827000000E+00 0.  1.
     999902    2    1    2    0    0 -0.22156475197E-01 -0.75411726662E-02 -0.77652662150E-03  0.10205124495E+01  0.10202437346E+01 0.  0.
     999903    2    3    3    0    0 -0.94548666389E-01 -0.91885926406E-01  0.17511238552E-01  0.13333202298E+00  0.93973979613E-02 0.  0.
         14    1    1    2    0    0  0.22156475197E-01  0.75411726662E-02  0.77652662150E-03  0.23417550511E-01  0.00000000000E+00 0. -1.
     999901    1    3    3    0    0  0.72392191192E-01  0.84344753740E-01 -0.18287765174E-01  0.88718042651E+00  0.88000000000E+00 0.  1.
        -11    1    4    4    0    0 -0.43802744386E-01 -0.39342267822E-01  0.11879742356E-01  0.60065662841E-01  0.51100000000E-03 0.  1.
         11    1    4    4    0    0 -0.50745922003E-01 -0.52543658584E-01  0.56314961968E-02  0.73266360137E-01  0.51100000000E-03 0. -1.
</event>
<event>
 8    1  0.1145101E+005  0.1043930E+01  0.7957747E-01            NaN
         13   -1    0    0    0    0  0.00000000000E+00  0.00000000000E+00  0.74505805969E-08  0.10566000000E+00  0.10566000000E+00 0.  1.
     999900   -1    0    0    0    0 -0.00000000000E+00 -0.00000000000E+00 -0.74505805969E-08  0.93827000000E+00  0.93827000000E+00 0. -1.
     999902    2    1    2    0    0  0.69516044074E-02 -0.70669676402E-02  0.23829832813E-01  0.10181205489E+01  0.10177933603E+01 0.  0.
     999903    2    3    3    0    0  0.26461943408E-01 -0.99357377339E-02 -0.12118233457E+00  0.12603455982E+00  0.20014962514E-01 0.  0.
         14    1    1    2    0    0 -0.69516044074E-02  0.70669676402E-02 -0.23829832813E-01  0.25809451125E-01  0.00000000000E+00 0. -1.
     999901    1    3    3    0    0 -0.19510339001E-01  0.28687700937E-02  0.14501216739E+00  0.89208598905E+00  0.88000000000E+00 0.  1.
        -11    1    4    4    0    0  0.24575778660E-01 -0.65263409714E-03 -0.96728297501E-01  0.99804907126E-01  0.51100000000E-03 0.  1.
         11    1    4    4    0    0  0.18861647489E-02 -0.92831036368E-02 -0.24454037072E-01  0.26229652699E-01  0.51100000000E-03 0. -1.
</event>
<event>
 8    1  0.1145101E+005  0.1043930E+01  0.7957747E-01            NaN
         13   -1    0    0    0    0  0.00000000000E+00  0.00000000000E+00  0.74505805969E-08  0.10566000000E+00  0.10566000000E+00 0.  1.
     999900   -1    0    0    0    0 -0.00000000000E+00 -0.00000000000E+00 -0.74505805969E-08  0.93827000000E+00  0.93827000000E+00 0.  1.
     999902    2    1    2    0    0 -0.98313461916E-02  0.10883196376E-01  0.17927729011E-01  0.10207674699E+01  0.10205046423E+01 0.  0.
     999903    2    3    3    0    0 -0.28234237132E-01 -0.12544985225E+00 -0.11132220233E-01  0.12960539310E+00  0.11781087292E-01 0.  0.
         14    1    1    2    0    0  0.98313461916E-02 -0.10883196376E-01 -0.17927729011E-01  0.23162530060E-01  0.00000000000E+00 0. -1.
     999901    1    3    3    0    0  0.18402890940E-01  0.13633304863E+00  0.29059949245E-01  0.89116207684E+00  0.88000000000E+00 0.  1.
        -11    1    4    4    0    0 -0.17351596107E-01 -0.69729975709E-01 -0.11833457679E-01  0.72826089017E-01  0.51100000000E-03 0.  1.
         11    1    4    4    0    0 -0.10882641025E-01 -0.55719876541E-01  0.70123744583E-03  0.56779304085E-01  0.51100000000E-03 0. -1.
</event>
<event>
 8    1  0.1145101E+005  0.1043930E+01  0.7957747E-01            NaN
         13   -1    0    0    0    0  0.00000000000E+00  0.00000000000E+00  0.74505805969E-08  0.10566000000E+00  0.10566000000E+00 0. -1.
     999900   -1    0    0    0    0 -0.00000000000E+00 -0.00000000000E+00 -0.74505805969E-08  0.93827000000E+00  0.93827000000E+00 0. -1.
     999902    2    1    2    0    0 -0.46737907093E-03  0.20592724308E-01 -0.11282808784E-01  0.10204442488E+01  0.10201739481E+01 0.  0.
     999903    2    3    3    0    0 -0.24220796340E-01 -0.12395992055E+00  0.69247164583E-02  0.12814877866E+00  0.20529220523E-01 0.  0.
         14    1    1    2    0    0  0.46737907093E-03 -0.20592724308E-01  0.11282808784E-01  0.23485751248E-01  0.00000000000E+00 0. -1.
     999901    1    3    3    0    0  0.23753417269E-01  0.14455264486E+00 -0.18207525242E-01  0.89229547009E+00  0.88000000000E+00 0. -1.
        -11    1    4    4    0    0 -0.25100968363E-01 -0.85118891422E-01  0.92491395785E-02  0.89224951631E-01  0.51100000000E-03 0. -1.
         11    1    4    4    0    0  0.88017202315E-03 -0.38841029132E-01 -0.23244231201E-02  0.38923827030E-01  0.51100000000E-03 0.  1.
</event>
<event>
 8    1  0.1145101E+005  0.1043930E+01  0.7957747E-01            NaN
         13   -1    0    0    0    0  0.00000000000E+00  0.00000000000E+00  0.74505805969E-08  0.10566000000E+00  0.10566000000E+00 0. -1.
     999900   -1    0    0    0    0 -0.00000000000E+00 -0.00000000000E+00 -0.74505805969E-08  0.93827000000E+00  0.93827000000E+00 0. -1.
     999902    2    1    2    0    0  0.30028102793E-02  0.19957303076E-01 -0.11104817909E-01  0.10208946403E+01  0.10206347235E+01 0.  0.
     999903    2    3    3    0    0  0.13580311000E-01  0.12738043597E+00  0.22975598646E-01  0.13364434428E+00  0.30376509169E-01 0.  0.
         14    1    1    2    0    0 -0.30028102793E-02 -0.19957303076E-01  0.11104817909E-01  0.23035359699E-01  0.00000000000E+00 0. -1.
     999901    1    3    3    0    0 -0.10577500721E-01 -0.10742313289E+00 -0.34080416555E-01  0.88725029602E+00  0.88000000000E+00 0.  1.
        -11    1    4    4    0    0  0.13800171301E-01  0.30336308697E-01  0.14107813651E-01  0.36194307292E-01  0.51100000000E-03 0. -1.
         11    1    4    4    0    0 -0.21986030129E-03  0.97044127273E-01  0.88677849947E-02  0.97450036985E-01  0.51100000000E-03 0.  1.
</event>
<event>
 8    1  0.1145101E+005  0.1043930E+01  0.7957747E-01            NaN
         13   -1    0    0    0    0  0.00000000000E+00  0.00000000000E+00  0.74505805969E-08  0.10566000000E+00  0.10566000000E+00 0. -1.
     999900   -1    0    0    0    0 -0.00000000000E+00 -0.00000000000E+00 -0.74505805969E-08  0.93827000000E+00  0.93827000000E+00 0. -1.
     999902    2    1    2    0    0  0.15477307980E-01 -0.12192167273E-01  0.40310598084E-02  0.10238191709E+01  0.10236216338E+01 0.  0.
     999903    2    3    3    0    0 -0.14265934629E-01 -0.11176350909E+00  0.71921212911E-01  0.13510763979E+00  0.19667602980E-01 0.  0.
         14    1    1    2    0    0 -0.15477307980E-01  0.12192167273E-01 -0.40310598084E-02  0.20110829130E-01  0.00000000000E+00 0.  1.
     999901    1    3    3    0    0  0.29743242609E-01  0.99571341819E-01 -0.67890153102E-01  0.88871153108E+00  0.88000000000E+00 0. -1.
        -11    1    4    4    0    0 -0.50940070180E-03 -0.71736862676E-01  0.49954188112E-01  0.87419214058E-01  0.51100000000E-03 0. -1.
         11    1    4    4    0    0 -0.13756533927E-01 -0.40026646415E-01  0.21967024799E-01  0.47688425729E-01  0.51100000000E-03 0.  1.
</event>
<event>
 8    1  0.1145101E+005  0.1043930E+01  0.7957747E-01            NaN
         13   -1    0    0    0    0  0.00000000000E+00  0.00000000000E+00  0.74505805969E-08  0.10566000000E+00  0.10566000000E+00 0.  1.
     999900   -1    0    0    0    0 -0.00000000000E+00 -0.00000000000E+00 -0.74505805969E-08  0.93827000000E+00  0.93827000000E+00 0.  1.
     999902    2    1    2    0    0 -0.17103994601E-01  0.13720321669E-01  0.72909725258E-02  0.10208225956E+01  0.10205610318E+01 0.  0.
     999903    2    3    3    0    0  0.37309551059E-01  0.12504005009E+00 -0.28060042000E-02  0.13208480253E+00  0.20285577941E-01 0.  0.
         14    1    1    2    0    0  0.17103994601E-01 -0.13720321669E-01 -0.72909725258E-02  0.23107404406E-01  0.00000000000E+00 0.  1.
     999901    1    3    3    0    0 -0.54413545660E-01 -0.11131972842E+00  0.10096976726E-01  0.88873779307E+00  0.88000000000E+00 0. -1.
        -11    1    4    4    0    0  0.16345948100E-01  0.45052942488E-01  0.83310419644E-02  0.48647970434E-01  0.51100000000E-03 0. -1.
         11    1    4    4    0    0  0.20963602958E-01  0.79987107601E-01 -0.11137046164E-01  0.83436832093E-01  0.51100000000E-03 0.  1.
</event>
<event>
 8    1  0.1145101E+005  0.1043930E+01  0.7957747E-01            NaN
         13   -1    0    0    0    0  0.00000000000E+00  0.00000000000E+00  0.74505805969E-08  0.10566000000E+00  0.10566000000E+00 0.  1.
     999900   -1    0    0    0    0 -0.00000000000E+00 -0.00000000000E+00 -0.74505805969E-08  0.93827000000E+00  0.93827000000E+00 0.  1.
     999902    2    1    2    0    0 -0.21308632063E-01  0.49946515442E-02  0.93989514380E-02  0.10201110027E+01  0.10198328849E+01 0.  0.
     999903    2    3    3    0    0 -0.10349659926E+00 -0.73109679442E-01 -0.30833788388E-01  0.13192531162E+00  0.19924709615E-01 0.  0.
         14    1    1    2    0    0  0.21308632063E-01 -0.49946515442E-02 -0.93989514380E-02  0.23818997304E-01  0.00000000000E+00 0.  1.
     999901    1    3    3    0    0  0.82187967201E-01  0.78104330987E-01  0.40232739826E-01  0.88818569107E+00  0.88000000000E+00 0. -1.
        -11    1    4    4    0    0 -0.12090101257E-01 -0.57006844912E-02 -0.93899673048E-02  0.16343223644E-01  0.51100000000E-03 0. -1.
         11    1    4    4    0    0 -0.91406498007E-01 -0.67408994951E-01 -0.21443821083E-01  0.11558208798E+00  0.51100000000E-03 0.  1.
</event>
<event>
 8    1  0.1145101E+005  0.1043930E+01  0.7957747E-01            NaN
         13   -1    0    0    0    0  0.00000000000E+00  0.00000000000E+00  0.74505805969E-08  0.10566000000E+00  0.10566000000E+00 0. -1.
     999900   -1    0    0    0    0 -0.00000000000E+00 -0.00000000000E+00 -0.74505805969E-08  0.93827000000E+00  0.93827000000E+00 0. -1.
     999902    2    1    2    0    0 -0.32465159456E-02  0.16958602971E-01  0.15741222049E-01  0.10205650658E+01  0.10202975710E+01 0.  0.
     999903    2    3    3    0    0  0.46027039619E-01 -0.92580131647E-01 -0.72702630958E-01  0.12801314413E+00  0.20300821936E-01 0.  0.
         14    1    1    2    0    0  0.32465159456E-02 -0.16958602971E-01 -0.15741222049E-01  0.23364934242E-01  0.00000000000E+00 0.  1.
     999901    1    3    3    0    0 -0.49273555564E-01  0.10953873462E+00  0.88443853007E-01  0.89255192162E+00  0.88000000000E+00 0.  1.
        -11    1    4    4    0    0  0.34102587177E-01 -0.72950154429E-01 -0.65890975687E-01  0.10405091677E+00  0.51100000000E-03 0. -1.
         11    1    4    4    0    0  0.11924452442E-01 -0.19629977218E-01 -0.68116552713E-02  0.23962227362E-01  0.51100000000E-03 0.  1.
</event>
<event>
 8    1  0.1145101E+005  0.1043930E+01  0.7957747E-01            NaN
         13   -1    0    0    0    0  0.00000000000E+00  0.00000000000E+00  0.74505805969E-08  0.10566000000E+00  0.10566000000E+00 0.  1.
     999900   -1    0    0    0    0 -0.00000000000E+00 -0.00000000000E+00 -0.74505805969E-08  0.93827000000E+00  0.93827000000E+00 0.  1.
     999902    2    1    2    0    0  0.14172760351E-01  0.15831989769E-02  0.18983135470E-01  0.10201869360E+01  0.10199106095E+01 0.  0.
     999903    2    3    3    0    0 -0.53618496290E-01  0.13441165039E-01  0.11809537865E+00  0.13195301267E+00  0.20235390613E-01 0.  0.
         14    1    1    2    0    0 -0.14172760351E-01 -0.15831989769E-02 -0.18983135470E-01  0.23743063982E-01  0.00000000000E+00 0.  1.
     999901    1    3    3    0    0  0.67791256642E-01 -0.11857966062E-01 -0.99112243177E-01  0.88823392335E+00  0.88000000000E+00 0.  1.
        -11    1    4    4    0    0 -0.12570111743E-01  0.12574666145E-01  0.34259805474E-01  0.38602141521E-01  0.51100000000E-03 0. -1.
         11    1    4    4    0    0 -0.41048384547E-01  0.86649889344E-03  0.83835573173E-01  0.93350871150E-01  0.51100000000E-03 0.  1.
</event>
<event>
 8    1  0.1145101E+005  0.1043930E+01  0.7957747E-01            NaN
         13   -1    0    0    0    0  0.00000000000E+00  0.00000000000E+00  0.74505805969E-08  0.10566000000E+00  0.10566000000E+00 0.  1.
     999900   -1    0    0    0    0 -0.00000000000E+00 -0.00000000000E+00 -0.74505805969E-08  0.93827000000E+00  0.93827000000E+00 0. -1.
     999902    2    1    2    0    0  0.17148777248E-01 -0.11218071662E-01 -0.14319487725E-01  0.10189305316E+01  0.10186238043E+01 0.  0.
     999903    2    3    3    0    0 -0.11710593409E+00  0.43835338107E-01  0.37290635002E-02  0.12686497589E+00  0.21106385924E-01 0.  0.
         14    1    1    2    0    0 -0.17148777248E-01  0.11218071662E-01  0.14319487725E-01  0.24999468427E-01  0.00000000000E+00 0.  1.
     999901    1    3    3    0    0  0.13425471133E+00 -0.55053409769E-01 -0.18048551225E-01  0.89206555569E+00  0.88000000000E+00 0. -1.
        -11    1    4    4    0    0 -0.10737852253E+00  0.33546588649E-01  0.52162880490E-02  0.11261878837E+00  0.51100000000E-03 0.  1.
         11    1    4    4    0    0 -0.97274115514E-02  0.10288749458E-01 -0.14872245487E-02  0.14246187517E-01  0.51100000000E-03 0. -1.
</event>
<event>
 8    1  0.1145101E+005  0.1043930E+01  0.7957747E-01            NaN
         13   -1    0    0    0    0  0.00000000000E+00  0.00000000000E+00  0.74505805969E-08  0.10566000000E+00  0.10566000000E+00 0. -1.
     999900   -1    0    0    0    0 -0.00000000000E+00 -0.00000000000E+00 -0.74505805969E-08  0.93827000000E+00  0.93827000000E+00 0. -1.
     999902    2    1    2    0    0  0.16151146551E-01  0.42192496300E-03 -0.18057571625E-01  0.10196995760E+01  0.10194116498E+01 0.  0.
     999903    2    3    3    0    0 -0.46618553500E-01 -0.78870409137E-01  0.84878708526E-01  0.12794670255E+00  0.27787273411E-01 0.  0.
         14    1    1    2    0    0 -0.16151146551E-01 -0.42192496300E-03  0.18057571625E-01  0.24230424028E-01  0.00000000000E+00 0. -1.
     999901    1    3    3    0    0  0.62769700051E-01  0.79292334100E-01 -0.10293628015E+00  0.89175287343E+00  0.88000000000E+00 0. -1.
        -11    1    4    4    0    0 -0.29948785361E-01 -0.44181794816E-01  0.30983226954E-01  0.61718572660E-01  0.51100000000E-03 0. -1.
         11    1    4    4    0    0 -0.16669768139E-01 -0.34688614321E-01  0.53895481572E-01  0.66228129886E-01  0.51100000000E-03 0.  1.
</event>
<event>
 8    1  0.1145101E+005  0.1043930E+01  0.7957747E-01            NaN
         13   -1    0    0    0    0  0.00000000000E+00  0.00000000000E+00  0.74505805969E-08  0.10566000000E+00  0.10566000000E+00 0. -1.
     999900   -1    0    0    0    0 -0.00000000000E+00 -0.00000000000E+00 -0.74505805969E-08  0.93827000000E+00  0.93827000000E+00 0.  1.
     999902    2    1    2    0    0 -0.21784078776E-01 -0.95666702811E-02  0.10735350696E-02  0.10201136244E+01  0.10198355686E+01 0.  0.
     999903    2    3    3    0    0 -0.22125806078E-01  0.12102720547E+00  0.36336935716E-01  0.12977751677E+00  0.19613648403E-01 0.  0.
         14    1    1    2    0    0  0.21784078776E-01  0.95666702811E-02 -0.10735350696E-02  0.23816375583E-01  0.00000000000E+00 0. -1.
     999901    1    3    3    0    0  0.34172730218E-03 -0.13059387575E+00 -0.35263400646E-01  0.89033610765E+00  0.88000000000E+00 0.  1.
        -11    1    4    4    0    0 -0.20620063226E-02  0.51780110342E-01  0.86168058129E-02  0.52535151665E-01  0.51100000000E-03 0.  1.
         11    1    4    4    0    0 -0.20063799755E-01  0.69247095123E-01  0.27720129903E-01  0.77242365101E-01  0.51100000000E-03 0. -1.
</event>
<event>
 8    1  0.1145101E+005  0.1043930E+01  0.7957747E-01            NaN
         13   -1    0    0    0    0  0.00000000000E+00  0.00000000000E+00  0.74505805969E-08  0.10566000000E+00  0.10566000000E+00 0.  1.
     999900   -1    0    0    0    0 -0.00000000000E+00 -0.00000000000E+00 -0.74505805969E-08  0.93827000000E+00  0.93827000000E+00 0.  1.
     999902    2    1    2    0    0  0.69778064920E-02 -0.64378568509E-02 -0.21744148910E-01  0.10202035634E+01  0.10199276283E+01 0.  0.
     999903    2    3    3    0    0  0.35577252426E-01 -0.53451331984E-01  0.10969794642E+00  0.12874115832E+00  0.20441639287E-01 0.  0.
         14    1    1    2    0    0 -0.69778064920E-02  0.64378568509E-02  0.21744148910E-01  0.23726436650E-01  0.00000000000E+00 0.  1.
     999901    1    3    3    0    0 -0.28599445934E-01  0.47013475133E-01 -0.13144209533E+00  0.89146240503E+00  0.88000000000E+00 0. -1.
        -11    1    4    4    0    0  0.20045551468E-01 -0.44469528797E-01  0.71747667665E-01  0.86760313862E-01  0.51100000000E-03 0.  1.
         11    1    4    4    0    0  0.15531700958E-01 -0.89818031870E-02  0.37950278755E-01  0.41980844462E-01  0.51100000000E-03 0. -1.
</event>
<event>
 8    1  0.1145101E+005  0.1043930E+01  0.7957747E-01            NaN
         13   -1    0    0    0    0  0.00000000000E+00  0.00000000000E+00  0.74505805969E-08  0.10566000000E+00  0.10566000000E+00 0.  1.
     999900   -1    0    0    0    0 -0.00000000000E+00 -0.00000000000E+00 -0.74505805969E-08  0.93827000000E+00  0.93827000000E+00 0. -1.
     999902    2    1    2    0    0  0.40087074095E-03  0.22531579571E-01 -0.24478056513E-02  0.10212623021E+01  0.10210107077E+01 0.  0.
     999903    2    3    3    0    0  0.39311544363E-01 -0.27770602630E-01 -0.12038810363E+00  0.13111946866E+00  0.19555451275E-01 0.  0.
         14    1    1    2    0    0 -0.40087074095E-03 -0.22531579571E-01  0.24478056513E-02  0.22667697894E-01  0.00000000000E+00 0.  1.
     999901    1    3    3    0    0 -0.38910673622E-01  0.50302182201E-01  0.11794029798E+00  0.89014283345E+00  0.88000000000E+00 0.  1.
        -11    1    4    4    0    0  0.12759089376E-01 -0.10440936496E-01 -0.20462455941E-01  0.26282708018E-01  0.51100000000E-03 0.  1.
         11    1    4    4    0    0  0.26552454986E-01 -0.17329666134E-01 -0.99925647688E-01  0.10483676064E+00  0.51100000000E-03 0. -1.
</event>
<event>
 8    1  0.1145101E+005  0.1043930E+01  0.7957747E-01            NaN
         13   -1    0    0    0    0  0.00000000000E+00  0.00000000000E+00  0.74505805969E-08  0.10566000000E+00  0.10566000000E+00 0. -1.
     999900   -1    0    0    0    0 -0.00000000000E+00 -0.00000000000E+00 -0.74505805969E-08  0.93827000000E+00  0.93827000000E+00 0. -1.
     999902    2    1    2    0    0  0.23461691318E-01 -0.59955678023E-02  0.10452916784E-02  0.10196917982E+01  0.10194036849E+01 0.  0.
     999903    2    3    3    0    0 -0.90475081096E-01  0.12440859417E-01  0.87414908646E-01  0.12796246666E+00  0.19811898897E-01 0.  0.
         14    1    1    2    0    0 -0.23461691318E-01  0.59955678023E-02 -0.10452916784E-02  0.24238201820E-01  0.00000000000E+00 0. -1.
     999901    1    3    3    0    0  0.11393677241E+00 -0.18436427220E-01 -0.86369616968E-01  0.89172933152E+00  0.88000000000E+00 0.  1.
        -11    1    4    4    0    0 -0.72493121325E-01  0.94394314924E-02  0.79724770872E-01  0.10816956928E+00  0.51100000000E-03 0. -1.
         11    1    4    4    0    0 -0.17981959771E-01  0.30014279249E-02  0.76901377745E-02  0.19792897382E-01  0.51100000000E-03 0.  1.
</event>
<event>
 8    1  0.1145101E+005  0.1043930E+01  0.7957747E-01            NaN
         13   -1    0    0    0    0  0.00000000000E+00  0.00000000000E+00  0.74505805969E-08  0.10566000000E+00  0.10566000000E+00 0.  1.
     999900   -1    0    0    0    0 -0.00000000000E+00 -0.00000000000E+00 -0.74505805969E-08  0.93827000000E+00  0.93827000000E+00 0.  1.
     999902    2    1    2    0    0 -0.26191840091E-02  0.27963586359E-02 -0.23326072788E-01  0.10202913575E+01  0.10200174846E+01 0.  0.
     999903    2    3    3    0    0  0.10047764911E+00 -0.78919123858E-01  0.11667275151E-01  0.12982467568E+00  0.19857870548E-01 0.  0.
         14    1    1    2    0    0  0.26191840091E-02 -0.27963586359E-02  0.23326072788E-01  0.23638642478E-01  0.00000000000E+00 0.  1.
     999901    1    3    3    0    0 -0.10309683312E+00  0.81715482494E-01 -0.34993347938E-01  0.89046668185E+00  0.88000000000E+00 0.  1.
        -11    1    4    4    0    0  0.54746987017E-01 -0.43579084949E-01 -0.35245009496E-02  0.70064630595E-01  0.51100000000E-03 0.  1.
         11    1    4    4    0    0  0.45730662098E-01 -0.35340038908E-01  0.15191776100E-01  0.59760045081E-01  0.51100000000E-03 0. -1.
</event>
<event>
 8    1  0.1145101E+005  0.1043930E+01  0.7957747E-01            NaN
         13   -1    0    0    0    0  0.00000000000E+00  0.00000000000E+00  0.74505805969E-08  0.10566000000E+00  0.10566000000E+00 0.  1.
     999900   -1    0    0    0    0 -0.00000000000E+00 -0.00000000000E+00 -0.74505805969E-08  0.93827000000E+00  0.93827000000E+00 0.  1.
     999902    2    1    2    0    0 -0.17547870246E-01 -0.92796616973E-02  0.12809425390E-01  0.10203054101E+01  0.10200318664E+01 0.  0.
     999903    2    3    3    0    0 -0.48465345634E-01  0.11585307744E+00  0.30462624144E-01  0.13074050061E+00  0.19856529145E-01 0.  0.
         14    1    1    2    0    0  0.17547870246E-01  0.92796616973E-02 -0.12809425390E-01  0.23624589948E-01  0.00000000000E+00 0. -1.
     999901    1    3    3    0    0  0.30917475388E-01 -0.12513273914E+00 -0.17653198753E-01  0.88956490944E+00  0.88000000000E+00 0. -1.
        -11    1    4    4    0    0 -0.23873180074E-01  0.79687115976E-01  0.16326931789E-01  0.84774966837E-01  0.51100000000E-03 0.  1.
         11    1    4    4    0    0 -0.24592165560E-01  0.36165961463E-01  0.14135692354E-01  0.45965533771E-01  0.51100000000E-03 0. -1.
</event>
<event>
 8    1  0.1145101E+005  0.1043930E+01  0.7957747E-01            NaN
         13   -1    0    0    0    0  0.00000000000E+00  0.00000000000E+00  0.74505805969E-08  0.10566000000E+00  0.10566000000E+00 0. -1.
     999900   -1    0    0    0    0 -0.00000000000E+00 -0.00000000000E+00 -0.74505805969E-08  0.93827000000E+00  0.93827000000E+00 0. -1.
     999902    2    1    2    0    0 -0.21363815205E-01 -0.13319349469E-01  0.23407947207E-01  0.10095534140E+01  0.10089679609E+01 0.  0.
     999903    2    3    3    0    0  0.70264902437E-01 -0.86151368811E-01 -0.39404157705E-01  0.11958392834E+00  0.19708206679E-01 0.  0.
         14    1    1    2    0    0  0.21363815205E-01  0.13319349469E-01 -0.23407947207E-01  0.34376585969E-01  0.00000000000E+00 0.  1.
     999901    1    3    3    0    0 -0.91628717642E-01  0.72832019342E-01  0.62812104912E-01  0.88996948569E+00  0.88000000000E+00 0.  1.
        -11    1    4    4    0    0  0.42569286554E-01 -0.40008950389E-01 -0.26975047086E-01  0.64348850457E-01  0.51100000000E-03 0. -1.
         11    1    4    4    0    0  0.27695615883E-01 -0.46142418422E-01 -0.12429110619E-01  0.55235077883E-01  0.51100000000E-03 0.  1.
</event>
<event>
 8    1  0.1145101E+005  0.1043930E+01  0.7957747E-01            NaN
         13   -1    0    0    0    0  0.00000000000E+00  0.00000000000E+00  0.74505805969E-08  0.10566000000E+00  0.10566000000E+00 0. -1.
     999900   -1    0    0    0    0 -0.00000000000E+00 -0.00000000000E+00 -0.74505805969E-08  0.93827000000E+00  0.93827000000E+00 0.  1.
     999902    2    1    2    0    0 -0.87745446523E-02  0.11536561302E-01  0.18253913367E-01  0.10206214129E+01  0.10203552216E+01 0.  0.
     999903    2    3    3    0    0 -0.58890151724E-01 -0.23007139737E-01 -0.11081867860E+00  0.12912571723E+00  0.19881973604E-01 0.  0.
         14    1    1    2    0    0  0.87745446523E-02 -0.11536561302E-01 -0.18253913367E-01  0.23308587125E-01  0.00000000000E+00 0.  1.
     999901    1    3    3    0    0  0.50115607072E-01  0.34543701039E-01  0.12907259197E+00  0.89149569564E+00  0.88000000000E+00 0. -1.
        -11    1    4    4    0    0 -0.45587876344E-01 -0.12522286725E-01 -0.94159588538E-01  0.10536295065E+00  0.51100000000E-03 0.  1.
         11    1    4    4    0    0 -0.13302275380E-01 -0.10484853013E-01 -0.16659090065E-01  0.23762766584E-01  0.51100000000E-03 0. -1.
</event>
<event>
 8    1  0.1145101E+005  0.1043930E+01  0.7957747E-01            NaN
         13   -1    0    0    0    0  0.00000000000E+00  0.00000000000E+00  0.74505805969E-08  0.10566000000E+00  0.10566000000E+00 0.  1.
     999900   -1    0    0    0    0 -0.00000000000E+00 -0.00000000000E+00 -0.74505805969E-08  0.93827000000E+00  0.93827000000E+00 0.  1.
     999902    2    1    2    0    0 -0.16614828970E-01  0.15166646530E-01  0.53789781316E-02  0.10207996495E+01  0.10205375600E+01 0.  0.
     999903    2    3    3    0    0  0.73648513365E-03 -0.16068716141E-02  0.13006030762E+00  0.13168331687E+00  0.20535040234E-01 0.  0.
         14    1    1    2    0    0  0.16614828970E-01 -0.15166646530E-01 -0.53789781316E-02  0.23130350503E-01  0.00000000000E+00 0. -1.
     999901    1    3    3    0    0 -0.17351314104E-01  0.16773518144E-01 -0.12468132949E+00  0.88911633262E+00  0.88000000000E+00 0.  1.
        -11    1    4    4    0    0  0.15843910028E-02  0.58441512346E-02  0.11140602752E+00  0.11157162940E+00  0.51100000000E-03 0.  1.
         11    1    4    4    0    0 -0.84790586912E-03 -0.74510228487E-02  0.18654280100E-01  0.20111687470E-01  0.51100000000E-03 0. -1.
</event>
<event>
 8    1  0.1338643E+005  0.1043930E+01  0.7957747E-01            NaN
         13   -1    0    0    0    0  0.00000000000E+00  0.00000000000E+00  0.74505805969E-08  0.10566000000E+00  0.10566000000E+00 0. -1.
     999900   -1    0    0    0    0 -0.00000000000E+00 -0.00000000000E+00 -0.74505805969E-08  0.93827000000E+00  0.93827000000E+00 0.  1.
     999902    2    1    2    0    0  0.13098396896E-01 -0.18669956951E-01 -0.45301653490E-02  0.10206779530E+01  0.10204130663E+01 0.  0.
     999903    2    3    3    0    0  0.32829722782E-02  0.38419809739E-03 -0.13004433982E+00  0.13151361979E+00  0.19322948946E-01 0.  0.
         14    1    1    2    0    0 -0.13098396896E-01  0.18669956951E-01  0.45301653490E-02  0.23252047047E-01  0.00000000000E+00 0. -1.
     999901    1    3    3    0    0  0.98154246173E-02 -0.19054155049E-01  0.12551417447E+00  0.88916433317E+00  0.88000000000E+00 0. -1.
        -11    1    4    4    0    0  0.10834481954E-01 -0.26202683049E-02 -0.86226264019E-01  0.86945278957E-01  0.51100000000E-03 0.  1.
         11    1    4    4    0    0 -0.75515096759E-02  0.30044664023E-02 -0.43818075796E-01  0.44568340829E-01  0.51100000000E-03 0. -1.
</event>
<event>
 8    1  0.1145101E+005  0.1043930E+01  0.7957747E-01            NaN
         13   -1    0    0    0    0  0.00000000000E+00  0.00000000000E+00  0.74505805969E-08  0.10566000000E+00  0.10566000000E+00 0.  1.
     999900   -1    0    0    0    0 -0.00000000000E+00 -0.00000000000E+00 -0.74505805969E-08  0.93827000000E+00  0.93827000000E+00 0. -1.
     999902    2    1    2    0    0 -0.12150885727E-01  0.17554276148E-01  0.17608881858E-01  0.10162556553E+01  0.10158787760E+01 0.  0.
     999903    2    3    3    0    0  0.98550782215E-01  0.70971362865E-01  0.35562911078E-01  0.12753151833E+00  0.15823289855E-01 0.  0.
         14    1    1    2    0    0  0.12150885727E-01 -0.17554276148E-01 -0.17608881858E-01  0.27674344713E-01  0.00000000000E+00 0. -1.
     999901    1    3    3    0    0 -0.11070166794E+00 -0.53417086718E-01 -0.17954029219E-01  0.88872413695E+00  0.88000000000E+00 0. -1.
        -11    1    4    4    0    0  0.83222357080E-01  0.52794986620E-01  0.30979540097E-01  0.10331149189E+00  0.51100000000E-03 0. -1.
         11    1    4    4    0    0  0.15328425135E-01  0.18176376245E-01  0.45833709807E-02  0.24220026446E-01  0.51100000000E-03 0.  1.
</event>
<event>
 8    1  0.1145101E+005  0.1043930E+01  0.7957747E-01            NaN
         13   -1    0    0    0    0  0.00000000000E+00  0.00000000000E+00  0.74505805969E-08  0.10566000000E+00  0.10566000000E+00 0. -1.
     999900   -1    0    0    0    0 -0.00000000000E+00 -0.00000000000E+00 -0.74505805969E-08  0.93827000000E+00  0.93827000000E+00 0. -1.
     999902    2    1    2    0    0 -0.15942871294E-01  0.10906009304E-01 -0.10230923119E-01  0.10220716384E+01  0.10218378766E+01 0.  0.
     999903    2    3    3    0    0 -0.95083000579E-01 -0.86399579676E-01  0.25606756157E-01  0.13245606020E+00  0.19576454136E-01 0.  0.
         14    1    1    2    0    0  0.15942871294E-01 -0.10906009304E-01  0.10230923119E-01  0.21858361602E-01  0.00000000000E+00 0. -1.
     999901    1    3    3    0    0  0.79140129285E-01  0.97305588980E-01 -0.35837679276E-01  0.88961557819E+00  0.88000000000E+00 0.  1.
        -11    1    4    4    0    0 -0.39738825377E-01 -0.23522800480E-01  0.83299960605E-02  0.46927032083E-01  0.51100000000E-03 0.  1.
         11    1    4    4    0    0 -0.55344175203E-01 -0.62876779196E-01  0.17276760096E-01  0.85529028121E-01  0.51100000000E-03 0. -1.
</event>
<event>
 8    1  0.1145101E+005  0.1043930E+01  0.7957747E-01            NaN
         13   -1    0    0    0    0  0.00000000000E+00  0.00000000000E+00  0.74505805969E-08  0.10566000000E+00  0.10566000000E+00 0. -1.
     999900   -1    0    0    0    0 -0.00000000000E+00 -0.00000000000E+00 -0.74505805969E-08  0.93827000000E+00  0.93827000000E+00 0. -1.
     999902    2    1    2    0    0  0.82494182092E-02  0.95492669133E-02 -0.19849163688E-01  0.10204091433E+01  0.10201380245E+01 0.  0.
     999903    2    3    3    0    0 -0.16290582262E-01 -0.57007966927E-01  0.11147709965E+00  0.12784056645E+00  0.20019373608E-01 0.  0.
         14    1    1    2    0    0 -0.82494182092E-02 -0.95492669133E-02  0.19849163688E-01  0.23520856670E-01  0.00000000000E+00 0. -1.
     999901    1    3    3    0    0  0.24540000472E-01  0.66557233840E-01 -0.13132626334E+00  0.89256857688E+00  0.88000000000E+00 0. -1.
        -11    1    4    4    0    0  0.14450899468E-02 -0.16274226977E-01  0.45053312152E-01  0.47927036269E-01  0.51100000000E-03 0.  1.
         11    1    4    4    0    0 -0.17735672209E-01 -0.40733739950E-01  0.66423787496E-01  0.79913530177E-01  0.51100000000E-03 0. -1.
</event>
<event>
 8    1  0.1145101E+005  0.1043930E+01  0.7957747E-01            NaN
         13   -1    0    0    0    0  0.00000000000E+00  0.00000000000E+00  0.74505805969E-08  0.10566000000E+00  0.10566000000E+00 0. -1.
     999900   -1    0    0    0    0 -0.00000000000E+00 -0.00000000000E+00 -0.74505805969E-08  0.93827000000E+00  0.93827000000E+00 0.  1.
     999902    2    1    2    0    0  0.66152944892E-02  0.21650662460E-01  0.63545449694E-02  0.10204163115E+01  0.10201453598E+01 0.  0.
     999903    2    3    3    0    0 -0.18089666883E-01  0.12963231370E+00  0.17459941960E-01  0.13340238714E+00  0.18962450210E-01 0.  0.
         14    1    1    2    0    0 -0.66152944892E-02 -0.21650662460E-01 -0.63545449694E-02  0.23513688522E-01  0.00000000000E+00 0.  1.
     999901    1    3    3    0    0  0.24704961372E-01 -0.10798165124E+00 -0.11105396990E-01  0.88701392433E+00  0.88000000000E+00 0.  1.
        -11    1    4    4    0    0 -0.14571502512E-01  0.55789200015E-01  0.14282426678E-01  0.59405490964E-01  0.51100000000E-03 0.  1.
         11    1    4    4    0    0 -0.35181643704E-02  0.73843113689E-01  0.31775152819E-02  0.73996896179E-01  0.51100000000E-03 0. -1.
</event>
<event>
 8    1  0.1145101E+005  0.1043930E+01  0.7957747E-01            NaN
         13   -1    0    0    0    0  0.00000000000E+00  0.00000000000E+00  0.74505805969E-08  0.10566000000E+00  0.10566000000E+00 0.  1.
     999900   -1    0    0    0    0 -0.00000000000E+00 -0.00000000000E+00 -0.74505805969E-08  0.93827000000E+00  0.93827000000E+00 0. -1.
     999902    2    1    2    0    0 -0.95028748119E-02 -0.87239907182E-02 -0.24891035685E-01  0.10158947311E+01  0.10155078180E+01 0.  0.
     999903    2    3    3    0    0  0.11293838581E+00  0.41548526011E-01 -0.31510404671E-01  0.12597169833E+00  0.19864646326E-01 0.  0.
         14    1    1    2    0    0  0.95028748119E-02  0.87239907182E-02  0.24891035685E-01  0.28035268881E-01  0.00000000000E+00 0.  1.
     999901    1    3    3    0    0 -0.12244126063E+00 -0.50272516729E-01  0.66193689852E-02  0.88992303279E+00  0.88000000000E+00 0.  1.
        -11    1    4    4    0    0  0.35259682933E-01  0.45189333544E-02 -0.48460203638E-02  0.35880510498E-01  0.51100000000E-03 0. -1.
         11    1    4    4    0    0  0.77678702881E-01  0.37029592657E-01 -0.26664384307E-01  0.90091187833E-01  0.51100000000E-03 0.  1.
</event>
<event>
 8    1  0.1145101E+005  0.1043930E+01  0.7957747E-01            NaN
         13   -1    0    0    0    0  0.00000000000E+00  0.00000000000E+00  0.74505805969E-08  0.10566000000E+00  0.10566000000E+00 0.  1.
     999900   -1    0    0    0    0 -0.00000000000E+00 -0.00000000000E+00 -0.74505805969E-08  0.93827000000E+00  0.93827000000E+00 0.  1.
     999902    2    1    2    0    0 -0.24436207790E-02  0.19256918992E-01  0.14103955148E-01  0.10199357973E+01  0.10196535239E+01 0.  0.
     999903    2    3    3    0    0  0.19841743359E-01  0.10022765978E+00  0.83825748486E-01  0.13319230183E+00  0.16557614388E-01 0.  0.
         14    1    1    2    0    0  0.24436207790E-02 -0.19256918992E-01 -0.14103955148E-01  0.23994202683E-01  0.00000000000E+00 0.  1.
     999901    1    3    3    0    0 -0.22285364138E-01 -0.80970740785E-01 -0.69721793339E-01  0.88674349548E+00  0.88000000000E+00 0.  1.
        -11    1    4    4    0    0  0.91732346099E-02  0.32233780539E-01  0.37122990768E-01  0.50015421678E-01  0.51100000000E-03 0. -1.
         11    1    4    4    0    0  0.10668508750E-01  0.67993879238E-01  0.46702757719E-01  0.83176880155E-01  0.51100000000E-03 0.  1.
</event>
<event>
 8    1  0.1145101E+005  0.1043930E+01  0.7957747E-01            NaN
         13   -1    0    0    0    0  0.00000000000E+00  0.00000000000E+00  0.74505805969E-08  0.10566000000E+00  0.10566000000E+00 0. -1.
     999900   -1    0    0    0    0 -0.00000000000E+00 -0.00000000000E+00 -0.74505805969E-08  0.93827000000E+00  0.93827000000E+00 0. -1.
     999902    2    1    2    0    0 -0.68926261185E-03  0.22227539583E-01  0.83446377362E-02  0.10201777037E+01  0.10199011597E+01 0.  0.
     999903    2    3    3    0    0  0.12549359715E+00  0.30890884991E-01 -0.79425750386E-02  0.13098568794E+00  0.19780703873E-01 0.  0.
         14    1    1    2    0    0  0.68926261185E-03 -0.22227539583E-01 -0.83446377362E-02  0.23752296264E-01  0.00000000000E+00 0. -1.
     999901    1    3    3    0    0 -0.12618285976E+00 -0.86633454079E-02  0.16287212775E-01  0.88919201579E+00  0.88000000000E+00 0. -1.
        -11    1    4    4    0    0  0.39097948078E-01  0.26718357774E-02  0.36429551855E-02  0.39361408687E-01  0.51100000000E-03 0. -1.
         11    1    4    4    0    0  0.86395649074E-01  0.28219049213E-01 -0.11585530224E-01  0.91624279255E-01  0.51100000000E-03 0.  1.
</event>
<event>
 8    1  0.1145101E+005  0.1043930E+01  0.7957747E-01            NaN
         13   -1    0    0    0    0  0.00000000000E+00  0.00000000000E+00  0.74505805969E-08  0.10566000000E+00  0.10566000000E+00 0. -1.
     999900   -1    0    0    0    0 -0.00000000000E+00 -0.00000000000E+00 -0.74505805969E-08  0.93827000000E+00  0.93827000000E+00 0. -1.
     999902    2    1    2    0    0  0.20436192423E-01  0.99160577868E-02 -0.10689629006E-01  0.10188255317E+01  0.10185161902E+01 0.  0.
     999903    2    3    3    0    0 -0.12275862442E-01 -0.10905228693E+00  0.62353631934E-01  0.12722087512E+00  0.15939810805E-01 0.  0.
         14    1    1    2    0    0 -0.20436192423E-01 -0.99160577868E-02  0.10689629006E-01  0.25104468348E-01  0.00000000000E+00 0. -1.
     999901    1    3    3    0    0  0.32712054864E-01  0.11896834471E+00 -0.73043260940E-01  0.89160465653E+00  0.88000000000E+00 0.  1.
        -11    1    4    4    0    0 -0.91609901821E-02 -0.88639686361E-01  0.43120998517E-01  0.98997976612E-01  0.51100000000E-03 0.  1.
         11    1    4    4    0    0 -0.31148722596E-02 -0.20412600567E-01  0.19232633417E-01  0.28222898509E-01  0.51100000000E-03 0. -1.
</event>
<event>
 8    1  0.1145101E+005  0.1043930E+01  0.7957747E-01            NaN
         13   -1    0    0    0    0  0.00000000000E+00  0.00000000000E+00  0.74505805969E-08  0.10566000000E+00  0.10566000000E+00 0. -1.
     999900   -1    0    0    0    0 -0.00000000000E+00 -0.00000000000E+00 -0.74505805969E-08  0.93827000000E+00  0.93827000000E+00 0. -1.
     999902    2    1    2    0    0  0.11154523062E-01  0.18787028969E-01  0.96257071732E-02  0.10200546973E+01  0.10197752475E+01 0.  0.
     999903    2    3    3    0    0  0.33104328359E-01 -0.12249044566E+00 -0.12687901742E-02  0.12844951061E+00  0.19946456189E-01 0.  0.
         14    1    1    2    0    0 -0.11154523062E-01 -0.18787028969E-01 -0.96257071732E-02  0.23875302738E-01  0.00000000000E+00 0.  1.
     999901    1    3    3    0    0 -0.21949805297E-01  0.14127747463E+00  0.10894497347E-01  0.89160518665E+00  0.88000000000E+00 0. -1.
        -11    1    4    4    0    0  0.19271455989E-01 -0.92884234255E-01  0.56910135355E-02  0.95034302992E-01  0.51100000000E-03 0.  1.
         11    1    4    4    0    0  0.13832872371E-01 -0.29606211402E-01 -0.69598037097E-02  0.33415207620E-01  0.51100000000E-03 0. -1.
</event>
<event>
 7    1  0.1145101E+005  0.1043930E+01  0.7957747E-01            NaN
         13   -1    0    0    0    0  0.00000000000E+00  0.00000000000E+00  0.74505805969E-08  0.10566000000E+00  0.10566000000E+00 0. -1.
     999900   -1    0    0    0    0 -0.00000000000E+00 -0.00000000000E+00 -0.74505805969E-08  0.93827000000E+00  0.93827000000E+00 0.  1.
     999903    2    1    2    0    0 -0.27396347389E-01 -0.56303102268E-01 -0.93239880824E-01  0.11400262402E+00  0.19553100302E-01 0.  0.
         14    1    1    2    0    0 -0.39463406524E-01  0.13309717569E-01  0.51336860382E-02  0.41962647302E-01  0.00000000000E+00 0. -1.
     999901    1    1    2    0    0  0.66859753913E-01  0.42993384699E-01  0.88106194786E-01  0.88796472868E+00  0.88000000000E+00 0. -1.
        -11    1    3    3    0    0 -0.12833010003E-01 -0.36058778431E-01 -0.70636391589E-01  0.80341039235E-01  0.51100000000E-03 0. -1.
         11    1    3    3    0    0 -0.14563337386E-01 -0.20244323837E-01 -0.22603489236E-01  0.33661584782E-01  0.51100000000E-03 0.  1.
</event>
<event>
 8    1  0.1145101E+005  0.1043930E+01  0.7957747E-01            NaN
         13   -1    0    0    0    0  0.00000000000E+00  0.00000000000E+00  0.74505805969E-08  0.10566000000E+00  0.10566000000E+00 0.  1.
     999900   -1    0    0    0    0 -0.00000000000E+00 -0.00000000000E+00 -0.74505805969E-08  0.93827000000E+00  0.93827000000E+00 0.  1.
     999902    2    1    2    0    0 -0.86226914533E-02  0.11560554228E-01  0.18219804926E-01  0.10206929926E+01  0.10204284525E+01 0.  0.
     999903    2    3    3    0    0 -0.39315336525E-01 -0.12212160901E+00  0.57024539975E-02  0.12997999543E+00  0.20072323148E-01 0.  0.
         14    1    1    2    0    0  0.86226914533E-02 -0.11560554228E-01 -0.18219804926E-01  0.23237007413E-01  0.00000000000E+00 0. -1.
     999901    1    3    3    0    0  0.30692645071E-01  0.13368216324E+00  0.12517350928E-01  0.89071299716E+00  0.88000000000E+00 0. -1.
        -11    1    4    4    0    0 -0.23295406453E-01 -0.96905721535E-01  0.60520773245E-03  0.99669565191E-01  0.51100000000E-03 0. -1.
         11    1    4    4    0    0 -0.16019930072E-01 -0.25215887478E-01  0.50972462651E-02  0.30310430239E-01  0.51100000000E-03 0.  1.
</event>
<event>
 8    1  0.1145101E+005  0.1043930E+01  0.7957747E-01            NaN
         13   -1    0    0    0    0  0.00000000000E+00  0.00000000000E+00  0.74505805969E-08  0.10566000000E+00  0.10566000000E+00 0. -1.
     999900   -1    0    0    0    0 -0.00000000000E+00 -0.00000000000E+00 -0.74505805969E-08  0.93827000000E+00  0.93827000000E+00 0.  1.
     999902    2    1    2    0    0 -0.93004459213E-03  0.22003135905E-01 -0.89337448732E-02  0.10201641680E+01  0.10198873050E+01 0.  0.
     999903    2    3    3    0    0  0.87981853004E-01  0.32360437890E-01 -0.90330873784E-01  0.13188600672E+00  0.21124573628E-01 0.  0.
         14    1    1    2    0    0  0.93004459213E-03 -0.22003135905E-01  0.89337448732E-02  0.23765831987E-01  0.00000000000E+00 0. -1.
     999901    1    3    3    0    0 -0.88911897596E-01 -0.10357301985E-01  0.81397128911E-01  0.88827816129E+00  0.88000000000E+00 0. -1.
        -11    1    4    4    0    0  0.73396151402E-01  0.17972818106E-01 -0.69591605624E-01  0.10272910944E+00  0.51100000000E-03 0.  1.
         11    1    4    4    0    0  0.14585701602E-01  0.14387619784E-01 -0.20739268160E-01  0.29156897281E-01  0.51100000000E-03 0. -1.
</event>
<event>
 8    1  0.1145101E+005  0.1043930E+01  0.7957747E-01            NaN
         13   -1    0    0    0    0  0.00000000000E+00  0.00000000000E+00  0.74505805969E-08  0.10566000000E+00  0.10566000000E+00 0. -1.
     999900   -1    0    0    0    0 -0.00000000000E+00 -0.00000000000E+00 -0.74505805969E-08  0.93827000000E+00  0.93827000000E+00 0.  1.
     999902    2    1    2    0    0 -0.17084399698E-01  0.11400301865E-01  0.10576441055E-01  0.10208279503E+01  0.10205665090E+01 0.  0.
     999903    2    3    3    0    0  0.81490603133E-01 -0.95918078033E-01  0.19450314102E-01  0.12880047791E+00  0.19241941141E-01 0.  0.
         14    1    1    2    0    0  0.17084399698E-01 -0.11400301865E-01 -0.10576441055E-01  0.23102049716E-01  0.00000000000E+00 0.  1.
     999901    1    3    3    0    0 -0.98575002831E-01  0.10731837990E+00 -0.88738730472E-02  0.89202747237E+00  0.88000000000E+00 0. -1.
        -11    1    4    4    0    0  0.44676274799E-01 -0.49222700012E-01  0.19705623662E-01  0.69335535270E-01  0.51100000000E-03 0. -1.
         11    1    4    4    0    0  0.36814328334E-01 -0.46695378021E-01 -0.25530956007E-03  0.59464942640E-01  0.51100000000E-03 0.  1.
</event>
<event>
 8    1  0.1145101E+005  0.1043930E+01  0.7957747E-01            NaN
         13   -1    0    0    0    0  0.00000000000E+00  0.00000000000E+00  0.74505805969E-08  0.10566000000E+00  0.10566000000E+00 0. -1.
     999900   -1    0    0    0    0 -0.00000000000E+00 -0.00000000000E+00 -0.74505805969E-08  0.93827000000E+00  0.93827000000E+00 0.  1.
     999902    2    1    2    0    0 -0.22691025180E-02 -0.18657122043E-01 -0.14046393477E-01  0.10204664496E+01  0.10201966656E+01 0.  0.
     999903    2    3    3    0    0  0.37858897446E-02 -0.15720163436E-01  0.12666500478E+00  0.12926221582E+00  0.20080849156E-01 0.  0.
         14    1    1    2    0    0  0.22691025180E-02  0.18657122043E-01  0.14046393477E-01  0.23463550432E-01  0.00000000000E+00 0. -1.
     999901    1    3    3    0    0 -0.60549922625E-02 -0.29369586074E-02 -0.14071139825E+00  0.89120423375E+00  0.88000000000E+00 0.  1.
        -11    1    4    4    0    0 -0.68078074122E-02 -0.78482963262E-02  0.31212096257E-01  0.32899818704E-01  0.51100000000E-03 0.  1.
         11    1    4    4    0    0  0.10593697157E-01 -0.78718671097E-02  0.95452908520E-01  0.96362397112E-01  0.51100000000E-03 0. -1.
</event>
<event>
 8    1  0.1145101E+005  0.1043930E+01  0.7957747E-01            NaN
         13   -1    0    0    0    0  0.00000000000E+00  0.00000000000E+00  0.74505805969E-08  0.10566000000E+00  0.10566000000E+00 0.  1.
     999900   -1    0    0    0    0 -0.00000000000E+00 -0.00000000000E+00 -0.74505805969E-08  0.93827000000E+00  0.93827000000E+00 0. -1.
     999902    2    1    2    0    0  0.13380843425E-01 -0.82431588649E-02 -0.17514383610E-01  0.10203981010E+01  0.10201267246E+01 0.  0.
     999903    2    3    3    0    0  0.46412513411E-02 -0.45426382783E-01 -0.12353510347E+00  0.13321189410E+00  0.19984731010E-01 0.  0.
         14    1    1    2    0    0 -0.13380843425E-01  0.82431588649E-02  0.17514383610E-01  0.23531899033E-01  0.00000000000E+00 0.  1.
     999901    1    3    3    0    0  0.87395920839E-02  0.37183223918E-01  0.10602071986E+00  0.88718620686E+00  0.88000000000E+00 0.  1.
        -11    1    4    4    0    0  0.53845550627E-02 -0.58904148050E-02 -0.39964586407E-01  0.40756836328E-01  0.51100000000E-03 0. -1.
         11    1    4    4    0    0 -0.74330372165E-03 -0.39535967978E-01 -0.83570517066E-01  0.92455057774E-01  0.51100000000E-03 0.  1.
</event>
<event>
 8    1  0.1145101E+005  0.1043930E+01  0.7957747E-01            NaN
         13   -1    0    0    0    0  0.00000000000E+00  0.00000000000E+00  0.74505805969E-08  0.10566000000E+00  0.10566000000E+00 0. -1.
     999900   -1    0    0    0    0 -0.00000000000E+00 -0.00000000000E+00 -0.74505805969E-08  0.93827000000E+00  0.93827000000E+00 0.  1.
     999902    2    1    2    0    0 -0.20641837215E-01  0.65526680804E-03  0.48681461523E-02  0.10227117610E+01  0.10224916295E+01 0.  0.
     999903    2    3    3    0    0 -0.35907759469E-01 -0.59955607825E-01  0.11262509579E+00  0.13393828780E+00  0.19261636462E-01 0.  0.
         14    1    1    2    0    0  0.20641837215E-01 -0.65526680804E-03 -0.48681461523E-02  0.21218238974E-01  0.00000000000E+00 0.  1.
     999901    1    3    3    0    0  0.15265922254E-01  0.60610874633E-01 -0.10775694964E+00  0.88877347322E+00  0.88000000000E+00 0.  1.
        -11    1    4    4    0    0 -0.46131410437E-02 -0.50031010400E-02  0.24744227279E-01  0.25668073456E-01  0.51100000000E-03 0. -1.
         11    1    4    4    0    0 -0.31294618425E-01 -0.54952506785E-01  0.87880868508E-01  0.10827021435E+00  0.51100000000E-03 0.  1.
</event>
<event>
 8    1  0.1145101E+005  0.1043930E+01  0.7957747E-01            NaN
         13   -1    0    0    0    0  0.00000000000E+00  0.00000000000E+00  0.74505805969E-08  0.10566000000E+00  0.10566000000E+00 0.  1.
     999900   -1    0    0    0    0 -0.00000000000E+00 -0.00000000000E+00 -0.74505805969E-08  0.93827000000E+00  0.93827000000E+00 0.  1.
     999902    2    1    2    0    0  0.50504007369E-02 -0.57465791698E-02 -0.25507732109E-01  0.10172996767E+01  0.10169510599E+01 0.  0.
     999903    2    3    3    0    0  0.97813293480E-01 -0.13532588833E-01  0.76278158921E-01  0.12655507595E+00  0.21148484069E-01 0.  0.
         14    1    1    2    0    0 -0.50504007369E-02  0.57465791698E-02  0.25507732109E-01  0.26630323264E-01  0.00000000000E+00 0.  1.
     999901    1    3    3    0    0 -0.92762892743E-01  0.77860096627E-02 -0.10178589103E+00  0.89074460079E+00  0.88000000000E+00 0.  1.
        -11    1    4    4    0    0  0.65034056301E-01  0.95277166885E-03  0.46456160605E-01  0.79929795646E-01  0.51100000000E-03 0.  1.
         11    1    4    4    0    0  0.32779237180E-01 -0.14485360501E-01  0.29821998316E-01  0.46625280305E-01  0.51100000000E-03 0. -1.
</event>
<event>
 8    1  0.1145101E+005  0.1043930E+01  0.7957747E-01            NaN
         13   -1    0    0    0    0  0.00000000000E+00  0.00000000000E+00  0.74505805969E-08  0.10566000000E+00  0.10566000000E+00 0. -1.
     999900   -1    0    0    0    0 -0.00000000000E+00 -0.00000000000E+00 -0.74505805969E-08  0.93827000000E+00  0.93827000000E+00 0. -1.
     999902    2    1    2    0    0 -0.80802247789E-02 -0.19410346738E-01  0.11123035175E-01  0.10201440061E+01  0.10198666676E+01 0.  0.
     999903    2    3    3    0    0 -0.19520092751E-01  0.12195061622E+00 -0.25873099115E-01  0.12802153338E+00  0.21612703091E-01 0.  0.
         14    1    1    2    0    0  0.80802247789E-02  0.19410346738E-01 -0.11123035175E-01  0.23785993872E-01  0.00000000000E+00 0. -1.
     999901    1    3    3    0    0  0.11439867972E-01 -0.14136096295E+00  0.36996134290E-01  0.89212247275E+00  0.88000000000E+00 0.  1.
        -11    1    4    4    0    0 -0.20954501346E-01  0.68877783840E-01 -0.19173327677E-01  0.74505824259E-01  0.51100000000E-03 0.  1.
         11    1    4    4    0    0  0.14344085950E-02  0.53072832377E-01 -0.66997714375E-02  0.53515709122E-01  0.51100000000E-03 0. -1.
</event>
<event>
 8    1  0.1207229E+005  0.1043930E+01  0.7957747E-01            NaN
         13   -1    0    0    0    0  0.00000000000E+00  0.00000000000E+00  0.74505805969E-08  0.10566000000E+00  0.10566000000E+00 0.  1.
     999900   -1    0    0    0    0 -0.00000000000E+00 -0.00000000000E+00 -0.74505805969E-08  0.93827000000E+00  0.93827000000E+00 0.  1.
     999902    2    1    2    0    0 -0.11993663244E-01  0.14559447523E-01  0.14667102241E-01  0.10200354534E+01  0.10197555476E+01 0.  0.
     999903    2    3    3    0    0 -0.61939654885E-01 -0.33576412173E-01  0.11008303316E+00  0.13216391822E+00  0.19624749354E-01 0.  0.
         14    1    1    2    0    0  0.11993663244E-01 -0.14559447523E-01 -0.14667102241E-01  0.23894546623E-01  0.00000000000E+00 0. -1.
     999901    1    3    3    0    0  0.49945991641E-01  0.48135859697E-01 -0.95415930921E-01  0.88787153516E+00  0.88000000000E+00 0.  1.
        -11    1    4    4    0    0 -0.17223537226E-01 -0.25865118845E-02  0.38429024641E-01  0.42194683719E-01  0.51100000000E-03 0. -1.
         11    1    4    4    0    0 -0.44716117659E-01 -0.30989900289E-01  0.71654008521E-01  0.89969234500E-01  0.51100000000E-03 0.  1.
</event>
<event>
 8    1  0.1145101E+005  0.1043930E+01  0.7957747E-01            NaN
         13   -1    0    0    0    0  0.00000000000E+00  0.00000000000E+00  0.74505805969E-08  0.10566000000E+00  0.10566000000E+00 0.  1.
     999900   -1    0    0    0    0 -0.00000000000E+00 -0.00000000000E+00 -0.74505805969E-08  0.93827000000E+00  0.93827000000E+00 0. -1.
     999902    2    1    2    0    0 -0.13643562527E-01  0.18225350025E-01  0.51120160647E-02  0.10205967000E+01  0.10203299374E+01 0.  0.
     999903    2    3    3    0    0 -0.84949058258E-01 -0.92981612976E-01 -0.26101474702E-01  0.13018907178E+00  0.20149058988E-01 0.  0.
         14    1    1    2    0    0  0.13643562527E-01 -0.18225350025E-01 -0.51120160647E-02  0.23333300028E-01  0.00000000000E+00 0. -1.
     999901    1    3    3    0    0  0.71305495731E-01  0.11120696300E+00  0.31213490766E-01  0.89040762819E+00  0.88000000000E+00 0. -1.
        -11    1    4    4    0    0 -0.47250864846E-01 -0.38564223021E-01 -0.76950335923E-02  0.61476159517E-01  0.51100000000E-03 0.  1.
         11    1    4    4    0    0 -0.37698193412E-01 -0.54417389955E-01 -0.18406441109E-01  0.68712912260E-01  0.51100000000E-03 0. -1.
</event>
<event>
 8    1  0.1145101E+005  0.1043930E+01  0.7957747E-01            NaN
         13   -1    0    0    0    0  0.00000000000E+00  0.00000000000E+00  0.74505805969E-08  0.10566000000E+00  0.10566000000E+00 0. -1.
     999900   -1    0    0    0    0 -0.00000000000E+00 -0.00000000000E+00 -0.74505805969E-08  0.93827000000E+00  0.93827000000E+00 0.  1.
     999902    2    1    2    0    0  0.10291600258E-01 -0.13551249181E-01  0.16818345536E-01  0.10200049057E+01  0.10197242753E+01 0.  0.
     999903    2    3    3    0    0  0.57942369988E-01  0.11356522786E+00 -0.14507975057E-01  0.12904445038E+00  0.13697065947E-01 0.  0.
         14    1    1    2    0    0 -0.10291600258E-01  0.13551249181E-01 -0.16818345536E-01  0.23925094290E-01  0.00000000000E+00 0.  1.
     999901    1    3    3    0    0 -0.47650769729E-01 -0.12711647704E+00  0.31326320593E-01  0.89096045533E+00  0.88000000000E+00 0.  1.
        -11    1    4    4    0    0  0.43464420236E-01  0.81150781532E-01 -0.45566781927E-02  0.92171739741E-01  0.51100000000E-03 0. -1.
         11    1    4    4    0    0  0.14477949752E-01  0.32414446330E-01 -0.99512968648E-02  0.36872710644E-01  0.51100000000E-03 0.  1.
</event>
<event>
 8    1  0.1145101E+005  0.1043930E+01  0.7957747E-01            NaN
         13   -1    0    0    0    0  0.00000000000E+00  0.00000000000E+00  0.74505805969E-08  0.10566000000E+00  0.10566000000E+00 0. -1.
     999900   -1    0    0    0    0 -0.00000000000E+00 -0.00000000000E+00 -0.74505805969E-08  0.93827000000E+00  0.93827000000E+00 0. -1.
     999902    2    1    2    0    0 -0.26893431408E-01  0.14231109289E-02  0.13433546583E-01  0.10138344510E+01  0.10133876612E+01 0.  0.
     999903    2    3    3    0    0 -0.46372929106E-01  0.53444594414E-01  0.10408043236E+00  0.12743581408E+00  0.20009424868E-01 0.  0.
         14    1    1    2    0    0  0.26893431408E-01 -0.14231109289E-02 -0.13433546583E-01  0.30095549030E-01  0.00000000000E+00 0.  1.
     999901    1    3    3    0    0  0.19479497698E-01 -0.52021483485E-01 -0.90646885781E-01  0.88639863689E+00  0.88000000000E+00 0.  1.
        -11    1    4    4    0    0 -0.68646620310E-02  0.18898471524E-01  0.20323372045E-01  0.28593292623E-01  0.51100000000E-03 0.  1.
         11    1    4    4    0    0 -0.39508267075E-01  0.34546122891E-01  0.83757060319E-01  0.98842521459E-01  0.51100000000E-03 0. -1.
</event>
<event>
 8    1  0.1145101E+005  0.1043930E+01  0.7957747E-01            NaN
         13   -1    0    0    0    0  0.00000000000E+00  0.00000000000E+00  0.74505805969E-08  0.10566000000E+00  0.10566000000E+00 0.  1.
     999900   -1    0    0    0    0 -0.00000000000E+00 -0.00000000000E+00 -0.74505805969E-08  0.93827000000E+00  0.93827000000E+00 0. -1.
     999902    2    1    2    0    0  0.20013333244E-01 -0.53712824566E-02 -0.11573074683E-01  0.10201956317E+01  0.10199195099E+01 0.  0.
     999903    2    3    3    0    0 -0.21950906036E-01 -0.12579033459E+00  0.19237853123E-01  0.13047036015E+00  0.18637846807E-01 0.  0.
         14    1    1    2    0    0 -0.20013333244E-01  0.53712824566E-02  0.11573074683E-01  0.23734368338E-01  0.00000000000E+00 0.  1.
     999901    1    3    3    0    0  0.41964239280E-01  0.12041905213E+00 -0.30810927806E-01  0.88972527151E+00  0.88000000000E+00 0. -1.
        -11    1    4    4    0    0 -0.24787070758E-01 -0.12045883612E+00  0.18355748228E-01  0.12434598783E+00  0.51100000000E-03 0. -1.
         11    1    4    4    0    0  0.28361647219E-02 -0.53314984675E-02  0.88210489469E-03  0.61243723175E-02  0.51100000000E-03 0.  1.
</event>
<event>
 8    1  0.1145101E+005  0.1043930E+01  0.7957747E-01            NaN
         13   -1    0    0    0    0  0.00000000000E+00  0.00000000000E+00  0.74505805969E-08  0.10566000000E+00  0.10566000000E+00 0.  1.
     999900   -1    0    0    0    0 -0.00000000000E+00 -0.00000000000E+00 -0.74505805969E-08  0.93827000000E+00  0.93827000000E+00 0.  1.
     999902    2    1    2    0    0  0.14878069813E-01 -0.27485041413E-03  0.18903218497E-01  0.10198724820E+01  0.10195886991E+01 0.  0.
     999903    2    3    3    0    0  0.93278879979E-02 -0.12509781909E+00 -0.26980952376E-01  0.12986296789E+00  0.19998619958E-01 0.  0.
         14    1    1    2    0    0 -0.14878069813E-01  0.27485041413E-03 -0.18903218497E-01  0.24057518028E-01  0.00000000000E+00 0. -1.
     999901    1    3    3    0    0  0.55501818154E-02  0.12482296868E+00  0.45884170873E-01  0.89000951409E+00  0.88000000000E+00 0. -1.
        -11    1    4    4    0    0  0.15568930945E-01 -0.80782210846E-01 -0.17050207837E-01  0.84018616438E-01  0.51100000000E-03 0. -1.
         11    1    4    4    0    0 -0.62410429474E-02 -0.44315608249E-01 -0.99307445393E-02  0.45844351447E-01  0.51100000000E-03 0.  1.
</event>
<event>
 8    1  0.1145101E+005  0.1043930E+01  0.7957747E-01            NaN
         13   -1    0    0    0    0  0.00000000000E+00  0.00000000000E+00  0.74505805969E-08  0.10566000000E+00  0.10566000000E+00 0.  1.
     999900   -1    0    0    0    0 -0.00000000000E+00 -0.00000000000E+00 -0.74505805969E-08  0.93827000000E+00  0.93827000000E+00 0.  1.
     999902    2    1    2    0    0  0.11158817530E-01 -0.15283994016E-01 -0.14386691862E-01  0.10201582398E+01  0.10198812370E+01 0.  0.
     999903    2    3    3    0    0  0.51901401695E-01 -0.69031803328E-01 -0.99754422683E-01  0.13345849654E+00  0.20026983953E-01 0.  0.
         14    1    1    2    0    0 -0.11158817530E-01  0.15283994016E-01  0.14386691862E-01  0.23771760231E-01  0.00000000000E+00 0.  1.
     999901    1    3    3    0    0 -0.40742584166E-01  0.53747809312E-01  0.85367730821E-01  0.88669974323E+00  0.88000000000E+00 0. -1.
        -11    1    4    4    0    0  0.46364380066E-01 -0.68791454577E-01 -0.91567556602E-01  0.12355888679E+00  0.51100000000E-03 0.  1.
         11    1    4    4    0    0  0.55370216290E-02 -0.24034875074E-03 -0.81868660819E-02  0.98996097541E-02  0.51100000000E-03 0. -1.
</event>
<event>
 8    1  0.1145101E+005  0.1043930E+01  0.7957747E-01            NaN
         13   -1    0    0    0    0  0.00000000000E+00  0.00000000000E+00  0.74505805969E-08  0.10566000000E+00  0.10566000000E+00 0.  1.
     999900   -1    0    0    0    0 -0.00000000000E+00 -0.00000000000E+00 -0.74505805969E-08  0.93827000000E+00  0.93827000000E+00 0. -1.
     999902    2    1    2    0    0  0.20697400016E-01  0.45319142659E-02 -0.98519259626E-02  0.10205637624E+01  0.10202962374E+01 0.  0.
     999903    2    3    3    0    0  0.11475882673E+00  0.49138155504E-01 -0.43385225959E-01  0.13379335753E+00  0.20838379204E-01 0.  0.
         14    1    1    2    0    0 -0.20697400016E-01 -0.45319142659E-02  0.98519259626E-02  0.23366237599E-01  0.00000000000E+00 0.  1.
     999901    1    3    3    0    0 -0.94061426715E-01 -0.44606241238E-01  0.33533299997E-01  0.88677040487E+00  0.88000000000E+00 0.  1.
        -11    1    4    4    0    0  0.37105046313E-01  0.10027122729E-01 -0.50527296443E-02  0.38770076734E-01  0.51100000000E-03 0. -1.
         11    1    4    4    0    0  0.77653780418E-01  0.39111032775E-01 -0.38332496315E-01  0.95023280793E-01  0.51100000000E-03 0.  1.
</event>
<event>
 8    1  0.1145101E+005  0.1043930E+01  0.7957747E-01            NaN
         13   -1    0    0    0    0  0.00000000000E+00  0.00000000000E+00  0.74505805969E-08  0.10566000000E+00  0.10566000000E+00 0.  1.
     999900   -1    0    0    0    0 -0.00000000000E+00 -0.00000000000E+00 -0.74505805969E-08  0.93827000000E+00  0.93827000000E+00 0.  1.
     999902    2    1    2    0    0 -0.23433195289E-01  0.44826389328E-02 -0.30524833848E-02  0.10198774253E+01  0.10195937605E+01 0.  0.
     999903    2    3    3    0    0 -0.80883108788E-01 -0.66945210351E-01 -0.76324529332E-01  0.13208734714E+00  0.24451891984E-01 0.  0.
         14    1    1    2    0    0  0.23433195289E-01 -0.44826389328E-02  0.30524833848E-02  0.24052574667E-01  0.00000000000E+00 0.  1.
     999901    1    3    3    0    0  0.57449913498E-01  0.71427849284E-01  0.73272045947E-01  0.88779007819E+00  0.88000000000E+00 0. -1.
        -11    1    4    4    0    0 -0.42787737432E-01 -0.49485435187E-01 -0.52486680450E-01  0.83873187109E-01  0.51100000000E-03 0.  1.
         11    1    4    4    0    0 -0.38095371356E-01 -0.17459775165E-01 -0.23837848882E-01  0.48214160035E-01  0.51100000000E-03 0. -1.
</event>
<event>
 8    1  0.1145101E+005  0.1043930E+01  0.7957747E-01            NaN
         13   -1    0    0    0    0  0.00000000000E+00  0.00000000000E+00  0.74505805969E-08  0.10566000000E+00  0.10566000000E+00 0.  1.
     999900   -1    0    0    0    0 -0.00000000000E+00 -0.00000000000E+00 -0.74505805969E-08  0.93827000000E+00  0.93827000000E+00 0. -1.
     999902    2    1    2    0    0  0.19868796903E-01  0.74718880735E-02 -0.10680383243E-01  0.10201672395E+01  0.10198904489E+01 0.  0.
     999903    2    3    3    0    0  0.11072420536E+00  0.35454386598E-02 -0.71563904196E-01  0.13338827864E+00  0.19965487893E-01 0.  0.
         14    1    1    2    0    0 -0.19868796903E-01 -0.74718880735E-02  0.10680383243E-01  0.23762760530E-01  0.00000000000E+00 0.  1.
     999901    1    3    3    0    0 -0.90855408455E-01  0.39264494137E-02  0.60883520953E-01  0.88677896083E+00  0.88000000000E+00 0.  1.
        -11    1    4    4    0    0  0.24689642413E-01 -0.44984246886E-02 -0.88421175517E-02  0.26613125163E-01  0.51100000000E-03 0. -1.
         11    1    4    4    0    0  0.86034562946E-01  0.80438633484E-02 -0.62721786644E-01  0.10677515348E+00  0.51100000000E-03 0.  1.
</event>
<event>
 8    1  0.1145101E+005  0.1043930E+01  0.7957747E-01            NaN
         13   -1    0    0    0    0  0.00000000000E+00  0.00000000000E+00  0.74505805969E-08  0.10566000000E+00  0.10566000000E+00 0.  1.
     999900   -1    0    0    0    0 -0.00000000000E+00 -0.00000000000E+00 -0.74505805969E-08  0.93827000000E+00  0.93827000000E+00 0.  1.
     999902    2    1    2    0    0 -0.43981523267E-02  0.19935122688E-01  0.11181172633E-01  0.10206540149E+01  0.10203885763E+01 0.  0.
     999903    2    3    3    0    0 -0.31419363976E-01  0.12105991277E+00  0.43305167223E-01  0.13386862933E+00  0.20069715937E-01 0.  0.
         14    1    1    2    0    0  0.43981523267E-02 -0.19935122688E-01 -0.11181172633E-01  0.23275985090E-01  0.00000000000E+00 0. -1.
     999901    1    3    3    0    0  0.27021211649E-01 -0.10112479008E+00 -0.32123994590E-01  0.88678538558E+00  0.88000000000E+00 0. -1.
        -11    1    4    4    0    0 -0.28684627675E-02  0.25239508962E-01  0.16701650823E-01  0.30405051431E-01  0.51100000000E-03 0. -1.
         11    1    4    4    0    0 -0.28550901208E-01  0.95820403809E-01  0.26603516400E-01  0.10346357790E+00  0.51100000000E-03 0.  1.
</event>
<event>
 8    1  0.1145101E+005  0.1043930E+01  0.7957747E-01            NaN
         13   -1    0    0    0    0  0.00000000000E+00  0.00000000000E+00  0.74505805969E-08  0.10566000000E+00  0.10566000000E+00 0. -1.
     999900   -1    0    0    0    0 -0.00000000000E+00 -0.00000000000E+00 -0.74505805969E-08  0.93827000000E+00  0.93827000000E+00 0.  1.
     999902    2    1    2    0    0  0.20826777072E-01 -0.10644802255E-01  0.20960112583E-02  0.10204468205E+01  0.10201765796E+01 0.  0.
     999903    2    3    3    0    0  0.94422050125E-01  0.85018465977E-01  0.27459322992E-01  0.13184622250E+00  0.22039711021E-01 0.  0.
         14    1    1    2    0    0 -0.20826777072E-01  0.10644802255E-01 -0.20960112583E-02  0.23483179543E-01  0.00000000000E+00 0.  1.
     999901    1    3    3    0    0 -0.73595273052E-01 -0.95663268232E-01 -0.25363311734E-01  0.88860059796E+00  0.88000000000E+00 0.  1.
        -11    1    4    4    0    0  0.53186714704E-01  0.61492150112E-01  0.20625132285E-01  0.83879487059E-01  0.51100000000E-03 0. -1.
         11    1    4    4    0    0  0.41235335421E-01  0.23526315864E-01  0.68341907071E-02  0.47966735443E-01  0.51100000000E-03 0.  1.
</event>
<event>
 8    1  0.1145101E+005  0.1043930E+01  0.7957747E-01            NaN
         13   -1    0    0    0    0  0.00000000000E+00  0.00000000000E+00  0.74505805969E-08  0.10566000000E+00  0.10566000000E+00 0. -1.
     999900   -1    0    0    0    0 -0.00000000000E+00 -0.00000000000E+00 -0.74505805969E-08  0.93827000000E+00  0.93827000000E+00 0.  1.
     999902    2    1    2    0    0 -0.46855901467E-02  0.83764173461E-02  0.23225081732E-01  0.10187998678E+01  0.10184898856E+01 0.  0.
     999903    2    3    3    0    0 -0.77351202384E-01 -0.31687691171E-01  0.99593970999E-01  0.13160336689E+00  0.20326554929E-01 0.  0.
         14    1    1    2    0    0  0.46855901467E-02 -0.83764173461E-02 -0.23225081732E-01  0.25130132193E-01  0.00000000000E+00 0.  1.
     999901    1    3    3    0    0  0.72665612237E-01  0.40064108518E-01 -0.76368889267E-01  0.88719650092E+00  0.88000000000E+00 0.  1.
        -11    1    4    4    0    0 -0.39985698155E-01 -0.12132146820E-01  0.35261848939E-01  0.54678187196E-01  0.51100000000E-03 0. -1.
         11    1    4    4    0    0 -0.37365504228E-01 -0.19555544352E-01  0.64332122060E-01  0.76925179693E-01  0.51100000000E-03 0.  1.
</event>
<event>
 8    1  0.1145101E+005  0.1043930E+01  0.7957747E-01            NaN
         13   -1    0    0    0    0  0.00000000000E+00  0.00000000000E+00  0.74505805969E-08  0.10566000000E+00  0.10566000000E+00 0. -1.
     999900   -1    0    0    0    0 -0.00000000000E+00 -0.00000000000E+00 -0.74505805969E-08  0.93827000000E+00  0.93827000000E+00 0. -1.
     999902    2    1    2    0    0  0.11087428509E-01  0.12238549130E-01  0.16852331024E-01  0.10203352078E+01  0.10200623619E+01 0.  0.
     999903    2    3    3    0    0  0.16650159894E-01 -0.12592595866E+00 -0.86565438264E-02  0.12917244051E+00  0.21817624677E-01 0.  0.
         14    1    1    2    0    0 -0.11087428509E-01 -0.12238549130E-01 -0.16852331024E-01  0.23594792152E-01  0.00000000000E+00 0.  1.
     999901    1    3    3    0    0 -0.55627313846E-02  0.13816450779E+00  0.25508874850E-01  0.89116276734E+00  0.88000000000E+00 0.  1.
        -11    1    4    4    0    0  0.17424290652E-01 -0.87752077298E-01 -0.14201324654E-01  0.90586818676E-01  0.51100000000E-03 0.  1.
         11    1    4    4    0    0 -0.77413075784E-03 -0.38173881364E-01  0.55447808280E-02  0.38585621834E-01  0.51100000000E-03 0. -1.
</event>
<event>
 8    1  0.1145101E+005  0.1043930E+01  0.7957747E-01            NaN
         13   -1    0    0    0    0  0.00000000000E+00  0.00000000000E+00  0.74505805969E-08  0.10566000000E+00  0.10566000000E+00 0.  1.
     999900   -1    0    0    0    0 -0.00000000000E+00 -0.00000000000E+00 -0.74505805969E-08  0.93827000000E+00  0.93827000000E+00 0.  1.
     999902    2    1    2    0    0 -0.13317192831E-01 -0.13372563706E-01  0.13865989808E-01  0.10205112306E+01  0.10202424874E+01 0.  0.
     999903    2    3    3    0    0 -0.90526064525E-01  0.49581353367E-01 -0.76574376468E-01  0.13028436888E+00  0.21379959857E-01 0.  0.
         14    1    1    2    0    0  0.13317192831E-01  0.13372563706E-01 -0.13865989808E-01  0.23418769360E-01  0.00000000000E+00 0. -1.
     999901    1    3    3    0    0  0.77208871694E-01 -0.62953917073E-01  0.90440366276E-01  0.89022686176E+00  0.88000000000E+00 0.  1.
        -11    1    4    4    0    0 -0.74198830232E-01  0.49082271546E-01 -0.66675138583E-01  0.11117720546E+00  0.51100000000E-03 0.  1.
         11    1    4    4    0    0 -0.16327234293E-01  0.49908182075E-03 -0.98992378855E-02  0.19107163422E-01  0.51100000000E-03 0. -1.
</event>
<event>
 8    1  0.1145101E+005  0.1043930E+01  0.7957747E-01            NaN
         13   -1    0    0    0    0  0.00000000000E+00  0.00000000000E+00  0.74505805969E-08  0.10566000000E+00  0.10566000000E+00 0.  1.
     999900   -1    0    0    0    0 -0.00000000000E+00 -0.00000000000E+00 -0.74505805969E-08  0.93827000000E+00  0.93827000000E+00 0.  1.
     999902    2    1    2    0    0  0.18411806563E-01  0.11933729022E-01  0.17846458206E-01  0.10156474156E+01  0.10152535488E+01 0.  0.
     999903    2    3    3    0    0 -0.23787788345E-01  0.45530303950E-01 -0.11166399055E+00  0.12453435208E+00  0.20027246665E-01 0.  0.
         14    1    1    2    0    0 -0.18411806563E-01 -0.11933729022E-01 -0.17846458206E-01  0.28282584390E-01  0.00000000000E+00 0. -1.
     999901    1    3    3    0    0  0.42199594908E-01 -0.33596574928E-01  0.12951044876E+00  0.89111306353E+00  0.88000000000E+00 0. -1.
        -11    1    4    4    0    0 -0.12736177386E-01  0.69499121005E-02 -0.37396474654E-01  0.40115694312E-01  0.51100000000E-03 0. -1.
         11    1    4    4    0    0 -0.11051610959E-01  0.38580391850E-01 -0.74267515901E-01  0.84418657767E-01  0.51100000000E-03 0.  1.
</event>
<event>
 8    1  0.1145101E+005  0.1043930E+01  0.7957747E-01            NaN
         13   -1    0    0    0    0  0.00000000000E+00  0.00000000000E+00  0.74505805969E-08  0.10566000000E+00  0.10566000000E+00 0. -1.
     999900   -1    0    0    0    0 -0.00000000000E+00 -0.00000000000E+00 -0.74505805969E-08  0.93827000000E+00  0.93827000000E+00 0.  1.
     999902    2    1    2    0    0 -0.71671023659E-02  0.22145753907E-01 -0.28961684415E-02  0.10204738800E+01  0.10202042689E+01 0.  0.
     999903    2    3    3    0    0  0.34522432804E-01  0.77232815265E-01 -0.99967293842E-01  0.13244493621E+00  0.19786236873E-01 0.  0.
         14    1    1    2    0    0  0.71671023659E-02 -0.22145753907E-01  0.28961684415E-02  0.23456119971E-01  0.00000000000E+00 0. -1.
     999901    1    3    3    0    0 -0.41689535170E-01 -0.55087061358E-01  0.97071125400E-01  0.88802894382E+00  0.88000000000E+00 0. -1.
        -11    1    4    4    0    0  0.71933203478E-02  0.32273279557E-01 -0.28228731792E-01  0.43479085208E-01  0.51100000000E-03 0.  1.
         11    1    4    4    0    0  0.27329112456E-01  0.44959535708E-01 -0.71738562050E-01  0.88965851004E-01  0.51100000000E-03 0. -1.
</event>
<event>
 7    1  0.1145101E+005  0.1043930E+01  0.7957747E-01            NaN
         13   -1    0    0    0    0  0.00000000000E+00  0.00000000000E+00  0.74505805969E-08  0.10566000000E+00  0.10566000000E+00 0.  1.
     999900   -1    0    0    0    0 -0.00000000000E+00 -0.00000000000E+00 -0.74505805969E-08  0.93827000000E+00  0.93827000000E+00 0. -1.
     999903    2    1    2    0    0 -0.45151735485E-01  0.29256342475E-01  0.98185701901E-01  0.11345177700E+00  0.18337416767E-01 0.  0.
         14    1    1    2    0    0 -0.41601366319E-02  0.30938948086E-01  0.22994587972E-01  0.38772107519E-01  0.00000000000E+00 0.  1.
     999901    1    1    2    0    0  0.49311872117E-01 -0.60195290561E-01 -0.12118028987E+00  0.89170611548E+00  0.88000000000E+00 0. -1.
        -11    1    3    3    0    0 -0.12730554410E-01  0.17494884800E-01  0.46813463406E-01  0.51574213390E-01  0.51100000000E-03 0. -1.
         11    1    3    3    0    0 -0.32421181076E-01  0.11761457675E-01  0.51372238495E-01  0.61877563607E-01  0.51100000000E-03 0.  1.
</event>
<event>
 8    1  0.1145101E+005  0.1043930E+01  0.7957747E-01            NaN
         13   -1    0    0    0    0  0.00000000000E+00  0.00000000000E+00  0.74505805969E-08  0.10566000000E+00  0.10566000000E+00 0. -1.
     999900   -1    0    0    0    0 -0.00000000000E+00 -0.00000000000E+00 -0.74505805969E-08  0.93827000000E+00  0.93827000000E+00 0.  1.
     999902    2    1    2    0    0  0.17090858290E-01  0.12715191567E-01  0.10890927918E-01  0.10200054134E+01  0.10197247950E+01 0.  0.
     999903    2    3    3    0    0  0.93141756333E-01  0.84638747371E-01  0.39699477078E-01  0.13333373262E+00  0.19045509820E-01 0.  0.
         14    1    1    2    0    0 -0.17090858290E-01 -0.12715191567E-01 -0.10890927918E-01  0.23924586613E-01  0.00000000000E+00 0. -1.
     999901    1    3    3    0    0 -0.76050898043E-01 -0.71923555805E-01 -0.28808549160E-01  0.88667168077E+00  0.88000000000E+00 0. -1.
        -11    1    4    4    0    0  0.49427119286E-01  0.35450801921E-01  0.12351595476E-01  0.62069497417E-01  0.51100000000E-03 0. -1.
         11    1    4    4    0    0  0.43714637048E-01  0.49187945450E-01  0.27347881602E-01  0.71264235202E-01  0.51100000000E-03 0.  1.
</event>
<event>
 8    1  0.1145101E+005  0.1043930E+01  0.7957747E-01            NaN
         13   -1    0    0    0    0  0.00000000000E+00  0.00000000000E+00  0.74505805969E-08  0.10566000000E+00  0.10566000000E+00 0. -1.
     999900   -1    0    0    0    0 -0.00000000000E+00 -0.00000000000E+00 -0.74505805969E-08  0.93827000000E+00  0.93827000000E+00 0. -1.
     999902    2    1    2    0    0  0.16186544145E-01 -0.76481023407E-02 -0.14296828069E-01  0.10210193699E+01  0.10207622919E+01 0.  0.
     999903    2    3    3    0    0 -0.11998371283E+00  0.39219765556E-01  0.15400919466E-01  0.12881934064E+00  0.20565817438E-01 0.  0.
         14    1    1    2    0    0 -0.16186544145E-01  0.76481023407E-02  0.14296828069E-01  0.22910630144E-01  0.00000000000E+00 0. -1.
     999901    1    3    3    0    0  0.13617025698E+00 -0.46867867897E-01 -0.29697747535E-01  0.89220002922E+00  0.88000000000E+00 0. -1.
        -11    1    4    4    0    0 -0.45897712147E-01  0.59126237891E-02  0.10408140105E-01  0.47435741818E-01  0.51100000000E-03 0.  1.
         11    1    4    4    0    0 -0.74086000686E-01  0.33307141767E-01  0.49927793613E-02  0.81383598821E-01  0.51100000000E-03 0. -1.
</event>
<event>
 8    1  0.1145101E+005  0.1043930E+01  0.7957747E-01            NaN
         13   -1    0    0    0    0  0.00000000000E+00  0.00000000000E+00  0.74505805969E-08  0.10566000000E+00  0.10566000000E+00 0.  1.
     999900   -1    0    0    0    0 -0.00000000000E+00 -0.00000000000E+00 -0.74505805969E-08  0.93827000000E+00  0.93827000000E+00 0.  1.
     999902    2    1    2    0    0  0.21493065550E-01  0.16208139601E-02 -0.10232314698E-01  0.10200704282E+01  0.10197913508E+01 0.  0.
     999903    2    3    3    0    0 -0.95806769509E-01 -0.72449025316E-02  0.81235228968E-01  0.12754358610E+00  0.20899240037E-01 0.  0.
         14    1    1    2    0    0 -0.21493065550E-01 -0.16208139601E-02  0.10232314698E-01  0.23859571847E-01  0.00000000000E+00 0.  1.
     999901    1    3    3    0    0  0.11729983506E+00  0.88657164917E-02 -0.91467543667E-01  0.89252684205E+00  0.88000000000E+00 0. -1.
        -11    1    4    4    0    0 -0.37222418613E-01  0.12262513954E-02  0.19610538265E-01  0.42093306735E-01  0.51100000000E-03 0.  1.
         11    1    4    4    0    0 -0.58584350897E-01 -0.84711539270E-02  0.61624690704E-01  0.85450279368E-01  0.51100000000E-03 0. -1.
</event>
<event>
 8    1  0.1145101E+005  0.1043930E+01  0.7957747E-01            NaN
         13   -1    0    0    0    0  0.00000000000E+00  0.00000000000E+00  0.74505805969E-08  0.10566000000E+00  0.10566000000E+00 0.  1.
     999900   -1    0    0    0    0 -0.00000000000E+00 -0.00000000000E+00 -0.74505805969E-08  0.93827000000E+00  0.93827000000E+00 0.  1.
     999902    2    1    2    0    0 -0.20595032473E-01  0.69918130144E-02 -0.95388514360E-02  0.10201806737E+01  0.10199041997E+01 0.  0.
     999903    2    3    3    0    0 -0.64288424827E-02  0.35425478161E-02  0.12777057559E+00  0.12941333198E+00  0.19199240770E-01 0.  0.
         14    1    1    2    0    0  0.20595032473E-01 -0.69918130144E-02  0.95388514360E-02  0.23749326275E-01  0.00000000000E+00 0.  1.
     999901    1    3    3    0    0 -0.14166189990E-01  0.34492651983E-02 -0.13730942703E+00  0.89076734175E+00  0.88000000000E+00 0.  1.
        -11    1    4    4    0    0 -0.75348550935E-02  0.90878611848E-02  0.47702238920E-01  0.49143951623E-01  0.51100000000E-03 0.  1.
         11    1    4    4    0    0  0.11060126108E-02 -0.55453133688E-02  0.80068336673E-01  0.80269380356E-01  0.51100000000E-03 0. -1.
</event>
<event>
 8    1  0.1145101E+005  0.1043930E+01  0.7957747E-01            NaN
         13   -1    0    0    0    0  0.00000000000E+00  0.00000000000E+00  0.74505805969E-08  0.10566000000E+00  0.10566000000E+00 0. -1.
     999900   -1    0    0    0    0 -0.00000000000E+00 -0.00000000000E+00 -0.74505805969E-08  0.93827000000E+00  0.93827000000E+00 0. -1.
     999902    2    1    2    0    0 -0.13112701661E-01  0.18182210864E-01  0.98174851570E-02  0.10194571834E+01  0.10191633971E+01 0.  0.
     999903    2    3    3    0    0  0.12285484601E+00 -0.20119100550E-01  0.23258606962E-01  0.12809035195E+00  0.19185517183E-01 0.  0.
         14    1    1    2    0    0  0.13112701661E-01 -0.18182210864E-01 -0.98174851570E-02  0.24472816584E-01  0.00000000000E+00 0. -1.
     999901    1    3    3    0    0 -0.13596754768E+00  0.38301311414E-01 -0.13441121805E-01  0.89136683146E+00  0.88000000000E+00 0. -1.
        -11    1    4    4    0    0  0.60593394090E-01 -0.15650402853E-01  0.19508614983E-01  0.65554112734E-01  0.51100000000E-03 0.  1.
         11    1    4    4    0    0  0.62261451924E-01 -0.44686976968E-02  0.37499919788E-02  0.62536239219E-01  0.51100000000E-03 0. -1.
</event>
<event>
 8    1  0.1145101E+005  0.1043930E+01  0.7957747E-01            NaN
         13   -1    0    0    0    0  0.00000000000E+00  0.00000000000E+00  0.74505805969E-08  0.10566000000E+00  0.10566000000E+00 0. -1.
     999900   -1    0    0    0    0 -0.00000000000E+00 -0.00000000000E+00 -0.74505805969E-08  0.93827000000E+00  0.93827000000E+00 0.  1.
     999902    2    1    2    0    0 -0.20848240268E-01  0.36936145283E-02  0.10723091751E-01  0.10201965509E+01  0.10199204507E+01 0.  0.
     999903    2    3    3    0    0  0.53711951256E-01 -0.85786171299E-01 -0.76329243015E-01  0.12826383861E+00  0.19524806289E-01 0.  0.
         14    1    1    2    0    0  0.20848240268E-01 -0.36936145283E-02 -0.10723091751E-01  0.23733449123E-01  0.00000000000E+00 0.  1.
     999901    1    3    3    0    0 -0.74560191525E-01  0.89479785827E-01  0.87052334766E-01  0.89193271227E+00  0.88000000000E+00 0. -1.
        -11    1    4    4    0    0  0.37371662449E-01 -0.41933513978E-01 -0.44536449380E-01  0.71685543822E-01  0.51100000000E-03 0.  1.
         11    1    4    4    0    0  0.16340288808E-01 -0.43852657321E-01 -0.31792793635E-01  0.56578294783E-01  0.51100000000E-03 0. -1.
</event>
<event>
 8    1  0.1145101E+005  0.1043930E+01  0.7957747E-01            NaN
         13   -1    0    0    0    0  0.00000000000E+00  0.00000000000E+00  0.74505805969E-08  0.10566000000E+00  0.10566000000E+00 0. -1.
     999900   -1    0    0    0    0 -0.00000000000E+00 -0.00000000000E+00 -0.74505805969E-08  0.93827000000E+00  0.93827000000E+00 0.  1.
     999902    2    1    2    0    0  0.36037047966E-02 -0.74592860901E-02  0.22473445317E-01  0.10199783115E+01  0.10196970494E+01 0.  0.
     999903    2    3    3    0    0 -0.42462283159E-01 -0.11486831144E+00 -0.39161917337E-01  0.13011445006E+00  0.19958453922E-01 0.  0.
         14    1    1    2    0    0 -0.36037047966E-02  0.74592860901E-02 -0.22473445317E-01  0.23951688493E-01  0.00000000000E+00 0.  1.
     999901    1    3    3    0    0  0.46065987955E-01  0.10740902535E+00  0.61635362655E-01  0.88986386144E+00  0.88000000000E+00 0. -1.
        -11    1    4    4    0    0  0.15969864281E-02 -0.27337321595E-02  0.55767841867E-03  0.32551164941E-02  0.51100000000E-03 0. -1.
         11    1    4    4    0    0 -0.44059269587E-01 -0.11213457928E+00 -0.39719595756E-01  0.12685933357E+00  0.51100000000E-03 0.  1.
</event>
<event>
 8    1  0.1145101E+005  0.1043930E+01  0.7957747E-01            NaN
         13   -1    0    0    0    0  0.00000000000E+00  0.00000000000E+00  0.74505805969E-08  0.10566000000E+00  0.10566000000E+00 0.  1.
     999900   -1    0    0    0    0 -0.00000000000E+00 -0.00000000000E+00 -0.74505805969E-08  0.93827000000E+00  0.93827000000E+00 0. -1.
     999902    2    1    2    0    0 -0.64767465212E-02  0.41801141091E-02  0.22587076308E-01  0.10200637557E+01  0.10197845204E+01 0.  0.
     999903    2    3    3    0    0 -0.46692160074E-01 -0.58424367029E-01 -0.10204886158E+00  0.12817210448E+00  0.20507407023E-01 0.  0.
         14    1    1    2    0    0  0.64767465212E-02 -0.41801141091E-02 -0.22587076308E-01  0.23866244271E-01  0.00000000000E+00 0. -1.
     999901    1    3    3    0    0  0.40215413553E-01  0.62604481139E-01  0.12463593789E+00  0.89189165124E+00  0.88000000000E+00 0.  1.
        -11    1    4    4    0    0 -0.17293655464E-01 -0.18622258648E-01 -0.51512156406E-01  0.57442339917E-01  0.51100000000E-03 0. -1.
         11    1    4    4    0    0 -0.29398504610E-01 -0.39802108381E-01 -0.50536705175E-01  0.70729764568E-01  0.51100000000E-03 0.  1.
</event>
<event>
 8    1  0.1145101E+005  0.1043930E+01  0.7957747E-01            NaN
         13   -1    0    0    0    0  0.00000000000E+00  0.00000000000E+00  0.74505805969E-08  0.10566000000E+00  0.10566000000E+00 0. -1.
     999900   -1    0    0    0    0 -0.00000000000E+00 -0.00000000000E+00 -0.74505805969E-08  0.93827000000E+00  0.93827000000E+00 0. -1.
     999902    2    1    2    0    0  0.21038982349E-01 -0.14334211400E-01 -0.90503863858E-02  0.10169111568E+01  0.10165521545E+01 0.  0.
     999903    2    3    3    0    0  0.47934787356E-01  0.51042757116E-01  0.10401659211E+00  0.12686527372E+00  0.19293505364E-01 0.  0.
         14    1    1    2    0    0 -0.21038982349E-01  0.14334211400E-01  0.90503863858E-02  0.27018843212E-01  0.00000000000E+00 0. -1.
     999901    1    3    3    0    0 -0.26895805006E-01 -0.65376968516E-01 -0.11306697850E+00  0.89004588307E+00  0.88000000000E+00 0. -1.
        -11    1    4    4    0    0  0.97229626695E-02  0.51733726028E-02  0.73586856966E-02  0.13255608750E-01  0.51100000000E-03 0.  1.
         11    1    4    4    0    0  0.38211824686E-01  0.45869384513E-01  0.96657906414E-01  0.11360966497E+00  0.51100000000E-03 0. -1.
</event>
<event>
 8    1  0.1145101E+005  0.1043930E+01  0.7957747E-01            NaN
         13   -1    0    0    0    0  0.00000000000E+00  0.00000000000E+00  0.74505805969E-08  0.10566000000E+00  0.10566000000E+00 0.  1.
     999900   -1    0    0    0    0 -0.00000000000E+00 -0.00000000000E+00 -0.74505805969E-08  0.93827000000E+00  0.93827000000E+00 0. -1.
     999902    2    1    2    0    0  0.89546587458E-02  0.20110004910E-01  0.12767217551E-01  0.10184820128E+01  0.10181640390E+01 0.  0.
     999903    2    3    3    0    0  0.21343056324E-01  0.79203684457E-01 -0.98064875405E-01  0.12947735125E+00  0.20467413445E-01 0.  0.
         14    1    1    2    0    0 -0.89546587458E-02 -0.20110004910E-01 -0.12767217551E-01  0.25447987243E-01  0.00000000000E+00 0. -1.
     999901    1    3    3    0    0 -0.12388397578E-01 -0.59093679547E-01  0.11083209296E+00  0.88900466151E+00  0.88000000000E+00 0. -1.
        -11    1    4    4    0    0 -0.28457682505E-03  0.23924855708E-01 -0.18716029228E-01  0.30381418263E-01  0.51100000000E-03 0.  1.
         11    1    4    4    0    0  0.21627633149E-01  0.55278828749E-01 -0.79348846176E-01  0.99095932984E-01  0.51100000000E-03 0. -1.
</event>
<event>
 8    1  0.1387693E+005  0.1043930E+01  0.7957747E-01            NaN
         13   -1    0    0    0    0  0.00000000000E+00  0.00000000000E+00  0.74505805969E-08  0.10566000000E+00  0.10566000000E+00 0. -1.
     999900   -1    0    0    0    0 -0.00000000000E+00 -0.00000000000E+00 -0.74505805969E-08  0.93827000000E+00  0.93827000000E+00 0.  1.
     999902    2    1    2    0    0 -0.25645549461E-01  0.52120766817E-02 -0.26718166339E-02  0.10176241346E+01  0.10172840708E+01 0.  0.
     999903    2    3    3    0    0  0.11876480427E+00 -0.31496883024E-01 -0.14553913277E-01  0.12501947283E+00  0.17914235127E-01 0.  0.
         14    1    1    2    0    0  0.25645549461E-01 -0.52120766817E-02  0.26718166339E-02  0.26305865403E-01  0.00000000000E+00 0. -1.
     999901    1    3    3    0    0 -0.14441035374E+00  0.36708959706E-01  0.11882096644E-01  0.89260466177E+00  0.88000000000E+00 0. -1.
        -11    1    4    4    0    0  0.54261804374E-01 -0.89626088982E-02  0.72518717882E-03  0.55004170657E-01  0.51100000000E-03 0. -1.
         11    1    4    4    0    0  0.64502999901E-01 -0.22534274126E-01 -0.15279100456E-01  0.70015302173E-01  0.51100000000E-03 0.  1.
</event>
<event>
 8    1  0.1145101E+005  0.1043930E+01  0.7957747E-01            NaN
         13   -1    0    0    0    0  0.00000000000E+00  0.00000000000E+00  0.74505805969E-08  0.10566000000E+00  0.10566000000E+00 0.  1.
     999900   -1    0    0    0    0 -0.00000000000E+00 -0.00000000000E+00 -0.74505805969E-08  0.93827000000E+00  0.93827000000E+00 0.  1.
     999902    2    1    2    0    0  0.11469601149E-01  0.18913154393E-01 -0.91738894661E-02  0.10199838227E+01  0.10197026915E+01 0.  0.
     999903    2    3    3    0    0 -0.14103438336E-01  0.63577223511E-01 -0.11346783580E+00  0.13233181506E+00  0.19894451349E-01 0.  0.
         14    1    1    2    0    0 -0.11469601149E-01 -0.18913154393E-01  0.91738894661E-02  0.23946177305E-01  0.00000000000E+00 0. -1.
     999901    1    3    3    0    0  0.25573039485E-01 -0.44664069119E-01  0.10429394633E+00  0.88765200764E+00  0.88000000000E+00 0. -1.
        -11    1    4    4    0    0 -0.15567289817E-01  0.34613784651E-01 -0.52157678973E-01  0.64506892631E-01  0.51100000000E-03 0.  1.
         11    1    4    4    0    0  0.14638514805E-02  0.28963438861E-01 -0.61310156822E-01  0.67824922428E-01  0.51100000000E-03 0. -1.
</event>
<event>
 8    1  0.1145101E+005  0.1043930E+01  0.7957747E-01            NaN
         13   -1    0    0    0    0  0.00000000000E+00  0.00000000000E+00  0.74505805969E-08  0.10566000000E+00  0.10566000000E+00 0. -1.
     999900   -1    0    0    0    0 -0.00000000000E+00 -0.00000000000E+00 -0.74505805969E-08  0.93827000000E+00  0.93827000000E+00 0. -1.
     999902    2    1    2    0    0 -0.68417585768E-02 -0.66283583466E-03  0.24554574934E-01  0.10184314478E+01  0.10181121931E+01 0.  0.
     999903    2    3    3    0    0  0.68715768174E-02 -0.74909350102E-01 -0.98358031072E-01  0.12668702865E+00  0.26770723780E-01 0.  0.
         14    1    1    2    0    0  0.68417585768E-02  0.66283583466E-03 -0.24554574934E-01  0.25498552154E-01  0.00000000000E+00 0.  1.
     999901    1    3    3    0    0 -0.13713335394E-01  0.74246514267E-01  0.12291260601E+00  0.89174441919E+00  0.88000000000E+00 0.  1.
        -11    1    4    4    0    0  0.15219190237E-01 -0.61140497706E-01 -0.84706076383E-01  0.10557066216E+00  0.51100000000E-03 0. -1.
         11    1    4    4    0    0 -0.83476134196E-02 -0.13768852396E-01 -0.13651954689E-01  0.21116366494E-01  0.51100000000E-03 0.  1.
</event>
<event>
 8    1  0.1145101E+005  0.1043930E+01  0.7957747E-01            NaN
         13   -1    0    0    0    0  0.00000000000E+00  0.00000000000E+00  0.74505805969E-08  0.10566000000E+00  0.10566000000E+00 0. -1.
     999900   -1    0    0    0    0 -0.00000000000E+00 -0.00000000000E+00 -0.74505805969E-08  0.93827000000E+00  0.93827000000E+00 0.  1.
     999902    2    1    2    0    0  0.88669029933E-02  0.14103208131E-01  0.19589025565E-01  0.10182151722E+01  0.10178904089E+01 0.  0.
     999903    2    3    3    0    0  0.40303095598E-01 -0.10137627639E+00  0.65069409893E-01  0.12895018864E+00  0.22195362528E-01 0.  0.
         14    1    1    2    0    0 -0.88669029933E-02 -0.14103208131E-01 -0.19589025565E-01  0.25714827840E-01  0.00000000000E+00 0.  1.
     999901    1    3    3    0    0 -0.31436192604E-01  0.11547948452E+00 -0.45480384328E-01  0.88926498352E+00  0.88000000000E+00 0.  1.
        -11    1    4    4    0    0  0.15437886275E-01 -0.65838026611E-01  0.34782072116E-01  0.76046221092E-01  0.51100000000E-03 0.  1.
         11    1    4    4    0    0  0.24865209323E-01 -0.35538249779E-01  0.30287337777E-01  0.52903967550E-01  0.51100000000E-03 0. -1.
</event>
<event>
 8    1  0.1145101E+005  0.1043930E+01  0.7957747E-01            NaN
         13   -1    0    0    0    0  0.00000000000E+00  0.00000000000E+00  0.74505805969E-08  0.10566000000E+00  0.10566000000E+00 0.  1.
     999900   -1    0    0    0    0 -0.00000000000E+00 -0.00000000000E+00 -0.74505805969E-08  0.93827000000E+00  0.93827000000E+00 0.  1.
     999902    2    1    2    0    0 -0.31695987310E-02 -0.40723220996E-02 -0.17697679969E-01  0.10254953034E+01  0.10253295954E+01 0.  0.
     999903    2    3    3    0    0 -0.21825974465E-01 -0.54824321107E-01 -0.12263328308E+00  0.13761281872E+00  0.20403098057E-01 0.  0.
         14    1    1    2    0    0  0.31695987310E-02  0.40723220996E-02  0.17697679969E-01  0.18434696626E-01  0.00000000000E+00 0. -1.
     999901    1    3    3    0    0  0.18656375734E-01  0.50751999008E-01  0.10493560311E+00  0.88788248466E+00  0.88000000000E+00 0. -1.
        -11    1    4    4    0    0 -0.13133666247E-02 -0.10988355504E-02 -0.19062672312E-01  0.19146252064E-01  0.51100000000E-03 0.  1.
         11    1    4    4    0    0 -0.20512607840E-01 -0.53725485557E-01 -0.10357061077E+00  0.11846656665E+00  0.51100000000E-03 0. -1.
</event>
<event>
 8    1  0.1145101E+005  0.1043930E+01  0.7957747E-01            NaN
         13   -1    0    0    0    0  0.00000000000E+00  0.00000000000E+00  0.74505805969E-08  0.10566000000E+00  0.10566000000E+00 0. -1.
     999900   -1    0    0    0    0 -0.00000000000E+00 -0.00000000000E+00 -0.74505805969E-08  0.93827000000E+00  0.93827000000E+00 0. -1.
     999902    2    1    2    0    0  0.38490330814E-02  0.99035987473E-02  0.20835002981E-01  0.10205421041E+01  0.10202740772E+01 0.  0.
     999903    2    3    3    0    0  0.59899591822E-01  0.65057185354E-01 -0.93138926878E-01  0.12971460123E+00  0.18182948181E-01 0.  0.
         14    1    1    2    0    0 -0.38490330814E-02 -0.99035987473E-02 -0.20835002981E-01  0.23387895866E-01  0.00000000000E+00 0.  1.
     999901    1    3    3    0    0 -0.56050558741E-01 -0.55153586606E-01  0.11397392986E+00  0.89082750291E+00  0.88000000000E+00 0.  1.
        -11    1    4    4    0    0  0.34763640402E-01  0.25833230648E-01 -0.38954061619E-01  0.58254154679E-01  0.51100000000E-03 0. -1.
         11    1    4    4    0    0  0.25135951419E-01  0.39223954706E-01 -0.54184865259E-01  0.71460446547E-01  0.51100000000E-03 0.  1.
</event>
<event>
 8    1  0.1145101E+005  0.1043930E+01  0.7957747E-01            NaN
         13   -1    0    0    0    0  0.00000000000E+00  0.00000000000E+00  0.74505805969E-08  0.10566000000E+00  0.10566000000E+00 0. -1.
     999900   -1    0    0    0    0 -0.00000000000E+00 -0.00000000000E+00 -0.74505805969E-08  0.93827000000E+00  0.93827000000E+00 0. -1.
     999902    2    1    2    0    0  0.93614276993E-02  0.21083881655E-01 -0.59790456312E-02  0.10200990248E+01  0.10198206239E+01 0.  0.
     999903    2    3    3    0    0 -0.11642604890E+00  0.52566148779E-01  0.16436957693E-01  0.13031472527E+00  0.19837570034E-01 0.  0.
         14    1    1    2    0    0 -0.93614276993E-02 -0.21083881655E-01  0.59790456312E-02  0.23830975240E-01  0.00000000000E+00 0. -1.
     999901    1    3    3    0    0  0.12578747660E+00 -0.31482267124E-01 -0.22416003325E-01  0.88978429949E+00  0.88000000000E+00 0. -1.
        -11    1    4    4    0    0 -0.15071041305E-02  0.28441636905E-02  0.29128248644E-02  0.43710753424E-02  0.51100000000E-03 0. -1.
         11    1    4    4    0    0 -0.11491894477E+00  0.49721985089E-01  0.13524132829E-01  0.12594364993E+00  0.51100000000E-03 0.  1.
</event>
<event>
 8    1  0.1145101E+005  0.1043930E+01  0.7957747E-01            NaN
         13   -1    0    0    0    0  0.00000000000E+00  0.00000000000E+00  0.74505805969E-08  0.10566000000E+00  0.10566000000E+00 0.  1.
     999900   -1    0    0    0    0 -0.00000000000E+00 -0.00000000000E+00 -0.74505805969E-08  0.93827000000E+00  0.93827000000E+00 0.  1.
     999902    2    1    2    0    0 -0.25054881201E-01 -0.10057925113E-01 -0.64571485014E-02  0.10161702504E+01  0.10157910091E+01 0.  0.
     999903    2    3    3    0    0 -0.40333149145E-01 -0.12090942878E+00  0.21576292807E-02  0.12904247173E+00  0.20036248636E-01 0.  0.
         14    1    1    2    0    0  0.25054881201E-01  0.10057925113E-01  0.64571485014E-02  0.27759749573E-01  0.00000000000E+00 0.  1.
     999901    1    3    3    0    0  0.15278267944E-01  0.11085150366E+00 -0.86147777821E-02  0.88712777869E+00  0.88000000000E+00 0. -1.
        -11    1    4    4    0    0 -0.38115791237E-01 -0.89923826854E-01  0.53098860634E-02  0.97813926354E-01  0.51100000000E-03 0. -1.
         11    1    4    4    0    0 -0.22173579083E-02 -0.30985601923E-01 -0.31522567827E-02  0.31228545379E-01  0.51100000000E-03 0.  1.
</event>
<event>
 8    1  0.1145101E+005  0.1043930E+01  0.7957747E-01            NaN
         13   -1    0    0    0    0  0.00000000000E+00  0.00000000000E+00  0.74505805969E-08  0.10566000000E+00  0.10566000000E+00 0. -1.
     999900   -1    0    0    0    0 -0.00000000000E+00 -0.00000000000E+00 -0.74505805969E-08  0.93827000000E+00  0.93827000000E+00 0. -1.
     999902    2    1    2    0    0  0.14407360915E-01 -0.72868450648E-02  0.17679531335E-01  0.10199876528E+01  0.10197066127E+01 0.  0.
     999903    2    3    3    0    0  0.10431196193E+00  0.72672808061E-01 -0.23449658062E-01  0.13084874713E+00  0.20228339776E-01 0.  0.
         14    1    1    2    0    0 -0.14407360915E-01  0.72868450648E-02 -0.17679531335E-01  0.23942347165E-01  0.00000000000E+00 0.  1.
     999901    1    3    3    0    0 -0.89904601014E-01 -0.79959653126E-01  0.41129189398E-01  0.88913890570E+00  0.88000000000E+00 0. -1.
        -11    1    4    4    0    0  0.65479616481E-01  0.35949037118E-01 -0.75315798564E-02  0.75079286494E-01  0.51100000000E-03 0. -1.
         11    1    4    4    0    0  0.38832345448E-01  0.36723770943E-01 -0.15918078206E-01  0.55769460640E-01  0.51100000000E-03 0.  1.
</event>
<event>
 8    1  0.1145101E+005  0.1043930E+01  0.7957747E-01            NaN
         13   -1    0    0    0    0  0.00000000000E+00  0.00000000000E+00  0.74505805969E-08  0.10566000000E+00  0.10566000000E+00 0.  1.
     999900   -1    0    0    0    0 -0.00000000000E+00 -0.00000000000E+00 -0.74505805969E-08  0.93827000000E+00  0.93827000000E+00 0.  1.
     999902    2    1    2    0    0  0.20779418554E-02  0.38981742970E-02 -0.23367468765E-01  0.10201486585E+01  0.10198714298E+01 0.  0.
     999903    2    3    3    0    0 -0.23420975134E-01 -0.12114967059E+00 -0.38553516090E-01  0.13081307828E+00  0.19997576986E-01 0.  0.
         14    1    1    2    0    0 -0.20779418554E-02 -0.38981742970E-02  0.23367468765E-01  0.23781341461E-01  0.00000000000E+00 0.  1.
     999901    1    3    3    0    0  0.25498916990E-01  0.12504784489E+00  0.15186047325E-01  0.88933558026E+00  0.88000000000E+00 0.  1.
        -11    1    4    4    0    0 -0.68593281861E-02 -0.19508052435E-01  0.45289282307E-03  0.20690111790E-01  0.51100000000E-03 0.  1.
         11    1    4    4    0    0 -0.16561646948E-01 -0.10164161816E+00 -0.39006408913E-01  0.11012296649E+00  0.51100000000E-03 0. -1.
</event>
<event>
 8    1  0.1145101E+005  0.1043930E+01  0.7957747E-01            NaN
         13   -1    0    0    0    0  0.00000000000E+00  0.00000000000E+00  0.74505805969E-08  0.10566000000E+00  0.10566000000E+00 0.  1.
     999900   -1    0    0    0    0 -0.00000000000E+00 -0.00000000000E+00 -0.74505805969E-08  0.93827000000E+00  0.93827000000E+00 0. -1.
     999902    2    1    2    0    0 -0.15934714952E-01 -0.16381986554E-01  0.83902993756E-02  0.10195849441E+01  0.10192942541E+01 0.  0.
     999903    2    3    3    0    0  0.78099255142E-01 -0.42652522495E-01  0.92940904370E-01  0.13015741280E+00  0.19601251838E-01 0.  0.
         14    1    1    2    0    0  0.15934714952E-01  0.16381986554E-01 -0.83902993756E-02  0.24345055919E-01  0.00000000000E+00 0. -1.
     999901    1    3    3    0    0 -0.94033970094E-01  0.26270535940E-01 -0.84550604995E-01  0.88942753128E+00  0.88000000000E+00 0. -1.
        -11    1    4    4    0    0  0.43399157569E-01 -0.18629135698E-01  0.36559100655E-01  0.59727385145E-01  0.51100000000E-03 0. -1.
         11    1    4    4    0    0  0.34700097572E-01 -0.24023386797E-01  0.56381803715E-01  0.70430027658E-01  0.51100000000E-03 0.  1.
</event>
<event>
 8    1  0.1145101E+005  0.1043930E+01  0.7957747E-01            NaN
         13   -1    0    0    0    0  0.00000000000E+00  0.00000000000E+00  0.74505805969E-08  0.10566000000E+00  0.10566000000E+00 0. -1.
     999900   -1    0    0    0    0 -0.00000000000E+00 -0.00000000000E+00 -0.74505805969E-08  0.93827000000E+00  0.93827000000E+00 0. -1.
     999902    2    1    2    0    0 -0.98774170445E-02 -0.19220576896E-01 -0.52498460262E-02  0.10216914113E+01  0.10214493551E+01 0.  0.
     999903    2    3    3    0    0 -0.17810762480E-01 -0.10424811425E+00  0.78864749027E-01  0.13356535878E+00  0.20860581040E-01 0.  0.
         14    1    1    2    0    0  0.98774170445E-02  0.19220576896E-01  0.52498460262E-02  0.22238588691E-01  0.00000000000E+00 0. -1.
     999901    1    3    3    0    0  0.79333454358E-02  0.85027537357E-01 -0.84114595053E-01  0.88812605253E+00  0.88000000000E+00 0. -1.
        -11    1    4    4    0    0 -0.34304622485E-02 -0.71768657500E-01  0.58212931665E-01  0.92474400807E-01  0.51100000000E-03 0.  1.
         11    1    4    4    0    0 -0.14380300232E-01 -0.32479456754E-01  0.20651817362E-01  0.41090957973E-01  0.51100000000E-03 0. -1.
</event>
<event>
 8    1  0.1145101E+005  0.1043930E+01  0.7957747E-01            NaN
         13   -1    0    0    0    0  0.00000000000E+00  0.00000000000E+00  0.74505805969E-08  0.10566000000E+00  0.10566000000E+00 0. -1.
     999900   -1    0    0    0    0 -0.00000000000E+00 -0.00000000000E+00 -0.74505805969E-08  0.93827000000E+00  0.93827000000E+00 0. -1.
     999902    2    1    2    0    0  0.20661597226E-01  0.64675827039E-02 -0.90124790406E-02  0.10204788592E+01  0.10202093638E+01 0.  0.
     999903    2    3    3    0    0  0.11934865790E+00  0.35642637417E-02 -0.58467618930E-01  0.13357786357E+00  0.12952878180E-01 0.  0.
         14    1    1    2    0    0 -0.20661597226E-01 -0.64675827039E-02  0.90124790406E-02  0.23451140792E-01  0.00000000000E+00 0. -1.
     999901    1    3    3    0    0 -0.98687060675E-01  0.29033189622E-02  0.49455139889E-01  0.88690099564E+00  0.88000000000E+00 0.  1.
        -11    1    4    4    0    0  0.10571260682E+00  0.46466210163E-02 -0.55817232364E-01  0.11963515737E+00  0.51100000000E-03 0. -1.
         11    1    4    4    0    0  0.13636051079E-01 -0.10823572746E-02 -0.26503865655E-02  0.13942706203E-01  0.51100000000E-03 0.  1.
</event>
<event>
 8    1  0.1145101E+005  0.1043930E+01  0.7957747E-01            NaN
         13   -1    0    0    0    0  0.00000000000E+00  0.00000000000E+00  0.74505805969E-08  0.10566000000E+00  0.10566000000E+00 0.  1.
     999900   -1    0    0    0    0 -0.00000000000E+00 -0.00000000000E+00 -0.74505805969E-08  0.93827000000E+00  0.93827000000E+00 0.  1.
     999902    2    1    2    0    0 -0.15347558218E-01 -0.11563512484E-02  0.18187929490E-01  0.10201038490E+01  0.10198255622E+01 0.  0.
     999903    2    3    3    0    0  0.11280657710E-01 -0.11490734917E+00 -0.54962682917E-01  0.12937416864E+00  0.19642476095E-01 0.  0.
         14    1    1    2    0    0  0.15347558218E-01  0.11563512484E-02 -0.18187929490E-01  0.23826150981E-01  0.00000000000E+00 0. -1.
     999901    1    3    3    0    0 -0.26628215928E-01  0.11375099792E+00  0.73150612406E-01  0.89072968038E+00  0.88000000000E+00 0. -1.
        -11    1    4    4    0    0  0.14332291738E-01 -0.72215276561E-01 -0.27911311621E-01  0.78738574998E-01  0.51100000000E-03 0. -1.
         11    1    4    4    0    0 -0.30516340271E-02 -0.42692072606E-01 -0.27051371296E-01  0.50635593643E-01  0.51100000000E-03 0.  1.
</event>
<event>
 7    1  0.1145101E+005  0.1043930E+01  0.7957747E-01            NaN
         13   -1    0    0    0    0  0.00000000000E+00  0.00000000000E+00  0.74505805969E-08  0.10566000000E+00  0.10566000000E+00 0. -1.
     999900   -1    0    0    0    0 -0.00000000000E+00 -0.00000000000E+00 -0.74505805969E-08  0.93827000000E+00  0.93827000000E+00 0. -1.
     999903    2    1    2    0    0 -0.16872106981E-01 -0.19969086105E-01 -0.73092890522E-01  0.79962831431E-01  0.19184665014E-01 0.  0.
         14    1    1    2    0    0  0.50018972455E-01 -0.50625777770E-01 -0.24216178932E-01  0.75175064366E-01  0.00000000000E+00 0.  1.
     999901    1    1    2    0    0 -0.33146865475E-01  0.70594863876E-01  0.97309069454E-01  0.88879210420E+00  0.88000000000E+00 0.  1.
        -11    1    3    3    0    0 -0.11566891089E-01 -0.23100086485E-01 -0.63439979186E-01  0.68500357994E-01  0.51100000000E-03 0. -1.
         11    1    3    3    0    0 -0.53052158918E-02  0.31310003801E-02 -0.96529113362E-02  0.11462473437E-01  0.51100000000E-03 0.  1.
</event>
<event>
 8    1  0.1145101E+005  0.1043930E+01  0.7957747E-01            NaN
         13   -1    0    0    0    0  0.00000000000E+00  0.00000000000E+00  0.74505805969E-08  0.10566000000E+00  0.10566000000E+00 0.  1.
     999900   -1    0    0    0    0 -0.00000000000E+00 -0.00000000000E+00 -0.74505805969E-08  0.93827000000E+00  0.93827000000E+00 0. -1.
     999902    2    1    2    0    0 -0.97947632526E-02 -0.17757915573E-01 -0.15064079600E-01  0.10186672320E+01  0.10183539277E+01 0.  0.
     999903    2    3    3    0    0 -0.56020685731E-01  0.66318042619E-01 -0.94596448904E-01  0.12988660641E+00  0.19637779253E-01 0.  0.
         14    1    1    2    0    0  0.97947632526E-02  0.17757915573E-01  0.15064079600E-01  0.25262767997E-01  0.00000000000E+00 0.  1.
     999901    1    3    3    0    0  0.46225922478E-01 -0.84075958192E-01  0.79532369303E-01  0.88878062559E+00  0.88000000000E+00 0. -1.
        -11    1    4    4    0    0 -0.38891004493E-01  0.43200748151E-01 -0.49291249321E-01  0.76214849288E-01  0.51100000000E-03 0. -1.
         11    1    4    4    0    0 -0.17129681238E-01  0.23117294468E-01 -0.45305199582E-01  0.53671757126E-01  0.51100000000E-03 0.  1.
</event>
<event>
 8    1  0.1145101E+005  0.1043930E+01  0.7957747E-01            NaN
         13   -1    0    0    0    0  0.00000000000E+00  0.00000000000E+00  0.74505805969E-08  0.10566000000E+00  0.10566000000E+00 0. -1.
     999900   -1    0    0    0    0 -0.00000000000E+00 -0.00000000000E+00 -0.74505805969E-08  0.93827000000E+00  0.93827000000E+00 0.  1.
     999902    2    1    2    0    0  0.96454640502E-02  0.21810607863E-01 -0.22904345674E-02  0.10199720434E+01  0.10196906324E+01 0.  0.
     999903    2    3    3    0    0  0.72639447122E-01 -0.58957266382E-01  0.86217394022E-01  0.12962080537E+00  0.24812609994E-01 0.  0.
         14    1    1    2    0    0 -0.96454640502E-02 -0.21810607863E-01  0.22904345674E-02  0.23957956562E-01  0.00000000000E+00 0. -1.
     999901    1    3    3    0    0 -0.62993983072E-01  0.80767874245E-01 -0.88507828589E-01  0.89035123807E+00  0.88000000000E+00 0.  1.
        -11    1    4    4    0    0  0.94280702426E-02  0.56170980030E-03  0.12808883919E-01  0.15922708772E-01  0.51100000000E-03 0. -1.
         11    1    4    4    0    0  0.63211376879E-01 -0.59518976182E-01  0.73408510103E-01  0.11369809659E+00  0.51100000000E-03 0.  1.
</event>
<event>
 8    1  0.1145101E+005  0.1043930E+01  0.7957747E-01            NaN
         13   -1    0    0    0    0  0.00000000000E+00  0.00000000000E+00  0.74505805969E-08  0.10566000000E+00  0.10566000000E+00 0.  1.
     999900   -1    0    0    0    0 -0.00000000000E+00 -0.00000000000E+00 -0.74505805969E-08  0.93827000000E+00  0.93827000000E+00 0. -1.
     999902    2    1    2    0    0 -0.92262364320E-03 -0.50723070730E-02  0.30980959109E-01  0.10125230046E+01  0.10120357876E+01 0.  0.
     999903    2    3    3    0    0  0.54161715635E-01  0.84292624520E-02 -0.10517263226E+00  0.12024817179E+00  0.19844302349E-01 0.  0.
         14    1    1    2    0    0  0.92262364320E-03  0.50723070730E-02 -0.30980959109E-01  0.31406995410E-01  0.00000000000E+00 0. -1.
     999901    1    3    3    0    0 -0.55084339278E-01 -0.13501569525E-01  0.13615359137E+00  0.89227483280E+00  0.88000000000E+00 0.  1.
        -11    1    4    4    0    0  0.34461532413E-01 -0.34409992505E-02 -0.54167667317E-01  0.64294906452E-01  0.51100000000E-03 0.  1.
         11    1    4    4    0    0  0.19700183221E-01  0.11870261703E-01 -0.51004964941E-01  0.55953265334E-01  0.51100000000E-03 0. -1.
</event>
<event>
 8    1  0.1145101E+005  0.1043930E+01  0.7957747E-01            NaN
         13   -1    0    0    0    0  0.00000000000E+00  0.00000000000E+00  0.74505805969E-08  0.10566000000E+00  0.10566000000E+00 0.  1.
     999900   -1    0    0    0    0 -0.00000000000E+00 -0.00000000000E+00 -0.74505805969E-08  0.93827000000E+00  0.93827000000E+00 0. -1.
     999902    2    1    2    0    0  0.21018688643E-01  0.79883243359E-02  0.58679109304E-02  0.10206914334E+01  0.10204268574E+01 0.  0.
     999903    2    3    3    0    0 -0.11368179466E+00  0.42077564635E-01 -0.38046040760E-01  0.12870783959E+00  0.20594535031E-01 0.  0.
         14    1    1    2    0    0 -0.21018688643E-01 -0.79883243359E-02 -0.58679109304E-02  0.23238566579E-01  0.00000000000E+00 0. -1.
     999901    1    3    3    0    0  0.13470048330E+00 -0.34089240299E-01  0.43913951691E-01  0.89198359383E+00  0.88000000000E+00 0.  1.
        -11    1    4    4    0    0 -0.48849437688E-01  0.24334939020E-01 -0.83127699648E-02  0.55207065535E-01  0.51100000000E-03 0. -1.
         11    1    4    4    0    0 -0.64832356969E-01  0.17742625614E-01 -0.29733270796E-01  0.73500774057E-01  0.51100000000E-03 0.  1.
</event>
<event>
 8    1  0.1145101E+005  0.1043930E+01  0.7957747E-01            NaN
         13   -1    0    0    0    0  0.00000000000E+00  0.00000000000E+00  0.74505805969E-08  0.10566000000E+00  0.10566000000E+00 0. -1.
     999900   -1    0    0    0    0 -0.00000000000E+00 -0.00000000000E+00 -0.74505805969E-08  0.93827000000E+00  0.93827000000E+00 0. -1.
     999902    2    1    2    0    0  0.23184652712E-01  0.41413387952E-02  0.70006598129E-03  0.10203679776E+01  0.10200958978E+01 0.  0.
     999903    2    3    3    0    0 -0.55503647614E-01 -0.11457024868E+00  0.23531162249E-02  0.12891577909E+00  0.20167899291E-01 0.  0.
         14    1    1    2    0    0 -0.23184652712E-01 -0.41413387952E-02 -0.70006598129E-03  0.23562022425E-01  0.00000000000E+00 0.  1.
     999901    1    3    3    0    0  0.78688300326E-01  0.11871158747E+00 -0.16530502436E-02  0.89145219848E+00  0.88000000000E+00 0. -1.
        -11    1    4    4    0    0 -0.36242399950E-01 -0.64430376029E-01  0.10216665416E-01  0.74628588910E-01  0.51100000000E-03 0.  1.
         11    1    4    4    0    0 -0.19261247665E-01 -0.50139872648E-01 -0.78635491913E-02  0.54287190180E-01  0.51100000000E-03 0. -1.
</event>
<event>
 8    1  0.1145101E+005  0.1043930E+01  0.7957747E-01            NaN
         13   -1    0    0    0    0  0.00000000000E+00  0.00000000000E+00  0.74505805969E-08  0.10566000000E+00  0.10566000000E+00 0.  1.
     999900   -1    0    0    0    0 -0.00000000000E+00 -0.00000000000E+00 -0.74505805969E-08  0.93827000000E+00  0.93827000000E+00 0. -1.
     999902    2    1    2    0    0  0.12813154089E-01 -0.16722889426E-01  0.10524725543E-01  0.10203800149E+01  0.10201082164E+01 0.  0.
     999903    2    3    3    0    0  0.80579902272E-01 -0.64113305453E-01  0.82738926549E-01  0.13355811934E+00  0.19707985415E-01 0.  0.
         14    1    1    2    0    0 -0.12813154089E-01  0.16722889426E-01 -0.10524725543E-01  0.23549985058E-01  0.00000000000E+00 0.  1.
     999901    1    3    3    0    0 -0.67766748183E-01  0.47390416027E-01 -0.72214201006E-01  0.88682189560E+00  0.88000000000E+00 0. -1.
        -11    1    4    4    0    0  0.64145085105E-01 -0.45971887925E-01  0.53129252792E-01  0.95136665097E-01  0.51100000000E-03 0.  1.
         11    1    4    4    0    0  0.16434817167E-01 -0.18141417528E-01  0.29609673757E-01  0.38421454244E-01  0.51100000000E-03 0. -1.
</event>
<event>
 8    1  0.1658549E+005  0.1043930E+01  0.7957747E-01            NaN
         13   -1    0    0    0    0  0.00000000000E+00  0.00000000000E+00  0.74505805969E-08  0.10566000000E+00  0.10566000000E+00 0. -1.
     999900   -1    0    0    0    0 -0.00000000000E+00 -0.00000000000E+00 -0.74505805969E-08  0.93827000000E+00  0.93827000000E+00 0.  1.
     999902    2    1    2    0    0 -0.51917301273E-02  0.65281004126E-02  0.22583211198E-01  0.10198557070E+01  0.10195715235E+01 0.  0.
     999903    2    3    3    0    0  0.25382967317E-01  0.60583750640E-01  0.11387537796E+00  0.13295600286E+00  0.19874886685E-01 0.  0.
         14    1    1    2    0    0  0.51917301273E-02 -0.65281004126E-02 -0.22583211198E-01  0.24074293026E-01  0.00000000000E+00 0.  1.
     999901    1    3    3    0    0 -0.30574697444E-01 -0.54055650227E-01 -0.91292166758E-01  0.88689970411E+00  0.88000000000E+00 0.  1.
        -11    1    4    4    0    0  0.10805322312E-01  0.45205084779E-01  0.67379056444E-01  0.81856295105E-01  0.51100000000E-03 0. -1.
         11    1    4    4    0    0  0.14577645005E-01  0.15378665861E-01  0.46496321512E-01  0.51099707755E-01  0.51100000000E-03 0.  1.
</event>
<event>
 8    1  0.1145101E+005  0.1043930E+01  0.7957747E-01            NaN
         13   -1    0    0    0    0  0.00000000000E+00  0.00000000000E+00  0.74505805969E-08  0.10566000000E+00  0.10566000000E+00 0. -1.
     999900   -1    0    0    0    0 -0.00000000000E+00 -0.00000000000E+00 -0.74505805969E-08  0.93827000000E+00  0.93827000000E+00 0.  1.
     999902    2    1    2    0    0  0.13686015428E-01  0.19420035405E-01  0.59908203496E-02  0.10194282710E+01  0.10191337817E+01 0.  0.
     999903    2    3    3    0    0  0.84566732603E-01  0.82976419798E-01  0.57064445034E-01  0.13282125257E+00  0.18668576328E-01 0.  0.
         14    1    1    2    0    0 -0.13686015428E-01 -0.19420035405E-01 -0.59908203496E-02  0.24501728957E-01  0.00000000000E+00 0. -1.
     999901    1    3    3    0    0 -0.70880717175E-01 -0.63556384393E-01 -0.51073624684E-01  0.88660701847E+00  0.88000000000E+00 0.  1.
        -11    1    4    4    0    0  0.50229647115E-01  0.61138369361E-01  0.34923397400E-01  0.86491747955E-01  0.51100000000E-03 0. -1.
         11    1    4    4    0    0  0.34337085488E-01  0.21838050437E-01  0.22141047634E-01  0.46329504617E-01  0.51100000000E-03 0.  1.
</event>
<event>
 8    1  0.1145101E+005  0.1043930E+01  0.7957747E-01            NaN
         13   -1    0    0    0    0  0.00000000000E+00  0.00000000000E+00  0.74505805969E-08  0.10566000000E+00  0.10566000000E+00 0.  1.
     999900   -1    0    0    0    0 -0.00000000000E+00 -0.00000000000E+00 -0.74505805969E-08  0.93827000000E+00  0.93827000000E+00 0.  1.
     999902    2    1    2    0    0  0.23560648545E-02  0.22863733220E-01  0.90006208297E-03  0.10209275773E+01  0.10206684117E+01 0.  0.
     999903    2    3    3    0    0 -0.17379111471E-02  0.12537943968E+00 -0.42329607886E-01  0.13391290150E+00  0.20441263547E-01 0.  0.
         14    1    1    2    0    0 -0.23560648545E-02 -0.22863733220E-01 -0.90006208297E-03  0.23002422701E-01  0.00000000000E+00 0. -1.
     999901    1    3    3    0    0  0.40939760016E-02 -0.10251570646E+00  0.43229669969E-01  0.88701467580E+00  0.88000000000E+00 0.  1.
        -11    1    4    4    0    0 -0.97126087108E-02  0.38632609928E-01 -0.10898292331E-01  0.41301903280E-01  0.51100000000E-03 0.  1.
         11    1    4    4    0    0  0.79746975637E-02  0.86746829753E-01 -0.31431315555E-01  0.92610998223E-01  0.51100000000E-03 0. -1.
</event>
<event>
 8    1  0.1145101E+005  0.1043930E+01  0.7957747E-01            NaN
         13   -1    0    0    0    0  0.00000000000E+00  0.00000000000E+00  0.74505805969E-08  0.10566000000E+00  0.10566000000E+00 0. -1.
     999900   -1    0    0    0    0 -0.00000000000E+00 -0.00000000000E+00 -0.74505805969E-08  0.93827000000E+00  0.93827000000E+00 0.  1.
     999902    2    1    2    0    0  0.19264409692E-01 -0.55609593147E-02  0.14387186485E-01  0.10192514084E+01  0.10189525998E+01 0.  0.
     999903    2    3    3    0    0 -0.78842817743E-01  0.15555141288E-01  0.99265449696E-01  0.12949007109E+00  0.21351737091E-01 0.  0.
         14    1    1    2    0    0 -0.19264409692E-01  0.55609593147E-02 -0.14387186485E-01  0.24678591617E-01  0.00000000000E+00 0. -1.
     999901    1    3    3    0    0  0.98107227435E-01 -0.21116100603E-01 -0.84878263211E-01  0.88976133730E+00  0.88000000000E+00 0.  1.
        -11    1    4    4    0    0 -0.24496025827E-01 -0.26884280495E-02  0.40364968764E-01  0.47295610272E-01  0.51100000000E-03 0.  1.
         11    1    4    4    0    0 -0.54346791916E-01  0.18243569338E-01  0.58900480932E-01  0.82194460815E-01  0.51100000000E-03 0. -1.
</event>
<event>
 8    1  0.1145101E+005  0.1043930E+01  0.7957747E-01            NaN
         13   -1    0    0    0    0  0.00000000000E+00  0.00000000000E+00  0.74505805969E-08  0.10566000000E+00  0.10566000000E+00 0.  1.
     999900   -1    0    0    0    0 -0.00000000000E+00 -0.00000000000E+00 -0.74505805969E-08  0.93827000000E+00  0.93827000000E+00 0.  1.
     999902    2    1    2    0    0  0.20339207466E-01 -0.10485602526E-01 -0.70484397711E-02  0.10199860713E+01  0.10197049935E+01 0.  0.
     999903    2    3    3    0    0  0.10939045313E+00 -0.70423609286E-01  0.20619733763E-01  0.13303160972E+00  0.18613967441E-01 0.  0.
         14    1    1    2    0    0 -0.20339207466E-01  0.10485602526E-01  0.70484397711E-02  0.23943928748E-01  0.00000000000E+00 0.  1.
     999901    1    3    3    0    0 -0.89051245659E-01  0.59938006760E-01 -0.27668173535E-01  0.88695446153E+00  0.88000000000E+00 0.  1.
        -11    1    4    4    0    0  0.56873944354E-01 -0.42363352776E-01  0.32034562057E-02  0.70991706963E-01  0.51100000000E-03 0.  1.
         11    1    4    4    0    0  0.52516508771E-01 -0.28060256509E-01  0.17416277558E-01  0.62039902755E-01  0.51100000000E-03 0. -1.
</event>
<event>
 8    1  0.1145101E+005  0.1043930E+01  0.7957747E-01            NaN
         13   -1    0    0    0    0  0.00000000000E+00  0.00000000000E+00  0.74505805969E-08  0.10566000000E+00  0.10566000000E+00 0. -1.
     999900   -1    0    0    0    0 -0.00000000000E+00 -0.00000000000E+00 -0.74505805969E-08  0.93827000000E+00  0.93827000000E+00 0. -1.
     999902    2    1    2    0    0 -0.90385056464E-02 -0.17217860541E-01  0.13219377043E-01  0.10204161480E+01  0.10201451926E+01 0.  0.
     999903    2    3    3    0    0 -0.48366846917E-01  0.11285641676E+00  0.36673111447E-01  0.12967706517E+00  0.19882189083E-01 0.  0.
         14    1    1    2    0    0  0.90385056464E-02  0.17217860541E-01 -0.13219377043E-01  0.23513851989E-01  0.00000000000E+00 0.  1.
     999901    1    3    3    0    0  0.39328341271E-01 -0.13007427730E+00 -0.23453734405E-01  0.89073908284E+00  0.88000000000E+00 0.  1.
        -11    1    4    4    0    0 -0.19242817953E-01  0.41250775655E-01  0.23602765089E-01  0.51276351038E-01  0.51100000000E-03 0.  1.
         11    1    4    4    0    0 -0.29124028964E-01  0.71605641108E-01  0.13070346359E-01  0.78400714133E-01  0.51100000000E-03 0. -1.
</event>
<event>
 8    1  0.1145101E+005  0.1043930E+01  0.7957747E-01            NaN
         13   -1    0    0    0    0  0.00000000000E+00  0.00000000000E+00  0.74505805969E-08  0.10566000000E+00  0.10566000000E+00 0. -1.
     999900   -1    0    0    0    0 -0.00000000000E+00 -0.00000000000E+00 -0.74505805969E-08  0.93827000000E+00  0.93827000000E+00 0. -1.
     999902    2    1    2    0    0 -0.17870385393E-01 -0.10927835789E-01  0.13346959097E-01  0.10190923353E+01  0.10187896144E+01 0.  0.
     999903    2    3    3    0    0  0.70006572687E-01 -0.75797882615E-01 -0.73391871196E-01  0.12810742669E+00  0.19465528202E-01 0.  0.
         14    1    1    2    0    0  0.17870385393E-01  0.10927835789E-01 -0.13346959097E-01  0.24837664670E-01  0.00000000000E+00 0.  1.
     999901    1    3    3    0    0 -0.87876958080E-01  0.64870046826E-01  0.86738830293E-01  0.89098490864E+00  0.88000000000E+00 0. -1.
        -11    1    4    4    0    0  0.27487498743E-01 -0.33473348709E-01 -0.42256804308E-01  0.60513852069E-01  0.51100000000E-03 0.  1.
         11    1    4    4    0    0  0.42519073944E-01 -0.42324533906E-01 -0.31135066888E-01  0.67593574625E-01  0.51100000000E-03 0. -1.
</event>
<event>
 8    1  0.1145101E+005  0.1043930E+01  0.7957747E-01            NaN
         13   -1    0    0    0    0  0.00000000000E+00  0.00000000000E+00  0.74505805969E-08  0.10566000000E+00  0.10566000000E+00 0. -1.
     999900   -1    0    0    0    0 -0.00000000000E+00 -0.00000000000E+00 -0.74505805969E-08  0.93827000000E+00  0.93827000000E+00 0. -1.
     999902    2    1    2    0    0 -0.32319478688E-02  0.20469616608E-01  0.11874963407E-01  0.10200455815E+01  0.10197659157E+01 0.  0.
     999903    2    3    3    0    0 -0.47307351075E-01  0.12116384454E+00 -0.19305840655E-01  0.13265941345E+00  0.17525461560E-01 0.  0.
         14    1    1    2    0    0  0.32319478688E-02 -0.20469616608E-01 -0.11874963407E-01  0.23884418499E-01  0.00000000000E+00 0. -1.
     999901    1    3    3    0    0  0.44075403207E-01 -0.10069422794E+00  0.31180804062E-01  0.88738616805E+00  0.88000000000E+00 0.  1.
        -11    1    4    4    0    0 -0.28335884200E-01  0.67305444266E-01 -0.22542275651E-02  0.73063587540E-01  0.51100000000E-03 0. -1.
         11    1    4    4    0    0 -0.18971466875E-01  0.53858400278E-01 -0.17051613090E-01  0.59595825910E-01  0.51100000000E-03 0.  1.
</event>
<event>
 8    1  0.1145101E+005  0.1043930E+01  0.7957747E-01            NaN
         13   -1    0    0    0    0  0.00000000000E+00  0.00000000000E+00  0.74505805969E-08  0.10566000000E+00  0.10566000000E+00 0. -1.
     999900   -1    0    0    0    0 -0.00000000000E+00 -0.00000000000E+00 -0.74505805969E-08  0.93827000000E+00  0.93827000000E+00 0. -1.
     999902    2    1    2    0    0  0.44906426139E-03 -0.22157032009E-01  0.10962152731E-01  0.10192054268E+01  0.10189054900E+01 0.  0.
     999903    2    3    3    0    0  0.32753852362E-01 -0.89556054169E-02  0.12512180049E+00  0.13114557401E+00  0.19765599204E-01 0.  0.
         14    1    1    2    0    0 -0.44906426139E-03  0.22157032009E-01 -0.10962152731E-01  0.24724573174E-01  0.00000000000E+00 0. -1.
     999901    1    3    3    0    0 -0.32304788100E-01 -0.13201426592E-01 -0.11415964776E+00  0.88805985281E+00  0.88000000000E+00 0. -1.
        -11    1    4    4    0    0  0.13557736468E-01 -0.12428791178E-01  0.78041164097E-01  0.80180867312E-01  0.51100000000E-03 0. -1.
         11    1    4    4    0    0  0.19196115894E-01  0.34731857614E-02  0.47080636396E-01  0.50964706702E-01  0.51100000000E-03 0.  1.
</event>
<event>
 8    1  0.1145101E+005  0.1043930E+01  0.7957747E-01            NaN
         13   -1    0    0    0    0  0.00000000000E+00  0.00000000000E+00  0.74505805969E-08  0.10566000000E+00  0.10566000000E+00 0. -1.
     999900   -1    0    0    0    0 -0.00000000000E+00 -0.00000000000E+00 -0.74505805969E-08  0.93827000000E+00  0.93827000000E+00 0.  1.
     999902    2    1    2    0    0  0.79763693365E-02  0.17770801129E-01 -0.11469072509E-01  0.10213254990E+01  0.10210753212E+01 0.  0.
     999903    2    3    3    0    0 -0.42778306984E-01  0.12320378091E+00 -0.20435709399E-01  0.13353467288E+00  0.20118038243E-01 0.  0.
         14    1    1    2    0    0 -0.79763693365E-02 -0.17770801129E-01  0.11469072509E-01  0.22604500984E-01  0.00000000000E+00 0.  1.
     999901    1    3    3    0    0  0.50754676320E-01 -0.10543297978E+00  0.89666368904E-02  0.88779082614E+00  0.88000000000E+00 0. -1.
        -11    1    4    4    0    0 -0.27089984762E-01  0.10188040726E+00 -0.14685047747E-01  0.10643963739E+00  0.51100000000E-03 0. -1.
         11    1    4    4    0    0 -0.15688322222E-01  0.21323373649E-01 -0.57506616522E-02  0.27095035492E-01  0.51100000000E-03 0.  1.
</event>
<event>
 8    1  0.1145101E+005  0.1043930E+01  0.7957747E-01            NaN
         13   -1    0    0    0    0  0.00000000000E+00  0.00000000000E+00  0.74505805969E-08  0.10566000000E+00  0.10566000000E+00 0. -1.
     999900   -1    0    0    0    0 -0.00000000000E+00 -0.00000000000E+00 -0.74505805969E-08  0.93827000000E+00  0.93827000000E+00 0.  1.
     999902    2    1    2    0    0 -0.12906572644E-01 -0.18742712457E-01  0.81044250592E-02  0.10197732081E+01  0.10194870502E+01 0.  0.
     999903    2    3    3    0    0  0.89462618442E-02  0.12548069607E+00 -0.76718558743E-02  0.12762589464E+00  0.20101515385E-01 0.  0.
         14    1    1    2    0    0  0.12906572644E-01  0.18742712457E-01 -0.81044250592E-02  0.24156791864E-01  0.00000000000E+00 0.  1.
     999901    1    3    3    0    0 -0.21852834488E-01 -0.14422340853E+00  0.15776280934E-01  0.89214731350E+00  0.88000000000E+00 0.  1.
        -11    1    4    4    0    0 -0.17436588938E-02  0.60958879314E-01  0.42939888356E-02  0.61136934619E-01  0.51100000000E-03 0.  1.
         11    1    4    4    0    0  0.10689920738E-01  0.64521816761E-01 -0.11965844710E-01  0.66488960017E-01  0.51100000000E-03 0. -1.
</event>
<event>
 8    1  0.1145101E+005  0.1043930E+01  0.7957747E-01            NaN
         13   -1    0    0    0    0  0.00000000000E+00  0.00000000000E+00  0.74505805969E-08  0.10566000000E+00  0.10566000000E+00 0. -1.
     999900   -1    0    0    0    0 -0.00000000000E+00 -0.00000000000E+00 -0.74505805969E-08  0.93827000000E+00  0.93827000000E+00 0. -1.
     999902    2    1    2    0    0  0.65535473632E-02 -0.11936274622E-01  0.19574493491E-01  0.10200849915E+01  0.10198062588E+01 0.  0.
     999903    2    3    3    0    0  0.47659455452E-01 -0.70364603517E-02  0.12243262703E+00  0.13312755200E+00  0.20304223001E-01 0.  0.
         14    1    1    2    0    0 -0.65535473632E-02  0.11936274622E-01 -0.19574493491E-01  0.23845008499E-01  0.00000000000E+00 0.  1.
     999901    1    3    3    0    0 -0.41105908089E-01 -0.48998142699E-02 -0.10285813353E+00  0.88695743951E+00  0.88000000000E+00 0. -1.
        -11    1    4    4    0    0  0.33179662039E-01 -0.14048321289E-01  0.79856185908E-01  0.87610027125E-01  0.51100000000E-03 0.  1.
         11    1    4    4    0    0  0.14479793413E-01  0.70118609377E-02  0.42576441118E-01  0.45517524870E-01  0.51100000000E-03 0. -1.
</event>
<event>
 8    1  0.1145101E+005  0.1043930E+01  0.7957747E-01            NaN
         13   -1    0    0    0    0  0.00000000000E+00  0.00000000000E+00  0.74505805969E-08  0.10566000000E+00  0.10566000000E+00 0.  1.
     999900   -1    0    0    0    0 -0.00000000000E+00 -0.00000000000E+00 -0.74505805969E-08  0.93827000000E+00  0.93827000000E+00 0.  1.
     999902    2    1    2    0    0 -0.18301814230E-01 -0.94263922207E-02 -0.13486298699E-01  0.10193191583E+01  0.10190220081E+01 0.  0.
     999903    2    3    3    0    0  0.90502011207E-01  0.16286957828E-01  0.85020465298E-01  0.12679295069E+00  0.19801358461E-01 0.  0.
         14    1    1    2    0    0  0.18301814230E-01  0.94263922207E-02  0.13486298699E-01  0.24610841656E-01  0.00000000000E+00 0. -1.
     999901    1    3    3    0    0 -0.10880382544E+00 -0.25713350048E-01 -0.98506763997E-01  0.89252620766E+00  0.88000000000E+00 0.  1.
        -11    1    4    4    0    0  0.59435365754E-02 -0.23377734968E-02  0.11671715198E-01  0.13314686200E-01  0.51100000000E-03 0. -1.
         11    1    4    4    0    0  0.84558474632E-01  0.18624731324E-01  0.73348750099E-01  0.11347826449E+00  0.51100000000E-03 0.  1.
</event>
<event>
 8    1  0.1145101E+005  0.1043930E+01  0.7957747E-01            NaN
         13   -1    0    0    0    0  0.00000000000E+00  0.00000000000E+00  0.74505805969E-08  0.10566000000E+00  0.10566000000E+00 0. -1.
     999900   -1    0    0    0    0 -0.00000000000E+00 -0.00000000000E+00 -0.74505805969E-08  0.93827000000E+00  0.93827000000E+00 0.  1.
     999902    2    1    2    0    0 -0.14124541866E-01 -0.68863803879E-02 -0.18462282531E-01  0.10196858091E+01  0.10193975517E+01 0.  0.
     999903    2    3    3    0    0  0.57178489994E-03 -0.11286450242E+00  0.60588145695E-01  0.12968787953E+00  0.20231160516E-01 0.  0.
         14    1    1    2    0    0  0.14124541866E-01  0.68863803879E-02  0.18462282531E-01  0.24244190933E-01  0.00000000000E+00 0. -1.
     999901    1    3    3    0    0 -0.14696326766E-01  0.10597812203E+00 -0.79050428226E-01  0.88999792953E+00  0.88000000000E+00 0. -1.
        -11    1    4    4    0    0 -0.34283008932E-02 -0.70598825625E-01  0.27441768514E-01  0.75823869637E-01  0.51100000000E-03 0. -1.
         11    1    4    4    0    0  0.40000857932E-02 -0.42265676791E-01  0.33146377181E-01  0.53864009897E-01  0.51100000000E-03 0.  1.
</event>
<event>
 8    1  0.1145101E+005  0.1043930E+01  0.7957747E-01            NaN
         13   -1    0    0    0    0  0.00000000000E+00  0.00000000000E+00  0.74505805969E-08  0.10566000000E+00  0.10566000000E+00 0.  1.
     999900   -1    0    0    0    0 -0.00000000000E+00 -0.00000000000E+00 -0.74505805969E-08  0.93827000000E+00  0.93827000000E+00 0. -1.
     999902    2    1    2    0    0  0.70446656199E-02 -0.91417567910E-02 -0.20077390989E-01  0.10207718338E+01  0.10205091063E+01 0.  0.
     999903    2    3    3    0    0 -0.75074721142E-01  0.43884101320E-01 -0.96925554267E-01  0.13203060294E+00  0.21805708855E-01 0.  0.
         14    1    1    2    0    0 -0.70446656199E-02  0.91417567910E-02  0.20077390989E-01  0.23158166159E-01  0.00000000000E+00 0.  1.
     999901    1    3    3    0    0  0.82119386762E-01 -0.53025858111E-01  0.76848163279E-01  0.88874123090E+00  0.88000000000E+00 0.  1.
        -11    1    4    4    0    0 -0.59844313209E-01  0.33005795723E-01 -0.87618881861E-01  0.11112179784E+00  0.51100000000E-03 0.  1.
         11    1    4    4    0    0 -0.15230407932E-01  0.10878305597E-01 -0.93066724063E-02  0.20908805101E-01  0.51100000000E-03 0. -1.
</event>
<event>
 8    1  0.1145101E+005  0.1043930E+01  0.7957747E-01            NaN
         13   -1    0    0    0    0  0.00000000000E+00  0.00000000000E+00  0.74505805969E-08  0.10566000000E+00  0.10566000000E+00 0. -1.
     999900   -1    0    0    0    0 -0.00000000000E+00 -0.00000000000E+00 -0.74505805969E-08  0.93827000000E+00  0.93827000000E+00 0. -1.
     999902    2    1    2    0    0  0.70424970602E-02  0.27176745103E-02 -0.22800755930E-01  0.10199121527E+01  0.10196293161E+01 0.  0.
     999903    2    3    3    0    0  0.12714165654E+00  0.13929204671E-01  0.17226654684E-01  0.13078240954E+00  0.21172091091E-01 0.  0.
         14    1    1    2    0    0 -0.70424970602E-02 -0.27176745103E-02  0.22800755930E-01  0.24017847334E-01  0.00000000000E+00 0. -1.
     999901    1    3    3    0    0 -0.12009915948E+00 -0.11211530160E-01 -0.40027410614E-01  0.88912974313E+00  0.88000000000E+00 0. -1.
        -11    1    4    4    0    0  0.61165260151E-01  0.14399659812E-01  0.10500607560E-02  0.62848253760E-01  0.51100000000E-03 0.  1.
         11    1    4    4    0    0  0.65976396392E-01 -0.47045514166E-03  0.16176593928E-01  0.67934155776E-01  0.51100000000E-03 0. -1.
</event>
<event>
 8    1  0.1145101E+005  0.1043930E+01  0.7957747E-01            NaN
         13   -1    0    0    0    0  0.00000000000E+00  0.00000000000E+00  0.74505805969E-08  0.10566000000E+00  0.10566000000E+00 0.  1.
     999900   -1    0    0    0    0 -0.00000000000E+00 -0.00000000000E+00 -0.74505805969E-08  0.93827000000E+00  0.93827000000E+00 0.  1.
     999902    2    1    2    0    0 -0.21084377947E-01 -0.12172935303E-01 -0.53081187247E-02  0.10190119850E+01  0.10187072779E+01 0.  0.
     999903    2    3    3    0    0  0.33314385281E-01  0.70526282707E-02 -0.12319154380E+00  0.12927868246E+00  0.19422498332E-01 0.  0.
         14    1    1    2    0    0  0.21084377947E-01  0.12172935303E-01  0.53081187247E-02  0.24918015003E-01  0.00000000000E+00 0.  1.
     999901    1    3    3    0    0 -0.54398763228E-01 -0.19225563574E-01  0.11788342508E+00  0.88973330254E+00  0.88000000000E+00 0. -1.
        -11    1    4    4    0    0  0.13978788023E-01  0.10066755816E-01 -0.80337370005E-01  0.82165079125E-01  0.51100000000E-03 0. -1.
         11    1    4    4    0    0  0.19335597258E-01 -0.30141275455E-02 -0.42854173799E-01  0.47113603335E-01  0.51100000000E-03 0.  1.
</event>
<event>
 8    1  0.1145101E+005  0.1043930E+01  0.7957747E-01            NaN
         13   -1    0    0    0    0  0.00000000000E+00  0.00000000000E+00  0.74505805969E-08  0.10566000000E+00  0.10566000000E+00 0.  1.
     999900   -1    0    0    0    0 -0.00000000000E+00 -0.00000000000E+00 -0.74505805969E-08  0.93827000000E+00  0.93827000000E+00 0.  1.
     999902    2    1    2    0    0  0.18041615581E-01 -0.15496057209E-01 -0.20948657577E-02  0.10200549891E+01  0.10197755462E+01 0.  0.
     999903    2    3    3    0    0  0.11317726949E+00  0.59022053917E-01 -0.24518034500E-01  0.13151318368E+00  0.20047101718E-01 0.  0.
         14    1    1    2    0    0 -0.18041615581E-01  0.15496057209E-01  0.20948657577E-02  0.23875010877E-01  0.00000000000E+00 0.  1.
     999901    1    3    3    0    0 -0.95135653908E-01 -0.74518111126E-01  0.22423168742E-01  0.88854180545E+00  0.88000000000E+00 0. -1.
        -11    1    4    4    0    0  0.64461809558E-01  0.23723707112E-01 -0.82041323598E-02  0.69178812359E-01  0.51100000000E-03 0.  1.
         11    1    4    4    0    0  0.48715459932E-01  0.35298346805E-01 -0.16313902140E-01  0.62334371318E-01  0.51100000000E-03 0. -1.
</event>
<event>
 8    1  0.1145101E+005  0.1043930E+01  0.7957747E-01            NaN
         13   -1    0    0    0    0  0.00000000000E+00  0.00000000000E+00  0.74505805969E-08  0.10566000000E+00  0.10566000000E+00 0.  1.
     999900   -1    0    0    0    0 -0.00000000000E+00 -0.00000000000E+00 -0.74505805969E-08  0.93827000000E+00  0.93827000000E+00 0. -1.
     999902    2    1    2    0    0  0.23379566088E-01 -0.16511314633E-02 -0.52554480323E-02  0.10199102148E+01  0.10196273320E+01 0.  0.
     999903    2    3    3    0    0 -0.23174311919E-01  0.12586488120E+00  0.84081587567E-03  0.12948067720E+00  0.19634707670E-01 0.  0.
         14    1    1    2    0    0 -0.23379566088E-01  0.16511314633E-02  0.52554480323E-02  0.24019785170E-01  0.00000000000E+00 0. -1.
     999901    1    3    3    0    0  0.46553878008E-01 -0.12751601266E+00 -0.60962639080E-02  0.89042953763E+00  0.88000000000E+00 0. -1.
        -11    1    4    4    0    0 -0.24429076462E-02  0.77773106527E-02  0.48860178904E-02  0.95178070259E-02  0.51100000000E-03 0. -1.
         11    1    4    4    0    0 -0.20731404273E-01  0.11808757055E+00 -0.40452020147E-02  0.11996287018E+00  0.51100000000E-03 0.  1.
</event>
<event>
 8    1  0.1145101E+005  0.1043930E+01  0.7957747E-01            NaN
         13   -1    0    0    0    0  0.00000000000E+00  0.00000000000E+00  0.74505805969E-08  0.10566000000E+00  0.10566000000E+00 0. -1.
     999900   -1    0    0    0    0 -0.00000000000E+00 -0.00000000000E+00 -0.74505805969E-08  0.93827000000E+00  0.93827000000E+00 0.  1.
     999902    2    1    2    0    0  0.20486945820E-01  0.11224200240E-01  0.22149604353E-02  0.10204650544E+01  0.10201952380E+01 0.  0.
     999903    2    3    3    0    0  0.10712309727E+00  0.54223246942E-01 -0.54444294898E-01  0.13335456980E+00  0.20093321340E-01 0.  0.
         14    1    1    2    0    0 -0.20486945820E-01 -0.11224200240E-01 -0.22149604353E-02  0.23464945553E-01  0.00000000000E+00 0.  1.
     999901    1    3    3    0    0 -0.86636151448E-01 -0.42999046702E-01  0.56659255333E-01  0.88711048465E+00  0.88000000000E+00 0. -1.
        -11    1    4    4    0    0  0.43344847063E-01  0.28239757280E-01 -0.14454936776E-01  0.53716533547E-01  0.51100000000E-03 0.  1.
         11    1    4    4    0    0  0.63778250205E-01  0.25983489662E-01 -0.39989358122E-01  0.79638036254E-01  0.51100000000E-03 0. -1.
</event>
<event>
 8    1  0.1145101E+005  0.1043930E+01  0.7957747E-01            NaN
         13   -1    0    0    0    0  0.00000000000E+00  0.00000000000E+00  0.74505805969E-08  0.10566000000E+00  0.10566000000E+00 0.  1.
     999900   -1    0    0    0    0 -0.00000000000E+00 -0.00000000000E+00 -0.74505805969E-08  0.93827000000E+00  0.93827000000E+00 0.  1.
     999902    2    1    2    0    0 -0.19549612729E-01 -0.22571307383E-01  0.40274594388E-02  0.10137990905E+01  0.10133512344E+01 0.  0.
     999903    2    3    3    0    0 -0.81310609273E-02 -0.12574578868E+00  0.41088012953E-02  0.12769787537E+00  0.20291564841E-01 0.  0.
         14    1    1    2    0    0  0.19549612729E-01  0.22571307383E-01 -0.40274594388E-02  0.30130909451E-01  0.00000000000E+00 0. -1.
     999901    1    3    3    0    0 -0.11418551802E-01  0.10317448130E+00 -0.81341856552E-04  0.88610121517E+00  0.88000000000E+00 0.  1.
        -11    1    4    4    0    0  0.57793226429E-02 -0.18163344634E-01 -0.10469408197E-02  0.19096200266E-01  0.51100000000E-03 0.  1.
         11    1    4    4    0    0 -0.13910383570E-01 -0.10758244405E+00  0.51557421150E-02  0.10860167511E+00  0.51100000000E-03 0. -1.
</event>
<event>
 8    1  0.1145101E+005  0.1043930E+01  0.7957747E-01            NaN
         13   -1    0    0    0    0  0.00000000000E+00  0.00000000000E+00  0.74505805969E-08  0.10566000000E+00  0.10566000000E+00 0.  1.
     999900   -1    0    0    0    0 -0.00000000000E+00 -0.00000000000E+00 -0.74505805969E-08  0.93827000000E+00  0.93827000000E+00 0. -1.
     999902    2    1    2    0    0  0.37260453502E-02 -0.12906504895E-01 -0.20063126505E-01  0.10197848074E+01  0.10194989274E+01 0.  0.
     999903    2    3    3    0    0 -0.29778755670E-01 -0.20672166443E-01  0.12089458716E+00  0.12790367501E+00  0.20730077735E-01 0.  0.
         14    1    1    2    0    0 -0.37260453502E-02  0.12906504895E-01  0.20063126505E-01  0.24145192642E-01  0.00000000000E+00 0.  1.
     999901    1    3    3    0    0  0.33504801020E-01  0.77656615473E-02 -0.14095771366E+00  0.89188113234E+00  0.88000000000E+00 0. -1.
        -11    1    4    4    0    0 -0.15905270845E-02 -0.63669934856E-02  0.66162632384E-02  0.93329760898E-02  0.51100000000E-03 0.  1.
         11    1    4    4    0    0 -0.28188228585E-01 -0.14305172957E-01  0.11427832392E+00  0.11857069892E+00  0.51100000000E-03 0. -1.
</event>
<event>
 8    1  0.1145101E+005  0.1043930E+01  0.7957747E-01            NaN
         13   -1    0    0    0    0  0.00000000000E+00  0.00000000000E+00  0.74505805969E-08  0.10566000000E+00  0.10566000000E+00 0. -1.
     999900   -1    0    0    0    0 -0.00000000000E+00 -0.00000000000E+00 -0.74505805969E-08  0.93827000000E+00  0.93827000000E+00 0. -1.
     999902    2    1    2    0    0 -0.14877394603E-01  0.17678841380E-01  0.66982812500E-02  0.10198728748E+01  0.10195891013E+01 0.  0.
     999903    2    3    3    0    0  0.71469240561E-01  0.61889095726E-01 -0.86542261552E-01  0.12964588865E+00  0.19503355935E-01 0.  0.
         14    1    1    2    0    0  0.14877394603E-01 -0.17678841380E-01 -0.66982812500E-02  0.24057125232E-01  0.00000000000E+00 0.  1.
     999901    1    3    3    0    0 -0.86346635165E-01 -0.44210254347E-01  0.93240542802E-01  0.89022698612E+00  0.88000000000E+00 0.  1.
        -11    1    4    4    0    0  0.34554256867E-01  0.25718608209E-01 -0.27176640336E-01  0.50934019838E-01  0.51100000000E-03 0. -1.
         11    1    4    4    0    0  0.36914983694E-01  0.36170487517E-01 -0.59365621216E-01  0.78711868811E-01  0.51100000000E-03 0.  1.
</event>
<event>
 8    1  0.1145101E+005  0.1043930E+01  0.7957747E-01            NaN
         13   -1    0    0    0    0  0.00000000000E+00  0.00000000000E+00  0.74505805969E-08  0.10566000000E+00  0.10566000000E+00 0.  1.
     999900   -1    0    0    0    0 -0.00000000000E+00 -0.00000000000E+00 -0.74505805969E-08  0.93827000000E+00  0.93827000000E+00 0.  1.
     999902    2    1    2    0    0  0.13388357393E-01 -0.33999919117E-02  0.16451643529E-01  0.10224482721E+01  0.10222225807E+01 0.  0.
     999903    2    3    3    0    0 -0.43007563523E-01 -0.70493111455E-01  0.10335407902E+00  0.13383473412E+00  0.20266749243E-01 0.  0.
         14    1    1    2    0    0 -0.13388357393E-01  0.33999919117E-02 -0.16451643529E-01  0.21481727898E-01  0.00000000000E+00 0. -1.
     999901    1    3    3    0    0  0.56395920916E-01  0.67093119544E-01 -0.86902435490E-01  0.88861353798E+00  0.88000000000E+00 0.  1.
        -11    1    4    4    0    0 -0.10351321949E-01 -0.14236352036E-01  0.36662110951E-01  0.40671797179E-01  0.51100000000E-03 0. -1.
         11    1    4    4    0    0 -0.32656241574E-01 -0.56256759419E-01  0.66691968068E-01  0.93162936943E-01  0.51100000000E-03 0.  1.
</event>
<event>
 8    1  0.1145101E+005  0.1043930E+01  0.7957747E-01            NaN
         13   -1    0    0    0    0  0.00000000000E+00  0.00000000000E+00  0.74505805969E-08  0.10566000000E+00  0.10566000000E+00 0. -1.
     999900   -1    0    0    0    0 -0.00000000000E+00 -0.00000000000E+00 -0.74505805969E-08  0.93827000000E+00  0.93827000000E+00 0. -1.
     999902    2    1    2    0    0  0.20161260927E-01 -0.21769850290E-02 -0.14880283674E-01  0.10187776930E+01  0.10184671566E+01 0.  0.
     999903    2    3    3    0    0 -0.95412055879E-01 -0.61568659594E-01  0.52558538523E-01  0.12668321519E+00  0.19800928993E-01 0.  0.
         14    1    1    2    0    0 -0.20161260927E-01  0.21769850290E-02  0.14880283674E-01  0.25152307016E-01  0.00000000000E+00 0. -1.
     999901    1    3    3    0    0  0.11557331681E+00  0.59391674565E-01 -0.67438822197E-01  0.89209447779E+00  0.88000000000E+00 0. -1.
        -11    1    4    4    0    0 -0.79134738554E-01 -0.41435319887E-01  0.42178735141E-01  0.98785117296E-01  0.51100000000E-03 0.  1.
         11    1    4    4    0    0 -0.16277317325E-01 -0.20133339707E-01  0.10379803382E-01  0.27898097898E-01  0.51100000000E-03 0. -1.
</event>
<event>
 8    1  0.1145101E+005  0.1043930E+01  0.7957747E-01            NaN
         13   -1    0    0    0    0  0.00000000000E+00  0.00000000000E+00  0.74505805969E-08  0.10566000000E+00  0.10566000000E+00 0. -1.
     999900   -1    0    0    0    0 -0.00000000000E+00 -0.00000000000E+00 -0.74505805969E-08  0.93827000000E+00  0.93827000000E+00 0. -1.
     999902    2    1    2    0    0 -0.21005994337E-02  0.26852088990E-04  0.23516017929E-01  0.10203203338E+01  0.10200471397E+01 0.  0.
     999903    2    3    3    0    0 -0.94366903323E-01 -0.67507067481E-01 -0.53714739705E-01  0.12956868993E+00  0.20987032802E-01 0.  0.
         14    1    1    2    0    0  0.21005994337E-02 -0.26852088990E-04 -0.23516017929E-01  0.23609666204E-01  0.00000000000E+00 0.  1.
     999901    1    3    3    0    0  0.92266303889E-01  0.67533919570E-01  0.77230757635E-01  0.89075164387E+00  0.88000000000E+00 0.  1.
        -11    1    4    4    0    0 -0.38750460164E-01 -0.22071254967E-01 -0.30736863858E-01  0.54164142932E-01  0.51100000000E-03 0.  1.
         11    1    4    4    0    0 -0.55616443158E-01 -0.45435812514E-01 -0.22977875848E-01  0.75404546997E-01  0.51100000000E-03 0. -1.
</event>
<event>
 8    1  0.1145101E+005  0.1043930E+01  0.7957747E-01            NaN
         13   -1    0    0    0    0  0.00000000000E+00  0.00000000000E+00  0.74505805969E-08  0.10566000000E+00  0.10566000000E+00 0.  1.
     999900   -1    0    0    0    0 -0.00000000000E+00 -0.00000000000E+00 -0.74505805969E-08  0.93827000000E+00  0.93827000000E+00 0.  1.
     999902    2    1    2    0    0 -0.18542211345E-01 -0.74813158410E-02  0.22517850827E-02  0.10238090104E+01  0.10236112717E+01 0.  0.
     999903    2    3    3    0    0 -0.47896483374E-01 -0.78637049249E-01  0.97114921311E-01  0.13537002748E+00  0.20393081263E-01 0.  0.
         14    1    1    2    0    0  0.18542211345E-01  0.74813158410E-02 -0.22517850827E-02  0.20120989646E-01  0.00000000000E+00 0. -1.
     999901    1    3    3    0    0  0.29354272029E-01  0.71155733408E-01 -0.94863136228E-01  0.88843898288E+00  0.88000000000E+00 0.  1.
        -11    1    4    4    0    0 -0.17450410331E-01 -0.39730450195E-01  0.33498131634E-01  0.54821632933E-01  0.51100000000E-03 0. -1.
         11    1    4    4    0    0 -0.30446073043E-01 -0.38906599054E-01  0.63616789677E-01  0.80548394543E-01  0.51100000000E-03 0.  1.
</event>
<event>
 8    1  0.1145101E+005  0.1043930E+01  0.7957747E-01            NaN
         13   -1    0    0    0    0  0.00000000000E+00  0.00000000000E+00  0.74505805969E-08  0.10566000000E+00  0.10566000000E+00 0. -1.
     999900   -1    0    0    0    0 -0.00000000000E+00 -0.00000000000E+00 -0.74505805969E-08  0.93827000000E+00  0.93827000000E+00 0. -1.
     999902    2    1    2    0    0 -0.34221645876E-02 -0.12420418550E-01 -0.20331948059E-01  0.10198599747E+01  0.10195758931E+01 0.  0.
     999903    2    3    3    0    0  0.11098042307E+00 -0.41097142389E-01 -0.53363578684E-01  0.13137733828E+00  0.20166905188E-01 0.  0.
         14    1    1    2    0    0  0.34221645876E-02  0.12420418550E-01  0.20331948059E-01  0.24070025328E-01  0.00000000000E+00 0.  1.
     999901    1    3    3    0    0 -0.11440258766E+00  0.28676723838E-01  0.33031630626E-01  0.88848263639E+00  0.88000000000E+00 0. -1.
        -11    1    4    4    0    0  0.62008023560E-01 -0.24190609621E-01 -0.40778203564E-01  0.78059615594E-01  0.51100000000E-03 0.  1.
         11    1    4    4    0    0  0.48972399513E-01 -0.16906532767E-01 -0.12585375120E-01  0.53317722683E-01  0.51100000000E-03 0. -1.
</event>
<event>
 8    1  0.1145101E+005  0.1043930E+01  0.7957747E-01            NaN
         13   -1    0    0    0    0  0.00000000000E+00  0.00000000000E+00  0.74505805969E-08  0.10566000000E+00  0.10566000000E+00 0. -1.
     999900   -1    0    0    0    0 -0.00000000000E+00 -0.00000000000E+00 -0.74505805969E-08  0.93827000000E+00  0.93827000000E+00 0. -1.
     999902    2    1    2    0    0  0.17358765701E-01 -0.13627111844E-01  0.89782680113E-02  0.10201049245E+01  0.10198266631E+01 0.  0.
     999903    2    3    3    0    0  0.97836737878E-01 -0.52995730552E-01  0.70817174423E-01  0.13339716971E+00  0.19978937849E-01 0.  0.
         14    1    1    2    0    0 -0.17358765701E-01  0.13627111844E-01 -0.89782680113E-02  0.23825075453E-01  0.00000000000E+00 0.  1.
     999901    1    3    3    0    0 -0.80477972177E-01  0.39368618708E-01 -0.61838906412E-01  0.88670775484E+00  0.88000000000E+00 0. -1.
        -11    1    4    4    0    0  0.64816237862E-01 -0.24696739433E-01  0.47290259396E-01  0.83950600855E-01  0.51100000000E-03 0. -1.
         11    1    4    4    0    0  0.33020500016E-01 -0.28298991119E-01  0.23526915027E-01  0.49446568853E-01  0.51100000000E-03 0.  1.
</event>
<event>
 8    1  0.1145101E+005  0.1043930E+01  0.7957747E-01            NaN
         13   -1    0    0    0    0  0.00000000000E+00  0.00000000000E+00  0.74505805969E-08  0.10566000000E+00  0.10566000000E+00 0.  1.
     999900   -1    0    0    0    0 -0.00000000000E+00 -0.00000000000E+00 -0.74505805969E-08  0.93827000000E+00  0.93827000000E+00 0. -1.
     999902    2    1    2    0    0 -0.15399554303E-01 -0.79170580186E-02  0.14998730674E-01  0.10210217482E+01  0.10207647242E+01 0.  0.
     999903    2    3    3    0    0 -0.12143262925E+00 -0.48672618627E-01  0.24054664946E-01  0.13367399297E+00  0.13236398258E-01 0.  0.
         14    1    1    2    0    0  0.15399554303E-01  0.79170580186E-02 -0.14998730674E-01  0.22908251837E-01  0.00000000000E+00 0. -1.
     999901    1    3    3    0    0  0.10603307495E+00  0.40755560609E-01 -0.90559342720E-02  0.88734775519E+00  0.88000000000E+00 0. -1.
        -11    1    4    4    0    0 -0.49933984219E-01 -0.17659699062E-01  0.15952402099E-01  0.55317339096E-01  0.51100000000E-03 0. -1.
         11    1    4    4    0    0 -0.71498645034E-01 -0.31012919565E-01  0.81022628469E-02  0.78356653871E-01  0.51100000000E-03 0.  1.
</event>
<event>
 8    1  0.1145101E+005  0.1043930E+01  0.7957747E-01            NaN
         13   -1    0    0    0    0  0.00000000000E+00  0.00000000000E+00  0.74505805969E-08  0.10566000000E+00  0.10566000000E+00 0.  1.
     999900   -1    0    0    0    0 -0.00000000000E+00 -0.00000000000E+00 -0.74505805969E-08  0.93827000000E+00  0.93827000000E+00 0. -1.
     999902    2    1    2    0    0  0.38152377777E-02  0.20669225179E-01 -0.10877993217E-01  0.10202634911E+01  0.10199889644E+01 0.  0.
     999903    2    3    3    0    0 -0.42941714751E-01 -0.11775639767E+00  0.14163935192E-01  0.12786505771E+00  0.20935516859E-01 0.  0.
         14    1    1    2    0    0 -0.38152377777E-02 -0.20669225179E-01  0.10877993217E-01  0.23666508936E-01  0.00000000000E+00 0. -1.
     999901    1    3    3    0    0  0.46756952529E-01  0.13842562285E+00 -0.25041928409E-01  0.89239843335E+00  0.88000000000E+00 0.  1.
        -11    1    4    4    0    0 -0.20754446017E-01 -0.31307033059E-01  0.47021058866E-03  0.37568065793E-01  0.51100000000E-03 0.  1.
         11    1    4    4    0    0 -0.22187268734E-01 -0.86449364609E-01  0.13693724603E-01  0.90296991920E-01  0.51100000000E-03 0. -1.
</event>
<event>
 8    1  0.1145101E+005  0.1043930E+01  0.7957747E-01            NaN
         13   -1    0    0    0    0  0.00000000000E+00  0.00000000000E+00  0.74505805969E-08  0.10566000000E+00  0.10566000000E+00 0.  1.
     999900   -1    0    0    0    0 -0.00000000000E+00 -0.00000000000E+00 -0.74505805969E-08  0.93827000000E+00  0.93827000000E+00 0.  1.
     999902    2    1    2    0    0  0.21316720117E-02  0.18491637496E-01  0.18070952265E-01  0.10179869085E+01  0.10176562788E+01 0.  0.
     999903    2    3    3    0    0  0.20392266795E-01  0.35784450283E-01 -0.11830562182E+00  0.12712717727E+00  0.21650118223E-01 0.  0.
         14    1    1    2    0    0 -0.21316720117E-02 -0.18491637496E-01 -0.18070952265E-01  0.25943091539E-01  0.00000000000E+00 0. -1.
     999901    1    3    3    0    0 -0.18260594784E-01 -0.17292812786E-01  0.13637657409E+00  0.89085973119E+00  0.88000000000E+00 0. -1.
        -11    1    4    4    0    0  0.39943348254E-02  0.24642993663E-01 -0.82505474232E-01  0.86201196318E-01  0.51100000000E-03 0. -1.
         11    1    4    4    0    0  0.16397931970E-01  0.11141456620E-01 -0.35800147590E-01  0.40925980954E-01  0.51100000000E-03 0.  1.
</event>
<event>
 8    1  0.1145101E+005  0.1043930E+01  0.7957747E-01            NaN
         13   -1    0    0    0    0  0.00000000000E+00  0.00000000000E+00  0.74505805969E-08  0.10566000000E+00  0.10566000000E+00 0.  1.
     999900   -1    0    0    0    0 -0.00000000000E+00 -0.00000000000E+00 -0.74505805969E-08  0.93827000000E+00  0.93827000000E+00 0.  1.
     999902    2    1    2    0    0 -0.57845893776E-02 -0.17206886979E-01  0.15622651189E-01  0.10199799339E+01  0.10196987104E+01 0.  0.
     999903    2    3    3    0    0  0.50025825834E-01  0.11273152860E+00  0.30444509928E-01  0.12856617940E+00  0.19784173219E-01 0.  0.
         14    1    1    2    0    0  0.57845893776E-02  0.17206886979E-01 -0.15622651189E-01  0.23950066053E-01  0.00000000000E+00 0. -1.
     999901    1    3    3    0    0 -0.55810415212E-01 -0.12993841558E+00 -0.14821858739E-01  0.89141375454E+00  0.88000000000E+00 0.  1.
        -11    1    4    4    0    0 -0.42225245329E-03  0.80017229419E-02  0.53270275025E-02  0.96355700498E-02  0.51100000000E-03 0.  1.
         11    1    4    4    0    0  0.50448078287E-01  0.10472980566E+00  0.25117482426E-01  0.11893060935E+00  0.51100000000E-03 0. -1.
</event>
<event>
 8    1  0.1145101E+005  0.1043930E+01  0.7957747E-01            NaN
         13   -1    0    0    0    0  0.00000000000E+00  0.00000000000E+00  0.74505805969E-08  0.10566000000E+00  0.10566000000E+00 0. -1.
     999900   -1    0    0    0    0 -0.00000000000E+00 -0.00000000000E+00 -0.74505805969E-08  0.93827000000E+00  0.93827000000E+00 0.  1.
     999902    2    1    2    0    0  0.20964934376E-02 -0.19938396370E-01  0.13296597209E-01  0.10198731001E+01  0.10195893320E+01 0.  0.
     999903    2    3    3    0    0 -0.87839053732E-01 -0.83911752576E-01 -0.44951743926E-01  0.13106836217E+00  0.20034338022E-01 0.  0.
         14    1    1    2    0    0 -0.20964934376E-02  0.19938396370E-01 -0.13296597209E-01  0.24056899881E-01  0.00000000000E+00 0.  1.
     999901    1    3    3    0    0  0.89935547170E-01  0.63973356206E-01  0.58248341135E-01  0.88880473795E+00  0.88000000000E+00 0. -1.
        -11    1    4    4    0    0 -0.36688569655E-01 -0.25331100412E-01 -0.23461986421E-01  0.50382950680E-01  0.51100000000E-03 0.  1.
         11    1    4    4    0    0 -0.51150484077E-01 -0.58580652164E-01 -0.21489757505E-01  0.80685411494E-01  0.51100000000E-03 0. -1.
</event>
<event>
 8    1  0.1145101E+005  0.1043930E+01  0.7957747E-01            NaN
         13   -1    0    0    0    0  0.00000000000E+00  0.00000000000E+00  0.74505805969E-08  0.10566000000E+00  0.10566000000E+00 0.  1.
     999900   -1    0    0    0    0 -0.00000000000E+00 -0.00000000000E+00 -0.74505805969E-08  0.93827000000E+00  0.93827000000E+00 0.  1.
     999902    2    1    2    0    0 -0.47870390119E-02 -0.37827590418E-02 -0.22096324551E-01  0.10210068116E+01  0.10207494486E+01 0.  0.
     999903    2    3    3    0    0 -0.11507701601E-01  0.65397695231E-01 -0.11423843449E+00  0.13347018080E+00  0.18830387979E-01 0.  0.
         14    1    1    2    0    0  0.47870390119E-02  0.37827590418E-02  0.22096324551E-01  0.22923188415E-01  0.00000000000E+00 0.  1.
     999901    1    3    3    0    0  0.67206625890E-02 -0.69180454273E-01  0.92142109936E-01  0.88753663078E+00  0.88000000000E+00 0. -1.
        -11    1    4    4    0    0 -0.14127941121E-01  0.30194733141E-01 -0.48546228614E-01  0.58892427895E-01  0.51100000000E-03 0. -1.
         11    1    4    4    0    0  0.26202395199E-02  0.35202962090E-01 -0.65692205873E-01  0.74577752906E-01  0.51100000000E-03 0.  1.
</event>
<event>
 8    1  0.1145101E+005  0.1043930E+01  0.7957747E-01            NaN
         13   -1    0    0    0    0  0.00000000000E+00  0.00000000000E+00  0.74505805969E-08  0.10566000000E+00  0.10566000000E+00 0.  1.
     999900   -1    0    0    0    0 -0.00000000000E+00 -0.00000000000E+00 -0.74505805969E-08  0.93827000000E+00  0.93827000000E+00 0.  1.
     999902    2    1    2    0    0 -0.43371016791E-02  0.51680104942E-02  0.22158210326E-01  0.10207674209E+01  0.10205045922E+01 0.  0.
     999903    2    3    3    0    0 -0.60886157689E-01 -0.53519622721E-01 -0.98021985341E-01  0.12886758719E+00  0.20665701147E-01 0.  0.
         14    1    1    2    0    0  0.43371016791E-02 -0.51680104942E-02 -0.22158210326E-01  0.23162579051E-01  0.00000000000E+00 0. -1.
     999901    1    3    3    0    0  0.56549056010E-01  0.58687633216E-01  0.12018019567E+00  0.89189983376E+00  0.88000000000E+00 0. -1.
        -11    1    4    4    0    0 -0.16578729472E-01 -0.16746097574E-01 -0.43979813071E-01  0.49897606492E-01  0.51100000000E-03 0.  1.
         11    1    4    4    0    0 -0.44307428217E-01 -0.36773525148E-01 -0.54042172269E-01  0.78969980699E-01  0.51100000000E-03 0. -1.
</event>
<event>
 8    1  0.1145101E+005  0.1043930E+01  0.7957747E-01            NaN
         13   -1    0    0    0    0  0.00000000000E+00  0.00000000000E+00  0.74505805969E-08  0.10566000000E+00  0.10566000000E+00 0.  1.
     999900   -1    0    0    0    0 -0.00000000000E+00 -0.00000000000E+00 -0.74505805969E-08  0.93827000000E+00  0.93827000000E+00 0.  1.
     999902    2    1    2    0    0 -0.11603105967E-01  0.11740038411E-01  0.17028063657E-01  0.10202146986E+01  0.10199390255E+01 0.  0.
     999903    2    3    3    0    0 -0.59453582487E-01 -0.38416028615E-01 -0.10580516686E+00  0.12898335841E+00  0.20771463312E-01 0.  0.
         14    1    1    2    0    0  0.11603105967E-01 -0.11740038411E-01 -0.17028063657E-01  0.23715301429E-01  0.00000000000E+00 0. -1.
     999901    1    3    3    0    0  0.47850476520E-01  0.50156067025E-01  0.12283323052E+00  0.89123134016E+00  0.88000000000E+00 0. -1.
        -11    1    4    4    0    0 -0.34934722082E-01 -0.32975279684E-01 -0.61358151249E-01  0.77928734898E-01  0.51100000000E-03 0.  1.
         11    1    4    4    0    0 -0.24518860405E-01 -0.54407489309E-02 -0.44447015610E-01  0.51054623514E-01  0.51100000000E-03 0. -1.
</event>
<event>
 8    1  0.1145101E+005  0.1043930E+01  0.7957747E-01            NaN
         13   -1    0    0    0    0  0.00000000000E+00  0.00000000000E+00  0.74505805969E-08  0.10566000000E+00  0.10566000000E+00 0. -1.
     999900   -1    0    0    0    0 -0.00000000000E+00 -0.00000000000E+00 -0.74505805969E-08  0.93827000000E+00  0.93827000000E+00 0.  1.
     999902    2    1    2    0    0 -0.19683464967E-01  0.82685831525E-02  0.10947680137E-01  0.10199370852E+01  0.10196548425E+01 0.  0.
     999903    2    3    3    0    0 -0.33846551155E-02 -0.47594074003E-01 -0.11783219782E+00  0.12866241113E+00  0.19822649255E-01 0.  0.
         14    1    1    2    0    0  0.19683464967E-01 -0.82685831525E-02 -0.10947680137E-01  0.23992914805E-01  0.00000000000E+00 0.  1.
     999901    1    3    3    0    0 -0.16298809852E-01  0.55862657156E-01  0.12877987796E+00  0.89127467407E+00  0.88000000000E+00 0. -1.
        -11    1    4    4    0    0  0.80008098881E-02 -0.24891974061E-01 -0.64050284526E-01  0.69183259539E-01  0.51100000000E-03 0. -1.
         11    1    4    4    0    0 -0.11385465004E-01 -0.22702099942E-01 -0.53781913294E-01  0.59479151589E-01  0.51100000000E-03 0.  1.
</event>
<event>
 8    1  0.1145101E+005  0.1043930E+01  0.7957747E-01            NaN
         13   -1    0    0    0    0  0.00000000000E+00  0.00000000000E+00  0.74505805969E-08  0.10566000000E+00  0.10566000000E+00 0.  1.
     999900   -1    0    0    0    0 -0.00000000000E+00 -0.00000000000E+00 -0.74505805969E-08  0.93827000000E+00  0.93827000000E+00 0. -1.
     999902    2    1    2    0    0  0.49110030964E-02 -0.19827374389E-01 -0.10304935997E-01  0.10210513105E+01  0.10207949570E+01 0.  0.
     999903    2    3    3    0    0  0.13749863566E-01  0.68326276882E-01  0.10642341030E+00  0.12893321378E+00  0.20983147889E-01 0.  0.
         14    1    1    2    0    0 -0.49110030964E-02  0.19827374389E-01  0.10304935997E-01  0.22878689484E-01  0.00000000000E+00 0.  1.
     999901    1    3    3    0    0 -0.88388604700E-02 -0.88153651272E-01 -0.11672834630E+00  0.89211809673E+00  0.88000000000E+00 0. -1.
        -11    1    4    4    0    0  0.10420007415E-01  0.62055913336E-01  0.81224152481E-01  0.10274792943E+00  0.51100000000E-03 0. -1.
         11    1    4    4    0    0  0.33298561516E-02  0.62703635460E-02  0.25199257822E-01  0.26185284355E-01  0.51100000000E-03 0.  1.
</event>
<event>
 8    1  0.1145101E+005  0.1043930E+01  0.7957747E-01            NaN
         13   -1    0    0    0    0  0.00000000000E+00  0.00000000000E+00  0.74505805969E-08  0.10566000000E+00  0.10566000000E+00 0. -1.
     999900   -1    0    0    0    0 -0.00000000000E+00 -0.00000000000E+00 -0.74505805969E-08  0.93827000000E+00  0.93827000000E+00 0.  1.
     999902    2    1    2    0    0  0.14030424947E-01  0.16959970717E-01  0.83209625672E-02  0.10203984924E+01  0.10201271252E+01 0.  0.
     999903    2    3    3    0    0 -0.14167237747E-01  0.10436369583E+00  0.78491818280E-01  0.13284090649E+00  0.19830513596E-01 0.  0.
         14    1    1    2    0    0 -0.14030424947E-01 -0.16959970717E-01 -0.83209625672E-02  0.23531507579E-01  0.00000000000E+00 0. -1.
     999901    1    3    3    0    0  0.28197662694E-01 -0.87403725108E-01 -0.70170855713E-01  0.88755758593E+00  0.88000000000E+00 0.  1.
        -11    1    4    4    0    0 -0.18014187440E-01  0.90783799726E-01  0.63499500698E-01  0.11224373903E+00  0.51100000000E-03 0. -1.
         11    1    4    4    0    0  0.38469496922E-02  0.13579896100E-01  0.14992317583E-01  0.20597167463E-01  0.51100000000E-03 0.  1.
</event>
<event>
 8    1  0.1145101E+005  0.1043930E+01  0.7957747E-01            NaN
         13   -1    0    0    0    0  0.00000000000E+00  0.00000000000E+00  0.74505805969E-08  0.10566000000E+00  0.10566000000E+00 0.  1.
     999900   -1    0    0    0    0 -0.00000000000E+00 -0.00000000000E+00 -0.74505805969E-08  0.93827000000E+00  0.93827000000E+00 0. -1.
     999902    2    1    2    0    0 -0.12897305491E-02 -0.93745967906E-03 -0.22663459813E-01  0.10212105228E+01  0.10209577646E+01 0.  0.
     999903    2    3    3    0    0 -0.11685993169E+00  0.22370006081E-01 -0.55704794774E-01  0.13273348919E+00  0.18933942685E-01 0.  0.
         14    1    1    2    0    0  0.12897305491E-02  0.93745967906E-03  0.22663459813E-01  0.22719477244E-01  0.00000000000E+00 0.  1.
     999901    1    3    3    0    0  0.11557020114E+00 -0.23307465760E-01  0.33041334961E-01  0.88847703356E+00  0.88000000000E+00 0.  1.
        -11    1    4    4    0    0 -0.61461965817E-01  0.34398061353E-02 -0.23328343108E-01  0.65832197453E-01  0.51100000000E-03 0.  1.
         11    1    4    4    0    0 -0.55397965875E-01  0.18930199945E-01 -0.32376451667E-01  0.66901291741E-01  0.51100000000E-03 0. -1.
</event>
<event>
 8    1  0.1145101E+005  0.1043930E+01  0.7957747E-01            NaN
         13   -1    0    0    0    0  0.00000000000E+00  0.00000000000E+00  0.74505805969E-08  0.10566000000E+00  0.10566000000E+00 0.  1.
     999900   -1    0    0    0    0 -0.00000000000E+00 -0.00000000000E+00 -0.74505805969E-08  0.93827000000E+00  0.93827000000E+00 0. -1.
     999902    2    1    2    0    0 -0.44636570465E-02  0.31564963851E-02  0.23107265000E-01  0.10201848237E+01  0.10199084474E+01 0.  0.
     999903    2    3    3    0    0 -0.38987390999E-02  0.12577039794E+00  0.32783706963E-01  0.13163087397E+00  0.20457819379E-01 0.  0.
         14    1    1    2    0    0  0.44636570465E-02 -0.31564963851E-02 -0.23107265000E-01  0.23745176341E-01  0.00000000000E+00 0. -1.
     999901    1    3    3    0    0 -0.56491794664E-03 -0.12261390156E+00 -0.96764419627E-02  0.88855394969E+00  0.88000000000E+00 0.  1.
        -11    1    4    4    0    0  0.54138649274E-02  0.10484406467E-01  0.35082808631E-02  0.12320790074E-01  0.51100000000E-03 0.  1.
         11    1    4    4    0    0 -0.93126040273E-02  0.11528599147E+00  0.29275426100E-01  0.11931008389E+00  0.51100000000E-03 0. -1.
</event>
<event>
 8    1  0.1145101E+005  0.1043930E+01  0.7957747E-01            NaN
         13   -1    0    0    0    0  0.00000000000E+00  0.00000000000E+00  0.74505805969E-08  0.10566000000E+00  0.10566000000E+00 0.  1.
     999900   -1    0    0    0    0 -0.00000000000E+00 -0.00000000000E+00 -0.74505805969E-08  0.93827000000E+00  0.93827000000E+00 0. -1.
     999902    2    1    2    0    0 -0.68857492974E-02  0.20024178833E-01  0.97950046368E-02  0.10205992607E+01  0.10203325573E+01 0.  0.
     999903    2    3    3    0    0 -0.31505220420E-01  0.60953212444E-01  0.11267639117E+00  0.13331921253E+00  0.19239809812E-01 0.  0.
         14    1    1    2    0    0  0.68857492974E-02 -0.20024178833E-01 -0.97950046368E-02  0.23330739318E-01  0.00000000000E+00 0. -1.
     999901    1    3    3    0    0  0.24619471123E-01 -0.40929033612E-01 -0.10288138653E+00  0.88728004815E+00  0.88000000000E+00 0. -1.
        -11    1    4    4    0    0 -0.13144654880E-01  0.18421479355E-01  0.54040074467E-01  0.58589449758E-01  0.51100000000E-03 0.  1.
         11    1    4    4    0    0 -0.18360565540E-01  0.42531733089E-01  0.58636316704E-01  0.74729762773E-01  0.51100000000E-03 0. -1.
</event>
<event>
 8    1  0.1145101E+005  0.1043930E+01  0.7957747E-01            NaN
         13   -1    0    0    0    0  0.00000000000E+00  0.00000000000E+00  0.74505805969E-08  0.10566000000E+00  0.10566000000E+00 0.  1.
     999900   -1    0    0    0    0 -0.00000000000E+00 -0.00000000000E+00 -0.74505805969E-08  0.93827000000E+00  0.93827000000E+00 0. -1.
     999902    2    1    2    0    0 -0.14687841982E-01 -0.12911412105E-02  0.20550259414E-01  0.10186374535E+01  0.10183234008E+01 0.  0.
     999903    2    3    3    0    0 -0.72594073243E-01 -0.76057292756E-01 -0.71677476117E-01  0.12877843979E+00  0.19789257712E-01 0.  0.
         14    1    1    2    0    0  0.14687841982E-01  0.12911412105E-02 -0.20550259414E-01  0.25292546525E-01  0.00000000000E+00 0. -1.
     999901    1    3    3    0    0  0.57906231261E-01  0.74766151546E-01  0.92227735531E-01  0.88985901369E+00  0.88000000000E+00 0.  1.
        -11    1    4    4    0    0 -0.54171845400E-01 -0.56074686955E-01 -0.42110566104E-01  0.88614447184E-01  0.51100000000E-03 0. -1.
         11    1    4    4    0    0 -0.18422227843E-01 -0.19982605801E-01 -0.29566910013E-01  0.40163992606E-01  0.51100000000E-03 0.  1.
</event>
<event>
 8    1  0.1145101E+005  0.1043930E+01  0.7957747E-01            NaN
         13   -1    0    0    0    0  0.00000000000E+00  0.00000000000E+00  0.74505805969E-08  0.10566000000E+00  0.10566000000E+00 0. -1.
     999900   -1    0    0    0    0 -0.00000000000E+00 -0.00000000000E+00 -0.74505805969E-08  0.93827000000E+00  0.93827000000E+00 0. -1.
     999902    2    1    2    0    0 -0.68429830989E-02  0.10120213875E-01  0.19522629634E-01  0.10209000583E+01  0.10206402651E+01 0.  0.
     999903    2    3    3    0    0  0.92022643708E-01  0.50460367202E-01 -0.73868268489E-01  0.12953952520E+00  0.17594086661E-01 0.  0.
         14    1    1    2    0    0  0.68429830989E-02 -0.10120213875E-01 -0.19522629634E-01  0.23029941693E-01  0.00000000000E+00 0. -1.
     999901    1    3    3    0    0 -0.98865626807E-01 -0.40340153326E-01  0.93390898123E-01  0.89136053311E+00  0.88000000000E+00 0. -1.
        -11    1    4    4    0    0  0.34317370878E-01  0.13222516346E-01 -0.17702632361E-01  0.40818637851E-01  0.51100000000E-03 0. -1.
         11    1    4    4    0    0  0.57705272830E-01  0.37237850856E-01 -0.56165636128E-01  0.88720887345E-01  0.51100000000E-03 0.  1.
</event>
<event>
 8    1  0.1145101E+005  0.1043930E+01  0.7957747E-01            NaN
         13   -1    0    0    0    0  0.00000000000E+00  0.00000000000E+00  0.74505805969E-08  0.10566000000E+00  0.10566000000E+00 0.  1.
     999900   -1    0    0    0    0 -0.00000000000E+00 -0.00000000000E+00 -0.74505805969E-08  0.93827000000E+00  0.93827000000E+00 0.  1.
     999902    2    1    2    0    0 -0.10428194343E-01 -0.14417554815E-01 -0.15544965828E-01  0.10203024930E+01  0.10200288810E+01 0.  0.
     999903    2    3    3    0    0  0.12751186368E+00  0.60079494733E-02  0.11355510467E-02  0.12916675673E+00  0.19682244030E-01 0.  0.
         14    1    1    2    0    0  0.10428194343E-01  0.14417554815E-01  0.15544965828E-01  0.23627506993E-01  0.00000000000E+00 0.  1.
     999901    1    3    3    0    0 -0.13794005803E+00 -0.20425504288E-01 -0.16680516875E-01  0.89113573628E+00  0.88000000000E+00 0. -1.
        -11    1    4    4    0    0  0.53019747151E-01  0.11845064503E-01  0.31140785894E-02  0.54418358552E-01  0.51100000000E-03 0. -1.
         11    1    4    4    0    0  0.74492116532E-01 -0.58371150295E-02 -0.19785275426E-02  0.74748398174E-01  0.51100000000E-03 0.  1.
</event>
<event>
 8    1  0.1145101E+005  0.1043930E+01  0.7957747E-01            NaN
         13   -1    0    0    0    0  0.00000000000E+00  0.00000000000E+00  0.74505805969E-08  0.10566000000E+00  0.10566000000E+00 0. -1.
     999900   -1    0    0    0    0 -0.00000000000E+00 -0.00000000000E+00 -0.74505805969E-08  0.93827000000E+00  0.93827000000E+00 0. -1.
     999902    2    1    2    0    0  0.54427567627E-02 -0.16518933001E-01  0.63277496363E-02  0.10254221864E+01  0.10252551493E+01 0.  0.
     999903    2    3    3    0    0 -0.55166082242E-02  0.13147667447E+00 -0.42458769669E-02  0.13293431024E+00  0.18356319713E-01 0.  0.
         14    1    1    2    0    0 -0.54427567627E-02  0.16518933001E-01 -0.63277496363E-02  0.18507813597E-01  0.00000000000E+00 0. -1.
     999901    1    3    3    0    0  0.10959364987E-01 -0.14799560747E+00  0.10573626603E-01  0.89248787616E+00  0.88000000000E+00 0.  1.
        -11    1    4    4    0    0  0.44350353587E-02  0.11081575545E-01 -0.19540877569E-02  0.12105801715E-01  0.51100000000E-03 0.  1.
         11    1    4    4    0    0 -0.99516435829E-02  0.12039509892E+00 -0.22917892099E-02  0.12082850853E+00  0.51100000000E-03 0. -1.
</event>
<event>
 8    1  0.1145101E+005  0.1043930E+01  0.7957747E-01            NaN
         13   -1    0    0    0    0  0.00000000000E+00  0.00000000000E+00  0.74505805969E-08  0.10566000000E+00  0.10566000000E+00 0. -1.
     999900   -1    0    0    0    0 -0.00000000000E+00 -0.00000000000E+00 -0.74505805969E-08  0.93827000000E+00  0.93827000000E+00 0. -1.
     999902    2    1    2    0    0 -0.90333547835E-02 -0.87988063126E-02  0.23207893125E-01  0.10175173743E+01  0.10171745083E+01 0.  0.
     999903    2    3    3    0    0 -0.75502745369E-01 -0.87683618446E-03 -0.99460721428E-01  0.12649070443E+00  0.20150181119E-01 0.  0.
         14    1    1    2    0    0  0.90333547835E-02  0.87988063126E-02 -0.23207893125E-01  0.26412625664E-01  0.00000000000E+00 0.  1.
     999901    1    3    3    0    0  0.66469390586E-01 -0.79219701281E-02  0.12266861455E+00  0.89102666991E+00  0.88000000000E+00 0.  1.
        -11    1    4    4    0    0 -0.14696071341E-01  0.65104146411E-02 -0.13859723084E-01  0.21230003689E-01  0.51100000000E-03 0. -1.
         11    1    4    4    0    0 -0.60806674028E-01 -0.73872508256E-02 -0.85600998343E-01  0.10526070074E+00  0.51100000000E-03 0.  1.
</event>
<event>
 8    1  0.1145101E+005  0.1043930E+01  0.7957747E-01            NaN
         13   -1    0    0    0    0  0.00000000000E+00  0.00000000000E+00  0.74505805969E-08  0.10566000000E+00  0.10566000000E+00 0. -1.
     999900   -1    0    0    0    0 -0.00000000000E+00 -0.00000000000E+00 -0.74505805969E-08  0.93827000000E+00  0.93827000000E+00 0. -1.
     999902    2    1    2    0    0  0.20794878319E-01  0.83822035614E-02 -0.61610400996E-02  0.10206781890E+01  0.10204133078E+01 0.  0.
     999903    2    3    3    0    0 -0.46095033676E-01 -0.11710450768E+00  0.18476272227E-01  0.12892252054E+00  0.21010136106E-01 0.  0.
         14    1    1    2    0    0 -0.20794878319E-01 -0.83822035614E-02  0.61610400996E-02  0.23251811025E-01  0.00000000000E+00 0.  1.
     999901    1    3    3    0    0  0.66889911995E-01  0.12548671124E+00 -0.24637312327E-01  0.89175566843E+00  0.88000000000E+00 0.  1.
        -11    1    4    4    0    0 -0.53631457712E-02 -0.37217181407E-01  0.95978956996E-02  0.38810599678E-01  0.51100000000E-03 0.  1.
         11    1    4    4    0    0 -0.40731887905E-01 -0.79887326271E-01  0.88783765275E-02  0.90111920864E-01  0.51100000000E-03 0. -1.
</event>
<event>
 8    1  0.1145101E+005  0.1043930E+01  0.7957747E-01            NaN
         13   -1    0    0    0    0  0.00000000000E+00  0.00000000000E+00  0.74505805969E-08  0.10566000000E+00  0.10566000000E+00 0. -1.
     999900   -1    0    0    0    0 -0.00000000000E+00 -0.00000000000E+00 -0.74505805969E-08  0.93827000000E+00  0.93827000000E+00 0.  1.
     999902    2    1    2    0    0 -0.11397482845E-01 -0.16099455978E-01 -0.14757994802E-01  0.10192947913E+01  0.10189970452E+01 0.  0.
     999903    2    3    3    0    0  0.51770660421E-01 -0.11858803793E+00  0.76029698166E-03  0.13096211647E+00  0.20178550006E-01 0.  0.
         14    1    1    2    0    0  0.11397482845E-01  0.16099455978E-01  0.14757994802E-01  0.24635208718E-01  0.00000000000E+00 0. -1.
     999901    1    3    3    0    0 -0.63168143266E-01  0.10248858195E+00 -0.15518291784E-01  0.88833267481E+00  0.88000000000E+00 0. -1.
        -11    1    4    4    0    0  0.39907121783E-01 -0.83916103846E-01 -0.80425744624E-02  0.93270761650E-01  0.51100000000E-03 0. -1.
         11    1    4    4    0    0  0.11863538638E-01 -0.34671934079E-01  0.88028714441E-02  0.37691354823E-01  0.51100000000E-03 0.  1.
</event>
<event>
 8    1  0.1145101E+005  0.1043930E+01  0.7957747E-01            NaN
         13   -1    0    0    0    0  0.00000000000E+00  0.00000000000E+00  0.74505805969E-08  0.10566000000E+00  0.10566000000E+00 0. -1.
     999900   -1    0    0    0    0 -0.00000000000E+00 -0.00000000000E+00 -0.74505805969E-08  0.93827000000E+00  0.93827000000E+00 0.  1.
     999902    2    1    2    0    0  0.90091783018E-02 -0.50667838915E-02 -0.19225870991E-01  0.10221017681E+01  0.10218686572E+01 0.  0.
     999903    2    3    3    0    0 -0.12321564324E+00  0.37114953247E-01 -0.16046512141E-01  0.13121860477E+00  0.20030406712E-01 0.  0.
         14    1    1    2    0    0 -0.90091783018E-02  0.50667838915E-02  0.19225870991E-01  0.21828231904E-01  0.00000000000E+00 0. -1.
     999901    1    3    3    0    0  0.13222482154E+00 -0.42181737139E-01 -0.31793588497E-02  0.89088316333E+00  0.88000000000E+00 0.  1.
        -11    1    4    4    0    0 -0.60143270931E-01  0.22735282661E-01  0.10398018477E-02  0.64307452327E-01  0.51100000000E-03 0.  1.
         11    1    4    4    0    0 -0.63072372304E-01  0.14379670586E-01 -0.17086313989E-01  0.66911152441E-01  0.51100000000E-03 0. -1.
</event>
<event>
 8    1  0.1145101E+005  0.1043930E+01  0.7957747E-01            NaN
         13   -1    0    0    0    0  0.00000000000E+00  0.00000000000E+00  0.74505805969E-08  0.10566000000E+00  0.10566000000E+00 0.  1.
     999900   -1    0    0    0    0 -0.00000000000E+00 -0.00000000000E+00 -0.74505805969E-08  0.93827000000E+00  0.93827000000E+00 0.  1.
     999902    2    1    2    0    0 -0.15376589223E-01 -0.16671123108E-01 -0.94299741865E-02  0.10193680323E+01  0.10190720755E+01 0.  0.
     999903    2    3    3    0    0  0.32540050075E-01 -0.96797461396E-01  0.78108777897E-01  0.13011032643E+00  0.19977799400E-01 0.  0.
         14    1    1    2    0    0  0.15376589223E-01  0.16671123108E-01  0.94299741865E-02  0.24561967652E-01  0.00000000000E+00 0.  1.
     999901    1    3    3    0    0 -0.47916639298E-01  0.80126338289E-01 -0.87538752083E-01  0.88925770591E+00  0.88000000000E+00 0.  1.
        -11    1    4    4    0    0  0.25965975882E-01 -0.47575424442E-01  0.44702304703E-01  0.70258167362E-01  0.51100000000E-03 0.  1.
         11    1    4    4    0    0  0.65740741928E-02 -0.49222036955E-01  0.33406473194E-01  0.59852159073E-01  0.51100000000E-03 0. -1.
</event>
<event>
 8    1  0.1145101E+005  0.1043930E+01  0.7957747E-01            NaN
         13   -1    0    0    0    0  0.00000000000E+00  0.00000000000E+00  0.74505805969E-08  0.10566000000E+00  0.10566000000E+00 0. -1.
     999900   -1    0    0    0    0 -0.00000000000E+00 -0.00000000000E+00 -0.74505805969E-08  0.93827000000E+00  0.93827000000E+00 0. -1.
     999902    2    1    2    0    0  0.40781103640E-02 -0.20268368619E-01  0.64224188950E-02  0.10222808611E+01  0.10220516003E+01 0.  0.
     999903    2    3    3    0    0 -0.41970815877E-01 -0.12633540222E+00  0.47686228336E-02  0.13471483298E+00  0.20078924825E-01 0.  0.
         14    1    1    2    0    0 -0.40781103640E-02  0.20268368619E-01 -0.64224188950E-02  0.21649138899E-01  0.00000000000E+00 0.  1.
     999901    1    3    3    0    0  0.46048926241E-01  0.10606703360E+00  0.16537960614E-02  0.88756602812E+00  0.88000000000E+00 0.  1.
        -11    1    4    4    0    0 -0.32495801036E-01 -0.69552190657E-01 -0.16431808662E-02  0.76788316002E-01  0.51100000000E-03 0.  1.
         11    1    4    4    0    0 -0.94750148411E-02 -0.56783211566E-01  0.64118036998E-02  0.57926516982E-01  0.51100000000E-03 0. -1.
</event>
<event>
 8    1  0.1145101E+005  0.1043930E+01  0.7957747E-01            NaN
         13   -1    0    0    0    0  0.00000000000E+00  0.00000000000E+00  0.74505805969E-08  0.10566000000E+00  0.10566000000E+00 0.  1.
     999900   -1    0    0    0    0 -0.00000000000E+00 -0.00000000000E+00 -0.74505805969E-08  0.93827000000E+00  0.93827000000E+00 0.  1.
     999902    2    1    2    0    0  0.14371452238E-01 -0.66710704240E-02  0.17829384973E-01  0.10200777718E+01  0.10197988683E+01 0.  0.
     999903    2    3    3    0    0  0.10828193588E+00  0.11062515445E-01 -0.69313877828E-01  0.13062422765E+00  0.20271119933E-01 0.  0.
         14    1    1    2    0    0 -0.14371452238E-01  0.66710704240E-02 -0.17829384973E-01  0.23852228168E-01  0.00000000000E+00 0. -1.
     999901    1    3    3    0    0 -0.93910483644E-01 -0.17733585869E-01  0.87143262801E-01  0.88945354418E+00  0.88000000000E+00 0.  1.
        -11    1    4    4    0    0  0.89164540924E-02  0.61592243884E-02 -0.37648917996E-02  0.11483672318E-01  0.51100000000E-03 0. -1.
         11    1    4    4    0    0  0.99365481790E-01  0.49032910570E-02 -0.65548986028E-01  0.11914055533E+00  0.51100000000E-03 0.  1.
</event>
<event>
 8    1  0.1145101E+005  0.1043930E+01  0.7957747E-01            NaN
         13   -1    0    0    0    0  0.00000000000E+00  0.00000000000E+00  0.74505805969E-08  0.10566000000E+00  0.10566000000E+00 0. -1.
     999900   -1    0    0    0    0 -0.00000000000E+00 -0.00000000000E+00 -0.74505805969E-08  0.93827000000E+00  0.93827000000E+00 0.  1.
     999902    2    1    2    0    0 -0.25792951007E-02  0.24146670273E-01  0.24597692270E-03  0.10196447174E+01  0.10193554702E+01 0.  0.
     999903    2    3    3    0    0 -0.60830231256E-01 -0.97110943045E-01  0.52825391356E-01  0.12787054461E+00  0.20724427942E-01 0.  0.
         14    1    1    2    0    0  0.25792951007E-02 -0.24146670273E-01 -0.24597692270E-03  0.24285282645E-01  0.00000000000E+00 0.  1.
     999901    1    3    3    0    0  0.58250936155E-01  0.12125761332E+00 -0.52579414434E-01  0.89177417274E+00  0.88000000000E+00 0.  1.
        -11    1    4    4    0    0 -0.27398872293E-01 -0.48607422538E-01  0.14716918362E-01  0.57708132319E-01  0.51100000000E-03 0. -1.
         11    1    4    4    0    0 -0.33431358963E-01 -0.48503520507E-01  0.38108472994E-01  0.70162412292E-01  0.51100000000E-03 0.  1.
</event>
<event>
 8    1  0.1145101E+005  0.1043930E+01  0.7957747E-01            NaN
         13   -1    0    0    0    0  0.00000000000E+00  0.00000000000E+00  0.74505805969E-08  0.10566000000E+00  0.10566000000E+00 0.  1.
     999900   -1    0    0    0    0 -0.00000000000E+00 -0.00000000000E+00 -0.74505805969E-08  0.93827000000E+00  0.93827000000E+00 0. -1.
     999902    2    1    2    0    0  0.11140015206E-01 -0.26488816990E-02 -0.21078722705E-01  0.10199418975E+01  0.10196597693E+01 0.  0.
     999903    2    3    3    0    0 -0.94169879850E-01  0.55036178071E-01 -0.68741289112E-01  0.13050979754E+00  0.20260682548E-01 0.  0.
         14    1    1    2    0    0 -0.11140015206E-01  0.26488816990E-02  0.21078722705E-01  0.23988102549E-01  0.00000000000E+00 0.  1.
     999901    1    3    3    0    0  0.10530989506E+00 -0.57685059770E-01  0.47662566407E-01  0.88943209991E+00  0.88000000000E+00 0.  1.
        -11    1    4    4    0    0 -0.49986851936E-01  0.26114595057E-01 -0.23993620081E-01  0.61291209542E-01  0.51100000000E-03 0. -1.
         11    1    4    4    0    0 -0.44183027914E-01  0.28921583013E-01 -0.44747669031E-01  0.69218587997E-01  0.51100000000E-03 0.  1.
</event>
<event>
 8    1  0.1145101E+005  0.1043930E+01  0.7957747E-01            NaN
         13   -1    0    0    0    0  0.00000000000E+00  0.00000000000E+00  0.74505805969E-08  0.10566000000E+00  0.10566000000E+00 0. -1.
     999900   -1    0    0    0    0 -0.00000000000E+00 -0.00000000000E+00 -0.74505805969E-08  0.93827000000E+00  0.93827000000E+00 0.  1.
     999902    2    1    2    0    0 -0.13354640262E-01  0.50806147466E-02 -0.17271808404E-01  0.10215140586E+01  0.10212680831E+01 0.  0.
     999903    2    3    3    0    0  0.50522357176E-01  0.11968676268E+00  0.43788711647E-02  0.13152327671E+00  0.20044152996E-01 0.  0.
         14    1    1    2    0    0  0.13354640262E-01 -0.50806147466E-02  0.17271808404E-01  0.22415941388E-01  0.00000000000E+00 0. -1.
     999901    1    3    3    0    0 -0.63876997439E-01 -0.11460614793E+00 -0.21650679569E-01  0.88999078190E+00  0.88000000000E+00 0. -1.
        -11    1    4    4    0    0  0.42979368572E-02  0.31278938686E-01 -0.12360975887E-02  0.31601160181E-01  0.51100000000E-03 0. -1.
         11    1    4    4    0    0  0.46224420319E-01  0.88407823990E-01  0.56149687534E-02  0.99922116529E-01  0.51100000000E-03 0.  1.
</event>
<event>
 8    1  0.1145101E+005  0.1043930E+01  0.7957747E-01            NaN
         13   -1    0    0    0    0  0.00000000000E+00  0.00000000000E+00  0.74505805969E-08  0.10566000000E+00  0.10566000000E+00 0. -1.
     999900   -1    0    0    0    0 -0.00000000000E+00 -0.00000000000E+00 -0.74505805969E-08  0.93827000000E+00  0.93827000000E+00 0. -1.
     999902    2    1    2    0    0 -0.62408130155E-02 -0.21159177321E-01 -0.77194441067E-02  0.10205580435E+01  0.10202903860E+01 0.  0.
     999903    2    3    3    0    0 -0.11726662995E+00 -0.22832581419E-01  0.51550390549E-01  0.13160222595E+00  0.19720898461E-01 0.  0.
         14    1    1    2    0    0  0.62408130155E-02  0.21159177321E-01  0.77194441067E-02  0.23371956471E-01  0.00000000000E+00 0. -1.
     999901    1    3    3    0    0  0.11102581693E+00  0.16734040986E-02 -0.59269834656E-01  0.88895581758E+00  0.88000000000E+00 0. -1.
        -11    1    4    4    0    0 -0.96252920519E-01 -0.20653525963E-01  0.49994587362E-01  0.11041246637E+00  0.51100000000E-03 0. -1.
         11    1    4    4    0    0 -0.21013709427E-01 -0.21790554558E-02  0.15558031874E-02  0.21189759581E-01  0.51100000000E-03 0.  1.
</event>
<event>
 8    1  0.1145101E+005  0.1043930E+01  0.7957747E-01            NaN
         13   -1    0    0    0    0  0.00000000000E+00  0.00000000000E+00  0.74505805969E-08  0.10566000000E+00  0.10566000000E+00 0. -1.
     999900   -1    0    0    0    0 -0.00000000000E+00 -0.00000000000E+00 -0.74505805969E-08  0.93827000000E+00  0.93827000000E+00 0.  1.
     999902    2    1    2    0    0 -0.20392969910E-01 -0.10503365499E-01  0.53807025440E-02  0.10203684663E+01  0.10200963980E+01 0.  0.
     999903    2    3    3    0    0 -0.24804547069E-01 -0.12617782789E+00  0.25546961469E-01  0.13255839585E+00  0.19569651638E-01 0.  0.
         14    1    1    2    0    0  0.20392969910E-01  0.10503365499E-01 -0.53807025440E-02  0.23561533660E-01  0.00000000000E+00 0. -1.
     999901    1    3    3    0    0  0.44115771594E-02  0.11567446239E+00 -0.20166258925E-01  0.88781007049E+00  0.88000000000E+00 0.  1.
        -11    1    4    4    0    0 -0.54521646079E-02 -0.43236453066E-01 -0.19597753423E-03  0.43582295727E-01  0.51100000000E-03 0. -1.
         11    1    4    4    0    0 -0.19352382461E-01 -0.82941374820E-01  0.25742939003E-01  0.88976100125E-01  0.51100000000E-03 0.  1.
</event>
<event>
 8    1  0.1145101E+005  0.1043930E+01  0.7957747E-01            NaN
         13   -1    0    0    0    0  0.00000000000E+00  0.00000000000E+00  0.74505805969E-08  0.10566000000E+00  0.10566000000E+00 0.  1.
     999900   -1    0    0    0    0 -0.00000000000E+00 -0.00000000000E+00 -0.74505805969E-08  0.93827000000E+00  0.93827000000E+00 0. -1.
     999902    2    1    2    0    0 -0.37601231171E-02  0.22651242042E-01  0.83197501590E-02  0.10195079703E+01  0.10192154169E+01 0.  0.
     999903    2    3    3    0    0 -0.27817404424E-01  0.89175455283E-01  0.92023106395E-01  0.13271009278E+00  0.20436408718E-01 0.  0.
         14    1    1    2    0    0  0.37601231171E-02 -0.22651242042E-01 -0.83197501590E-02  0.24422029699E-01  0.00000000000E+00 0. -1.
     999901    1    3    3    0    0  0.24057281307E-01 -0.66524213241E-01 -0.83703356236E-01  0.88679787752E+00  0.88000000000E+00 0. -1.
        -11    1    4    4    0    0 -0.11276703622E-01  0.16898982155E-01  0.28918322477E-01  0.35345015749E-01  0.51100000000E-03 0.  1.
         11    1    4    4    0    0 -0.16540700802E-01  0.72276473128E-01  0.63104783918E-01  0.97365077031E-01  0.51100000000E-03 0. -1.
</event>
<event>
 8    1  0.1145101E+005  0.1043930E+01  0.7957747E-01            NaN
         13   -1    0    0    0    0  0.00000000000E+00  0.00000000000E+00  0.74505805969E-08  0.10566000000E+00  0.10566000000E+00 0. -1.
     999900   -1    0    0    0    0 -0.00000000000E+00 -0.00000000000E+00 -0.74505805969E-08  0.93827000000E+00  0.93827000000E+00 0.  1.
     999902    2    1    2    0    0 -0.53729390709E-02  0.17223611345E-01 -0.15420315482E-01  0.10201959023E+01  0.10199197869E+01 0.  0.
     999903    2    3    3    0    0 -0.16604972343E-01 -0.30254775867E-01  0.12188259036E+00  0.12821359098E+00  0.19806123092E-01 0.  0.
         14    1    1    2    0    0  0.53729390709E-02 -0.17223611345E-01  0.15420315482E-01  0.23734097657E-01  0.00000000000E+00 0. -1.
     999901    1    3    3    0    0  0.11232033272E-01  0.47478387212E-01 -0.13730290584E+00  0.89198231136E+00  0.88000000000E+00 0.  1.
        -11    1    4    4    0    0 -0.26462684632E-02 -0.23561531854E-01  0.62616952930E-01  0.66957392687E-01  0.51100000000E-03 0. -1.
         11    1    4    4    0    0 -0.13958703880E-01 -0.66932440122E-02  0.59265637426E-01  0.61256198298E-01  0.51100000000E-03 0.  1.
</event>
<event>
 8    1  0.1145101E+005  0.1043930E+01  0.7957747E-01            NaN
         13   -1    0    0    0    0  0.00000000000E+00  0.00000000000E+00  0.74505805969E-08  0.10566000000E+00  0.10566000000E+00 0. -1.
     999900   -1    0    0    0    0 -0.00000000000E+00 -0.00000000000E+00 -0.74505805969E-08  0.93827000000E+00  0.93827000000E+00 0.  1.
     999902    2    1    2    0    0 -0.12216074358E-01 -0.23575299562E-02  0.19463242107E-01  0.10208300387E+01  0.10205686452E+01 0.  0.
     999903    2    3    3    0    0 -0.57487669326E-01  0.69198674343E-01  0.96420036959E-01  0.13342249083E+00  0.20284202646E-01 0.  0.
         14    1    1    2    0    0  0.12216074358E-01  0.23575299562E-02 -0.19463242107E-01  0.23099961332E-01  0.00000000000E+00 0.  1.
     999901    1    3    3    0    0  0.45271594968E-01 -0.71556204299E-01 -0.76956794852E-01  0.88740754784E+00  0.88000000000E+00 0.  1.
        -11    1    4    4    0    0 -0.43559921700E-01  0.49485472031E-01  0.56776961613E-01  0.87006684868E-01  0.51100000000E-03 0.  1.
         11    1    4    4    0    0 -0.13927747626E-01  0.19713202312E-01  0.39643075346E-01  0.46415805963E-01  0.51100000000E-03 0. -1.
</event>
<event>
 8    1  0.1145101E+005  0.1043930E+01  0.7957747E-01            NaN
         13   -1    0    0    0    0  0.00000000000E+00  0.00000000000E+00  0.74505805969E-08  0.10566000000E+00  0.10566000000E+00 0. -1.
     999900   -1    0    0    0    0 -0.00000000000E+00 -0.00000000000E+00 -0.74505805969E-08  0.93827000000E+00  0.93827000000E+00 0. -1.
     999902    2    1    2    0    0 -0.15830633698E-01 -0.16979375365E-01 -0.31758847156E-02  0.10204993706E+01  0.10202303519E+01 0.  0.
     999903    2    3    3    0    0 -0.11060051313E+00  0.59853346715E-01 -0.33291012706E-01  0.13157219800E+00  0.19699115220E-01 0.  0.
         14    1    1    2    0    0  0.15830633698E-01  0.16979375365E-01  0.31758847156E-02  0.23430629415E-01  0.00000000000E+00 0. -1.
     999901    1    3    3    0    0  0.94769879435E-01 -0.76832722080E-01  0.30115127990E-01  0.88892717259E+00  0.88000000000E+00 0. -1.
        -11    1    4    4    0    0 -0.20653097602E-01  0.11809166803E-01 -0.14539960153E-01  0.27886886226E-01  0.51100000000E-03 0.  1.
         11    1    4    4    0    0 -0.89947415532E-01  0.48044179912E-01 -0.18751052553E-01  0.10368531177E+00  0.51100000000E-03 0. -1.
</event>
<event>
 8    1  0.1145101E+005  0.1043930E+01  0.7957747E-01            NaN
         13   -1    0    0    0    0  0.00000000000E+00  0.00000000000E+00  0.74505805969E-08  0.10566000000E+00  0.10566000000E+00 0.  1.
     999900   -1    0    0    0    0 -0.00000000000E+00 -0.00000000000E+00 -0.74505805969E-08  0.93827000000E+00  0.93827000000E+00 0.  1.
     999902    2    1    2    0    0 -0.22050170325E-01  0.22448610162E-02  0.82336597309E-03  0.10217505648E+01  0.10215098088E+01 0.  0.
     999903    2    3    3    0    0  0.44091325454E-01 -0.11509105471E+00 -0.38225385922E-01  0.13064607063E+00  0.20425958688E-01 0.  0.
         14    1    1    2    0    0  0.22050170325E-01 -0.22448610162E-02 -0.82336597309E-03  0.22179435156E-01  0.00000000000E+00 0. -1.
     999901    1    3    3    0    0 -0.66141495778E-01  0.11733591572E+00  0.39048751895E-01  0.89110449421E+00  0.88000000000E+00 0. -1.
        -11    1    4    4    0    0  0.34789226895E-01 -0.97683545574E-01 -0.39252961262E-01  0.11087570281E+00  0.51100000000E-03 0.  1.
         11    1    4    4    0    0  0.93020985588E-02 -0.17407509134E-01  0.10275753404E-02  0.19770367824E-01  0.51100000000E-03 0. -1.
</event>
<event>
 8    1  0.1145101E+005  0.1043930E+01  0.7957747E-01            NaN
         13   -1    0    0    0    0  0.00000000000E+00  0.00000000000E+00  0.74505805969E-08  0.10566000000E+00  0.10566000000E+00 0. -1.
     999900   -1    0    0    0    0 -0.00000000000E+00 -0.00000000000E+00 -0.74505805969E-08  0.93827000000E+00  0.93827000000E+00 0. -1.
     999902    2    1    2    0    0 -0.62820490757E-02 -0.12196981807E-01  0.20133829601E-01  0.10195660594E+01  0.10192749128E+01 0.  0.
     999903    2    3    3    0    0 -0.93551860321E-01  0.11236632485E-01  0.90092545853E-01  0.13217698117E+00  0.21814560584E-01 0.  0.
         14    1    1    2    0    0  0.62820490757E-02  0.12196981807E-01 -0.20133829601E-01  0.24363940572E-01  0.00000000000E+00 0.  1.
     999901    1    3    3    0    0  0.87269811246E-01 -0.23433614292E-01 -0.69958716252E-01  0.88738907826E+00  0.88000000000E+00 0. -1.
        -11    1    4    4    0    0 -0.22339192514E-01  0.23918139175E-02  0.35478607871E-01  0.41997059819E-01  0.51100000000E-03 0.  1.
         11    1    4    4    0    0 -0.71212667808E-01  0.88448185675E-02  0.54613937983E-01  0.90179921350E-01  0.51100000000E-03 0. -1.
</event>
<event>
 8    1  0.1145101E+005  0.1043930E+01  0.7957747E-01            NaN
         13   -1    0    0    0    0  0.00000000000E+00  0.00000000000E+00  0.74505805969E-08  0.10566000000E+00  0.10566000000E+00 0. -1.
     999900   -1    0    0    0    0 -0.00000000000E+00 -0.00000000000E+00 -0.74505805969E-08  0.93827000000E+00  0.93827000000E+00 0.  1.
     999902    2    1    2    0    0  0.12294316497E-02 -0.18708749056E-01  0.14339613007E-01  0.10203259051E+01  0.10200528415E+01 0.  0.
     999903    2    3    3    0    0  0.55431446072E-01 -0.32881568231E-01  0.11454891390E+00  0.13286850832E+00  0.19461348441E-01 0.  0.
         14    1    1    2    0    0 -0.12294316497E-02  0.18708749056E-01 -0.14339613007E-01  0.23604094870E-01  0.00000000000E+00 0. -1.
     999901    1    3    3    0    0 -0.54202014422E-01  0.14172819176E-01 -0.10020930090E+00  0.88745739681E+00  0.88000000000E+00 0.  1.
        -11    1    4    4    0    0  0.36464572119E-01 -0.31382539277E-01  0.86317616152E-01  0.98820649515E-01  0.51100000000E-03 0.  1.
         11    1    4    4    0    0  0.18966873953E-01 -0.14990289543E-02  0.28231297751E-01  0.34047858803E-01  0.51100000000E-03 0. -1.
</event>
<event>
 8    1  0.1145101E+005  0.1043930E+01  0.7957747E-01            NaN
         13   -1    0    0    0    0  0.00000000000E+00  0.00000000000E+00  0.74505805969E-08  0.10566000000E+00  0.10566000000E+00 0.  1.
     999900   -1    0    0    0    0 -0.00000000000E+00 -0.00000000000E+00 -0.74505805969E-08  0.93827000000E+00  0.93827000000E+00 0. -1.
     999902    2    1    2    0    0 -0.22768973475E-01 -0.41173322781E-03  0.38331105919E-02  0.10208369618E+01  0.10205757268E+01 0.  0.
     999903    2    3    3    0    0 -0.65835619966E-01 -0.77766636791E-01  0.82581115161E-01  0.13289565439E+00  0.21439116608E-01 0.  0.
         14    1    1    2    0    0  0.22768973475E-01  0.41173322781E-03 -0.38331105919E-02  0.23093038218E-01  0.00000000000E+00 0.  1.
     999901    1    3    3    0    0  0.43066646491E-01  0.77354903563E-01 -0.78748004569E-01  0.88794130739E+00  0.88000000000E+00 0.  1.
        -11    1    4    4    0    0 -0.62214113750E-01 -0.61760286808E-01  0.68207369720E-01  0.11107400858E+00  0.51100000000E-03 0. -1.
         11    1    4    4    0    0 -0.36215062154E-02 -0.16006349983E-01  0.14373745441E-01  0.21821645814E-01  0.51100000000E-03 0.  1.
</event>
<event>
 8    1  0.1145101E+005  0.1043930E+01  0.7957747E-01            NaN
         13   -1    0    0    0    0  0.00000000000E+00  0.00000000000E+00  0.74505805969E-08  0.10566000000E+00  0.10566000000E+00 0.  1.
     999900   -1    0    0    0    0 -0.00000000000E+00 -0.00000000000E+00 -0.74505805969E-08  0.93827000000E+00  0.93827000000E+00 0. -1.
     999902    2    1    2    0    0 -0.23681801719E-01 -0.28304205825E-02  0.10338003081E-03  0.10200794298E+01  0.10198005655E+01 0.  0.
     999903    2    3    3    0    0  0.11309780881E+00 -0.49727909351E-01 -0.26450302815E-01  0.12788374810E+00  0.19764998934E-01 0.  0.
         14    1    1    2    0    0  0.23681801719E-01  0.28304205825E-02 -0.10338003081E-03  0.23850570240E-01  0.00000000000E+00 0. -1.
     999901    1    3    3    0    0 -0.13677961052E+00  0.46897488768E-01  0.26553682846E-01  0.89219568166E+00  0.88000000000E+00 0.  1.
        -11    1    4    4    0    0  0.36163798422E-01 -0.20856419836E-01 -0.65387606932E-03  0.41755230087E-01  0.51100000000E-03 0. -1.
         11    1    4    4    0    0  0.76934010384E-01 -0.28871489515E-01 -0.25796426746E-01  0.86128518009E-01  0.51100000000E-03 0.  1.
</event>
<event>
 8    1  0.1145101E+005  0.1043930E+01  0.7957747E-01            NaN
         13   -1    0    0    0    0  0.00000000000E+00  0.00000000000E+00  0.74505805969E-08  0.10566000000E+00  0.10566000000E+00 0. -1.
     999900   -1    0    0    0    0 -0.00000000000E+00 -0.00000000000E+00 -0.74505805969E-08  0.93827000000E+00  0.93827000000E+00 0.  1.
     999902    2    1    2    0    0  0.19119142490E-01 -0.15749690089E-01  0.15229545340E-02  0.10191123906E+01  0.10188101643E+01 0.  0.
     999903    2    3    3    0    0 -0.14185422161E-01 -0.69662378125E-01 -0.10707998201E+00  0.13017461446E+00  0.20621216621E-01 0.  0.
         14    1    1    2    0    0 -0.19119142490E-01  0.15749690089E-01 -0.15229545340E-02  0.24817609433E-01  0.00000000000E+00 0.  1.
     999901    1    3    3    0    0  0.33304564651E-01  0.53912688036E-01  0.10860293655E+00  0.88893777610E+00  0.88000000000E+00 0. -1.
        -11    1    4    4    0    0 -0.66395033845E-02 -0.60485221039E-01 -0.79301764031E-01  0.99957870469E-01  0.51100000000E-03 0. -1.
         11    1    4    4    0    0 -0.75459187765E-02 -0.91771570862E-02 -0.27778217982E-01  0.30216743994E-01  0.51100000000E-03 0.  1.
</event>
<event>
 8    1  0.1145101E+005  0.1043930E+01  0.7957747E-01            NaN
         13   -1    0    0    0    0  0.00000000000E+00  0.00000000000E+00  0.74505805969E-08  0.10566000000E+00  0.10566000000E+00 0. -1.
     999900   -1    0    0    0    0 -0.00000000000E+00 -0.00000000000E+00 -0.74505805969E-08  0.93827000000E+00  0.93827000000E+00 0.  1.
     999902    2    1    2    0    0  0.72712217040E-02 -0.23087853558E-01 -0.74811589221E-03  0.10197126648E+01  0.10194250534E+01 0.  0.
     999903    2    3    3    0    0  0.10089420569E-01  0.47982622881E-01  0.11761638183E+00  0.12894383441E+00  0.19717267891E-01 0.  0.
         14    1    1    2    0    0 -0.72712217040E-02  0.23087853558E-01  0.74811589221E-03  0.24217335203E-01  0.00000000000E+00 0.  1.
     999901    1    3    3    0    0 -0.28181988645E-02 -0.71070476438E-01 -0.11836449772E+00  0.89076883039E+00  0.88000000000E+00 0.  1.
        -11    1    4    4    0    0 -0.31172951102E-02  0.29765880441E-01  0.59085762469E-01  0.66235289800E-01  0.51100000000E-03 0. -1.
         11    1    4    4    0    0  0.13206715679E-01  0.18216742440E-01  0.58530619356E-01  0.62708544612E-01  0.51100000000E-03 0.  1.
</event>
<event>
 8    1  0.1145101E+005  0.1043930E+01  0.7957747E-01            NaN
         13   -1    0    0    0    0  0.00000000000E+00  0.00000000000E+00  0.74505805969E-08  0.10566000000E+00  0.10566000000E+00 0. -1.
     999900   -1    0    0    0    0 -0.00000000000E+00 -0.00000000000E+00 -0.74505805969E-08  0.93827000000E+00  0.93827000000E+00 0.  1.
     999902    2    1    2    0    0  0.71731798409E-03 -0.96766975409E-02  0.20982982560E-01  0.10208120724E+01  0.10205502675E+01 0.  0.
     999903    2    3    3    0    0 -0.10912744737E+00  0.68131599355E-01 -0.40351278365E-03  0.13031929547E+00  0.20790414817E-01 0.  0.
         14    1    1    2    0    0 -0.71731798409E-03  0.96766975409E-02 -0.20982982560E-01  0.23117927621E-01  0.00000000000E+00 0.  1.
     999901    1    3    3    0    0  0.10984476536E+00 -0.77808296896E-01  0.21386495344E-01  0.89049277691E+00  0.88000000000E+00 0.  1.
        -11    1    4    4    0    0 -0.63723162310E-01  0.46360530942E-01  0.82098850379E-02  0.79231329519E-01  0.51100000000E-03 0. -1.
         11    1    4    4    0    0 -0.45404285064E-01  0.21771068414E-01 -0.86133978216E-02  0.51087965951E-01  0.51100000000E-03 0.  1.
</event>
<event>
 8    1  0.1145101E+005  0.1043930E+01  0.7957747E-01            NaN
         13   -1    0    0    0    0  0.00000000000E+00  0.00000000000E+00  0.74505805969E-08  0.10566000000E+00  0.10566000000E+00 0. -1.
     999900   -1    0    0    0    0 -0.00000000000E+00 -0.00000000000E+00 -0.74505805969E-08  0.93827000000E+00  0.93827000000E+00 0. -1.
     999902    2    1    2    0    0  0.70293204675E-02  0.11245413743E-01 -0.20251992998E-01  0.10197222761E+01  0.10194348956E+01 0.  0.
     999903    2    3    3    0    0 -0.50277093725E-01 -0.52096882946E-01 -0.10771144105E+00  0.13127113691E+00  0.19710035159E-01 0.  0.
         14    1    1    2    0    0 -0.70293204675E-02 -0.11245413743E-01  0.20251992998E-01  0.24207723910E-01  0.00000000000E+00 0. -1.
     999901    1    3    3    0    0  0.57306414193E-01  0.63342296689E-01  0.87459448053E-01  0.88845113918E+00  0.88000000000E+00 0.  1.
        -11    1    4    4    0    0 -0.24555395776E-01 -0.30810544333E-01 -0.42165884930E-01  0.57710311702E-01  0.51100000000E-03 0.  1.
         11    1    4    4    0    0 -0.25721697949E-01 -0.21286338614E-01 -0.65545556122E-01  0.73560825208E-01  0.51100000000E-03 0. -1.
</event>
<event>
 8    1  0.1145101E+005  0.1043930E+01  0.7957747E-01            NaN
         13   -1    0    0    0    0  0.00000000000E+00  0.00000000000E+00  0.74505805969E-08  0.10566000000E+00  0.10566000000E+00 0.  1.
     999900   -1    0    0    0    0 -0.00000000000E+00 -0.00000000000E+00 -0.74505805969E-08  0.93827000000E+00  0.93827000000E+00 0.  1.
     999902    2    1    2    0    0 -0.53803486607E-02 -0.19498962071E-01  0.13265702182E-01  0.10197404046E+01  0.10194534595E+01 0.  0.
     999903    2    3    3    0    0 -0.25652234498E-01  0.10650311777E+00 -0.62057549579E-01  0.12734975818E+00  0.19127734279E-01 0.  0.
         14    1    1    2    0    0  0.53803486607E-02  0.19498962071E-01 -0.13265702182E-01  0.24189595448E-01  0.00000000000E+00 0. -1.
     999901    1    3    3    0    0  0.20271885838E-01 -0.12600207984E+00  0.75323251762E-01  0.89239064637E+00  0.88000000000E+00 0. -1.
        -11    1    4    4    0    0 -0.20873581607E-01  0.85654305871E-01 -0.40647585506E-01  0.97081686490E-01  0.51100000000E-03 0. -1.
         11    1    4    4    0    0 -0.47786528912E-02  0.20848811900E-01 -0.21409964073E-01  0.30268071688E-01  0.51100000000E-03 0.  1.
</event>
<event>
 8    1  0.1145101E+005  0.1043930E+01  0.7957747E-01            NaN
         13   -1    0    0    0    0  0.00000000000E+00  0.00000000000E+00  0.74505805969E-08  0.10566000000E+00  0.10566000000E+00 0. -1.
     999900   -1    0    0    0    0 -0.00000000000E+00 -0.00000000000E+00 -0.74505805969E-08  0.93827000000E+00  0.93827000000E+00 0.  1.
     999902    2    1    2    0    0  0.13206993067E-01 -0.18149301888E-01  0.80704111957E-02  0.10200772567E+01  0.10197983410E+01 0.  0.
     999903    2    3    3    0    0  0.82506714936E-01 -0.65266879083E-01 -0.77143157908E-01  0.13199850465E+00  0.20134917490E-01 0.  0.
         14    1    1    2    0    0 -0.13206993067E-01  0.18149301888E-01 -0.80704111957E-02  0.23852743275E-01  0.00000000000E+00 0.  1.
     999901    1    3    3    0    0 -0.69299721870E-01  0.47117577195E-01  0.85213569104E-01  0.88807875208E+00  0.88000000000E+00 0. -1.
        -11    1    4    4    0    0  0.30849684590E-01 -0.21217408306E-01 -0.39260480378E-01  0.54254289186E-01  0.51100000000E-03 0.  1.
         11    1    4    4    0    0  0.51657030347E-01 -0.44049470777E-01 -0.37882677530E-01  0.77744215462E-01  0.51100000000E-03 0. -1.
</event>
<event>
 8    1  0.1145101E+005  0.1043930E+01  0.7957747E-01            NaN
         13   -1    0    0    0    0  0.00000000000E+00  0.00000000000E+00  0.74505805969E-08  0.10566000000E+00  0.10566000000E+00 0.  1.
     999900   -1    0    0    0    0 -0.00000000000E+00 -0.00000000000E+00 -0.74505805969E-08  0.93827000000E+00  0.93827000000E+00 0.  1.
     999902    2    1    2    0    0  0.18642881540E-01  0.12321024222E-01 -0.37400951578E-02  0.10212727058E+01  0.10210213448E+01 0.  0.
     999903    2    3    3    0    0  0.67877568871E-01 -0.10566517978E+00  0.22345018790E-01  0.13165186972E+00  0.32564096197E-01 0.  0.
         14    1    1    2    0    0 -0.18642881540E-01 -0.12321024222E-01  0.37400951578E-02  0.22657294229E-01  0.00000000000E+00 0. -1.
     999901    1    3    3    0    0 -0.49234687331E-01  0.11798620400E+00 -0.26085113947E-01  0.88962083605E+00  0.88000000000E+00 0. -1.
        -11    1    4    4    0    0  0.42809378314E-01 -0.65799426539E-01  0.29805890838E-01  0.83969397129E-01  0.51100000000E-03 0. -1.
         11    1    4    4    0    0  0.25068190557E-01 -0.39865753242E-01 -0.74608720485E-02  0.47682472588E-01  0.51100000000E-03 0.  1.
</event>
<event>
 8    1  0.1145101E+005  0.1043930E+01  0.7957747E-01            NaN
         13   -1    0    0    0    0  0.00000000000E+00  0.00000000000E+00  0.74505805969E-08  0.10566000000E+00  0.10566000000E+00 0.  1.
     999900   -1    0    0    0    0 -0.00000000000E+00 -0.00000000000E+00 -0.74505805969E-08  0.93827000000E+00  0.93827000000E+00 0. -1.
     999902    2    1    2    0    0  0.21824520237E-01  0.75319824810E-02  0.29965927974E-02  0.10206486768E+01  0.10203831150E+01 0.  0.
     999903    2    3    3    0    0  0.51842925737E-01  0.85121423059E-01  0.85032947806E-01  0.13292620351E+00  0.22481720458E-01 0.  0.
         14    1    1    2    0    0 -0.21824520237E-01 -0.75319824810E-02 -0.29965927974E-02  0.23281323245E-01  0.00000000000E+00 0. -1.
     999901    1    3    3    0    0 -0.30018405500E-01 -0.77589440578E-01 -0.82036355009E-01  0.88772247324E+00  0.88000000000E+00 0. -1.
        -11    1    4    4    0    0  0.42219402351E-01  0.51119681392E-01  0.48907866972E-01  0.82388957592E-01  0.51100000000E-03 0.  1.
         11    1    4    4    0    0  0.96235233864E-02  0.34001741668E-01  0.36125080835E-01  0.50537245919E-01  0.51100000000E-03 0. -1.
</event>
<event>
 7    1  0.1145101E+005  0.1043930E+01  0.7957747E-01            NaN
         13   -1    0    0    0    0  0.00000000000E+00  0.00000000000E+00  0.74505805969E-08  0.10566000000E+00  0.10566000000E+00 0.  1.
     999900   -1    0    0    0    0 -0.00000000000E+00 -0.00000000000E+00 -0.74505805969E-08  0.93827000000E+00  0.93827000000E+00 0. -1.
     999903    2    1    2    0    0  0.29767212816E-01 -0.21092643249E-01  0.73497820218E-01  0.84606032074E-01  0.20621942885E-01 0.  0.
         14    1    1    2    0    0 -0.37278311067E-01 -0.55129814415E-01 -0.34918716349E-01  0.75155077440E-01  0.00000000000E+00 0.  1.
     999901    1    1    2    0    0  0.75110982510E-02  0.76222457664E-01 -0.38579103869E-01  0.88416889049E+00  0.88000000000E+00 0.  1.
        -11    1    3    3    0    0  0.29795042691E-01 -0.12158594119E-01  0.50010591151E-01  0.59471811206E-01  0.51100000000E-03 0. -1.
         11    1    3    3    0    0 -0.27829874681E-04 -0.89340491292E-02  0.23487229067E-01  0.25134220867E-01  0.51100000000E-03 0.  1.
</event>
<event>
 8    1  0.1145101E+005  0.1043930E+01  0.7957747E-01            NaN
         13   -1    0    0    0    0  0.00000000000E+00  0.00000000000E+00  0.74505805969E-08  0.10566000000E+00  0.10566000000E+00 0. -1.
     999900   -1    0    0    0    0 -0.00000000000E+00 -0.00000000000E+00 -0.74505805969E-08  0.93827000000E+00  0.93827000000E+00 0. -1.
     999902    2    1    2    0    0  0.83652327987E-02 -0.14310142887E-01 -0.17212853125E-01  0.10200335647E+01  0.10197536141E+01 0.  0.
     999903    2    3    3    0    0 -0.40878912412E-01 -0.41267821629E-01 -0.11743407378E+00  0.13256751159E+00  0.20230295662E-01 0.  0.
         14    1    1    2    0    0 -0.83652327987E-02  0.14310142887E-01  0.17212853125E-01  0.23896435340E-01  0.00000000000E+00 0. -1.
     999901    1    3    3    0    0  0.49244145210E-01  0.26957678741E-01  0.10022122066E+00  0.88746605307E+00  0.88000000000E+00 0.  1.
        -11    1    4    4    0    0 -0.25275914522E-01 -0.37265750413E-01 -0.92488521606E-01  0.10286882792E+00  0.51100000000E-03 0.  1.
         11    1    4    4    0    0 -0.15602997889E-01 -0.40020712155E-02 -0.24945552176E-01  0.29698683666E-01  0.51100000000E-03 0. -1.
</event>
<event>
 8    1  0.1145101E+005  0.1043930E+01  0.7957747E-01            NaN
         13   -1    0    0    0    0  0.00000000000E+00  0.00000000000E+00  0.74505805969E-08  0.10566000000E+00  0.10566000000E+00 0. -1.
     999900   -1    0    0    0    0 -0.00000000000E+00 -0.00000000000E+00 -0.74505805969E-08  0.93827000000E+00  0.93827000000E+00 0.  1.
     999902    2    1    2    0    0 -0.15481631543E-01  0.90295377233E-02 -0.15833583582E-01  0.10200152381E+01  0.10197348529E+01 0.  0.
     999903    2    3    3    0    0 -0.90095376537E-01  0.76849105186E-01 -0.57627897939E-01  0.13327205693E+00  0.20432931665E-01 0.  0.
         14    1    1    2    0    0  0.15481631543E-01 -0.90295377233E-02  0.15833583582E-01  0.23914761880E-01  0.00000000000E+00 0.  1.
     999901    1    3    3    0    0  0.74613744994E-01 -0.67819567463E-01  0.41794314356E-01  0.88674318119E+00  0.88000000000E+00 0.  1.
        -11    1    4    4    0    0 -0.12098267682E-01  0.91869238410E-02 -0.37380000822E-03  0.15204226320E-01  0.51100000000E-03 0.  1.
         11    1    4    4    0    0 -0.77997108856E-01  0.67662181345E-01 -0.57254097931E-01  0.11806783061E+00  0.51100000000E-03 0. -1.
</event>
<event>
 8    1  0.1145101E+005  0.1043930E+01  0.7957747E-01            NaN
         13   -1    0    0    0    0  0.00000000000E+00  0.00000000000E+00  0.74505805969E-08  0.10566000000E+00  0.10566000000E+00 0.  1.
     999900   -1    0    0    0    0 -0.00000000000E+00 -0.00000000000E+00 -0.74505805969E-08  0.93827000000E+00  0.93827000000E+00 0. -1.
     999902    2    1    2    0    0  0.16842367657E-01  0.16200259657E-01  0.31311601104E-02  0.10203520882E+01  0.10200796371E+01 0.  0.
     999903    2    3    3    0    0  0.27079090613E-01 -0.10456370940E+00 -0.68140874830E-01  0.12919080668E+00  0.19499724008E-01 0.  0.
         14    1    1    2    0    0 -0.16842367657E-01 -0.16200259657E-01 -0.31311601104E-02  0.23577911801E-01  0.00000000000E+00 0.  1.
     999901    1    3    3    0    0 -0.10236722956E-01  0.12076396905E+00  0.71272034940E-01  0.89116128152E+00  0.88000000000E+00 0.  1.
        -11    1    4    4    0    0  0.11718936597E-01 -0.67864823353E-01 -0.34207221043E-01  0.76898392806E-01  0.51100000000E-03 0. -1.
         11    1    4    4    0    0  0.15360154016E-01 -0.36698886043E-01 -0.33933653786E-01  0.52292413871E-01  0.51100000000E-03 0.  1.
</event>
<event>
 8    1  0.1145101E+005  0.1043930E+01  0.7957747E-01            NaN
         13   -1    0    0    0    0  0.00000000000E+00  0.00000000000E+00  0.74505805969E-08  0.10566000000E+00  0.10566000000E+00 0. -1.
     999900   -1    0    0    0    0 -0.00000000000E+00 -0.00000000000E+00 -0.74505805969E-08  0.93827000000E+00  0.93827000000E+00 0.  1.
     999902    2    1    2    0    0  0.14895061497E-01 -0.53557564799E-02 -0.17817108743E-01  0.10200973260E+01  0.10198188850E+01 0.  0.
     999903    2    3    3    0    0 -0.57927884863E-01  0.67874621767E-01 -0.93423360820E-01  0.13083798525E+00  0.20689367144E-01 0.  0.
         14    1    1    2    0    0 -0.14895061497E-01  0.53557564799E-02  0.17817108743E-01  0.23832673968E-01  0.00000000000E+00 0. -1.
     999901    1    3    3    0    0  0.72822946360E-01 -0.73230378247E-01  0.75606252077E-01  0.88925934078E+00  0.88000000000E+00 0. -1.
        -11    1    4    4    0    0 -0.23560917556E-01  0.41691367644E-01 -0.55915554481E-01  0.73621310271E-01  0.51100000000E-03 0. -1.
         11    1    4    4    0    0 -0.34366967307E-01  0.26183254124E-01 -0.37507806339E-01  0.57216674979E-01  0.51100000000E-03 0.  1.
</event>
<event>
 8    1  0.1145101E+005  0.1043930E+01  0.7957747E-01            NaN
         13   -1    0    0    0    0  0.00000000000E+00  0.00000000000E+00  0.74505805969E-08  0.10566000000E+00  0.10566000000E+00 0.  1.
     999900   -1    0    0    0    0 -0.00000000000E+00 -0.00000000000E+00 -0.74505805969E-08  0.93827000000E+00  0.93827000000E+00 0.  1.
     999902    2    1    2    0    0 -0.15896169249E-01  0.15561084016E-01 -0.90980144597E-02  0.10198964942E+01  0.10196132843E+01 0.  0.
     999903    2    3    3    0    0  0.44646751574E-01  0.57055284228E-01  0.10566561740E+00  0.12941465550E+00  0.18283666814E-01 0.  0.
         14    1    1    2    0    0  0.15896169249E-01 -0.15561084016E-01  0.90980144597E-02  0.24033505772E-01  0.00000000000E+00 0.  1.
     999901    1    3    3    0    0 -0.60542920824E-01 -0.41494200211E-01 -0.11476363186E+00  0.89048183873E+00  0.88000000000E+00 0.  1.
        -11    1    4    4    0    0  0.73269500633E-02  0.22220217161E-01  0.38382838496E-01  0.44954706760E-01  0.51100000000E-03 0.  1.
         11    1    4    4    0    0  0.37319801511E-01  0.34835067067E-01  0.67282778905E-01  0.84459948737E-01  0.51100000000E-03 0. -1.
</event>
<event>
 8    1  0.1145101E+005  0.1043930E+01  0.7957747E-01            NaN
         13   -1    0    0    0    0  0.00000000000E+00  0.00000000000E+00  0.74505805969E-08  0.10566000000E+00  0.10566000000E+00 0. -1.
     999900   -1    0    0    0    0 -0.00000000000E+00 -0.00000000000E+00 -0.74505805969E-08  0.93827000000E+00  0.93827000000E+00 0.  1.
     999902    2    1    2    0    0  0.15722396546E-01 -0.11175773437E-01 -0.14413139401E-01  0.10198503353E+01  0.10195660234E+01 0.  0.
     999903    2    3    3    0    0 -0.10220605062E+00  0.73838446842E-01 -0.90374396254E-02  0.12790670790E+00  0.19500194726E-01 0.  0.
         14    1    1    2    0    0 -0.15722396546E-01  0.11175773437E-01  0.14413139401E-01  0.24079664708E-01  0.00000000000E+00 0. -1.
     999901    1    3    3    0    0  0.11792844717E+00 -0.85014220279E-01 -0.53756997755E-02  0.89194362739E+00  0.88000000000E+00 0.  1.
        -11    1    4    4    0    0 -0.18155437755E-01  0.14452063650E-01 -0.92642801513E-02  0.24991399951E-01  0.51100000000E-03 0.  1.
         11    1    4    4    0    0 -0.84050612867E-01  0.59386383192E-01  0.22684052589E-03  0.10291530795E+00  0.51100000000E-03 0. -1.
</event>
<event>
 8    1  0.1145101E+005  0.1043930E+01  0.7957747E-01            NaN
         13   -1    0    0    0    0  0.00000000000E+00  0.00000000000E+00  0.74505805969E-08  0.10566000000E+00  0.10566000000E+00 0. -1.
     999900   -1    0    0    0    0 -0.00000000000E+00 -0.00000000000E+00 -0.74505805969E-08  0.93827000000E+00  0.93827000000E+00 0.  1.
     999902    2    1    2    0    0  0.11633078591E-01  0.10258177103E-01 -0.23569303497E-01  0.10157152737E+01  0.10153233211E+01 0.  0.
     999903    2    3    3    0    0 -0.23563573116E-01  0.41925489596E-01 -0.11839541757E+00  0.12935551889E+00  0.20059578985E-01 0.  0.
         14    1    1    2    0    0 -0.11633078591E-01 -0.10258177103E-01  0.23569303497E-01  0.28214726338E-01  0.00000000000E+00 0. -1.
     999901    1    3    3    0    0  0.35196651707E-01 -0.31667312493E-01  0.94826114075E-01  0.88635975477E+00  0.88000000000E+00 0. -1.
        -11    1    4    4    0    0  0.97225119481E-03  0.85140843762E-02 -0.37337796413E-01  0.38311970285E-01  0.51100000000E-03 0. -1.
         11    1    4    4    0    0 -0.24535824311E-01  0.33411405219E-01 -0.81057621159E-01  0.91043548603E-01  0.51100000000E-03 0.  1.
</event>
<event>
 8    1  0.1145101E+005  0.1043930E+01  0.7957747E-01            NaN
         13   -1    0    0    0    0  0.00000000000E+00  0.00000000000E+00  0.74505805969E-08  0.10566000000E+00  0.10566000000E+00 0.  1.
     999900   -1    0    0    0    0 -0.00000000000E+00 -0.00000000000E+00 -0.74505805969E-08  0.93827000000E+00  0.93827000000E+00 0.  1.
     999902    2    1    2    0    0 -0.87297094895E-02  0.20487925060E-01  0.82362437990E-02  0.10201855562E+01  0.10199091971E+01 0.  0.
     999903    2    3    3    0    0 -0.24399779635E-02 -0.29207914413E-01  0.12604367249E+00  0.13092303731E+00  0.19869035363E-01 0.  0.
         14    1    1    2    0    0  0.87297094895E-02 -0.20487925060E-01 -0.82362437990E-02  0.23744443833E-01  0.00000000000E+00 0.  1.
     999901    1    3    3    0    0 -0.62897315259E-02  0.49695839473E-01 -0.11780742870E+00  0.88926251885E+00  0.88000000000E+00 0.  1.
        -11    1    4    4    0    0 -0.66132104997E-02 -0.23668705815E-01  0.65136633541E-01  0.69620286829E-01  0.51100000000E-03 0.  1.
         11    1    4    4    0    0  0.41732325362E-02 -0.55392085977E-02  0.60907038953E-01  0.61302750483E-01  0.51100000000E-03 0. -1.
</event>
<event>
 8    1  0.1145101E+005  0.1043930E+01  0.7957747E-01            NaN
         13   -1    0    0    0    0  0.00000000000E+00  0.00000000000E+00  0.74505805969E-08  0.10566000000E+00  0.10566000000E+00 0. -1.
     999900   -1    0    0    0    0 -0.00000000000E+00 -0.00000000000E+00 -0.74505805969E-08  0.93827000000E+00  0.93827000000E+00 0.  1.
     999902    2    1    2    0    0  0.69358317545E-02  0.21726599795E-01 -0.97350224118E-02  0.10191323880E+01  0.10188306546E+01 0.  0.
     999903    2    3    3    0    0 -0.17627967828E-01  0.10884229165E+00 -0.70601826866E-01  0.13239832869E+00  0.19680187536E-01 0.  0.
         14    1    1    2    0    0 -0.69358317545E-02 -0.21726599795E-01  0.97350224118E-02  0.24797612025E-01  0.00000000000E+00 0. -1.
     999901    1    3    3    0    0  0.24563799583E-01 -0.87115691852E-01  0.60866804455E-01  0.88673405929E+00  0.88000000000E+00 0. -1.
        -11    1    4    4    0    0 -0.43268877355E-02  0.67526446788E-01 -0.51190811807E-01  0.84848708345E-01  0.51100000000E-03 0. -1.
         11    1    4    4    0    0 -0.13301080093E-01  0.41315844859E-01 -0.19411015060E-01  0.47549620342E-01  0.51100000000E-03 0.  1.
</event>
<event>
 8    1  0.1145101E+005  0.1043930E+01  0.7957747E-01            NaN
         13   -1    0    0    0    0  0.00000000000E+00  0.00000000000E+00  0.74505805969E-08  0.10566000000E+00  0.10566000000E+00 0. -1.
     999900   -1    0    0    0    0 -0.00000000000E+00 -0.00000000000E+00 -0.74505805969E-08  0.93827000000E+00  0.93827000000E+00 0. -1.
     999902    2    1    2    0    0 -0.12898351103E-01  0.14243360549E-03  0.19225220951E-01  0.10207783938E+01  0.10205158168E+01 0.  0.
     999903    2    3    3    0    0  0.11736260063E+00  0.46277566491E-01  0.24519889591E-01  0.12997852878E+00  0.19431926584E-01 0.  0.
         14    1    1    2    0    0  0.12898351103E-01 -0.14243360549E-03 -0.19225220951E-01  0.23151606189E-01  0.00000000000E+00 0.  1.
     999901    1    3    3    0    0 -0.13026095173E+00 -0.46135132885E-01 -0.52946686397E-02  0.89079986504E+00  0.88000000000E+00 0. -1.
        -11    1    4    4    0    0  0.66586725744E-01  0.32588785533E-01  0.21983130210E-01  0.77326192992E-01  0.51100000000E-03 0. -1.
         11    1    4    4    0    0  0.50775874883E-01  0.13688780958E-01  0.25367593807E-02  0.52652335783E-01  0.51100000000E-03 0.  1.
</event>
<event>
 8    1  0.1145101E+005  0.1043930E+01  0.7957747E-01            NaN
         13   -1    0    0    0    0  0.00000000000E+00  0.00000000000E+00  0.74505805969E-08  0.10566000000E+00  0.10566000000E+00 0.  1.
     999900   -1    0    0    0    0 -0.00000000000E+00 -0.00000000000E+00 -0.74505805969E-08  0.93827000000E+00  0.93827000000E+00 0. -1.
     999902    2    1    2    0    0  0.11372628083E-01  0.11469856193E-01 -0.17702443182E-01  0.10199660528E+01  0.10196844993E+01 0.  0.
     999903    2    3    3    0    0  0.56249747614E-01  0.33671315636E-01 -0.11328957620E+00  0.13337496292E+00  0.25623447362E-01 0.  0.
         14    1    1    2    0    0 -0.11372628083E-01 -0.11469856193E-01  0.17702443182E-01  0.23963947196E-01  0.00000000000E+00 0.  1.
     999901    1    3    3    0    0 -0.44877119531E-01 -0.22201459443E-01  0.95587133021E-01  0.88659108988E+00  0.88000000000E+00 0.  1.
        -11    1    4    4    0    0  0.42501973710E-01  0.24569028049E-01 -0.59647242146E-01  0.77253540535E-01  0.51100000000E-03 0.  1.
         11    1    4    4    0    0  0.13747773904E-01  0.91022875868E-02 -0.53642334057E-01  0.56121422387E-01  0.51100000000E-03 0. -1.
</event>
<event>
 8    1  0.1145101E+005  0.1043930E+01  0.7957747E-01            NaN
         13   -1    0    0    0    0  0.00000000000E+00  0.00000000000E+00  0.74505805969E-08  0.10566000000E+00  0.10566000000E+00 0. -1.
     999900   -1    0    0    0    0 -0.00000000000E+00 -0.00000000000E+00 -0.74505805969E-08  0.93827000000E+00  0.93827000000E+00 0.  1.
     999902    2    1    2    0    0  0.18942932382E-01 -0.48237400692E-02  0.15340389113E-01  0.10190818473E+01  0.10187788674E+01 0.  0.
     999903    2    3    3    0    0  0.34873846054E-01 -0.39024826652E-01  0.11998473225E+00  0.13207905874E+00  0.17590325483E-01 0.  0.
         14    1    1    2    0    0 -0.18942932382E-01  0.48237400692E-02 -0.15340389113E-01  0.24848152720E-01  0.00000000000E+00 0.  1.
     999901    1    3    3    0    0 -0.15930913672E-01  0.34201086583E-01 -0.10464434313E+00  0.88700278854E+00  0.88000000000E+00 0.  1.
        -11    1    4    4    0    0  0.19551061299E-01 -0.26912977171E-01  0.55582555805E-01  0.64778344907E-01  0.51100000000E-03 0.  1.
         11    1    4    4    0    0  0.15322784755E-01 -0.12111849482E-01  0.64402176441E-01  0.67300713829E-01  0.51100000000E-03 0. -1.
</event>
<event>
 8    1  0.1145101E+005  0.1043930E+01  0.7957747E-01            NaN
         13   -1    0    0    0    0  0.00000000000E+00  0.00000000000E+00  0.74505805969E-08  0.10566000000E+00  0.10566000000E+00 0. -1.
     999900   -1    0    0    0    0 -0.00000000000E+00 -0.00000000000E+00 -0.74505805969E-08  0.93827000000E+00  0.93827000000E+00 0. -1.
     999902    2    1    2    0    0  0.13641134020E-01 -0.10129809159E-01 -0.86767603294E-02  0.10248517469E+01  0.10246741548E+01 0.  0.
     999903    2    3    3    0    0  0.13345014443E-01  0.11352428579E+00  0.65281153916E-01  0.13313419300E+00  0.19930665176E-01 0.  0.
         14    1    1    2    0    0 -0.13641134020E-01  0.10129809159E-01  0.86767603294E-02  0.19078253085E-01  0.00000000000E+00 0.  1.
     999901    1    3    3    0    0  0.29611957756E-03 -0.12365409495E+00 -0.73957914246E-01  0.89171755392E+00  0.88000000000E+00 0. -1.
        -11    1    4    4    0    0  0.81617522906E-02  0.26757530246E-01  0.24197110749E-01  0.36991092373E-01  0.51100000000E-03 0. -1.
         11    1    4    4    0    0  0.51832621522E-02  0.86766755542E-01  0.41084043167E-01  0.96143100625E-01  0.51100000000E-03 0.  1.
</event>
<event>
 8    1  0.1145101E+005  0.1043930E+01  0.7957747E-01            NaN
         13   -1    0    0    0    0  0.00000000000E+00  0.00000000000E+00  0.74505805969E-08  0.10566000000E+00  0.10566000000E+00 0. -1.
     999900   -1    0    0    0    0 -0.00000000000E+00 -0.00000000000E+00 -0.74505805969E-08  0.93827000000E+00  0.93827000000E+00 0.  1.
     999902    2    1    2    0    0  0.14139820949E-01 -0.70228125647E-02  0.17548670577E-01  0.10203246982E+01  0.10200516063E+01 0.  0.
     999903    2    3    3    0    0 -0.18095410260E-01 -0.45766836069E-01  0.12166496932E+00  0.13275474991E+00  0.19985287319E-01 0.  0.
         14    1    1    2    0    0 -0.14139820949E-01  0.70228125647E-02 -0.17548670577E-01  0.23605301773E-01  0.00000000000E+00 0. -1.
     999901    1    3    3    0    0  0.32235231209E-01  0.38744023504E-01 -0.10411629874E+00  0.88756994831E+00  0.88000000000E+00 0. -1.
        -11    1    4    4    0    0 -0.10947711512E-01 -0.29281055288E-01  0.99042067305E-01  0.10385963991E+00  0.51100000000E-03 0.  1.
         11    1    4    4    0    0 -0.71476987480E-02 -0.16485780781E-01  0.22622902011E-01  0.28895109997E-01  0.51100000000E-03 0. -1.
</event>
<event>
 8    1  0.1145101E+005  0.1043930E+01  0.7957747E-01            NaN
         13   -1    0    0    0    0  0.00000000000E+00  0.00000000000E+00  0.74505805969E-08  0.10566000000E+00  0.10566000000E+00 0. -1.
     999900   -1    0    0    0    0 -0.00000000000E+00 -0.00000000000E+00 -0.74505805969E-08  0.93827000000E+00  0.93827000000E+00 0.  1.
     999902    2    1    2    0    0  0.13654619499E-01 -0.13221918894E-01  0.14417349576E-01  0.10200736017E+01  0.10197945994E+01 0.  0.
     999903    2    3    3    0    0  0.81251157923E-01  0.97782119390E-01 -0.17473233970E-01  0.12995664427E+00  0.20501754742E-01 0.  0.
         14    1    1    2    0    0 -0.13654619499E-01  0.13221918894E-01 -0.14417349576E-01  0.23856398339E-01  0.00000000000E+00 0.  1.
     999901    1    3    3    0    0 -0.67596538425E-01 -0.11100403828E+00  0.31890583545E-01  0.89011695739E+00  0.88000000000E+00 0.  1.
        -11    1    4    4    0    0  0.40040485749E-01  0.62667812573E-01 -0.14207829142E-01  0.75714059207E-01  0.51100000000E-03 0.  1.
         11    1    4    4    0    0  0.41210672174E-01  0.35114306817E-01 -0.32654048279E-02  0.54242585060E-01  0.51100000000E-03 0. -1.
</event>
<event>
 8    1  0.1145101E+005  0.1043930E+01  0.7957747E-01            NaN
         13   -1    0    0    0    0  0.00000000000E+00  0.00000000000E+00  0.74505805969E-08  0.10566000000E+00  0.10566000000E+00 0.  1.
     999900   -1    0    0    0    0 -0.00000000000E+00 -0.00000000000E+00 -0.74505805969E-08  0.93827000000E+00  0.93827000000E+00 0. -1.
     999902    2    1    2    0    0 -0.65202173509E-02 -0.14160088872E-01  0.15304812645E-01  0.10220837499E+01  0.10218502499E+01 0.  0.
     999903    2    3    3    0    0  0.86922132395E-01 -0.24797352204E-01  0.95973803269E-01  0.13340376810E+00  0.20377160058E-01 0.  0.
         14    1    1    2    0    0  0.65202173509E-02  0.14160088872E-01 -0.15304812645E-01  0.21846250051E-01  0.00000000000E+00 0. -1.
     999901    1    3    3    0    0 -0.93442349746E-01  0.10637263332E-01 -0.80668990624E-01  0.88867998185E+00  0.88000000000E+00 0. -1.
        -11    1    4    4    0    0  0.34375157155E-01 -0.20191024771E-01  0.43206549888E-01  0.58791121650E-01  0.51100000000E-03 0. -1.
         11    1    4    4    0    0  0.52546975240E-01 -0.46063274331E-02  0.52767253382E-01  0.74612646447E-01  0.51100000000E-03 0.  1.
</event>
<event>
 8    1  0.1145101E+005  0.1043930E+01  0.7957747E-01            NaN
         13   -1    0    0    0    0  0.00000000000E+00  0.00000000000E+00  0.74505805969E-08  0.10566000000E+00  0.10566000000E+00 0.  1.
     999900   -1    0    0    0    0 -0.00000000000E+00 -0.00000000000E+00 -0.74505805969E-08  0.93827000000E+00  0.93827000000E+00 0. -1.
     999902    2    1    2    0    0  0.19448828445E-01 -0.98485985082E-02  0.16918397014E-02  0.10220641787E+01  0.10218302556E+01 0.  0.
     999903    2    3    3    0    0  0.39068729918E-01  0.30355527801E-01  0.12145796387E+00  0.13282560731E+00  0.21042367874E-01 0.  0.
         14    1    1    2    0    0 -0.19448828445E-01  0.98485985082E-02 -0.16918397014E-02  0.21865821320E-01  0.00000000000E+00 0.  1.
     999901    1    3    3    0    0 -0.19619901473E-01 -0.40204126310E-01 -0.11976612417E+00  0.88923857137E+00  0.88000000000E+00 0. -1.
        -11    1    4    4    0    0  0.99908309839E-02  0.18727759362E-01  0.63359684008E-01  0.66822573678E-01  0.51100000000E-03 0. -1.
         11    1    4    4    0    0  0.29077898934E-01  0.11627768439E-01  0.58098279861E-01  0.66003033636E-01  0.51100000000E-03 0.  1.
</event>
<event>
 8    1  0.1145101E+005  0.1043930E+01  0.7957747E-01            NaN
         13   -1    0    0    0    0  0.00000000000E+00  0.00000000000E+00  0.74505805969E-08  0.10566000000E+00  0.10566000000E+00 0. -1.
     999900   -1    0    0    0    0 -0.00000000000E+00 -0.00000000000E+00 -0.74505805969E-08  0.93827000000E+00  0.93827000000E+00 0.  1.
     999902    2    1    2    0    0  0.50112992444E-02  0.48185299049E-02  0.22518597857E-01  0.10203626794E+01  0.10200904759E+01 0.  0.
     999903    2    3    3    0    0 -0.23941848986E-01 -0.11831340439E+00  0.46979164622E-01  0.13098195252E+00  0.19441095234E-01 0.  0.
         14    1    1    2    0    0 -0.50112992444E-02 -0.48185299049E-02 -0.22518597857E-01  0.23567320594E-01  0.00000000000E+00 0.  1.
     999901    1    3    3    0    0  0.28953148231E-01  0.12313193430E+00 -0.24460566766E-01  0.88938072689E+00  0.88000000000E+00 0.  1.
        -11    1    4    4    0    0  0.97425750206E-03 -0.39137706002E-02  0.53486367137E-02  0.67183192605E-02  0.51100000000E-03 0.  1.
         11    1    4    4    0    0 -0.24916106488E-01 -0.11439963379E+00  0.41630527909E-01  0.12426363326E+00  0.51100000000E-03 0. -1.
</event>
<event>
 8    1  0.1145101E+005  0.1043930E+01  0.7957747E-01            NaN
         13   -1    0    0    0    0  0.00000000000E+00  0.00000000000E+00  0.74505805969E-08  0.10566000000E+00  0.10566000000E+00 0.  1.
     999900   -1    0    0    0    0 -0.00000000000E+00 -0.00000000000E+00 -0.74505805969E-08  0.93827000000E+00  0.93827000000E+00 0.  1.
     999902    2    1    2    0    0  0.20544684865E-01 -0.21175982220E-01  0.11449442563E-02  0.10144034493E+01  0.10139736391E+01 0.  0.
     999903    2    3    3    0    0 -0.90790501662E-01 -0.16301482128E-01 -0.80093829430E-01  0.12366273345E+00  0.19204078229E-01 0.  0.
         14    1    1    2    0    0 -0.20544684865E-01  0.21175982220E-01 -0.11449442563E-02  0.29526550705E-01  0.00000000000E+00 0. -1.
     999901    1    3    3    0    0  0.11133518653E+00 -0.48745000917E-02  0.81238773686E-01  0.89074071584E+00  0.88000000000E+00 0. -1.
        -11    1    4    4    0    0 -0.41324413304E-01 -0.10391934649E-01 -0.48987708823E-01  0.64928854737E-01  0.51100000000E-03 0. -1.
         11    1    4    4    0    0 -0.49466088358E-01 -0.59095474795E-02 -0.31106120607E-01  0.58733878716E-01  0.51100000000E-03 0.  1.
</event>
<event>
 8    1  0.1145101E+005  0.1043930E+01  0.7957747E-01            NaN
         13   -1    0    0    0    0  0.00000000000E+00  0.00000000000E+00  0.74505805969E-08  0.10566000000E+00  0.10566000000E+00 0.  1.
     999900   -1    0    0    0    0 -0.00000000000E+00 -0.00000000000E+00 -0.74505805969E-08  0.93827000000E+00  0.93827000000E+00 0.  1.
     999902    2    1    2    0    0  0.22021511255E-01  0.17435110664E-02  0.82165557254E-02  0.10203609827E+01  0.10200887395E+01 0.  0.
     999903    2    3    3    0    0 -0.10899494364E+00 -0.11425573346E-02 -0.63050813749E-01  0.12780696259E+00  0.21863471744E-01 0.  0.
         14    1    1    2    0    0 -0.22021511255E-01 -0.17435110664E-02 -0.82165557254E-02  0.23569017307E-01  0.00000000000E+00 0. -1.
     999901    1    3    3    0    0  0.13101645490E+00  0.28860684010E-02  0.71267369474E-01  0.89255402010E+00  0.88000000000E+00 0. -1.
        -11    1    4    4    0    0 -0.54991450392E-01 -0.11244272973E-01 -0.29181466248E-01  0.63263831565E-01  0.51100000000E-03 0. -1.
         11    1    4    4    0    0 -0.54003493248E-01  0.10101715639E-01 -0.33869347501E-01  0.64543131029E-01  0.51100000000E-03 0.  1.
</event>
<event>
 8    1  0.1145101E+005  0.1043930E+01  0.7957747E-01            NaN
         13   -1    0    0    0    0  0.00000000000E+00  0.00000000000E+00  0.74505805969E-08  0.10566000000E+00  0.10566000000E+00 0.  1.
     999900   -1    0    0    0    0 -0.00000000000E+00 -0.00000000000E+00 -0.74505805969E-08  0.93827000000E+00  0.93827000000E+00 0. -1.
     999902    2    1    2    0    0  0.26173924407E-02  0.37765925106E-02  0.23966675444E-01  0.10195268255E+01  0.10192347291E+01 0.  0.
     999903    2    3    3    0    0  0.59785011170E-01  0.89069480009E-01 -0.68385862570E-01  0.12875636990E+00  0.19848344002E-01 0.  0.
         14    1    1    2    0    0 -0.26173924407E-02 -0.37765925106E-02 -0.23966675444E-01  0.24403174507E-01  0.00000000000E+00 0. -1.
     999901    1    3    3    0    0 -0.57167618729E-01 -0.85292887498E-01  0.92352538014E-01  0.89077045560E+00  0.88000000000E+00 0.  1.
        -11    1    4    4    0    0  0.29191958547E-01  0.28300784331E-01 -0.20340513130E-01  0.45465398194E-01  0.51100000000E-03 0. -1.
         11    1    4    4    0    0  0.30593052623E-01  0.60768695678E-01 -0.48045349440E-01  0.83290971702E-01  0.51100000000E-03 0.  1.
</event>
<event>
 8    1  0.1145101E+005  0.1043930E+01  0.7957747E-01            NaN
         13   -1    0    0    0    0  0.00000000000E+00  0.00000000000E+00  0.74505805969E-08  0.10566000000E+00  0.10566000000E+00 0. -1.
     999900   -1    0    0    0    0 -0.00000000000E+00 -0.00000000000E+00 -0.74505805969E-08  0.93827000000E+00  0.93827000000E+00 0. -1.
     999902    2    1    2    0    0  0.10528224869E-01 -0.15081432506E-01  0.14198170987E-01  0.10206946566E+01  0.10204301548E+01 0.  0.
     999903    2    3    3    0    0 -0.72993053715E-02  0.11957073437E+00  0.46226910371E-01  0.12969809819E+00  0.18281932506E-01 0.  0.
         14    1    1    2    0    0 -0.10528224869E-01  0.15081432506E-01 -0.14198170987E-01  0.23235343438E-01  0.00000000000E+00 0.  1.
     999901    1    3    3    0    0  0.17827530241E-01 -0.13465216687E+00 -0.32028739384E-01  0.89099655837E+00  0.88000000000E+00 0. -1.
        -11    1    4    4    0    0 -0.12288072777E-01  0.62678268337E-01  0.28060918509E-01  0.69765595553E-01  0.51100000000E-03 0. -1.
         11    1    4    4    0    0  0.49887674058E-02  0.56892466031E-01  0.18165991862E-01  0.59932502640E-01  0.51100000000E-03 0.  1.
</event>
<event>
 8    1  0.1145101E+005  0.1043930E+01  0.7957747E-01            NaN
         13   -1    0    0    0    0  0.00000000000E+00  0.00000000000E+00  0.74505805969E-08  0.10566000000E+00  0.10566000000E+00 0. -1.
     999900   -1    0    0    0    0 -0.00000000000E+00 -0.00000000000E+00 -0.74505805969E-08  0.93827000000E+00  0.93827000000E+00 0.  1.
     999902    2    1    2    0    0  0.83036540420E-02  0.10122293083E-01  0.20823399385E-01  0.10193327349E+01  0.10190359165E+01 0.  0.
     999903    2    3    3    0    0  0.37796065589E-01  0.87748710120E-01 -0.84578476897E-01  0.12916128037E+00  0.20018463762E-01 0.  0.
         14    1    1    2    0    0 -0.83036540420E-02 -0.10122293083E-01 -0.20823399385E-01  0.24597265085E-01  0.00000000000E+00 0.  1.
     999901    1    3    3    0    0 -0.29492411547E-01 -0.77626417036E-01  0.10540187628E+00  0.89017145454E+00  0.88000000000E+00 0. -1.
        -11    1    4    4    0    0  0.77469156766E-02  0.41680543695E-01 -0.41090789411E-01  0.59042328211E-01  0.51100000000E-03 0.  1.
         11    1    4    4    0    0  0.30049149912E-01  0.46068166425E-01 -0.43487687486E-01  0.70118952161E-01  0.51100000000E-03 0. -1.
</event>
<event>
 8    1  0.1145101E+005  0.1043930E+01  0.7957747E-01            NaN
         13   -1    0    0    0    0  0.00000000000E+00  0.00000000000E+00  0.74505805969E-08  0.10566000000E+00  0.10566000000E+00 0. -1.
     999900   -1    0    0    0    0 -0.00000000000E+00 -0.00000000000E+00 -0.74505805969E-08  0.93827000000E+00  0.93827000000E+00 0. -1.
     999902    2    1    2    0    0  0.16968406941E-01  0.15908681122E-01 -0.75229825637E-03  0.10206581517E+01  0.10203928086E+01 0.  0.
     999903    2    3    3    0    0  0.12253329620E+00 -0.41294329405E-01  0.18923812095E-01  0.13228701331E+00  0.20545386554E-01 0.  0.
         14    1    1    2    0    0 -0.16968406941E-01 -0.15908681122E-01  0.75229825637E-03  0.23271848268E-01  0.00000000000E+00 0.  1.
     999901    1    3    3    0    0 -0.10556488926E+00  0.57203010527E-01 -0.19676110351E-01  0.88837113842E+00  0.88000000000E+00 0. -1.
        -11    1    4    4    0    0  0.67031367258E-01 -0.11771801012E-01  0.98771256988E-02  0.68772074483E-01  0.51100000000E-03 0. -1.
         11    1    4    4    0    0  0.55501928940E-01 -0.29522528393E-01  0.90466863963E-02  0.63514938830E-01  0.51100000000E-03 0.  1.
</event>
<event>
 8    1  0.1145101E+005  0.1043930E+01  0.7957747E-01            NaN
         13   -1    0    0    0    0  0.00000000000E+00  0.00000000000E+00  0.74505805969E-08  0.10566000000E+00  0.10566000000E+00 0. -1.
     999900   -1    0    0    0    0 -0.00000000000E+00 -0.00000000000E+00 -0.74505805969E-08  0.93827000000E+00  0.93827000000E+00 0. -1.
     999902    2    1    2    0    0 -0.18195451229E-01  0.14434424703E-01 -0.59182359837E-02  0.10199622596E+01  0.10196806159E+01 0.  0.
     999903    2    3    3    0    0 -0.10570210892E+00 -0.56051744166E-01 -0.51094129312E-01  0.13166806484E+00  0.20276473894E-01 0.  0.
         14    1    1    2    0    0  0.18195451229E-01 -0.14434424703E-01  0.59182359837E-02  0.23967740384E-01  0.00000000000E+00 0.  1.
     999901    1    3    3    0    0  0.87506657690E-01  0.70486168869E-01  0.45175893328E-01  0.88829419478E+00  0.88000000000E+00 0.  1.
        -11    1    4    4    0    0 -0.17896696701E-01 -0.11385103544E-01 -0.17751247768E-01  0.27663699207E-01  0.51100000000E-03 0. -1.
         11    1    4    4    0    0 -0.87805412218E-01 -0.44666640623E-01 -0.33342881544E-01  0.10400436563E+00  0.51100000000E-03 0.  1.
</event>
<event>
 8    1  0.1145101E+005  0.1043930E+01  0.7957747E-01            NaN
         13   -1    0    0    0    0  0.00000000000E+00  0.00000000000E+00  0.74505805969E-08  0.10566000000E+00  0.10566000000E+00 0. -1.
     999900   -1    0    0    0    0 -0.00000000000E+00 -0.00000000000E+00 -0.74505805969E-08  0.93827000000E+00  0.93827000000E+00 0. -1.
     999902    2    1    2    0    0 -0.12829230256E-01  0.59659397364E-02 -0.19534627604E-01  0.10198098163E+01  0.10195245353E+01 0.  0.
     999903    2    3    3    0    0  0.58558034098E-01 -0.54212843708E-01  0.96536193652E-01  0.12729087363E+00  0.22708017169E-01 0.  0.
         14    1    1    2    0    0  0.12829230256E-01 -0.59659397364E-02  0.19534627604E-01  0.24120183696E-01  0.00000000000E+00 0. -1.
     999901    1    3    3    0    0 -0.71387264354E-01  0.60178783445E-01 -0.11607082126E+00  0.89251894268E+00  0.88000000000E+00 0. -1.
        -11    1    4    4    0    0  0.40106231268E-01 -0.46793969862E-01  0.82340662502E-01  0.10285150084E+00  0.51100000000E-03 0. -1.
         11    1    4    4    0    0  0.18451802829E-01 -0.74188738464E-02  0.14195531150E-01  0.24439372791E-01  0.51100000000E-03 0.  1.
</event>
<event>
 8    1  0.1145101E+005  0.1043930E+01  0.7957747E-01            NaN
         13   -1    0    0    0    0  0.00000000000E+00  0.00000000000E+00  0.74505805969E-08  0.10566000000E+00  0.10566000000E+00 0.  1.
     999900   -1    0    0    0    0 -0.00000000000E+00 -0.00000000000E+00 -0.74505805969E-08  0.93827000000E+00  0.93827000000E+00 0. -1.
     999902    2    1    2    0    0  0.55320013909E-02 -0.19903876411E-01 -0.57890885043E-03  0.10232635424E+01  0.10230548249E+01 0.  0.
     999903    2    3    3    0    0 -0.19257770073E-01 -0.13243662902E+00 -0.95696314782E-02  0.13570566467E+00  0.20350114502E-01 0.  0.
         14    1    1    2    0    0 -0.55320013909E-02  0.19903876411E-01  0.57890885043E-03  0.20666457631E-01  0.00000000000E+00 0.  1.
     999901    1    3    3    0    0  0.24789771464E-01  0.11253275261E+00  0.89907226278E-02  0.88755787770E+00  0.88000000000E+00 0.  1.
        -11    1    4    4    0    0 -0.18261481879E-01 -0.58308117201E-01 -0.72590431314E-02  0.61532699275E-01  0.51100000000E-03 0. -1.
         11    1    4    4    0    0 -0.99628819454E-03 -0.74128511823E-01 -0.23105883468E-02  0.74172965390E-01  0.51100000000E-03 0.  1.
</event>
<event>
 7    1  0.1145101E+005  0.1043930E+01  0.7957747E-01            NaN
         13   -1    0    0    0    0  0.00000000000E+00  0.00000000000E+00  0.74505805969E-08  0.10566000000E+00  0.10566000000E+00 0.  1.
     999900   -1    0    0    0    0 -0.00000000000E+00 -0.00000000000E+00 -0.74505805969E-08  0.93827000000E+00  0.93827000000E+00 0. -1.
     999903    2    1    2    0    0 -0.60269077659E-01 -0.58399796951E-01  0.75251927830E-01  0.11432921129E+00  0.19115907133E-01 0.  0.
         14    1    1    2    0    0 -0.29400760113E-01  0.19598129645E-01 -0.23994464247E-01  0.42710955214E-01  0.00000000000E+00 0.  1.
     999901    1    1    2    0    0  0.89669837772E-01  0.38801667307E-01 -0.51257463583E-01  0.88688983350E+00  0.88000000000E+00 0.  1.
        -11    1    3    3    0    0 -0.53171838480E-01 -0.43291886160E-01  0.53872238321E-01  0.87200407094E-01  0.51100000000E-03 0.  1.
         11    1    3    3    0    0 -0.70972391791E-02 -0.15107910791E-01  0.21379689509E-01  0.27128804193E-01  0.51100000000E-03 0. -1.
</event>
<event>
 8    1  0.1145101E+005  0.1043930E+01  0.7957747E-01            NaN
         13   -1    0    0    0    0  0.00000000000E+00  0.00000000000E+00  0.74505805969E-08  0.10566000000E+00  0.10566000000E+00 0. -1.
     999900   -1    0    0    0    0 -0.00000000000E+00 -0.00000000000E+00 -0.74505805969E-08  0.93827000000E+00  0.93827000000E+00 0. -1.
     999902    2    1    2    0    0 -0.12742060398E-01 -0.18805403916E-01 -0.16402599220E-02  0.10211551504E+01  0.10209011448E+01 0.  0.
     999903    2    3    3    0    0  0.94416758436E-02  0.12080504824E+00  0.39501788111E-01  0.12892431450E+00  0.19444348326E-01 0.  0.
         14    1    1    2    0    0  0.12742060398E-01  0.18805403916E-01  0.16402599220E-02  0.22774849554E-01  0.00000000000E+00 0.  1.
     999901    1    3    3    0    0 -0.22183736241E-01 -0.13961045215E+00 -0.41142048033E-01  0.89223083595E+00  0.88000000000E+00 0. -1.
        -11    1    4    4    0    0 -0.10558377875E-02  0.80552252342E-01  0.20156156454E-01  0.83044035998E-01  0.51100000000E-03 0. -1.
         11    1    4    4    0    0  0.10497513631E-01  0.40252795895E-01  0.19345631658E-01  0.45880278498E-01  0.51100000000E-03 0.  1.
</event>
<event>
 8    1  0.1145101E+005  0.1043930E+01  0.7957747E-01            NaN
         13   -1    0    0    0    0  0.00000000000E+00  0.00000000000E+00  0.74505805969E-08  0.10566000000E+00  0.10566000000E+00 0.  1.
     999900   -1    0    0    0    0 -0.00000000000E+00 -0.00000000000E+00 -0.74505805969E-08  0.93827000000E+00  0.93827000000E+00 0.  1.
     999902    2    1    2    0    0  0.19593827162E-01  0.49415154190E-03  0.13244311638E-01  0.10202746826E+01  0.10200004186E+01 0.  0.
     999903    2    3    3    0    0 -0.33379682207E-02  0.84270184573E-01 -0.95839843974E-01  0.12929564588E+00  0.20481267288E-01 0.  0.
         14    1    1    2    0    0 -0.19593827162E-01 -0.49415154190E-03 -0.13244311638E-01  0.23655317359E-01  0.00000000000E+00 0. -1.
     999901    1    3    3    0    0  0.22931795382E-01 -0.83776033031E-01  0.10908415561E+00  0.89097903677E+00  0.88000000000E+00 0. -1.
        -11    1    4    4    0    0 -0.86376386395E-02  0.15079085198E-01 -0.18563612729E-01  0.25433372766E-01  0.51100000000E-03 0. -1.
         11    1    4    4    0    0  0.52996704187E-02  0.69191099374E-01 -0.77276231245E-01  0.10386227311E+00  0.51100000000E-03 0.  1.
</event>
<event>
 8    1  0.1145101E+005  0.1043930E+01  0.7957747E-01            NaN
         13   -1    0    0    0    0  0.00000000000E+00  0.00000000000E+00  0.74505805969E-08  0.10566000000E+00  0.10566000000E+00 0. -1.
     999900   -1    0    0    0    0 -0.00000000000E+00 -0.00000000000E+00 -0.74505805969E-08  0.93827000000E+00  0.93827000000E+00 0.  1.
     999902    2    1    2    0    0  0.14898893466E-01 -0.61892681583E-02  0.16710823317E-01  0.10207020926E+01  0.10204377620E+01 0.  0.
     999903    2    3    3    0    0 -0.11040961739E+00 -0.10471229102E-01  0.64720647048E-01  0.13051924549E+00  0.23379072646E-01 0.  0.
         14    1    1    2    0    0 -0.14898893466E-01  0.61892681583E-02 -0.16710823317E-01  0.23227907413E-01  0.00000000000E+00 0.  1.
     999901    1    3    3    0    0  0.12530851086E+00  0.42819609435E-02 -0.48009823730E-01  0.89018284709E+00  0.88000000000E+00 0.  1.
        -11    1    4    4    0    0 -0.24374712170E-01 -0.11275681888E-01  0.20434867019E-01  0.33750740829E-01  0.51100000000E-03 0.  1.
         11    1    4    4    0    0 -0.86034905225E-01  0.80445278585E-03  0.44285780029E-01  0.96768504665E-01  0.51100000000E-03 0. -1.
</event>
<event>
 8    1  0.1145101E+005  0.1043930E+01  0.7957747E-01            NaN
         13   -1    0    0    0    0  0.00000000000E+00  0.00000000000E+00  0.74505805969E-08  0.10566000000E+00  0.10566000000E+00 0. -1.
     999900   -1    0    0    0    0 -0.00000000000E+00 -0.00000000000E+00 -0.74505805969E-08  0.93827000000E+00  0.93827000000E+00 0.  1.
     999902    2    1    2    0    0  0.16183206803E-01 -0.87490754084E-02 -0.19293667104E-01  0.10172712661E+01  0.10169218951E+01 0.  0.
     999903    2    3    3    0    0  0.11261544634E+00  0.13741519993E-01  0.56627072210E-01  0.12846928457E+00  0.20655838042E-01 0.  0.
         14    1    1    2    0    0 -0.16183206803E-01  0.87490754084E-02  0.19293667104E-01  0.26658733902E-01  0.00000000000E+00 0.  1.
     999901    1    3    3    0    0 -0.96432239539E-01 -0.22490595401E-01 -0.75920739314E-01  0.88880198152E+00  0.88000000000E+00 0.  1.
        -11    1    4    4    0    0  0.74368883366E-01 -0.23128290059E-03  0.40374733199E-01  0.84623663988E-01  0.51100000000E-03 0. -1.
         11    1    4    4    0    0  0.38246562976E-01  0.13972802894E-01  0.16252339011E-01  0.43845620585E-01  0.51100000000E-03 0.  1.
</event>
<event>
 8    1  0.1145101E+005  0.1043930E+01  0.7957747E-01            NaN
         13   -1    0    0    0    0  0.00000000000E+00  0.00000000000E+00  0.74505805969E-08  0.10566000000E+00  0.10566000000E+00 0.  1.
     999900   -1    0    0    0    0 -0.00000000000E+00 -0.00000000000E+00 -0.74505805969E-08  0.93827000000E+00  0.93827000000E+00 0.  1.
     999902    2    1    2    0    0 -0.20991871477E-01 -0.20700708200E-02 -0.92305061757E-03  0.10228161211E+01  0.10225981721E+01 0.  0.
     999903    2    3    3    0    0  0.71442810567E-01  0.57070413483E-01 -0.92062290077E-01  0.13132964988E+00  0.20270777179E-01 0.  0.
         14    1    1    2    0    0  0.20991871477E-01  0.20700708200E-02  0.92305061757E-03  0.21113878936E-01  0.00000000000E+00 0. -1.
     999901    1    3    3    0    0 -0.92434682043E-01 -0.59140484303E-01  0.91139239460E-01  0.89148647118E+00  0.88000000000E+00 0. -1.
        -11    1    4    4    0    0  0.46630952868E-01  0.37167693342E-01 -0.45830377773E-01  0.75210157834E-01  0.51100000000E-03 0. -1.
         11    1    4    4    0    0  0.24811857699E-01  0.19902720141E-01 -0.46231912305E-01  0.56119492049E-01  0.51100000000E-03 0.  1.
</event>
<event>
 8    1  0.1145101E+005  0.1043930E+01  0.7957747E-01            NaN
         13   -1    0    0    0    0  0.00000000000E+00  0.00000000000E+00  0.74505805969E-08  0.10566000000E+00  0.10566000000E+00 0.  1.
     999900   -1    0    0    0    0 -0.00000000000E+00 -0.00000000000E+00 -0.74505805969E-08  0.93827000000E+00  0.93827000000E+00 0. -1.
     999902    2    1    2    0    0 -0.20584445474E-01  0.20170347417E-03 -0.11633079401E-01  0.10202849452E+01  0.10200109219E+01 0.  0.
     999903    2    3    3    0    0  0.15150485944E-01 -0.57891571649E-01  0.11290073779E+00  0.12890372173E+00  0.16988866686E-01 0.  0.
         14    1    1    2    0    0  0.20584445474E-01 -0.20170347417E-03  0.11633079401E-01  0.23645054792E-01  0.00000000000E+00 0.  1.
     999901    1    3    3    0    0 -0.35734931419E-01  0.58093275123E-01 -0.12453381719E+00  0.89138122347E+00  0.88000000000E+00 0. -1.
        -11    1    4    4    0    0  0.17462925346E-01 -0.55309031718E-01  0.10070361949E+00  0.11621326452E+00  0.51100000000E-03 0.  1.
         11    1    4    4    0    0 -0.23124394019E-02 -0.25825399304E-02  0.12197118297E-01  0.12690457211E-01  0.51100000000E-03 0. -1.
</event>
<event>
 8    1  0.1145101E+005  0.1043930E+01  0.7957747E-01            NaN
         13   -1    0    0    0    0  0.00000000000E+00  0.00000000000E+00  0.74505805969E-08  0.10566000000E+00  0.10566000000E+00 0.  1.
     999900   -1    0    0    0    0 -0.00000000000E+00 -0.00000000000E+00 -0.74505805969E-08  0.93827000000E+00  0.93827000000E+00 0. -1.
     999902    2    1    2    0    0  0.44680127415E-02 -0.23195047896E-02  0.23003532651E-01  0.10203820541E+01  0.10201103032E+01 0.  0.
     999903    2    3    3    0    0 -0.11290110170E+00  0.47479904793E-01  0.41299169130E-01  0.13100574427E+00  0.21351429419E-01 0.  0.
         14    1    1    2    0    0 -0.44680127415E-02  0.23195047896E-02 -0.23003532651E-01  0.23547945872E-01  0.00000000000E+00 0. -1.
     999901    1    3    3    0    0  0.11736911444E+00 -0.49799409583E-01 -0.18295636478E-01  0.88937630986E+00  0.88000000000E+00 0. -1.
        -11    1    4    4    0    0 -0.82728356304E-01  0.38751952936E-01  0.39530691307E-01  0.99542109026E-01  0.51100000000E-03 0.  1.
         11    1    4    4    0    0 -0.30172745392E-01  0.87279518570E-02  0.17684778226E-02  0.31463635247E-01  0.51100000000E-03 0. -1.
</event>
<event>
 8    1  0.1145101E+005  0.1043930E+01  0.7957747E-01            NaN
         13   -1    0    0    0    0  0.00000000000E+00  0.00000000000E+00  0.74505805969E-08  0.10566000000E+00  0.10566000000E+00 0.  1.
     999900   -1    0    0    0    0 -0.00000000000E+00 -0.00000000000E+00 -0.74505805969E-08  0.93827000000E+00  0.93827000000E+00 0. -1.
     999902    2    1    2    0    0 -0.22328984247E-01  0.43322757577E-02  0.99467802302E-03  0.10211628848E+01  0.10209090536E+01 0.  0.
     999903    2    3    3    0    0 -0.25283294613E-01 -0.12465666984E+00 -0.26536216498E-01  0.13132872822E+00  0.19092766946E-01 0.  0.
         14    1    1    2    0    0  0.22328984247E-01 -0.43322757577E-02 -0.99467802302E-03  0.22767115213E-01  0.00000000000E+00 0. -1.
     999901    1    3    3    0    0  0.29543103665E-02  0.12898894559E+00  0.27530894521E-01  0.88983415656E+00  0.88000000000E+00 0. -1.
        -11    1    4    4    0    0 -0.26289391477E-01 -0.11202963101E+00 -0.19149925241E-01  0.11665655184E+00  0.51100000000E-03 0. -1.
         11    1    4    4    0    0  0.10060968632E-02 -0.12627038822E-01 -0.73862912567E-02  0.14672176384E-01  0.51100000000E-03 0.  1.
</event>
<event>
 8    1  0.1145101E+005  0.1043930E+01  0.7957747E-01            NaN
         13   -1    0    0    0    0  0.00000000000E+00  0.00000000000E+00  0.74505805969E-08  0.10566000000E+00  0.10566000000E+00 0. -1.
     999900   -1    0    0    0    0 -0.00000000000E+00 -0.00000000000E+00 -0.74505805969E-08  0.93827000000E+00  0.93827000000E+00 0.  1.
     999902    2    1    2    0    0  0.26029783054E-02 -0.20509351198E-01  0.95964424396E-02  0.10211374422E+01  0.10208830370E+01 0.  0.
     999903    2    3    3    0    0  0.46792111556E-01 -0.40406719671E-01  0.11642148250E+00  0.13335358680E+00  0.20174558857E-01 0.  0.
         14    1    1    2    0    0 -0.26029783054E-02  0.20509351198E-01 -0.95964424396E-02  0.22792557780E-01  0.00000000000E+00 0.  1.
     999901    1    3    3    0    0 -0.44189133251E-01  0.19897368472E-01 -0.10682504006E+00  0.88778385543E+00  0.88000000000E+00 0.  1.
        -11    1    4    4    0    0  0.34221776227E-01 -0.30836474642E-01  0.65817035013E-01  0.80337795311E-01  0.51100000000E-03 0.  1.
         11    1    4    4    0    0  0.12570335329E-01 -0.95702450282E-02  0.50604447488E-01  0.53015791484E-01  0.51100000000E-03 0. -1.
</event>
<event>
 7    1  0.1522884E+005  0.1043930E+01  0.7957747E-01            NaN
         13   -1    0    0    0    0  0.00000000000E+00  0.00000000000E+00  0.74505805969E-08  0.10566000000E+00  0.10566000000E+00 0.  1.
     999900   -1    0    0    0    0 -0.00000000000E+00 -0.00000000000E+00 -0.74505805969E-08  0.93827000000E+00  0.93827000000E+00 0. -1.
     999903    2    1    2    0    0  0.79035664256E-01  0.72166420247E-01  0.17372646410E-02  0.10911981020E+00  0.21201095608E-01 0.  0.
         14    1    1    2    0    0 -0.39328630119E-01 -0.31046968541E-01  0.16541413869E-01  0.52766218127E-01  0.00000000000E+00 0.  1.
     999901    1    1    2    0    0 -0.39707034137E-01 -0.41119451707E-01 -0.18278678510E-01  0.88204397167E+00  0.88000000000E+00 0.  1.
        -11    1    3    3    0    0  0.47739690214E-01  0.43737544868E-01  0.11405626378E-01  0.65744963966E-01  0.51100000000E-03 0.  1.
         11    1    3    3    0    0  0.31295974042E-01  0.28428875379E-01 -0.96683617365E-02  0.43374846239E-01  0.51100000000E-03 0. -1.
</event>
<event>
 8    1  0.1145101E+005  0.1043930E+01  0.7957747E-01            NaN
         13   -1    0    0    0    0  0.00000000000E+00  0.00000000000E+00  0.74505805969E-08  0.10566000000E+00  0.10566000000E+00 0.  1.
     999900   -1    0    0    0    0 -0.00000000000E+00 -0.00000000000E+00 -0.74505805969E-08  0.93827000000E+00  0.93827000000E+00 0. -1.
     999902    2    1    2    0    0  0.11780262799E-01 -0.11997712383E-02  0.22727672614E-01  0.10183026485E+01  0.10179801191E+01 0.  0.
     999903    2    3    3    0    0 -0.43191269284E-01 -0.74287972269E-01  0.96260161097E-01  0.13051281901E+00  0.19580315279E-01 0.  0.
         14    1    1    2    0    0 -0.11780262799E-01  0.11997712383E-02 -0.22727672614E-01  0.25627351503E-01  0.00000000000E+00 0.  1.
     999901    1    3    3    0    0  0.54971532083E-01  0.73088201031E-01 -0.73532488484E-01  0.88778982948E+00  0.88000000000E+00 0. -1.
        -11    1    4    4    0    0 -0.12365450780E-01 -0.27088618822E-01  0.47032286812E-01  0.55668615633E-01  0.51100000000E-03 0. -1.
         11    1    4    4    0    0 -0.30825818503E-01 -0.47199353447E-01  0.49227874286E-01  0.74844203382E-01  0.51100000000E-03 0.  1.
</event>
<event>
 8    1  0.1145101E+005  0.1043930E+01  0.7957747E-01            NaN
         13   -1    0    0    0    0  0.00000000000E+00  0.00000000000E+00  0.74505805969E-08  0.10566000000E+00  0.10566000000E+00 0. -1.
     999900   -1    0    0    0    0 -0.00000000000E+00 -0.00000000000E+00 -0.74505805969E-08  0.93827000000E+00  0.93827000000E+00 0. -1.
     999902    2    1    2    0    0  0.22250328997E-01  0.95223536346E-02  0.26240292369E-02  0.10195858449E+01  0.10192951767E+01 0.  0.
     999903    2    3    3    0    0  0.93461988426E-03 -0.35959025919E-01  0.12316164317E+00  0.12994983408E+00  0.20597183488E-01 0.  0.
         14    1    1    2    0    0 -0.22250328997E-01 -0.95223536346E-02 -0.26240292369E-02  0.24344155123E-01  0.00000000000E+00 0. -1.
     999901    1    3    3    0    0  0.21315709112E-01  0.45481379554E-01 -0.12053761394E+00  0.88963601080E+00  0.88000000000E+00 0. -1.
        -11    1    4    4    0    0 -0.60500504895E-02 -0.27714215879E-01  0.67059773604E-01  0.72814526226E-01  0.51100000000E-03 0.  1.
         11    1    4    4    0    0  0.69846703738E-02 -0.82448100401E-02  0.56101869570E-01  0.57135307850E-01  0.51100000000E-03 0. -1.
</event>
<event>
 8    1  0.1145101E+005  0.1043930E+01  0.7957747E-01            NaN
         13   -1    0    0    0    0  0.00000000000E+00  0.00000000000E+00  0.74505805969E-08  0.10566000000E+00  0.10566000000E+00 0. -1.
     999900   -1    0    0    0    0 -0.00000000000E+00 -0.00000000000E+00 -0.74505805969E-08  0.93827000000E+00  0.93827000000E+00 0.  1.
     999902    2    1    2    0    0  0.80543539317E-02 -0.59291491753E-02 -0.21507806061E-01  0.10202105323E+01  0.10199347612E+01 0.  0.
     999903    2    3    3    0    0 -0.12478365511E-01  0.11013470840E+00 -0.67276143933E-01  0.13117332701E+00  0.19874571126E-01 0.  0.
         14    1    1    2    0    0 -0.80543539317E-02  0.59291491753E-02  0.21507806061E-01  0.23719467717E-01  0.00000000000E+00 0. -1.
     999901    1    3    3    0    0  0.20532719443E-01 -0.11606385757E+00  0.45768337871E-01  0.88903720527E+00  0.88000000000E+00 0.  1.
        -11    1    4    4    0    0 -0.87526683981E-02  0.20144271675E-01 -0.81557072088E-02  0.23434537898E-01  0.51100000000E-03 0.  1.
         11    1    4    4    0    0 -0.37256971132E-02  0.89990436723E-01 -0.59120436724E-01  0.10773878912E+00  0.51100000000E-03 0. -1.
</event>
<event>
 8    1  0.1145101E+005  0.1043930E+01  0.7957747E-01            NaN
         13   -1    0    0    0    0  0.00000000000E+00  0.00000000000E+00  0.74505805969E-08  0.10566000000E+00  0.10566000000E+00 0.  1.
     999900   -1    0    0    0    0 -0.00000000000E+00 -0.00000000000E+00 -0.74505805969E-08  0.93827000000E+00  0.93827000000E+00 0. -1.
     999902    2    1    2    0    0 -0.45084404946E-02  0.14252811427E-01  0.19881769646E-01  0.10190552451E+01  0.10187516081E+01 0.  0.
     999903    2    3    3    0    0  0.18623296250E-01  0.97004196257E-01  0.86026722816E-01  0.13239971794E+00  0.19298886429E-01 0.  0.
         14    1    1    2    0    0  0.45084404946E-02 -0.14252811427E-01 -0.19881769646E-01  0.24874754944E-01  0.00000000000E+00 0. -1.
     999901    1    3    3    0    0 -0.23131736744E-01 -0.82751384831E-01 -0.66144953170E-01  0.88665552712E+00  0.88000000000E+00 0. -1.
        -11    1    4    4    0    0 -0.34464836126E-03  0.44599671178E-01  0.33148925375E-01  0.55573031465E-01  0.51100000000E-03 0. -1.
         11    1    4    4    0    0  0.18967944611E-01  0.52404525080E-01  0.52877797441E-01  0.76826686475E-01  0.51100000000E-03 0.  1.
</event>
<event>
 8    1  0.1145101E+005  0.1043930E+01  0.7957747E-01            NaN
         13   -1    0    0    0    0  0.00000000000E+00  0.00000000000E+00  0.74505805969E-08  0.10566000000E+00  0.10566000000E+00 0.  1.
     999900   -1    0    0    0    0 -0.00000000000E+00 -0.00000000000E+00 -0.74505805969E-08  0.93827000000E+00  0.93827000000E+00 0. -1.
     999902    2    1    2    0    0 -0.32703011966E-02 -0.21546061673E-01 -0.97196295820E-02  0.10200679204E+01  0.10197887837E+01 0.  0.
     999903    2    3    3    0    0  0.42870989263E-02  0.60413638734E-01  0.11114044161E+00  0.12800196791E+00  0.19081904107E-01 0.  0.
         14    1    1    2    0    0  0.32703011966E-02  0.21546061673E-01  0.97196295820E-02  0.23862079598E-01  0.00000000000E+00 0.  1.
     999901    1    3    3    0    0 -0.75574001229E-02 -0.81959700406E-01 -0.12086007120E+00  0.89206595249E+00  0.88000000000E+00 0. -1.
        -11    1    4    4    0    0  0.28560125215E-02  0.27462078330E-01  0.32035551287E-01  0.42294919564E-01  0.51100000000E-03 0. -1.
         11    1    4    4    0    0  0.14310864048E-02  0.32951560404E-01  0.79104890327E-01  0.85707048345E-01  0.51100000000E-03 0.  1.
</event>
<event>
 8    1  0.1145101E+005  0.1043930E+01  0.7957747E-01            NaN
         13   -1    0    0    0    0  0.00000000000E+00  0.00000000000E+00  0.74505805969E-08  0.10566000000E+00  0.10566000000E+00 0. -1.
     999900   -1    0    0    0    0 -0.00000000000E+00 -0.00000000000E+00 -0.74505805969E-08  0.93827000000E+00  0.93827000000E+00 0.  1.
     999902    2    1    2    0    0  0.20175663251E-01 -0.12244699762E-01 -0.51222855392E-02  0.10197798888E+01  0.10194938910E+01 0.  0.
     999903    2    3    3    0    0 -0.84289323886E-01  0.24250600805E-01  0.90575133836E-01  0.12770206904E+00  0.20277618391E-01 0.  0.
         14    1    1    2    0    0 -0.20175663251E-01  0.12244699762E-01  0.51222855392E-02  0.24150111160E-01  0.00000000000E+00 0. -1.
     999901    1    3    3    0    0  0.10446498714E+00 -0.36495300568E-01 -0.95697419375E-01  0.89207781980E+00  0.88000000000E+00 0.  1.
        -11    1    4    4    0    0 -0.36727893635E-01  0.40593493319E-02  0.49043041631E-01  0.61407634226E-01  0.51100000000E-03 0. -1.
         11    1    4    4    0    0 -0.47561430251E-01  0.20191251474E-01  0.41532092205E-01  0.66294434816E-01  0.51100000000E-03 0.  1.
</event>
<event>
 8    1  0.1145101E+005  0.1043930E+01  0.7957747E-01            NaN
         13   -1    0    0    0    0  0.00000000000E+00  0.00000000000E+00  0.74505805969E-08  0.10566000000E+00  0.10566000000E+00 0.  1.
     999900   -1    0    0    0    0 -0.00000000000E+00 -0.00000000000E+00 -0.74505805969E-08  0.93827000000E+00  0.93827000000E+00 0.  1.
     999902    2    1    2    0    0  0.19755534976E-01 -0.15007393694E-01 -0.37171143925E-03  0.10191178821E+01  0.10188157912E+01 0.  0.
     999903    2    3    3    0    0 -0.10186427995E-01  0.12297700273E+00 -0.25315683628E-01  0.12751347619E+00  0.19791317724E-01 0.  0.
         14    1    1    2    0    0 -0.19755534976E-01  0.15007393694E-01  0.37171143925E-03  0.24812117948E-01  0.00000000000E+00 0.  1.
     999901    1    3    3    0    0  0.29941962970E-01 -0.13798439642E+00  0.24943972188E-01  0.89160440586E+00  0.88000000000E+00 0.  1.
        -11    1    4    4    0    0 -0.38701931192E-02  0.61862639593E-01 -0.27101006859E-02  0.62044905825E-01  0.51100000000E-03 0. -1.
         11    1    4    4    0    0 -0.63162348756E-02  0.61114363136E-01 -0.22605582942E-01  0.65468570365E-01  0.51100000000E-03 0.  1.
</event>
<event>
 8    1  0.1145101E+005  0.1043930E+01  0.7957747E-01            NaN
         13   -1    0    0    0    0  0.00000000000E+00  0.00000000000E+00  0.74505805969E-08  0.10566000000E+00  0.10566000000E+00 0. -1.
     999900   -1    0    0    0    0 -0.00000000000E+00 -0.00000000000E+00 -0.74505805969E-08  0.93827000000E+00  0.93827000000E+00 0. -1.
     999902    2    1    2    0    0 -0.92531089822E-02 -0.12787896884E-01 -0.17755010595E-01  0.10201730908E+01  0.10198964381E+01 0.  0.
     999903    2    3    3    0    0  0.47796918339E-01  0.19595419231E-01  0.11508776951E+00  0.12778831450E+00  0.20399332734E-01 0.  0.
         14    1    1    2    0    0  0.92531089822E-02  0.12787896884E-01  0.17755010595E-01  0.23756909180E-01  0.00000000000E+00 0. -1.
     999901    1    3    3    0    0 -0.57050027321E-01 -0.32383316115E-01 -0.13284278010E+00  0.89238477632E+00  0.88000000000E+00 0. -1.
        -11    1    4    4    0    0  0.43449061117E-01  0.18163500691E-01  0.11355517216E+00  0.12293401448E+00  0.51100000000E-03 0.  1.
         11    1    4    4    0    0  0.43478572214E-02  0.14319185402E-02  0.15325973424E-02  0.48543000255E-02  0.51100000000E-03 0. -1.
</event>
<event>
 8    1  0.1145101E+005  0.1043930E+01  0.7957747E-01            NaN
         13   -1    0    0    0    0  0.00000000000E+00  0.00000000000E+00  0.74505805969E-08  0.10566000000E+00  0.10566000000E+00 0.  1.
     999900   -1    0    0    0    0 -0.00000000000E+00 -0.00000000000E+00 -0.74505805969E-08  0.93827000000E+00  0.93827000000E+00 0. -1.
     999902    2    1    2    0    0 -0.71345636277E-03  0.68464201363E-02  0.21172558969E-01  0.10216665829E+01  0.10214239800E+01 0.  0.
     999903    2    3    3    0    0 -0.99186539896E-01  0.47636954133E-01  0.73402539582E-01  0.13369767198E+00  0.19490653670E-01 0.  0.
         14    1    1    2    0    0  0.71345636277E-03 -0.68464201363E-02 -0.21172558969E-01  0.22263417122E-01  0.00000000000E+00 0. -1.
     999901    1    3    3    0    0  0.98473083533E-01 -0.40790533997E-01 -0.52229980613E-01  0.88796891090E+00  0.88000000000E+00 0. -1.
        -11    1    4    4    0    0 -0.66331778991E-01  0.22288342507E-01  0.41559906529E-01  0.81388955439E-01  0.51100000000E-03 0. -1.
         11    1    4    4    0    0 -0.32854760905E-01  0.25348611627E-01  0.31842633053E-01  0.52308716542E-01  0.51100000000E-03 0.  1.
</event>
<event>
 8    1  0.1145101E+005  0.1043930E+01  0.7957747E-01            NaN
         13   -1    0    0    0    0  0.00000000000E+00  0.00000000000E+00  0.74505805969E-08  0.10566000000E+00  0.10566000000E+00 0. -1.
     999900   -1    0    0    0    0 -0.00000000000E+00 -0.00000000000E+00 -0.74505805969E-08  0.93827000000E+00  0.93827000000E+00 0. -1.
     999902    2    1    2    0    0  0.88369060160E-02  0.15912510793E-01 -0.14531881479E-01  0.10206389183E+01  0.10203731313E+01 0.  0.
     999903    2    3    3    0    0  0.55482978896E-01 -0.10596271110E+00  0.44110847346E-01  0.12908499650E+00  0.20266040000E-01 0.  0.
         14    1    1    2    0    0 -0.88369060160E-02 -0.15912510793E-01  0.14531881479E-01  0.23291081705E-01  0.00000000000E+00 0. -1.
     999901    1    3    3    0    0 -0.46646072880E-01  0.12187522189E+00 -0.58642728825E-01  0.89155392180E+00  0.88000000000E+00 0. -1.
        -11    1    4    4    0    0  0.25864333474E-01 -0.29245765652E-01  0.15577887055E-01  0.42038199780E-01  0.51100000000E-03 0. -1.
         11    1    4    4    0    0  0.29618645422E-01 -0.76716945446E-01  0.28532960291E-01  0.87046796719E-01  0.51100000000E-03 0.  1.
</event>
<event>
 8    1  0.1145101E+005  0.1043930E+01  0.7957747E-01            NaN
         13   -1    0    0    0    0  0.00000000000E+00  0.00000000000E+00  0.74505805969E-08  0.10566000000E+00  0.10566000000E+00 0.  1.
     999900   -1    0    0    0    0 -0.00000000000E+00 -0.00000000000E+00 -0.74505805969E-08  0.93827000000E+00  0.93827000000E+00 0. -1.
     999902    2    1    2    0    0 -0.12726943609E-01 -0.92495063104E-02  0.17822208912E-01  0.10201569146E+01  0.10198798805E+01 0.  0.
     999903    2    3    3    0    0  0.10273631851E+00  0.42523057987E-01  0.64118230087E-01  0.12990106095E+00  0.20004414672E-01 0.  0.
         14    1    1    2    0    0  0.12726943609E-01  0.92495063104E-02 -0.17822208912E-01  0.23773085436E-01  0.00000000000E+00 0. -1.
     999901    1    3    3    0    0 -0.11546326212E+00 -0.51772564298E-01 -0.46296021175E-01  0.89025585361E+00  0.88000000000E+00 0. -1.
        -11    1    4    4    0    0  0.45986406429E-01  0.24785667883E-01  0.20336972713E-01  0.56061863051E-01  0.51100000000E-03 0.  1.
         11    1    4    4    0    0  0.56749912078E-01  0.17737390104E-01  0.43781257374E-01  0.73839197902E-01  0.51100000000E-03 0. -1.
</event>
<event>
 8    1  0.1145101E+005  0.1043930E+01  0.7957747E-01            NaN
         13   -1    0    0    0    0  0.00000000000E+00  0.00000000000E+00  0.74505805969E-08  0.10566000000E+00  0.10566000000E+00 0. -1.
     999900   -1    0    0    0    0 -0.00000000000E+00 -0.00000000000E+00 -0.74505805969E-08  0.93827000000E+00  0.93827000000E+00 0.  1.
     999902    2    1    2    0    0  0.12563646948E-01 -0.14629445925E-01 -0.69417852264E-02  0.10234347739E+01  0.10232295354E+01 0.  0.
     999903    2    3    3    0    0 -0.95902843066E-01  0.77988050436E-01 -0.39604778073E-01  0.13135302245E+00  0.20139184217E-01 0.  0.
         14    1    1    2    0    0 -0.12563646948E-01  0.14629445925E-01  0.69417852264E-02  0.20495226147E-01  0.00000000000E+00 0. -1.
     999901    1    3    3    0    0  0.10846649001E+00 -0.92617496361E-01  0.32662992846E-01  0.89208175141E+00  0.88000000000E+00 0.  1.
        -11    1    4    4    0    0 -0.49544446304E-01  0.52196478236E-01 -0.26631280756E-01  0.76737283869E-01  0.51100000000E-03 0.  1.
         11    1    4    4    0    0 -0.46358396762E-01  0.25791572200E-01 -0.12973497316E-01  0.54615738579E-01  0.51100000000E-03 0. -1.
</event>
<event>
 8    1  0.1145101E+005  0.1043930E+01  0.7957747E-01            NaN
         13   -1    0    0    0    0  0.00000000000E+00  0.00000000000E+00  0.74505805969E-08  0.10566000000E+00  0.10566000000E+00 0.  1.
     999900   -1    0    0    0    0 -0.00000000000E+00 -0.00000000000E+00 -0.74505805969E-08  0.93827000000E+00  0.93827000000E+00 0.  1.
     999902    2    1    2    0    0 -0.84839249645E-02 -0.19394766590E-01 -0.44175293365E-02  0.10223048175E+01  0.10220760692E+01 0.  0.
     999903    2    3    3    0    0 -0.86158974144E-01 -0.74404302283E-01 -0.68730192153E-01  0.13483899792E+00  0.22323687465E-01 0.  0.
         14    1    1    2    0    0  0.84839249645E-02  0.19394766590E-01  0.44175293365E-02  0.21625182527E-01  0.00000000000E+00 0. -1.
     999901    1    3    3    0    0  0.77675049180E-01  0.55009535693E-01  0.64312662816E-01  0.88746581956E+00  0.88000000000E+00 0. -1.
        -11    1    4    4    0    0 -0.69403903550E-01 -0.66173472204E-01 -0.64850622482E-01  0.11576568839E+00  0.51100000000E-03 0.  1.
         11    1    4    4    0    0 -0.16755070594E-01 -0.82308300790E-02 -0.38795696707E-02  0.19073309525E-01  0.51100000000E-03 0. -1.
</event>
<event>
 8    1  0.1145101E+005  0.1043930E+01  0.7957747E-01            NaN
         13   -1    0    0    0    0  0.00000000000E+00  0.00000000000E+00  0.74505805969E-08  0.10566000000E+00  0.10566000000E+00 0. -1.
     999900   -1    0    0    0    0 -0.00000000000E+00 -0.00000000000E+00 -0.74505805969E-08  0.93827000000E+00  0.93827000000E+00 0. -1.
     999902    2    1    2    0    0  0.18064744040E-01 -0.22604843326E-02  0.15835740996E-01  0.10198008587E+01  0.10195153633E+01 0.  0.
     999903    2    3    3    0    0  0.76176301406E-01 -0.10561742373E+00  0.29306533019E-02  0.13175460354E+00  0.19819630009E-01 0.  0.
         14    1    1    2    0    0 -0.18064744040E-01  0.22604843326E-02 -0.15835740996E-01  0.24129141293E-01  0.00000000000E+00 0.  1.
     999901    1    3    3    0    0 -0.58111557366E-01  0.10335693940E+00  0.12905087694E-01  0.88804625516E+00  0.88000000000E+00 0. -1.
        -11    1    4    4    0    0  0.59140316058E-01 -0.66411072032E-01  0.35522627847E-02  0.88999366086E-01  0.51100000000E-03 0.  1.
         11    1    4    4    0    0  0.17035985348E-01 -0.39206351703E-01 -0.62160948282E-03  0.42755237456E-01  0.51100000000E-03 0. -1.
</event>
<event>
 8    1  0.1145101E+005  0.1043930E+01  0.7957747E-01            NaN
         13   -1    0    0    0    0  0.00000000000E+00  0.00000000000E+00  0.74505805969E-08  0.10566000000E+00  0.10566000000E+00 0. -1.
     999900   -1    0    0    0    0 -0.00000000000E+00 -0.00000000000E+00 -0.74505805969E-08  0.93827000000E+00  0.93827000000E+00 0. -1.
     999902    2    1    2    0    0 -0.22843527821E-01 -0.50469774383E-02  0.58589510049E-02  0.10198130754E+01  0.10195278725E+01 0.  0.
     999903    2    3    3    0    0  0.63512644488E-01 -0.10191683755E+00 -0.42502709642E-01  0.12898199799E+00  0.20223196879E-01 0.  0.
         14    1    1    2    0    0  0.22843527821E-01  0.50469774383E-02 -0.58589510049E-02  0.24116924585E-01  0.00000000000E+00 0. -1.
     999901    1    3    3    0    0 -0.86356172309E-01  0.96869860109E-01  0.48361660647E-01  0.89083107743E+00  0.88000000000E+00 0.  1.
        -11    1    4    4    0    0  0.26498427447E-01 -0.59287001193E-01 -0.27789817927E-01  0.70637456558E-01  0.51100000000E-03 0.  1.
         11    1    4    4    0    0  0.37014217041E-01 -0.42629836354E-01 -0.14712891715E-01  0.58344541428E-01  0.51100000000E-03 0. -1.
</event>
<event>
 8    1  0.1145101E+005  0.1043930E+01  0.7957747E-01            NaN
         13   -1    0    0    0    0  0.00000000000E+00  0.00000000000E+00  0.74505805969E-08  0.10566000000E+00  0.10566000000E+00 0.  1.
     999900   -1    0    0    0    0 -0.00000000000E+00 -0.00000000000E+00 -0.74505805969E-08  0.93827000000E+00  0.93827000000E+00 0.  1.
     999902    2    1    2    0    0 -0.16477937495E-01 -0.16551636312E-01 -0.69987568331E-02  0.10195484150E+01  0.10192568415E+01 0.  0.
     999903    2    3    3    0    0 -0.76867969580E-01  0.10212863596E+00  0.49911797580E-03  0.12949887644E+00  0.20754923541E-01 0.  0.
         14    1    1    2    0    0  0.16477937495E-01  0.16551636312E-01  0.69987568331E-02  0.24381584975E-01  0.00000000000E+00 0. -1.
     999901    1    3    3    0    0  0.60390032086E-01 -0.11868027227E+00 -0.74978748089E-02  0.89004953858E+00  0.88000000000E+00 0. -1.
        -11    1    4    4    0    0 -0.28212876364E-01  0.27460021689E-01  0.75726652491E-02  0.40095206245E-01  0.51100000000E-03 0.  1.
         11    1    4    4    0    0 -0.48655093217E-01  0.74668614271E-01 -0.70735472733E-02  0.89403670199E-01  0.51100000000E-03 0. -1.
</event>
<event>
 8    1  0.1145101E+005  0.1043930E+01  0.7957747E-01            NaN
         13   -1    0    0    0    0  0.00000000000E+00  0.00000000000E+00  0.74505805969E-08  0.10566000000E+00  0.10566000000E+00 0.  1.
     999900   -1    0    0    0    0 -0.00000000000E+00 -0.00000000000E+00 -0.74505805969E-08  0.93827000000E+00  0.93827000000E+00 0.  1.
     999902    2    1    2    0    0 -0.21375915825E-01  0.51305135615E-02 -0.73769739487E-02  0.10207422513E+01  0.10204788444E+01 0.  0.
     999903    2    3    3    0    0 -0.12982569280E-01  0.11976768512E+00  0.49196152396E-01  0.13146577682E+00  0.18712123382E-01 0.  0.
         14    1    1    2    0    0  0.21375915825E-01 -0.51305135615E-02  0.73769739487E-02  0.23187748735E-01  0.00000000000E+00 0.  1.
     999901    1    3    3    0    0 -0.83933465450E-02 -0.11463717156E+00 -0.56573126345E-01  0.88927647444E+00  0.88000000000E+00 0. -1.
        -11    1    4    4    0    0 -0.14695857784E-01  0.10729643903E+00  0.38500610997E-01  0.11493934154E+00  0.51100000000E-03 0.  1.
         11    1    4    4    0    0  0.17132885033E-02  0.12471246087E-01  0.10695541399E-01  0.16526435286E-01  0.51100000000E-03 0. -1.
</event>
<event>
 8    1  0.1145101E+005  0.1043930E+01  0.7957747E-01            NaN
         13   -1    0    0    0    0  0.00000000000E+00  0.00000000000E+00  0.74505805969E-08  0.10566000000E+00  0.10566000000E+00 0. -1.
     999900   -1    0    0    0    0 -0.00000000000E+00 -0.00000000000E+00 -0.74505805969E-08  0.93827000000E+00  0.93827000000E+00 0. -1.
     999902    2    1    2    0    0 -0.21015414393E-01  0.88893852552E-02 -0.50432054909E-02  0.10205611589E+01  0.10202935736E+01 0.  0.
     999903    2    3    3    0    0  0.38219933799E-01 -0.70998458312E-01  0.98291843226E-01  0.12895080325E+00  0.21574957511E-01 0.  0.
         14    1    1    2    0    0  0.21015414393E-01 -0.88893852552E-02  0.50432054909E-02  0.23368841091E-01  0.00000000000E+00 0.  1.
     999901    1    3    3    0    0 -0.59235348192E-01  0.79887843568E-01 -0.10333504872E+00  0.89161035566E+00  0.88000000000E+00 0. -1.
        -11    1    4    4    0    0  0.24935347317E-01 -0.48522547187E-01  0.49768038635E-01  0.73846651393E-01  0.51100000000E-03 0. -1.
         11    1    4    4    0    0  0.13284586482E-01 -0.22475911126E-01  0.48523804590E-01  0.55104151857E-01  0.51100000000E-03 0.  1.
</event>
<event>
 8    1  0.1145101E+005  0.1043930E+01  0.7957747E-01            NaN
         13   -1    0    0    0    0  0.00000000000E+00  0.00000000000E+00  0.74505805969E-08  0.10566000000E+00  0.10566000000E+00 0. -1.
     999900   -1    0    0    0    0 -0.00000000000E+00 -0.00000000000E+00 -0.74505805969E-08  0.93827000000E+00  0.93827000000E+00 0. -1.
     999902    2    1    2    0    0  0.24094870756E-01 -0.16682070411E-01  0.27444002763E-02  0.10144955643E+01  0.10140684711E+01 0.  0.
     999903    2    3    3    0    0 -0.10740634116E+00 -0.54835838128E-01  0.19700988196E-01  0.12374542844E+00  0.19537422022E-01 0.  0.
         14    1    1    2    0    0 -0.24094870756E-01  0.16682070411E-01 -0.27444002763E-02  0.29434435663E-01  0.00000000000E+00 0.  1.
     999901    1    3    3    0    0  0.13150121192E+00  0.38153767717E-01 -0.16956587920E-01  0.89075013590E+00  0.88000000000E+00 0. -1.
        -11    1    4    4    0    0 -0.82668829094E-01 -0.49599477324E-01  0.11162130574E-01  0.97052036220E-01  0.51100000000E-03 0. -1.
         11    1    4    4    0    0 -0.24737512066E-01 -0.52363608044E-02  0.85388576228E-02  0.26693392220E-01  0.51100000000E-03 0.  1.
</event>
<event>
 8    1  0.1145101E+005  0.1043930E+01  0.7957747E-01            NaN
         13   -1    0    0    0    0  0.00000000000E+00  0.00000000000E+00  0.74505805969E-08  0.10566000000E+00  0.10566000000E+00 0. -1.
     999900   -1    0    0    0    0 -0.00000000000E+00 -0.00000000000E+00 -0.74505805969E-08  0.93827000000E+00  0.93827000000E+00 0. -1.
     999902    2    1    2    0    0  0.19927564394E-01 -0.10154069077E-01  0.76712677182E-02  0.10202855231E+01  0.10200115133E+01 0.  0.
     999903    2    3    3    0    0  0.47774490417E-02 -0.11224926125E+00  0.66879410027E-01  0.13227732581E+00  0.20042823321E-01 0.  0.
         14    1    1    2    0    0 -0.19927564394E-01  0.10154069077E-01 -0.76712677182E-02  0.23644476943E-01  0.00000000000E+00 0.  1.
     999901    1    3    3    0    0  0.15150115352E-01  0.10209519218E+00 -0.59208142309E-01  0.88800819725E+00  0.88000000000E+00 0. -1.
        -11    1    4    4    0    0  0.81270275627E-02 -0.69972348333E-01  0.32033162989E-01  0.77385804644E-01  0.51100000000E-03 0.  1.
         11    1    4    4    0    0 -0.33495785210E-02 -0.42276912920E-01  0.34846247039E-01  0.54891521167E-01  0.51100000000E-03 0. -1.
</event>
<event>
 8    1  0.1145101E+005  0.1043930E+01  0.7957747E-01            NaN
         13   -1    0    0    0    0  0.00000000000E+00  0.00000000000E+00  0.74505805969E-08  0.10566000000E+00  0.10566000000E+00 0. -1.
     999900   -1    0    0    0    0 -0.00000000000E+00 -0.00000000000E+00 -0.74505805969E-08  0.93827000000E+00  0.93827000000E+00 0.  1.
     999902    2    1    2    0    0  0.13977121701E-01 -0.15178108013E-01  0.11246802066E-01  0.10204305223E+01  0.10201599019E+01 0.  0.
     999903    2    3    3    0    0 -0.26977780509E-01  0.70718351829E-01 -0.10147059076E+00  0.12815213726E+00  0.19945013578E-01 0.  0.
         14    1    1    2    0    0 -0.13977121701E-01  0.15178108013E-01 -0.11246802066E-01  0.23499477667E-01  0.00000000000E+00 0.  1.
     999901    1    3    3    0    0  0.40954902210E-01 -0.85896459843E-01  0.11271739283E+00  0.89227838508E+00  0.88000000000E+00 0. -1.
        -11    1    4    4    0    0 -0.91418098733E-02  0.36060904278E-01 -0.64308817184E-01  0.74295670087E-01  0.51100000000E-03 0.  1.
         11    1    4    4    0    0 -0.17835970636E-01  0.34657447551E-01 -0.37161773581E-01  0.53856467169E-01  0.51100000000E-03 0. -1.
</event>
<event>
 8    1  0.1145101E+005  0.1043930E+01  0.7957747E-01            NaN
         13   -1    0    0    0    0  0.00000000000E+00  0.00000000000E+00  0.74505805969E-08  0.10566000000E+00  0.10566000000E+00 0.  1.
     999900   -1    0    0    0    0 -0.00000000000E+00 -0.00000000000E+00 -0.74505805969E-08  0.93827000000E+00  0.93827000000E+00 0. -1.
     999902    2    1    2    0    0  0.57295665514E-02  0.21095278298E-01  0.30511067593E-02  0.10218585716E+01  0.10216201801E+01 0.  0.
     999903    2    3    3    0    0 -0.64415937315E-01 -0.94836678842E-02  0.11265525422E+00  0.13176389528E+00  0.20764509602E-01 0.  0.
         14    1    1    2    0    0 -0.57295665514E-02 -0.21095278298E-01 -0.30511067593E-02  0.22071428404E-01  0.00000000000E+00 0. -1.
     999901    1    3    3    0    0  0.70145503866E-01  0.30578946182E-01 -0.10960414746E+00  0.89009467631E+00  0.88000000000E+00 0. -1.
        -11    1    4    4    0    0 -0.51130010914E-01 -0.14178232388E-01  0.77875132834E-01  0.94234270436E-01  0.51100000000E-03 0.  1.
         11    1    4    4    0    0 -0.13285926401E-01  0.46945645039E-02  0.34780121389E-01  0.37529624845E-01  0.51100000000E-03 0. -1.
</event>
<event>
 8    1  0.1145101E+005  0.1043930E+01  0.7957747E-01            NaN
         13   -1    0    0    0    0  0.00000000000E+00  0.00000000000E+00  0.74505805969E-08  0.10566000000E+00  0.10566000000E+00 0. -1.
     999900   -1    0    0    0    0 -0.00000000000E+00 -0.00000000000E+00 -0.74505805969E-08  0.93827000000E+00  0.93827000000E+00 0. -1.
     999902    2    1    2    0    0 -0.14387446498E-01  0.27380443181E-02 -0.18564705332E-01  0.10202837786E+01  0.10200097279E+01 0.  0.
     999903    2    3    3    0    0 -0.96544932053E-01 -0.19852854982E-01 -0.87659488230E-01  0.13347247385E+00  0.20387634584E-01 0.  0.
         14    1    1    2    0    0  0.14387446498E-01 -0.27380443181E-02  0.18564705332E-01  0.23646221421E-01  0.00000000000E+00 0. -1.
     999901    1    3    3    0    0  0.82157485555E-01  0.22590899300E-01  0.69094782898E-01  0.88681130472E+00  0.88000000000E+00 0.  1.
        -11    1    4    4    0    0 -0.82398129635E-01 -0.21956321845E-01 -0.67537296402E-01  0.10877995846E+00  0.51100000000E-03 0.  1.
         11    1    4    4    0    0 -0.14146802418E-01  0.21034668638E-02 -0.20122191829E-01  0.24692515394E-01  0.51100000000E-03 0. -1.
</event>
<event>
 8    1  0.1145101E+005  0.1043930E+01  0.7957747E-01            NaN
         13   -1    0    0    0    0  0.00000000000E+00  0.00000000000E+00  0.74505805969E-08  0.10566000000E+00  0.10566000000E+00 0.  1.
     999900   -1    0    0    0    0 -0.00000000000E+00 -0.00000000000E+00 -0.74505805969E-08  0.93827000000E+00  0.93827000000E+00 0.  1.
     999902    2    1    2    0    0 -0.24050085513E-02 -0.23398140745E-01  0.17084113951E-02  0.10203466218E+01  0.10200740429E+01 0.  0.
     999903    2    3    3    0    0 -0.52623507849E-01  0.82963440390E-01  0.81199869640E-01  0.12896927438E+00  0.19684737357E-01 0.  0.
         14    1    1    2    0    0  0.24050085513E-02  0.23398140745E-01 -0.17084113951E-02  0.23583378171E-01  0.00000000000E+00 0. -1.
     999901    1    3    3    0    0  0.50218499297E-01 -0.10636158113E+00 -0.79491458245E-01  0.89137734745E+00  0.88000000000E+00 0.  1.
        -11    1    4    4    0    0 -0.52374210102E-01  0.71049293179E-01  0.71790389771E-01  0.11377689190E+00  0.51100000000E-03 0.  1.
         11    1    4    4    0    0 -0.24929774705E-03  0.11914147210E-01  0.94094798695E-02  0.15192382484E-01  0.51100000000E-03 0. -1.
</event>
<event>
 8    1  0.1145101E+005  0.1043930E+01  0.7957747E-01            NaN
         13   -1    0    0    0    0  0.00000000000E+00  0.00000000000E+00  0.74505805969E-08  0.10566000000E+00  0.10566000000E+00 0. -1.
     999900   -1    0    0    0    0 -0.00000000000E+00 -0.00000000000E+00 -0.74505805969E-08  0.93827000000E+00  0.93827000000E+00 0. -1.
     999902    2    1    2    0    0  0.21597634272E-01 -0.77651655385E-02  0.86719655606E-02  0.10193951556E+01  0.10190998600E+01 0.  0.
     999903    2    3    3    0    0 -0.10989064095E+00 -0.61621544715E-03  0.64884932020E-01  0.12782341336E+00  0.72414023832E-02 0.  0.
         14    1    1    2    0    0 -0.21597634272E-01  0.77651655385E-02 -0.86719655606E-02  0.24534844378E-01  0.00000000000E+00 0.  1.
     999901    1    3    3    0    0  0.13148827522E+00 -0.71489500914E-02 -0.56212966459E-01  0.89157174227E+00  0.88000000000E+00 0.  1.
        -11    1    4    4    0    0 -0.54620306013E-01 -0.27352062577E-02  0.35318869741E-01  0.65104092521E-01  0.51100000000E-03 0.  1.
         11    1    4    4    0    0 -0.55270334939E-01  0.21189908106E-02  0.29566062279E-01  0.62719320835E-01  0.51100000000E-03 0. -1.
</event>
<event>
 8    1  0.1145101E+005  0.1043930E+01  0.7957747E-01            NaN
         13   -1    0    0    0    0  0.00000000000E+00  0.00000000000E+00  0.74505805969E-08  0.10566000000E+00  0.10566000000E+00 0. -1.
     999900   -1    0    0    0    0 -0.00000000000E+00 -0.00000000000E+00 -0.74505805969E-08  0.93827000000E+00  0.93827000000E+00 0. -1.
     999902    2    1    2    0    0 -0.63891103832E-02 -0.22325688204E-01 -0.91378095286E-02  0.10189749074E+01  0.10186692816E+01 0.  0.
     999903    2    3    3    0    0  0.94247443227E-01  0.81901861854E-01  0.11091758559E-01  0.12689849050E+00  0.19740928357E-01 0.  0.
         14    1    1    2    0    0  0.63891103832E-02  0.22325688204E-01  0.91378095286E-02  0.24955092632E-01  0.00000000000E+00 0.  1.
     999901    1    3    3    0    0 -0.10063655361E+00 -0.10422755006E+00 -0.20229568087E-01  0.89207641687E+00  0.88000000000E+00 0. -1.
        -11    1    4    4    0    0  0.61646058161E-01  0.42856619472E-01  0.11927727994E-01  0.76022747487E-01  0.51100000000E-03 0. -1.
         11    1    4    4    0    0  0.32601385066E-01  0.39045242381E-01 -0.83596943527E-03  0.50875743009E-01  0.51100000000E-03 0.  1.
</event>
<event>
 8    1  0.1145101E+005  0.1043930E+01  0.7957747E-01            NaN
         13   -1    0    0    0    0  0.00000000000E+00  0.00000000000E+00  0.74505805969E-08  0.10566000000E+00  0.10566000000E+00 0.  1.
     999900   -1    0    0    0    0 -0.00000000000E+00 -0.00000000000E+00 -0.74505805969E-08  0.93827000000E+00  0.93827000000E+00 0.  1.
     999902    2    1    2    0    0  0.17837015942E-01 -0.95942862121E-02  0.56206017964E-02  0.10229109460E+01  0.10226949706E+01 0.  0.
     999903    2    3    3    0    0 -0.46407859316E-01  0.10202681086E+00  0.65991369546E-01  0.13149000005E+00  0.19276921931E-01 0.  0.
         14    1    1    2    0    0 -0.17837015942E-01  0.95942862121E-02 -0.56206017964E-02  0.21019053980E-01  0.00000000000E+00 0. -1.
     999901    1    3    3    0    0  0.64244875258E-01 -0.11162109707E+00 -0.60370767750E-01  0.89142094597E+00  0.88000000000E+00 0.  1.
        -11    1    4    4    0    0 -0.38529853274E-02  0.20514111969E-01  0.18976222554E-01  0.28214046665E-01  0.51100000000E-03 0. -1.
         11    1    4    4    0    0 -0.42554873989E-01  0.81512698891E-01  0.47015146992E-01  0.10327595339E+00  0.51100000000E-03 0.  1.
</event>
<event>
 8    1  0.1145101E+005  0.1043930E+01  0.7957747E-01            NaN
         13   -1    0    0    0    0  0.00000000000E+00  0.00000000000E+00  0.74505805969E-08  0.10566000000E+00  0.10566000000E+00 0.  1.
     999900   -1    0    0    0    0 -0.00000000000E+00 -0.00000000000E+00 -0.74505805969E-08  0.93827000000E+00  0.93827000000E+00 0.  1.
     999902    2    1    2    0    0 -0.61397354485E-02 -0.21083897605E-01  0.76677357005E-02  0.10206701363E+01  0.10204050695E+01 0.  0.
     999903    2    3    3    0    0  0.38311535458E-01 -0.54397183468E-02 -0.12229692969E+00  0.12987752850E+00  0.20353601924E-01 0.  0.
         14    1    1    2    0    0  0.61397354485E-02  0.21083897605E-01 -0.76677357005E-02  0.23259863722E-01  0.00000000000E+00 0.  1.
     999901    1    3    3    0    0 -0.44451270906E-01 -0.15644179258E-01  0.12996466539E+00  0.89079260778E+00  0.88000000000E+00 0. -1.
        -11    1    4    4    0    0  0.29891679952E-01  0.49572988348E-02 -0.82593816502E-01  0.87977764164E-01  0.51100000000E-03 0.  1.
         11    1    4    4    0    0  0.84198555060E-02 -0.10397017182E-01 -0.39703113190E-01  0.41899764331E-01  0.51100000000E-03 0. -1.
</event>
<event>
 8    1  0.1145101E+005  0.1043930E+01  0.7957747E-01            NaN
         13   -1    0    0    0    0  0.00000000000E+00  0.00000000000E+00  0.74505805969E-08  0.10566000000E+00  0.10566000000E+00 0. -1.
     999900   -1    0    0    0    0 -0.00000000000E+00 -0.00000000000E+00 -0.74505805969E-08  0.93827000000E+00  0.93827000000E+00 0. -1.
     999902    2    1    2    0    0 -0.70395988866E-02  0.17530266670E-01  0.14636003486E-01  0.10200327449E+01  0.10197527749E+01 0.  0.
     999903    2    3    3    0    0 -0.13592775485E-01  0.12185358211E+00 -0.44744462549E-01  0.13185914815E+00  0.18753906324E-01 0.  0.
         14    1    1    2    0    0  0.70395988866E-02 -0.17530266670E-01 -0.14636003486E-01  0.23897255074E-01  0.00000000000E+00 0. -1.
     999901    1    3    3    0    0  0.65531765985E-02 -0.10432331544E+00  0.59380466035E-01  0.88817359678E+00  0.88000000000E+00 0. -1.
        -11    1    4    4    0    0 -0.32347491609E-02  0.43644591488E-01 -0.25493872106E-01  0.50650889471E-01  0.51100000000E-03 0.  1.
         11    1    4    4    0    0 -0.10358026324E-01  0.78208990624E-01 -0.19250590443E-01  0.81208258676E-01  0.51100000000E-03 0. -1.
</event>
<event>
 8    1  0.1145101E+005  0.1043930E+01  0.7957747E-01            NaN
         13   -1    0    0    0    0  0.00000000000E+00  0.00000000000E+00  0.74505805969E-08  0.10566000000E+00  0.10566000000E+00 0.  1.
     999900   -1    0    0    0    0 -0.00000000000E+00 -0.00000000000E+00 -0.74505805969E-08  0.93827000000E+00  0.93827000000E+00 0. -1.
     999902    2    1    2    0    0 -0.11839727557E-01  0.13583160260E-01  0.16490900473E-01  0.10195039649E+01  0.10192113143E+01 0.  0.
     999903    2    3    3    0    0 -0.25941739980E-01  0.12386163332E+00 -0.26469392322E-01  0.13146917105E+00  0.23850285624E-01 0.  0.
         14    1    1    2    0    0  0.11839727557E-01 -0.13583160260E-01 -0.16490900473E-01  0.24426035080E-01  0.00000000000E+00 0. -1.
     999901    1    3    3    0    0  0.14102012423E-01 -0.11027847306E+00  0.42960292795E-01  0.88803479387E+00  0.88000000000E+00 0.  1.
        -11    1    4    4    0    0 -0.48307503427E-02  0.45460861925E-01  0.10665780390E-02  0.45732098416E-01  0.51100000000E-03 0. -1.
         11    1    4    4    0    0 -0.21110989637E-01  0.78400771393E-01 -0.27535970361E-01  0.85737072630E-01  0.51100000000E-03 0.  1.
</event>
<event>
 8    1  0.1145101E+005  0.1043930E+01  0.7957747E-01            NaN
         13   -1    0    0    0    0  0.00000000000E+00  0.00000000000E+00  0.74505805969E-08  0.10566000000E+00  0.10566000000E+00 0. -1.
     999900   -1    0    0    0    0 -0.00000000000E+00 -0.00000000000E+00 -0.74505805969E-08  0.93827000000E+00  0.93827000000E+00 0. -1.
     999902    2    1    2    0    0  0.90802378369E-02  0.18093376291E-01 -0.11672894383E-01  0.10205616999E+01  0.10202941272E+01 0.  0.
     999903    2    3    3    0    0 -0.12485438136E+00 -0.26749238984E-01 -0.39524670637E-02  0.12926548241E+00  0.19743470234E-01 0.  0.
         14    1    1    2    0    0 -0.90802378369E-02 -0.18093376291E-01  0.11672894383E-01  0.23368300068E-01  0.00000000000E+00 0. -1.
     999901    1    3    3    0    0  0.13393461920E+00  0.44842615276E-01 -0.77204273194E-02  0.89129621752E+00  0.88000000000E+00 0.  1.
        -11    1    4    4    0    0 -0.79625002795E-01 -0.98219352336E-02  0.39502574099E-02  0.80327312518E-01  0.51100000000E-03 0.  1.
         11    1    4    4    0    0 -0.45229378565E-01 -0.16927303751E-01 -0.79027244736E-02  0.48938169896E-01  0.51100000000E-03 0. -1.
</event>
<event>
 8    1  0.1145101E+005  0.1043930E+01  0.7957747E-01            NaN
         13   -1    0    0    0    0  0.00000000000E+00  0.00000000000E+00  0.74505805969E-08  0.10566000000E+00  0.10566000000E+00 0.  1.
     999900   -1    0    0    0    0 -0.00000000000E+00 -0.00000000000E+00 -0.74505805969E-08  0.93827000000E+00  0.93827000000E+00 0.  1.
     999902    2    1    2    0    0  0.69780530510E-02 -0.22366429843E-01  0.43500333882E-02  0.10200999098E+01  0.10198215299E+01 0.  0.
     999903    2    3    3    0    0  0.61518870524E-02 -0.10952713639E+00 -0.71469971419E-01  0.13254915382E+00  0.20670801723E-01 0.  0.
         14    1    1    2    0    0 -0.69780530510E-02  0.22366429843E-01 -0.43500333882E-02  0.23830090196E-01  0.00000000000E+00 0. -1.
     999901    1    3    3    0    0  0.82616599861E-03  0.87160706547E-01  0.75820004808E-01  0.88755075598E+00  0.88000000000E+00 0. -1.
        -11    1    4    4    0    0 -0.16126790015E-02 -0.94880664142E-01 -0.58327827193E-01  0.11138822966E+00  0.51100000000E-03 0. -1.
         11    1    4    4    0    0  0.77645660538E-02 -0.14646472248E-01 -0.13142144227E-01  0.21160924157E-01  0.51100000000E-03 0.  1.
</event>
<event>
 8    1  0.1145101E+005  0.1043930E+01  0.7957747E-01            NaN
         13   -1    0    0    0    0  0.00000000000E+00  0.00000000000E+00  0.74505805969E-08  0.10566000000E+00  0.10566000000E+00 0. -1.
     999900   -1    0    0    0    0 -0.00000000000E+00 -0.00000000000E+00 -0.74505805969E-08  0.93827000000E+00  0.93827000000E+00 0. -1.
     999902    2    1    2    0    0  0.21439246084E-01  0.62060566107E-02  0.83924747916E-02  0.10200848738E+01  0.10198061383E+01 0.  0.
     999903    2    3    3    0    0  0.11009899218E+00  0.36581085035E-01 -0.60396746649E-01  0.13243902666E+00  0.20793386310E-01 0.  0.
         14    1    1    2    0    0 -0.21439246084E-01 -0.62060566107E-02 -0.83924747916E-02  0.23845126220E-01  0.00000000000E+00 0.  1.
     999901    1    3    3    0    0 -0.88659746097E-01 -0.30375028425E-01  0.68789221441E-01  0.88764584712E+00  0.88000000000E+00 0.  1.
        -11    1    4    4    0    0  0.61089027598E-01  0.28227715491E-01 -0.42514540437E-01  0.79601636191E-01  0.51100000000E-03 0.  1.
         11    1    4    4    0    0  0.49009964583E-01  0.83533695445E-02 -0.17882206212E-01  0.52837390466E-01  0.51100000000E-03 0. -1.
</event>
<event>
 8    1  0.1145101E+005  0.1043930E+01  0.7957747E-01            NaN
         13   -1    0    0    0    0  0.00000000000E+00  0.00000000000E+00  0.74505805969E-08  0.10566000000E+00  0.10566000000E+00 0. -1.
     999900   -1    0    0    0    0 -0.00000000000E+00 -0.00000000000E+00 -0.74505805969E-08  0.93827000000E+00  0.93827000000E+00 0. -1.
     999902    2    1    2    0    0  0.22301762016E-01  0.64233865887E-02  0.98880477863E-02  0.10187029912E+01  0.10183905844E+01 0.  0.
     999903    2    3    3    0    0  0.86472218053E-01  0.61356906542E-01  0.74858884812E-01  0.13227377873E+00  0.25502655338E-01 0.  0.
         14    1    1    2    0    0 -0.22301762016E-01 -0.64233865887E-02 -0.98880477863E-02  0.25227008806E-01  0.00000000000E+00 0. -1.
     999901    1    3    3    0    0 -0.64170456036E-01 -0.54933519954E-01 -0.64970837025E-01  0.88642921246E+00  0.88000000000E+00 0. -1.
        -11    1    4    4    0    0  0.33667493822E-01  0.25121058222E-01  0.45160303830E-01  0.61678860799E-01  0.51100000000E-03 0.  1.
         11    1    4    4    0    0  0.52804724231E-01  0.36235848320E-01  0.29698580981E-01  0.70594917933E-01  0.51100000000E-03 0. -1.
</event>
<event>
 8    1  0.1145101E+005  0.1043930E+01  0.7957747E-01            NaN
         13   -1    0    0    0    0  0.00000000000E+00  0.00000000000E+00  0.74505805969E-08  0.10566000000E+00  0.10566000000E+00 0.  1.
     999900   -1    0    0    0    0 -0.00000000000E+00 -0.00000000000E+00 -0.74505805969E-08  0.93827000000E+00  0.93827000000E+00 0. -1.
     999902    2    1    2    0    0  0.71759500789E-02 -0.19891790025E-01  0.12563933433E-01  0.10193326426E+01  0.10190358218E+01 0.  0.
     999903    2    3    3    0    0  0.54213515386E-01 -0.10807122214E+00  0.51014696493E-01  0.13284146608E+00  0.20636413121E-01 0.  0.
         14    1    1    2    0    0 -0.71759500789E-02  0.19891790025E-01 -0.12563933433E-01  0.24597357445E-01  0.00000000000E+00 0. -1.
     999901    1    3    3    0    0 -0.47037565307E-01  0.88179432110E-01 -0.38450763060E-01  0.88649117648E+00  0.88000000000E+00 0.  1.
        -11    1    4    4    0    0  0.48830746285E-01 -0.86066069174E-01  0.34478141323E-01  0.10478937635E+00  0.51100000000E-03 0. -1.
         11    1    4    4    0    0  0.53827691006E-02 -0.22005152961E-01  0.16536555171E-01  0.28052089725E-01  0.51100000000E-03 0.  1.
</event>
<event>
 8    1  0.1145101E+005  0.1043930E+01  0.7957747E-01            NaN
         13   -1    0    0    0    0  0.00000000000E+00  0.00000000000E+00  0.74505805969E-08  0.10566000000E+00  0.10566000000E+00 0. -1.
     999900   -1    0    0    0    0 -0.00000000000E+00 -0.00000000000E+00 -0.74505805969E-08  0.93827000000E+00  0.93827000000E+00 0.  1.
     999902    2    1    2    0    0  0.93739846821E-03  0.76648063940E-02  0.19787485328E-01  0.10226891773E+01  0.10224685721E+01 0.  0.
     999903    2    3    3    0    0  0.92436066415E-01 -0.77216596602E-01 -0.47920952820E-01  0.13130750182E+00  0.20938317717E-01 0.  0.
         14    1    1    2    0    0 -0.93739846821E-03 -0.76648063940E-02 -0.19787485328E-01  0.21240822690E-01  0.00000000000E+00 0.  1.
     999901    1    3    3    0    0 -0.91498667947E-01  0.84881402996E-01  0.67708438148E-01  0.89138167549E+00  0.88000000000E+00 0. -1.
        -11    1    4    4    0    0  0.21177213162E-01 -0.19394852236E-01 -0.21295430014E-01  0.35754595663E-01  0.51100000000E-03 0.  1.
         11    1    4    4    0    0  0.71258853253E-01 -0.57821744366E-01 -0.26625522806E-01  0.95552906152E-01  0.51100000000E-03 0. -1.
</event>
<event>
 8    1  0.1145101E+005  0.1043930E+01  0.7957747E-01            NaN
         13   -1    0    0    0    0  0.00000000000E+00  0.00000000000E+00  0.74505805969E-08  0.10566000000E+00  0.10566000000E+00 0. -1.
     999900   -1    0    0    0    0 -0.00000000000E+00 -0.00000000000E+00 -0.74505805969E-08  0.93827000000E+00  0.93827000000E+00 0.  1.
     999902    2    1    2    0    0 -0.51957874714E-02 -0.38406626733E-02 -0.22935136850E-01  0.10201021298E+01  0.10198238023E+01 0.  0.
     999903    2    3    3    0    0  0.39520066056E-01 -0.34704088475E-01  0.11475342486E+00  0.12773998432E+00  0.19568998443E-01 0.  0.
         14    1    1    2    0    0  0.51957874714E-02  0.38406626733E-02  0.22935136850E-01  0.23827870227E-01  0.00000000000E+00 0. -1.
     999901    1    3    3    0    0 -0.44715853528E-01  0.30863425801E-01 -0.13768856171E+00  0.89236214545E+00  0.88000000000E+00 0.  1.
        -11    1    4    4    0    0  0.37054581708E-01 -0.35701960112E-01  0.97218605647E-01  0.10999722899E+00  0.51100000000E-03 0. -1.
         11    1    4    4    0    0  0.24654843479E-02  0.99787163735E-03  0.17534819211E-01  0.17742755328E-01  0.51100000000E-03 0.  1.
</event>
<event>
 8    1  0.1145101E+005  0.1043930E+01  0.7957747E-01            NaN
         13   -1    0    0    0    0  0.00000000000E+00  0.00000000000E+00  0.74505805969E-08  0.10566000000E+00  0.10566000000E+00 0.  1.
     999900   -1    0    0    0    0 -0.00000000000E+00 -0.00000000000E+00 -0.74505805969E-08  0.93827000000E+00  0.93827000000E+00 0.  1.
     999902    2    1    2    0    0  0.11971217503E-01 -0.14909669910E-01  0.14480640257E-01  0.10199446451E+01  0.10196625824E+01 0.  0.
     999903    2    3    3    0    0  0.68075749988E-01  0.74343434276E-01 -0.77682852309E-01  0.12887341088E+00  0.20309518269E-01 0.  0.
         14    1    1    2    0    0 -0.11971217503E-01  0.14909669910E-01 -0.14480640257E-01  0.23985354857E-01  0.00000000000E+00 0. -1.
     999901    1    3    3    0    0 -0.56104532485E-01 -0.89253104186E-01  0.92163492566E-01  0.89107123426E+00  0.88000000000E+00 0. -1.
        -11    1    4    4    0    0  0.46599139611E-01  0.49507011701E-01 -0.39976101752E-01  0.78871882521E-01  0.51100000000E-03 0.  1.
         11    1    4    4    0    0  0.21476610377E-01  0.24836422575E-01 -0.37706750556E-01  0.50001528358E-01  0.51100000000E-03 0. -1.
</event>
<event>
 8    1  0.1145101E+005  0.1043930E+01  0.7957747E-01            NaN
         13   -1    0    0    0    0  0.00000000000E+00  0.00000000000E+00  0.74505805969E-08  0.10566000000E+00  0.10566000000E+00 0.  1.
     999900   -1    0    0    0    0 -0.00000000000E+00 -0.00000000000E+00 -0.74505805969E-08  0.93827000000E+00  0.93827000000E+00 0. -1.
     999902    2    1    2    0    0  0.54829742202E-02  0.23767872302E-01  0.94598075482E-02  0.10177677616E+01  0.10174314492E+01 0.  0.
     999903    2    3    3    0    0 -0.54406478892E-01  0.11717242686E+00  0.50527954808E-02  0.13078941959E+00  0.19771165189E-01 0.  0.
         14    1    1    2    0    0 -0.54829742202E-02 -0.23767872302E-01 -0.94598075482E-02  0.26162238416E-01  0.00000000000E+00 0. -1.
     999901    1    3    3    0    0  0.59889453112E-01 -0.93404554561E-01  0.44070120674E-02  0.88697834199E+00  0.88000000000E+00 0. -1.
        -11    1    4    4    0    0 -0.47757350611E-01  0.10390074486E+00 -0.19494688460E-02  0.11436866209E+00  0.51100000000E-03 0.  1.
         11    1    4    4    0    0 -0.66491282807E-02  0.13271682007E-01  0.70022643268E-02  0.16420757500E-01  0.51100000000E-03 0. -1.
</event>
<event>
 8    1  0.1145101E+005  0.1043930E+01  0.7957747E-01            NaN
         13   -1    0    0    0    0  0.00000000000E+00  0.00000000000E+00  0.74505805969E-08  0.10566000000E+00  0.10566000000E+00 0. -1.
     999900   -1    0    0    0    0 -0.00000000000E+00 -0.00000000000E+00 -0.74505805969E-08  0.93827000000E+00  0.93827000000E+00 0.  1.
     999902    2    1    2    0    0  0.51008952050E-02 -0.24062265386E-01 -0.42201248177E-02  0.10189736140E+01  0.10186679561E+01 0.  0.
     999903    2    3    3    0    0 -0.73762051179E-01  0.68668106013E-01 -0.75579221590E-01  0.12773267759E+00  0.21148740155E-01 0.  0.
         14    1    1    2    0    0 -0.51008952050E-02  0.24062265386E-01  0.42201248177E-02  0.24956385973E-01  0.00000000000E+00 0. -1.
     999901    1    3    3    0    0  0.78862946384E-01 -0.92730371398E-01  0.71359096772E-01  0.89124093644E+00  0.88000000000E+00 0.  1.
        -11    1    4    4    0    0 -0.48606509019E-01  0.57706826903E-01 -0.53214365496E-01  0.92329304158E-01  0.51100000000E-03 0.  1.
         11    1    4    4    0    0 -0.25155542160E-01  0.10961279109E-01 -0.22364856094E-01  0.35403373430E-01  0.51100000000E-03 0. -1.
</event>
<event>
 8    1  0.1145101E+005  0.1043930E+01  0.7957747E-01            NaN
         13   -1    0    0    0    0  0.00000000000E+00  0.00000000000E+00  0.74505805969E-08  0.10566000000E+00  0.10566000000E+00 0. -1.
     999900   -1    0    0    0    0 -0.00000000000E+00 -0.00000000000E+00 -0.74505805969E-08  0.93827000000E+00  0.93827000000E+00 0. -1.
     999902    2    1    2    0    0 -0.21540068786E-01 -0.54777917331E-02  0.99381777486E-02  0.10195835805E+01  0.10192928576E+01 0.  0.
     999903    2    3    3    0    0 -0.21584505287E-02  0.82735107943E-01 -0.96381893956E-01  0.12859473632E+00  0.19934385685E-01 0.  0.
         14    1    1    2    0    0  0.21540068786E-01  0.54777917331E-02 -0.99381777486E-02  0.24346419502E-01  0.00000000000E+00 0. -1.
     999901    1    3    3    0    0 -0.19381618258E-01 -0.88212899676E-01  0.10632007171E+00  0.89098884417E+00  0.88000000000E+00 0. -1.
        -11    1    4    4    0    0 -0.99673196848E-02  0.55641435556E-01 -0.70019062878E-01  0.89990261138E-01  0.51100000000E-03 0.  1.
         11    1    4    4    0    0  0.78088691561E-02  0.27093672387E-01 -0.26362831079E-01  0.38604475186E-01  0.51100000000E-03 0. -1.
</event>
<event>
 8    1  0.1145101E+005  0.1043930E+01  0.7957747E-01            NaN
         13   -1    0    0    0    0  0.00000000000E+00  0.00000000000E+00  0.74505805969E-08  0.10566000000E+00  0.10566000000E+00 0.  1.
     999900   -1    0    0    0    0 -0.00000000000E+00 -0.00000000000E+00 -0.74505805969E-08  0.93827000000E+00  0.93827000000E+00 0.  1.
     999902    2    1    2    0    0  0.10064324705E-01  0.62115302725E-02  0.20673398852E-01  0.10201127130E+01  0.10198346356E+01 0.  0.
     999903    2    3    3    0    0 -0.11699874385E+00 -0.46199947625E-01  0.22264023648E-01  0.12944188913E+00  0.20889583267E-01 0.  0.
         14    1    1    2    0    0 -0.10064324705E-01 -0.62115302725E-02 -0.20673398852E-01  0.23817287004E-01  0.00000000000E+00 0. -1.
     999901    1    3    3    0    0  0.12706306855E+00  0.52411477897E-01 -0.15906247955E-02  0.89067082387E+00  0.88000000000E+00 0.  1.
        -11    1    4    4    0    0 -0.88086127691E-01 -0.42729211319E-01  0.12369685031E-01  0.98682428123E-01  0.51100000000E-03 0.  1.
         11    1    4    4    0    0 -0.28912616157E-01 -0.34707363061E-02  0.98943386169E-02  0.30759461003E-01  0.51100000000E-03 0. -1.
</event>
<event>
 8    1  0.1145101E+005  0.1043930E+01  0.7957747E-01            NaN
         13   -1    0    0    0    0  0.00000000000E+00  0.00000000000E+00  0.74505805969E-08  0.10566000000E+00  0.10566000000E+00 0.  1.
     999900   -1    0    0    0    0 -0.00000000000E+00 -0.00000000000E+00 -0.74505805969E-08  0.93827000000E+00  0.93827000000E+00 0.  1.
     999902    2    1    2    0    0 -0.31810078683E-02 -0.78192667250E-02 -0.17759778458E-01  0.10242660870E+01  0.10240773152E+01 0.  0.
     999903    2    3    3    0    0 -0.97429452890E-01  0.89280403102E-01  0.57531398136E-02  0.13361240987E+00  0.18859713312E-01 0.  0.
         14    1    1    2    0    0  0.31810078683E-02  0.78192667250E-02  0.17759778458E-01  0.19663912989E-01  0.00000000000E+00 0.  1.
     999901    1    3    3    0    0  0.94248445022E-01 -0.97099669827E-01 -0.23512918272E-01  0.89065367714E+00  0.88000000000E+00 0.  1.
        -11    1    4    4    0    0 -0.22736018507E-01  0.12098088557E-01  0.47843907715E-02  0.26200034357E-01  0.51100000000E-03 0. -1.
         11    1    4    4    0    0 -0.74693434383E-01  0.77182314545E-01  0.96874904205E-03  0.10741237552E+00  0.51100000000E-03 0.  1.
</event>
<event>
 8    1  0.1145101E+005  0.1043930E+01  0.7957747E-01            NaN
         13   -1    0    0    0    0  0.00000000000E+00  0.00000000000E+00  0.74505805969E-08  0.10566000000E+00  0.10566000000E+00 0.  1.
     999900   -1    0    0    0    0 -0.00000000000E+00 -0.00000000000E+00 -0.74505805969E-08  0.93827000000E+00  0.93827000000E+00 0. -1.
     999902    2    1    2    0    0 -0.12013517757E-01 -0.13114600458E-01  0.14611127537E-01  0.10209125631E+01  0.10206530552E+01 0.  0.
     999903    2    3    3    0    0 -0.23790498514E-01 -0.11062735211E+00  0.68462916786E-01  0.13381197735E+00  0.20348844043E-01 0.  0.
         14    1    1    2    0    0  0.12013517757E-01  0.13114600458E-01 -0.14611127537E-01  0.23017436911E-01  0.00000000000E+00 0. -1.
     999901    1    3    3    0    0  0.11776980757E-01  0.97512751650E-01 -0.53851789249E-01  0.88710058574E+00  0.88000000000E+00 0. -1.
        -11    1    4    4    0    0 -0.11388062912E-01 -0.21343484234E-01  0.89660425251E-02  0.25804715377E-01  0.51100000000E-03 0.  1.
         11    1    4    4    0    0 -0.12402435603E-01 -0.89283867874E-01  0.59496874261E-01  0.10800726197E+00  0.51100000000E-03 0. -1.
</event>
<event>
 8    1  0.1145101E+005  0.1043930E+01  0.7957747E-01            NaN
         13   -1    0    0    0    0  0.00000000000E+00  0.00000000000E+00  0.74505805969E-08  0.10566000000E+00  0.10566000000E+00 0. -1.
     999900   -1    0    0    0    0 -0.00000000000E+00 -0.00000000000E+00 -0.74505805969E-08  0.93827000000E+00  0.93827000000E+00 0. -1.
     999902    2    1    2    0    0 -0.10594354071E-01 -0.13926742806E-01 -0.15902526804E-01  0.10202850246E+01  0.10200110031E+01 0.  0.
     999903    2    3    3    0    0 -0.91563161972E-01  0.60521741133E-01 -0.70184302790E-01  0.13177782945E+00  0.19820852555E-01 0.  0.
         14    1    1    2    0    0  0.10594354071E-01  0.13926742806E-01  0.15902526804E-01  0.23644975410E-01  0.00000000000E+00 0.  1.
     999901    1    3    3    0    0  0.80968807901E-01 -0.74448483939E-01  0.54281775986E-01  0.88850719514E+00  0.88000000000E+00 0.  1.
        -11    1    4    4    0    0 -0.36088168217E-01  0.15497771528E-01 -0.32613225907E-01  0.51053113839E-01  0.51100000000E-03 0.  1.
         11    1    4    4    0    0 -0.55474993755E-01  0.45023969606E-01 -0.37571076884E-01  0.80724715611E-01  0.51100000000E-03 0. -1.
</event>
<event>
 8    1  0.1145101E+005  0.1043930E+01  0.7957747E-01            NaN
         13   -1    0    0    0    0  0.00000000000E+00  0.00000000000E+00  0.74505805969E-08  0.10566000000E+00  0.10566000000E+00 0.  1.
     999900   -1    0    0    0    0 -0.00000000000E+00 -0.00000000000E+00 -0.74505805969E-08  0.93827000000E+00  0.93827000000E+00 0. -1.
     999902    2    1    2    0    0  0.15641566447E-01 -0.16803426657E-01 -0.55502790031E-02  0.10203118005E+01  0.10200384066E+01 0.  0.
     999903    2    3    3    0    0  0.39596452885E-01 -0.10167521105E+00  0.72401367619E-01  0.13247537666E+00  0.20050929262E-01 0.  0.
         14    1    1    2    0    0 -0.15641566447E-01  0.16803426657E-01  0.55502790031E-02  0.23618199452E-01  0.00000000000E+00 0.  1.
     999901    1    3    3    0    0 -0.23954886438E-01  0.84871784397E-01 -0.77951646622E-01  0.88783642389E+00  0.88000000000E+00 0. -1.
        -11    1    4    4    0    0  0.29697748694E-01 -0.66498066012E-01  0.58344984736E-01  0.93318526702E-01  0.51100000000E-03 0.  1.
         11    1    4    4    0    0  0.98987041903E-02 -0.35177145042E-01  0.14056382882E-01  0.39156849959E-01  0.51100000000E-03 0. -1.
</event>
<event>
 8    1  0.1145101E+005  0.1043930E+01  0.7957747E-01            NaN
         13   -1    0    0    0    0  0.00000000000E+00  0.00000000000E+00  0.74505805969E-08  0.10566000000E+00  0.10566000000E+00 0.  1.
     999900   -1    0    0    0    0 -0.00000000000E+00 -0.00000000000E+00 -0.74505805969E-08  0.93827000000E+00  0.93827000000E+00 0. -1.
     999902    2    1    2    0    0 -0.20157311759E-01  0.10594427121E-01 -0.75234504758E-02  0.10199474770E+01  0.10196654816E+01 0.  0.
     999903    2    3    3    0    0  0.99529850901E-02 -0.80759626624E-01  0.98120227679E-01  0.12842474600E+00  0.15625527244E-01 0.  0.
         14    1    1    2    0    0  0.20157311759E-01 -0.10594427121E-01  0.75234504758E-02  0.23982523021E-01  0.00000000000E+00 0. -1.
     999901    1    3    3    0    0 -0.30110296849E-01  0.91354053745E-01 -0.10564367816E+00  0.89152273098E+00  0.88000000000E+00 0. -1.
        -11    1    4    4    0    0  0.44670834345E-02 -0.43963074255E-02  0.70078868225E-02  0.94156227679E-02  0.51100000000E-03 0.  1.
         11    1    4    4    0    0  0.54859016556E-02 -0.76363319198E-01  0.91112340857E-01  0.11900912324E+00  0.51100000000E-03 0. -1.
</event>
<event>
 8    1  0.1145101E+005  0.1043930E+01  0.7957747E-01            NaN
         13   -1    0    0    0    0  0.00000000000E+00  0.00000000000E+00  0.74505805969E-08  0.10566000000E+00  0.10566000000E+00 0. -1.
     999900   -1    0    0    0    0 -0.00000000000E+00 -0.00000000000E+00 -0.74505805969E-08  0.93827000000E+00  0.93827000000E+00 0.  1.
     999902    2    1    2    0    0 -0.18240743169E-01  0.14785109964E-01  0.76179563226E-02  0.10192448335E+01  0.10189458637E+01 0.  0.
     999903    2    3    3    0    0 -0.45092637257E-02 -0.12746826075E-01  0.12822226614E+00  0.13048617074E+00  0.20071775871E-01 0.  0.
         14    1    1    2    0    0  0.18240743169E-01 -0.14785109964E-01 -0.76179563226E-02  0.24685166529E-01  0.00000000000E+00 0.  1.
     999901    1    3    3    0    0 -0.13731479443E-01  0.27531936039E-01 -0.12060430982E+00  0.88875866273E+00  0.88000000000E+00 0.  1.
        -11    1    4    4    0    0  0.79173859117E-03  0.52844714307E-02  0.25785314146E-01  0.26338109934E-01  0.51100000000E-03 0. -1.
         11    1    4    4    0    0 -0.53010023169E-02 -0.18031297505E-01  0.10243695199E+00  0.10414806081E+00  0.51100000000E-03 0.  1.
</event>
<event>
 8    1  0.1145101E+005  0.1043930E+01  0.7957747E-01            NaN
         13   -1    0    0    0    0  0.00000000000E+00  0.00000000000E+00  0.74505805969E-08  0.10566000000E+00  0.10566000000E+00 0.  1.
     999900   -1    0    0    0    0 -0.00000000000E+00 -0.00000000000E+00 -0.74505805969E-08  0.93827000000E+00  0.93827000000E+00 0.  1.
     999902    2    1    2    0    0  0.97323292885E-02  0.19365062590E-01  0.95670652700E-02  0.10202392292E+01  0.10199641328E+01 0.  0.
     999903    2    3    3    0    0  0.72097337710E-01  0.94803773294E-01 -0.54400738251E-01  0.13250488087E+00  0.20305703532E-01 0.  0.
         14    1    1    2    0    0 -0.97323292885E-02 -0.19365062590E-01 -0.95670652700E-02  0.23690770785E-01  0.00000000000E+00 0.  1.
     999901    1    3    3    0    0 -0.62365008422E-01 -0.75438710703E-01  0.63967803521E-01  0.88773434835E+00  0.88000000000E+00 0. -1.
        -11    1    4    4    0    0  0.19665812497E-01  0.33075282085E-01 -0.26971622234E-01  0.46994127219E-01  0.51100000000E-03 0.  1.
         11    1    4    4    0    0  0.52431525213E-01  0.61728491209E-01 -0.27429116017E-01  0.85510753649E-01  0.51100000000E-03 0. -1.
</event>
<event>
 8    1  0.1145101E+005  0.1043930E+01  0.7957747E-01            NaN
         13   -1    0    0    0    0  0.00000000000E+00  0.00000000000E+00  0.74505805969E-08  0.10566000000E+00  0.10566000000E+00 0.  1.
     999900   -1    0    0    0    0 -0.00000000000E+00 -0.00000000000E+00 -0.74505805969E-08  0.93827000000E+00  0.93827000000E+00 0.  1.
     999902    2    1    2    0    0  0.21556425047E-02  0.22178166685E-01 -0.89914622044E-02  0.10199015946E+01  0.10196185063E+01 0.  0.
     999903    2    3    3    0    0  0.12416483787E+00 -0.33063837755E-01  0.36451638367E-03  0.12971877231E+00  0.17796142485E-01 0.  0.
         14    1    1    2    0    0 -0.21556425047E-02 -0.22178166685E-01  0.89914622044E-02  0.24028405371E-01  0.00000000000E+00 0.  1.
     999901    1    3    3    0    0 -0.12200919537E+00  0.55242004440E-01 -0.93559785881E-02  0.89018282231E+00  0.88000000000E+00 0. -1.
        -11    1    4    4    0    0  0.35102795303E-01 -0.29014874485E-02 -0.47630148237E-02  0.35546762141E-01  0.51100000000E-03 0. -1.
         11    1    4    4    0    0  0.89062042570E-01 -0.30162350306E-01  0.51275312074E-02  0.94172010173E-01  0.51100000000E-03 0.  1.
</event>
<event>
 8    1  0.1145101E+005  0.1043930E+01  0.7957747E-01            NaN
         13   -1    0    0    0    0  0.00000000000E+00  0.00000000000E+00  0.74505805969E-08  0.10566000000E+00  0.10566000000E+00 0.  1.
     999900   -1    0    0    0    0 -0.00000000000E+00 -0.00000000000E+00 -0.74505805969E-08  0.93827000000E+00  0.93827000000E+00 0.  1.
     999902    2    1    2    0    0  0.13495664788E-01 -0.16707316657E-01 -0.10105900513E-01  0.10201940226E+01  0.10199178629E+01 0.  0.
     999903    2    3    3    0    0  0.25784938096E-01 -0.12153072729E+00  0.41160634901E-01  0.13240619248E+00  0.20065423862E-01 0.  0.
         14    1    1    2    0    0 -0.13495664788E-01  0.16707316657E-01  0.10105900513E-01  0.23735977400E-01  0.00000000000E+00 0.  1.
     999901    1    3    3    0    0 -0.12289273307E-01  0.10482341063E+00 -0.51266535414E-01  0.88778783012E+00  0.88000000000E+00 0.  1.
        -11    1    4    4    0    0  0.22607931592E-01 -0.68519122092E-01  0.17391815028E-01  0.74220785593E-01  0.51100000000E-03 0.  1.
         11    1    4    4    0    0  0.31770065031E-02 -0.53011605193E-01  0.23768819873E-01  0.58185406887E-01  0.51100000000E-03 0. -1.
</event>
<event>
 8    1  0.1145101E+005  0.1043930E+01  0.7957747E-01            NaN
         13   -1    0    0    0    0  0.00000000000E+00  0.00000000000E+00  0.74505805969E-08  0.10566000000E+00  0.10566000000E+00 0. -1.
     999900   -1    0    0    0    0 -0.00000000000E+00 -0.00000000000E+00 -0.74505805969E-08  0.93827000000E+00  0.93827000000E+00 0.  1.
     999902    2    1    2    0    0  0.13596350024E-01 -0.19726007122E-01 -0.29958323613E-02  0.10197856196E+01  0.10194997592E+01 0.  0.
     999903    2    3    3    0    0 -0.57631498429E-01  0.49963483879E-01 -0.10161445677E+00  0.12868760897E+00  0.20427029767E-01 0.  0.
         14    1    1    2    0    0 -0.13596350024E-01  0.19726007122E-01  0.29958323613E-02  0.24144380350E-01  0.00000000000E+00 0.  1.
     999901    1    3    3    0    0  0.71227848454E-01 -0.69689491001E-01  0.98618624413E-01  0.89109801068E+00  0.88000000000E+00 0. -1.
        -11    1    4    4    0    0 -0.30394872528E-01  0.39061401031E-01 -0.60275727111E-01  0.77994010836E-01  0.51100000000E-03 0.  1.
         11    1    4    4    0    0 -0.27236625902E-01  0.10902082848E-01 -0.41338729663E-01  0.50693598137E-01  0.51100000000E-03 0. -1.
</event>
<event>
 8    1  0.1145101E+005  0.1043930E+01  0.7957747E-01            NaN
         13   -1    0    0    0    0  0.00000000000E+00  0.00000000000E+00  0.74505805969E-08  0.10566000000E+00  0.10566000000E+00 0.  1.
     999900   -1    0    0    0    0 -0.00000000000E+00 -0.00000000000E+00 -0.74505805969E-08  0.93827000000E+00  0.93827000000E+00 0. -1.
     999902    2    1    2    0    0  0.10871393034E-01 -0.21070019637E-01  0.14014017845E-02  0.10201792770E+01  0.10199027701E+01 0.  0.
     999903    2    3    3    0    0 -0.10361535023E+00 -0.71065223108E-01  0.30963681629E-01  0.13086456158E+00  0.19503260221E-01 0.  0.
         14    1    1    2    0    0 -0.10871393034E-01  0.21070019637E-01 -0.14014017845E-02  0.23750722957E-01  0.00000000000E+00 0.  1.
     999901    1    3    3    0    0  0.11448674326E+00  0.49995203471E-01 -0.29562279844E-01  0.88931471546E+00  0.88000000000E+00 0.  1.
        -11    1    4    4    0    0 -0.29768177519E-01 -0.10403944886E-01  0.62434099364E-02  0.32150081659E-01  0.51100000000E-03 0.  1.
         11    1    4    4    0    0 -0.73847172706E-01 -0.60661278223E-01  0.24720271692E-01  0.98714479920E-01  0.51100000000E-03 0. -1.
</event>
<event>
 8    1  0.1145101E+005  0.1043930E+01  0.7957747E-01            NaN
         13   -1    0    0    0    0  0.00000000000E+00  0.00000000000E+00  0.74505805969E-08  0.10566000000E+00  0.10566000000E+00 0. -1.
     999900   -1    0    0    0    0 -0.00000000000E+00 -0.00000000000E+00 -0.74505805969E-08  0.93827000000E+00  0.93827000000E+00 0. -1.
     999902    2    1    2    0    0  0.23602789526E-01  0.55499753065E-02 -0.70742602802E-02  0.10186725445E+01  0.10183593736E+01 0.  0.
     999903    2    3    3    0    0  0.65547781722E-01  0.88031377208E-01 -0.69737556360E-01  0.13160476091E+00  0.20259596853E-01 0.  0.
         14    1    1    2    0    0 -0.23602789526E-01 -0.55499753065E-02  0.70742602802E-02  0.25257455489E-01  0.00000000000E+00 0. -1.
     999901    1    3    3    0    0 -0.41944992197E-01 -0.82481401902E-01  0.62663296080E-01  0.88706778360E+00  0.88000000000E+00 0.  1.
        -11    1    4    4    0    0  0.29960462876E-01  0.28253360637E-01 -0.33922393798E-01  0.53356083487E-01  0.51100000000E-03 0.  1.
         11    1    4    4    0    0  0.35587318847E-01  0.59778016571E-01 -0.35815162562E-01  0.78248677421E-01  0.51100000000E-03 0. -1.
</event>
<event>
 8    1  0.1145101E+005  0.1043930E+01  0.7957747E-01            NaN
         13   -1    0    0    0    0  0.00000000000E+00  0.00000000000E+00  0.74505805969E-08  0.10566000000E+00  0.10566000000E+00 0. -1.
     999900   -1    0    0    0    0 -0.00000000000E+00 -0.00000000000E+00 -0.74505805969E-08  0.93827000000E+00  0.93827000000E+00 0.  1.
     999902    2    1    2    0    0  0.19158362056E-01  0.10926905737E-01  0.56400912906E-02  0.10211648790E+01  0.10209110928E+01 0.  0.
     999903    2    3    3    0    0 -0.68257241185E-01 -0.50763106109E-01 -0.94826526174E-01  0.12900979914E+00  0.20384167655E-01 0.  0.
         14    1    1    2    0    0 -0.19158362056E-01 -0.10926905737E-01 -0.56400912906E-02  0.22765121028E-01  0.00000000000E+00 0. -1.
     999901    1    3    3    0    0  0.87415603241E-01  0.61690011847E-01  0.10046661746E+00  0.89215507984E+00  0.88000000000E+00 0. -1.
        -11    1    4    4    0    0 -0.13507407634E-01 -0.17861665974E-01 -0.15880819013E-01  0.27458162827E-01  0.51100000000E-03 0. -1.
         11    1    4    4    0    0 -0.54749833551E-01 -0.32901440136E-01 -0.78945707161E-01  0.10155163631E+00  0.51100000000E-03 0.  1.
</event>
<event>
 8    1  0.1145101E+005  0.1043930E+01  0.7957747E-01            NaN
         13   -1    0    0    0    0  0.00000000000E+00  0.00000000000E+00  0.74505805969E-08  0.10566000000E+00  0.10566000000E+00 0. -1.
     999900   -1    0    0    0    0 -0.00000000000E+00 -0.00000000000E+00 -0.74505805969E-08  0.93827000000E+00  0.93827000000E+00 0. -1.
     999902    2    1    2    0    0 -0.19912674410E-01 -0.12717713581E-01 -0.15344628593E-02  0.10202528081E+01  0.10199780306E+01 0.  0.
     999903    2    3    3    0    0  0.91611725000E-01 -0.41046788576E-01 -0.78454029606E-01  0.12943473019E+00  0.22820333201E-01 0.  0.
         14    1    1    2    0    0  0.19912674410E-01  0.12717713581E-01  0.15344628593E-02  0.23677191919E-01  0.00000000000E+00 0. -1.
     999901    1    3    3    0    0 -0.11152439941E+00  0.28329074995E-01  0.76919566746E-01  0.89081807789E+00  0.88000000000E+00 0. -1.
        -11    1    4    4    0    0  0.59653786621E-01 -0.32007913431E-01 -0.40051411308E-01  0.78660393142E-01  0.51100000000E-03 0.  1.
         11    1    4    4    0    0  0.31957938379E-01 -0.90388751452E-02 -0.38402618297E-01  0.50774337046E-01  0.51100000000E-03 0. -1.
</event>
<event>
 8    1  0.1145101E+005  0.1043930E+01  0.7957747E-01            NaN
         13   -1    0    0    0    0  0.00000000000E+00  0.00000000000E+00  0.74505805969E-08  0.10566000000E+00  0.10566000000E+00 0.  1.
     999900   -1    0    0    0    0 -0.00000000000E+00 -0.00000000000E+00 -0.74505805969E-08  0.93827000000E+00  0.93827000000E+00 0. -1.
     999902    2    1    2    0    0  0.11217342089E-01 -0.15691806194E-01 -0.13587051196E-01  0.10203361554E+01  0.10200633316E+01 0.  0.
     999903    2    3    3    0    0 -0.12709661697E+00 -0.61274773998E-02  0.10168410360E-01  0.12916470742E+00  0.19723819286E-01 0.  0.
         14    1    1    2    0    0 -0.11217342089E-01  0.15691806194E-01  0.13587051196E-01  0.23593844650E-01  0.00000000000E+00 0. -1.
     999901    1    3    3    0    0  0.13831395906E+00 -0.95643287939E-02 -0.23755461556E-01  0.89117144793E+00  0.88000000000E+00 0.  1.
        -11    1    4    4    0    0 -0.80607183200E-01  0.52025496731E-02  0.92351484974E-02  0.81302728093E-01  0.51100000000E-03 0.  1.
         11    1    4    4    0    0 -0.46489433774E-01 -0.11330027073E-01  0.93326186251E-03  0.47861979324E-01  0.51100000000E-03 0. -1.
</event>
<event>
 8    1  0.1145101E+005  0.1043930E+01  0.7957747E-01            NaN
         13   -1    0    0    0    0  0.00000000000E+00  0.00000000000E+00  0.74505805969E-08  0.10566000000E+00  0.10566000000E+00 0.  1.
     999900   -1    0    0    0    0 -0.00000000000E+00 -0.00000000000E+00 -0.74505805969E-08  0.93827000000E+00  0.93827000000E+00 0. -1.
     999902    2    1    2    0    0  0.19977201948E-01  0.42758177610E-04 -0.19431585237E-01  0.10160610759E+01  0.10156788041E+01 0.  0.
     999903    2    3    3    0    0  0.12731480205E+00 -0.69089387052E-02 -0.10573433830E-01  0.12946750873E+00  0.19830432683E-01 0.  0.
         14    1    1    2    0    0 -0.19977201948E-01 -0.42758177610E-04  0.19431585237E-01  0.27868924105E-01  0.00000000000E+00 0.  1.
     999901    1    3    3    0    0 -0.10733760010E+00  0.69516968828E-02 -0.88581514064E-02  0.88659356716E+00  0.88000000000E+00 0. -1.
        -11    1    4    4    0    0  0.77137824736E-01 -0.25748067391E-02  0.32098080695E-02  0.77249191734E-01  0.51100000000E-03 0. -1.
         11    1    4    4    0    0  0.50176977312E-01 -0.43341319662E-02 -0.13783241900E-01  0.52218317000E-01  0.51100000000E-03 0.  1.
</event>
<event>
 8    1  0.1145101E+005  0.1043930E+01  0.7957747E-01            NaN
         13   -1    0    0    0    0  0.00000000000E+00  0.00000000000E+00  0.74505805969E-08  0.10566000000E+00  0.10566000000E+00 0.  1.
     999900   -1    0    0    0    0 -0.00000000000E+00 -0.00000000000E+00 -0.74505805969E-08  0.93827000000E+00  0.93827000000E+00 0.  1.
     999902    2    1    2    0    0  0.38863796484E-02  0.15852792311E-01  0.17126695511E-01  0.10202712031E+01  0.10199968575E+01 0.  0.
     999903    2    3    3    0    0 -0.73826871763E-01 -0.99169751511E-01  0.32563157417E-01  0.12925615308E+00  0.19019655087E-01 0.  0.
         14    1    1    2    0    0 -0.38863796484E-02 -0.15852792311E-01 -0.17126695511E-01  0.23658796883E-01  0.00000000000E+00 0. -1.
     999901    1    3    3    0    0  0.77713251412E-01  0.11502254382E+00 -0.15436461906E-01  0.89101505003E+00  0.88000000000E+00 0. -1.
        -11    1    4    4    0    0 -0.34050833877E-01 -0.59269076277E-01  0.22908560544E-01  0.72092620688E-01  0.51100000000E-03 0.  1.
         11    1    4    4    0    0 -0.39776037886E-01 -0.39900675234E-01  0.96545968732E-02  0.57163532394E-01  0.51100000000E-03 0. -1.
</event>
<event>
 8    1  0.1145101E+005  0.1043930E+01  0.7957747E-01            NaN
         13   -1    0    0    0    0  0.00000000000E+00  0.00000000000E+00  0.74505805969E-08  0.10566000000E+00  0.10566000000E+00 0.  1.
     999900   -1    0    0    0    0 -0.00000000000E+00 -0.00000000000E+00 -0.74505805969E-08  0.93827000000E+00  0.93827000000E+00 0. -1.
     999902    2    1    2    0    0 -0.12882279419E-01  0.66993274358E-02  0.18361288002E-01  0.10205212194E+01  0.10202527080E+01 0.  0.
     999903    2    3    3    0    0 -0.65389794956E-01 -0.11054597866E+00  0.76514605167E-02  0.13112917910E+00  0.25299764445E-01 0.  0.
         14    1    1    2    0    0  0.12882279419E-01 -0.66993274358E-02 -0.18361288002E-01  0.23408780579E-01  0.00000000000E+00 0. -1.
     999901    1    3    3    0    0  0.52507515537E-01  0.11724530609E+00  0.10709827485E-01  0.88939204032E+00  0.88000000000E+00 0. -1.
        -11    1    4    4    0    0 -0.23311136078E-01 -0.29498729544E-01  0.12648516192E-01  0.39671528743E-01  0.51100000000E-03 0.  1.
         11    1    4    4    0    0 -0.42078658877E-01 -0.81047249112E-01 -0.49970556758E-02  0.91457650353E-01  0.51100000000E-03 0. -1.
</event>
<event>
 8    1  0.1145101E+005  0.1043930E+01  0.7957747E-01            NaN
         13   -1    0    0    0    0  0.00000000000E+00  0.00000000000E+00  0.74505805969E-08  0.10566000000E+00  0.10566000000E+00 0.  1.
     999900   -1    0    0    0    0 -0.00000000000E+00 -0.00000000000E+00 -0.74505805969E-08  0.93827000000E+00  0.93827000000E+00 0. -1.
     999902    2    1    2    0    0 -0.16703372592E-01 -0.42213277284E-02 -0.16051342890E-01  0.10203828585E+01  0.10201111263E+01 0.  0.
     999903    2    3    3    0    0 -0.12384795215E+00 -0.41308941242E-01 -0.16517877464E-01  0.13310856628E+00  0.20007655119E-01 0.  0.
         14    1    1    2    0    0  0.16703372592E-01  0.42213277284E-02  0.16051342890E-01  0.23547141489E-01  0.00000000000E+00 0.  1.
     999901    1    3    3    0    0  0.10714457955E+00  0.37087613513E-01  0.46653457448E-03  0.88727429223E+00  0.88000000000E+00 0. -1.
        -11    1    4    4    0    0 -0.41800893957E-01 -0.98223507008E-02 -0.14080487094E-01  0.45191974362E-01  0.51100000000E-03 0.  1.
         11    1    4    4    0    0 -0.82047058188E-01 -0.31486590541E-01 -0.24373903704E-02  0.87916591916E-01  0.51100000000E-03 0. -1.
</event>
<event>
 8    1  0.1145101E+005  0.1043930E+01  0.7957747E-01            NaN
         13   -1    0    0    0    0  0.00000000000E+00  0.00000000000E+00  0.74505805969E-08  0.10566000000E+00  0.10566000000E+00 0.  1.
     999900   -1    0    0    0    0 -0.00000000000E+00 -0.00000000000E+00 -0.74505805969E-08  0.93827000000E+00  0.93827000000E+00 0.  1.
     999902    2    1    2    0    0  0.14098783434E-01  0.13445902907E-01 -0.15291079035E-01  0.10191633874E+01  0.10188624172E+01 0.  0.
     999903    2    3    3    0    0 -0.78824531823E-01  0.10124617225E+00  0.26404749048E-02  0.12974494237E+00  0.19044257701E-01 0.  0.
         14    1    1    2    0    0 -0.14098783434E-01 -0.13445902907E-01  0.15291079035E-01  0.24766612553E-01  0.00000000000E+00 0.  1.
     999901    1    3    3    0    0  0.92923315257E-01 -0.87800269340E-01 -0.17931553940E-01  0.88941844508E+00  0.88000000000E+00 0.  1.
        -11    1    4    4    0    0 -0.25318073918E-01  0.46598015854E-01  0.46316124480E-02  0.53236199182E-01  0.51100000000E-03 0.  1.
         11    1    4    4    0    0 -0.53506457905E-01  0.54648156393E-01 -0.19911375432E-02  0.76508743189E-01  0.51100000000E-03 0. -1.
</event>
<event>
 8    1  0.1145101E+005  0.1043930E+01  0.7957747E-01            NaN
         13   -1    0    0    0    0  0.00000000000E+00  0.00000000000E+00  0.74505805969E-08  0.10566000000E+00  0.10566000000E+00 0. -1.
     999900   -1    0    0    0    0 -0.00000000000E+00 -0.00000000000E+00 -0.74505805969E-08  0.93827000000E+00  0.93827000000E+00 0.  1.
     999902    2    1    2    0    0  0.47056951413E-02  0.62456663727E-02 -0.22930351335E-01  0.10197028886E+01  0.10194150421E+01 0.  0.
     999903    2    3    3    0    0  0.49623229163E-01  0.97037684908E-01  0.66714512276E-01  0.12936757138E+00  0.20158502209E-01 0.  0.
         14    1    1    2    0    0 -0.47056951413E-02 -0.62456663727E-02  0.22930351335E-01  0.24227111416E-01  0.00000000000E+00 0. -1.
     999901    1    3    3    0    0 -0.44917534021E-01 -0.90792018535E-01 -0.89644863611E-01  0.89033531721E+00  0.88000000000E+00 0. -1.
        -11    1    4    4    0    0  0.34033631938E-01  0.45301125070E-01  0.30918235634E-01  0.64549813719E-01  0.51100000000E-03 0. -1.
         11    1    4    4    0    0  0.15589597224E-01  0.51736559838E-01  0.35796276642E-01  0.64817757659E-01  0.51100000000E-03 0.  1.
</event>
<event>
 8    1  0.1145101E+005  0.1043930E+01  0.7957747E-01            NaN
         13   -1    0    0    0    0  0.00000000000E+00  0.00000000000E+00  0.74505805969E-08  0.10566000000E+00  0.10566000000E+00 0. -1.
     999900   -1    0    0    0    0 -0.00000000000E+00 -0.00000000000E+00 -0.74505805969E-08  0.93827000000E+00  0.93827000000E+00 0. -1.
     999902    2    1    2    0    0  0.57481933963E-02  0.17190352694E-01  0.15256798769E-01  0.10202378101E+01  0.10199626804E+01 0.  0.
     999903    2    3    3    0    0  0.87397785283E-01  0.56322636469E-02 -0.93560907378E-01  0.12970901302E+00  0.20017227655E-01 0.  0.
         14    1    1    2    0    0 -0.57481933963E-02 -0.17190352694E-01 -0.15256798769E-01  0.23692189890E-01  0.00000000000E+00 0.  1.
     999901    1    3    3    0    0 -0.81649591886E-01  0.11558089048E-01  0.10881770615E+00  0.89052879709E+00  0.88000000000E+00 0.  1.
        -11    1    4    4    0    0  0.54149513544E-01  0.98627515400E-03 -0.43674826110E-01  0.69576534209E-01  0.51100000000E-03 0.  1.
         11    1    4    4    0    0  0.33248271738E-01  0.46459884929E-02 -0.49886081267E-01  0.60132478810E-01  0.51100000000E-03 0. -1.
</event>
<event>
 8    1  0.1145101E+005  0.1043930E+01  0.7957747E-01            NaN
         13   -1    0    0    0    0  0.00000000000E+00  0.00000000000E+00  0.74505805969E-08  0.10566000000E+00  0.10566000000E+00 0.  1.
     999900   -1    0    0    0    0 -0.00000000000E+00 -0.00000000000E+00 -0.74505805969E-08  0.93827000000E+00  0.93827000000E+00 0. -1.
     999902    2    1    2    0    0  0.46967045663E-02 -0.96159573540E-02  0.20075455269E-01  0.10211802841E+01  0.10209268451E+01 0.  0.
     999903    2    3    3    0    0  0.10187013411E+00 -0.40874460004E-01 -0.68235202503E-01  0.13088901621E+00  0.20679603451E-01 0.  0.
         14    1    1    2    0    0 -0.46967045663E-02  0.96159573540E-02 -0.20075455269E-01  0.22749715907E-01  0.00000000000E+00 0. -1.
     999901    1    3    3    0    0 -0.97173429544E-01  0.31258502650E-01  0.88310657771E-01  0.89029126789E+00  0.88000000000E+00 0.  1.
        -11    1    4    4    0    0  0.15837171135E-01 -0.14130859519E-01 -0.89663328640E-02  0.23046766071E-01  0.51100000000E-03 0.  1.
         11    1    4    4    0    0  0.86032962975E-01 -0.26743600485E-01 -0.59268869639E-01  0.10784225014E+00  0.51100000000E-03 0. -1.
</event>
<event>
 8    1  0.1145101E+005  0.1043930E+01  0.7957747E-01            NaN
         13   -1    0    0    0    0  0.00000000000E+00  0.00000000000E+00  0.74505805969E-08  0.10566000000E+00  0.10566000000E+00 0.  1.
     999900   -1    0    0    0    0 -0.00000000000E+00 -0.00000000000E+00 -0.74505805969E-08  0.93827000000E+00  0.93827000000E+00 0. -1.
     999902    2    1    2    0    0  0.31576724640E-02  0.32910808200E-02  0.23295284457E-01  0.10201924267E+01  0.10199162295E+01 0.  0.
     999903    2    3    3    0    0 -0.62780032686E-01  0.88692317467E-01 -0.66729604524E-01  0.12904393581E+00  0.19794887397E-01 0.  0.
         14    1    1    2    0    0 -0.31576724640E-02 -0.32910808200E-02 -0.23295284457E-01  0.23737573302E-01  0.00000000000E+00 0. -1.
     999901    1    3    3    0    0  0.65937705150E-01 -0.85401236647E-01  0.90024888980E-01  0.89114849089E+00  0.88000000000E+00 0.  1.
        -11    1    4    4    0    0 -0.22768943855E-01  0.40572504495E-01 -0.38489064069E-01  0.60383955644E-01  0.51100000000E-03 0.  1.
         11    1    4    4    0    0 -0.40011088831E-01  0.48119812972E-01 -0.28240540454E-01  0.68659980163E-01  0.51100000000E-03 0. -1.
</event>
<event>
 8    1  0.1186812E+005  0.1043930E+01  0.7957747E-01            NaN
         13   -1    0    0    0    0  0.00000000000E+00  0.00000000000E+00  0.74505805969E-08  0.10566000000E+00  0.10566000000E+00 0.  1.
     999900   -1    0    0    0    0 -0.00000000000E+00 -0.00000000000E+00 -0.74505805969E-08  0.93827000000E+00  0.93827000000E+00 0. -1.
     999902    2    1    2    0    0 -0.16276918008E-01 -0.13138456550E-01 -0.10734210828E-01  0.10204187180E+01  0.10201478224E+01 0.  0.
     999903    2    3    3    0    0 -0.17386936973E-01  0.27306828903E-01 -0.12633234313E+00  0.13193687717E+00  0.19987750091E-01 0.  0.
         14    1    1    2    0    0  0.16276918008E-01  0.13138456550E-01  0.10734210828E-01  0.23511282025E-01  0.00000000000E+00 0.  1.
     999901    1    3    3    0    0  0.11100189656E-02 -0.40445285453E-01  0.11559813230E+00  0.88848184081E+00  0.88000000000E+00 0.  1.
        -11    1    4    4    0    0 -0.10803371176E-01  0.14882969403E-02 -0.46874049173E-01  0.48128634547E-01  0.51100000000E-03 0.  1.
         11    1    4    4    0    0 -0.65835657972E-02  0.25818531963E-01 -0.79458293956E-01  0.83808242618E-01  0.51100000000E-03 0. -1.
</event>
<event>
 8    1  0.1145101E+005  0.1043930E+01  0.7957747E-01            NaN
         13   -1    0    0    0    0  0.00000000000E+00  0.00000000000E+00  0.74505805969E-08  0.10566000000E+00  0.10566000000E+00 0.  1.
     999900   -1    0    0    0    0 -0.00000000000E+00 -0.00000000000E+00 -0.74505805969E-08  0.93827000000E+00  0.93827000000E+00 0.  1.
     999902    2    1    2    0    0  0.19264962222E-01  0.15363290790E-01 -0.38204271491E-02  0.10189947812E+01  0.10186896480E+01 0.  0.
     999903    2    3    3    0    0  0.61301476143E-01 -0.53548857358E-01  0.98725941415E-01  0.12937030403E+00  0.19092222359E-01 0.  0.
         14    1    1    2    0    0 -0.19264962222E-01 -0.15363290790E-01  0.38204271491E-02  0.24935218806E-01  0.00000000000E+00 0.  1.
     999901    1    3    3    0    0 -0.42036513921E-01  0.68912148148E-01 -0.10254636856E+00  0.88962447716E+00  0.88000000000E+00 0.  1.
        -11    1    4    4    0    0  0.10751698303E-01 -0.58743684442E-02  0.26208633776E-01  0.28935459671E-01  0.51100000000E-03 0. -1.
         11    1    4    4    0    0  0.50549777840E-01 -0.47674488913E-01  0.72517307640E-01  0.10043484436E+00  0.51100000000E-03 0.  1.
</event>
<event>
 8    1  0.1145101E+005  0.1043930E+01  0.7957747E-01            NaN
         13   -1    0    0    0    0  0.00000000000E+00  0.00000000000E+00  0.74505805969E-08  0.10566000000E+00  0.10566000000E+00 0.  1.
     999900   -1    0    0    0    0 -0.00000000000E+00 -0.00000000000E+00 -0.74505805969E-08  0.93827000000E+00  0.93827000000E+00 0. -1.
     999902    2    1    2    0    0  0.11878530539E-01  0.10466083643E-03  0.20823498916E-01  0.10199565032E+01  0.10196747226E+01 0.  0.
     999903    2    3    3    0    0  0.85674281103E-01  0.84834254739E-01  0.49608897273E-01  0.13234537436E+00  0.22744718205E-01 0.  0.
         14    1    1    2    0    0 -0.11878530539E-01 -0.10466083643E-03 -0.20823498916E-01  0.23973496799E-01  0.00000000000E+00 0. -1.
     999901    1    3    3    0    0 -0.73795750564E-01 -0.84729593902E-01 -0.28785398356E-01  0.88761112884E+00  0.88000000000E+00 0. -1.
        -11    1    4    4    0    0  0.47269913456E-01  0.33856457912E-01  0.30826482233E-01  0.65812138609E-01  0.51100000000E-03 0. -1.
         11    1    4    4    0    0  0.38404367647E-01  0.50977796827E-01  0.18782415040E-01  0.66533235751E-01  0.51100000000E-03 0.  1.
</event>
<event>
 8    1  0.1145101E+005  0.1043930E+01  0.7957747E-01            NaN
         13   -1    0    0    0    0  0.00000000000E+00  0.00000000000E+00  0.74505805969E-08  0.10566000000E+00  0.10566000000E+00 0.  1.
     999900   -1    0    0    0    0 -0.00000000000E+00 -0.00000000000E+00 -0.74505805969E-08  0.93827000000E+00  0.93827000000E+00 0.  1.
     999902    2    1    2    0    0  0.12863348313E-01 -0.15907481900E-01 -0.40438683531E-02  0.10230765451E+01  0.10228639942E+01 0.  0.
     999903    2    3    3    0    0 -0.50916701968E-01 -0.41106870900E-01 -0.11464141735E+00  0.13350658053E+00  0.19976663796E-01 0.  0.
         14    1    1    2    0    0 -0.12863348313E-01  0.15907481900E-01  0.40438683531E-02  0.20853454905E-01  0.00000000000E+00 0.  1.
     999901    1    3    3    0    0  0.63780050281E-01  0.25199389000E-01  0.11059754900E+00  0.88956996457E+00  0.88000000000E+00 0. -1.
        -11    1    4    4    0    0 -0.27349142953E-01 -0.95523598582E-02 -0.51343607352E-01  0.58954646433E-01  0.51100000000E-03 0.  1.
         11    1    4    4    0    0 -0.23567559015E-01 -0.31554511042E-01 -0.63297810001E-01  0.74551934093E-01  0.51100000000E-03 0. -1.
</event>
<event>
 8    1  0.1145101E+005  0.1043930E+01  0.7957747E-01            NaN
         13   -1    0    0    0    0  0.00000000000E+00  0.00000000000E+00  0.74505805969E-08  0.10566000000E+00  0.10566000000E+00 0.  1.
     999900   -1    0    0    0    0 -0.00000000000E+00 -0.00000000000E+00 -0.74505805969E-08  0.93827000000E+00  0.93827000000E+00 0. -1.
     999902    2    1    2    0    0  0.11135464110E-01 -0.28767249609E-02 -0.21270091379E-01  0.10197496176E+01  0.10194628937E+01 0.  0.
     999903    2    3    3    0    0 -0.42895018197E-02 -0.82521072736E-01 -0.10153583275E+00  0.13238061825E+00  0.19671692456E-01 0.  0.
         14    1    1    2    0    0 -0.11135464110E-01  0.28767249609E-02  0.21270091379E-01  0.24180382435E-01  0.00000000000E+00 0.  1.
     999901    1    3    3    0    0  0.15424965930E-01  0.79644347775E-01  0.80265741374E-01  0.88736899931E+00  0.88000000000E+00 0.  1.
        -11    1    4    4    0    0 -0.44579393462E-02 -0.30244450907E-01 -0.52212458627E-01  0.60506214481E-01  0.51100000000E-03 0.  1.
         11    1    4    4    0    0  0.16843752648E-03 -0.52276621829E-01 -0.49323374125E-01  0.71874403769E-01  0.51100000000E-03 0. -1.
</event>
<event>
 8    1  0.1145101E+005  0.1043930E+01  0.7957747E-01            NaN
         13   -1    0    0    0    0  0.00000000000E+00  0.00000000000E+00  0.74505805969E-08  0.10566000000E+00  0.10566000000E+00 0.  1.
     999900   -1    0    0    0    0 -0.00000000000E+00 -0.00000000000E+00 -0.74505805969E-08  0.93827000000E+00  0.93827000000E+00 0. -1.
     999902    2    1    2    0    0  0.58084315663E-02  0.24195349478E-01  0.67045617930E-02  0.10181597854E+01  0.10178336036E+01 0.  0.
     999903    2    3    3    0    0 -0.10554804526E+00  0.72045442812E-02 -0.68857523549E-01  0.12776741054E+00  0.19770112074E-01 0.  0.
         14    1    1    2    0    0 -0.58084315663E-02 -0.24195349478E-01 -0.67045617930E-02  0.25770214637E-01  0.00000000000E+00 0.  1.
     999901    1    3    3    0    0  0.11135647683E+00  0.16990805197E-01  0.75562085342E-01  0.89039237482E+00  0.88000000000E+00 0.  1.
        -11    1    4    4    0    0 -0.69517651401E-01  0.45871878895E-04 -0.54450486452E-01  0.88305280456E-01  0.51100000000E-03 0.  1.
         11    1    4    4    0    0 -0.36030393860E-01  0.71586724023E-02 -0.14407037097E-01  0.39462130089E-01  0.51100000000E-03 0. -1.
</event>
<event>
 8    1  0.1145101E+005  0.1043930E+01  0.7957747E-01            NaN
         13   -1    0    0    0    0  0.00000000000E+00  0.00000000000E+00  0.74505805969E-08  0.10566000000E+00  0.10566000000E+00 0. -1.
     999900   -1    0    0    0    0 -0.00000000000E+00 -0.00000000000E+00 -0.74505805969E-08  0.93827000000E+00  0.93827000000E+00 0.  1.
     999902    2    1    2    0    0 -0.21829466853E-01  0.93258006347E-02 -0.14025041692E-02  0.10201505299E+01  0.10198733453E+01 0.  0.
     999903    2    3    3    0    0  0.63426347889E-01  0.68895219494E-01  0.87277724339E-01  0.12959943504E+00  0.20227691964E-01 0.  0.
         14    1    1    2    0    0  0.21829466853E-01 -0.93258006347E-02  0.14025041692E-02  0.23779470106E-01  0.00000000000E+00 0. -1.
     999901    1    3    3    0    0 -0.85255814743E-01 -0.59569418859E-01 -0.88680228508E-01  0.89055109485E+00  0.88000000000E+00 0.  1.
        -11    1    4    4    0    0  0.39028817942E-01  0.49629416063E-01  0.46971843684E-01  0.78695252645E-01  0.51100000000E-03 0.  1.
         11    1    4    4    0    0  0.24397529947E-01  0.19265803431E-01  0.40305880655E-01  0.50904182399E-01  0.51100000000E-03 0. -1.
</event>
<event>
 8    1  0.1145101E+005  0.1043930E+01  0.7957747E-01            NaN
         13   -1    0    0    0    0  0.00000000000E+00  0.00000000000E+00  0.74505805969E-08  0.10566000000E+00  0.10566000000E+00 0.  1.
     999900   -1    0    0    0    0 -0.00000000000E+00 -0.00000000000E+00 -0.74505805969E-08  0.93827000000E+00  0.93827000000E+00 0.  1.
     999902    2    1    2    0    0 -0.14101390517E-02  0.18367745710E-01 -0.15547625243E-01  0.10198241662E+01  0.10195392286E+01 0.  0.
     999903    2    3    3    0    0  0.61787216051E-01  0.21443145007E-01  0.10902447485E+00  0.12880139883E+00  0.20639663022E-01 0.  0.
         14    1    1    2    0    0  0.14101390517E-02 -0.18367745710E-01  0.15547625243E-01  0.24105833844E-01  0.00000000000E+00 0.  1.
     999901    1    3    3    0    0 -0.63197355103E-01 -0.30753992975E-02 -0.12457210009E+00  0.89102276733E+00  0.88000000000E+00 0.  1.
        -11    1    4    4    0    0  0.44472331741E-01  0.12067841985E-01  0.91445404688E-01  0.10240089970E+00  0.51100000000E-03 0.  1.
         11    1    4    4    0    0  0.17314884310E-01  0.93753030224E-02  0.17579070160E-01  0.26400499126E-01  0.51100000000E-03 0. -1.
</event>
<event>
 8    1  0.1145101E+005  0.1043930E+01  0.7957747E-01            NaN
         13   -1    0    0    0    0  0.00000000000E+00  0.00000000000E+00  0.74505805969E-08  0.10566000000E+00  0.10566000000E+00 0.  1.
     999900   -1    0    0    0    0 -0.00000000000E+00 -0.00000000000E+00 -0.74505805969E-08  0.93827000000E+00  0.93827000000E+00 0. -1.
     999902    2    1    2    0    0 -0.18075941698E-01  0.10405644791E-01 -0.12296113805E-01  0.10197181945E+01  0.10194307160E+01 0.  0.
     999903    2    3    3    0    0  0.65604466878E-01 -0.40698064048E-01  0.98555847011E-01  0.12736055482E+00  0.23391824501E-01 0.  0.
         14    1    1    2    0    0  0.18075941698E-01 -0.10405644791E-01  0.12296113805E-01  0.24211805519E-01  0.00000000000E+00 0. -1.
     999901    1    3    3    0    0 -0.83680408576E-01  0.51103708839E-01 -0.11085196082E+00  0.89235763966E+00  0.88000000000E+00 0. -1.
        -11    1    4    4    0    0  0.54531260613E-01 -0.26134670902E-01  0.86128000895E-01  0.10523769793E+00  0.51100000000E-03 0. -1.
         11    1    4    4    0    0  0.11073206265E-01 -0.14563393146E-01  0.12427846116E-01  0.22122856891E-01  0.51100000000E-03 0.  1.
</event>
<event>
 8    1  0.1145101E+005  0.1043930E+01  0.7957747E-01            NaN
         13   -1    0    0    0    0  0.00000000000E+00  0.00000000000E+00  0.74505805969E-08  0.10566000000E+00  0.10566000000E+00 0. -1.
     999900   -1    0    0    0    0 -0.00000000000E+00 -0.00000000000E+00 -0.74505805969E-08  0.93827000000E+00  0.93827000000E+00 0. -1.
     999902    2    1    2    0    0  0.64950434824E-02 -0.13518753759E-01 -0.17738134093E-01  0.10207010591E+01  0.10204367048E+01 0.  0.
     999903    2    3    3    0    0  0.52652115227E-01  0.38522902137E-02  0.11604082704E+00  0.12922529452E+00  0.21133334436E-01 0.  0.
         14    1    1    2    0    0 -0.64950434824E-02  0.13518753759E-01  0.17738134093E-01  0.23228940874E-01  0.00000000000E+00 0.  1.
     999901    1    3    3    0    0 -0.46157071745E-01 -0.17371043973E-01 -0.13377896114E+00  0.89147576461E+00  0.88000000000E+00 0. -1.
        -11    1    4    4    0    0  0.23960413931E-01  0.11692866249E-01  0.63013685428E-01  0.68423754860E-01  0.51100000000E-03 0.  1.
         11    1    4    4    0    0  0.28691701297E-01 -0.78405760357E-02  0.53027141616E-01  0.60801539658E-01  0.51100000000E-03 0. -1.
</event>
<event>
 8    1  0.1145101E+005  0.1043930E+01  0.7957747E-01            NaN
         13   -1    0    0    0    0  0.00000000000E+00  0.00000000000E+00  0.74505805969E-08  0.10566000000E+00  0.10566000000E+00 0.  1.
     999900   -1    0    0    0    0 -0.00000000000E+00 -0.00000000000E+00 -0.74505805969E-08  0.93827000000E+00  0.93827000000E+00 0.  1.
     999902    2    1    2    0    0  0.14363834805E-01  0.84699654716E-02 -0.14807288838E-01  0.10216294200E+01  0.10213859975E+01 0.  0.
     999903    2    3    3    0    0  0.54405089794E-01 -0.10249165417E+00  0.57111769856E-01  0.13084991073E+00  0.19886978491E-01 0.  0.
         14    1    1    2    0    0 -0.14363834805E-01 -0.84699654716E-02  0.14807288838E-01  0.22300579995E-01  0.00000000000E+00 0.  1.
     999901    1    3    3    0    0 -0.40041254989E-01  0.11096161964E+00 -0.71919058694E-01  0.89077950927E+00  0.88000000000E+00 0.  1.
        -11    1    4    4    0    0  0.11918430642E-01 -0.35079067912E-01  0.10407934303E-01  0.38486052175E-01  0.51100000000E-03 0. -1.
         11    1    4    4    0    0  0.42486659152E-01 -0.67412586255E-01  0.46703835553E-01  0.92363858559E-01  0.51100000000E-03 0.  1.
</event>
<event>
 8    1  0.1145101E+005  0.1043930E+01  0.7957747E-01            NaN
         13   -1    0    0    0    0  0.00000000000E+00  0.00000000000E+00  0.74505805969E-08  0.10566000000E+00  0.10566000000E+00 0.  1.
     999900   -1    0    0    0    0 -0.00000000000E+00 -0.00000000000E+00 -0.74505805969E-08  0.93827000000E+00  0.93827000000E+00 0.  1.
     999902    2    1    2    0    0  0.65200324737E-03 -0.13120388862E-03  0.23202252118E-01  0.10207182179E+01  0.10204542585E+01 0.  0.
     999903    2    3    3    0    0 -0.22137013705E-01  0.12373213218E+00  0.34100987589E-01  0.13168489588E+00  0.19451132078E-01 0.  0.
         14    1    1    2    0    0 -0.65200324737E-03  0.13120388862E-03 -0.23202252118E-01  0.23211782052E-01  0.00000000000E+00 0. -1.
     999901    1    3    3    0    0  0.22789016952E-01 -0.12386333607E+00 -0.10898735471E-01  0.88903332207E+00  0.88000000000E+00 0.  1.
        -11    1    4    4    0    0 -0.51391459250E-02  0.39586044718E-01  0.18005202337E-02  0.39962091429E-01  0.51100000000E-03 0. -1.
         11    1    4    4    0    0 -0.16997867780E-01  0.84146087459E-01  0.32300467355E-01  0.91722804449E-01  0.51100000000E-03 0.  1.
</event>
<event>
 8    1  0.1145101E+005  0.1043930E+01  0.7957747E-01            NaN
         13   -1    0    0    0    0  0.00000000000E+00  0.00000000000E+00  0.74505805969E-08  0.10566000000E+00  0.10566000000E+00 0.  1.
     999900   -1    0    0    0    0 -0.00000000000E+00 -0.00000000000E+00 -0.74505805969E-08  0.93827000000E+00  0.93827000000E+00 0.  1.
     999902    2    1    2    0    0 -0.15680312736E-01  0.90041486490E-02 -0.15136566227E-01  0.10203490217E+01  0.10200764989E+01 0.  0.
     999903    2    3    3    0    0  0.91288811456E-01 -0.17742763406E-01  0.85361817010E-01  0.12779217989E+00  0.19893433258E-01 0.  0.
         14    1    1    2    0    0  0.15680312736E-01 -0.90041486490E-02  0.15136566227E-01  0.23580978299E-01  0.00000000000E+00 0.  1.
     999901    1    3    3    0    0 -0.10696912419E+00  0.26746912055E-01 -0.10049838324E+00  0.89255684181E+00  0.88000000000E+00 0.  1.
        -11    1    4    4    0    0  0.62750659299E-01 -0.26489765644E-02  0.56964096003E-01  0.84792875135E-01  0.51100000000E-03 0. -1.
         11    1    4    4    0    0  0.28538152157E-01 -0.15093786842E-01  0.28397721007E-01  0.42999304752E-01  0.51100000000E-03 0.  1.
</event>
<event>
 8    1  0.1145101E+005  0.1043930E+01  0.7957747E-01            NaN
         13   -1    0    0    0    0  0.00000000000E+00  0.00000000000E+00  0.74505805969E-08  0.10566000000E+00  0.10566000000E+00 0. -1.
     999900   -1    0    0    0    0 -0.00000000000E+00 -0.00000000000E+00 -0.74505805969E-08  0.93827000000E+00  0.93827000000E+00 0.  1.
     999902    2    1    2    0    0 -0.15999157308E-01 -0.22788689807E-02  0.19132943714E-01  0.10188853236E+01  0.10185774722E+01 0.  0.
     999903    2    3    3    0    0 -0.55137289506E-01  0.11163987251E+00  0.31227463128E-01  0.13059733518E+00  0.24019318781E-01 0.  0.
         14    1    1    2    0    0  0.15999157308E-01  0.22788689807E-02 -0.19132943714E-01  0.25044676352E-01  0.00000000000E+00 0.  1.
     999901    1    3    3    0    0  0.39138132198E-01 -0.11391874149E+00 -0.12094519414E-01  0.88828798847E+00  0.88000000000E+00 0.  1.
        -11    1    4    4    0    0 -0.63716683197E-03  0.99961152671E-02  0.82726044626E-02  0.13000977179E-01  0.51100000000E-03 0.  1.
         11    1    4    4    0    0 -0.54500122674E-01  0.10164375724E+00  0.22954858665E-01  0.11759635800E+00  0.51100000000E-03 0. -1.
</event>
<event>
 8    1  0.1145101E+005  0.1043930E+01  0.7957747E-01            NaN
         13   -1    0    0    0    0  0.00000000000E+00  0.00000000000E+00  0.74505805969E-08  0.10566000000E+00  0.10566000000E+00 0. -1.
     999900   -1    0    0    0    0 -0.00000000000E+00 -0.00000000000E+00 -0.74505805969E-08  0.93827000000E+00  0.93827000000E+00 0. -1.
     999902    2    1    2    0    0  0.94784133562E-02  0.17926627012E-01  0.13074440366E-01  0.10198023133E+01  0.10195168527E+01 0.  0.
     999903    2    3    3    0    0 -0.16741997057E-01  0.87088441168E-01  0.96642624622E-01  0.13275411398E+00  0.20473564258E-01 0.  0.
         14    1    1    2    0    0 -0.94784133562E-02 -0.17926627012E-01 -0.13074440366E-01  0.24127686725E-01  0.00000000000E+00 0.  1.
     999901    1    3    3    0    0  0.26220410413E-01 -0.69161814156E-01 -0.83568184255E-01  0.88704819930E+00  0.88000000000E+00 0. -1.
        -11    1    4    4    0    0 -0.77527213730E-02  0.75265870777E-01  0.85543691778E-01  0.11420613082E+00  0.51100000000E-03 0.  1.
         11    1    4    4    0    0 -0.89892756838E-02  0.11822570391E-01  0.11098932844E-01  0.18547983159E-01  0.51100000000E-03 0. -1.
</event>
<event>
 8    1  0.1145101E+005  0.1043930E+01  0.7957747E-01            NaN
         13   -1    0    0    0    0  0.00000000000E+00  0.00000000000E+00  0.74505805969E-08  0.10566000000E+00  0.10566000000E+00 0.  1.
     999900   -1    0    0    0    0 -0.00000000000E+00 -0.00000000000E+00 -0.74505805969E-08  0.93827000000E+00  0.93827000000E+00 0.  1.
     999902    2    1    2    0    0  0.14848336325E-01 -0.14812216246E-01  0.17331201369E-01  0.10167225491E+01  0.10163584488E+01 0.  0.
     999903    2    3    3    0    0  0.34432821584E-01 -0.76520046622E-01 -0.93585850943E-01  0.12740033481E+00  0.20774914593E-01 0.  0.
         14    1    1    2    0    0 -0.14848336325E-01  0.14812216246E-01 -0.17331201369E-01  0.27207450866E-01  0.00000000000E+00 0.  1.
     999901    1    3    3    0    0 -0.19584485259E-01  0.61707830377E-01  0.11091705231E+00  0.88932221432E+00  0.88000000000E+00 0. -1.
        -11    1    4    4    0    0  0.70731856974E-03 -0.90025024795E-02 -0.20190074120E-01  0.22123416654E-01  0.51100000000E-03 0. -1.
         11    1    4    4    0    0  0.33725503014E-01 -0.67517544143E-01 -0.73395776823E-01  0.10527691816E+00  0.51100000000E-03 0.  1.
</event>
<event>
 8    1  0.1145101E+005  0.1043930E+01  0.7957747E-01            NaN
         13   -1    0    0    0    0  0.00000000000E+00  0.00000000000E+00  0.74505805969E-08  0.10566000000E+00  0.10566000000E+00 0.  1.
     999900   -1    0    0    0    0 -0.00000000000E+00 -0.00000000000E+00 -0.74505805969E-08  0.93827000000E+00  0.93827000000E+00 0. -1.
     999902    2    1    2    0    0 -0.22954932409E-01  0.72488143532E-02 -0.88789647264E-03  0.10198413597E+01  0.10195568333E+01 0.  0.
     999903    2    3    3    0    0 -0.12766490810E+00 -0.17770073707E-01  0.23853543947E-01  0.13293535417E+00  0.22106843971E-01 0.  0.
         14    1    1    2    0    0  0.22954932409E-01 -0.72488143532E-02  0.88789647264E-03  0.24088640302E-01  0.00000000000E+00 0. -1.
     999901    1    3    3    0    0  0.10470997569E+00  0.25018888060E-01 -0.24741440420E-01  0.88690600553E+00  0.88000000000E+00 0. -1.
        -11    1    4    4    0    0 -0.63186304318E-01 -0.28746440433E-02  0.21559264798E-02  0.63290455614E-01  0.51100000000E-03 0. -1.
         11    1    4    4    0    0 -0.64478603779E-01 -0.14895429664E-01  0.21697617467E-01  0.69644898556E-01  0.51100000000E-03 0.  1.
</event>
<event>
 8    1  0.1145101E+005  0.1043930E+01  0.7957747E-01            NaN
         13   -1    0    0    0    0  0.00000000000E+00  0.00000000000E+00  0.74505805969E-08  0.10566000000E+00  0.10566000000E+00 0. -1.
     999900   -1    0    0    0    0 -0.00000000000E+00 -0.00000000000E+00 -0.74505805969E-08  0.93827000000E+00  0.93827000000E+00 0. -1.
     999902    2    1    2    0    0 -0.13388964258E-01  0.11219148055E-01 -0.17617517642E-01  0.10191205144E+01  0.10188184884E+01 0.  0.
     999903    2    3    3    0    0 -0.36642843888E-01  0.10936286865E+00 -0.61980080659E-01  0.13224906386E+00  0.18583580057E-01 0.  0.
         14    1    1    2    0    0  0.13388964258E-01 -0.11219148055E-01  0.17617517642E-01  0.24809485582E-01  0.00000000000E+00 0. -1.
     999901    1    3    3    0    0  0.23253879630E-01 -0.98143720591E-01  0.44362563016E-01  0.88687145055E+00  0.88000000000E+00 0.  1.
        -11    1    4    4    0    0 -0.39727754297E-02  0.39283754508E-01 -0.22007770196E-01  0.45206187439E-01  0.51100000000E-03 0.  1.
         11    1    4    4    0    0 -0.32670068458E-01  0.70079114139E-01 -0.39972310463E-01  0.87042876425E-01  0.51100000000E-03 0. -1.
</event>
<event>
 8    1  0.1145101E+005  0.1043930E+01  0.7957747E-01            NaN
         13   -1    0    0    0    0  0.00000000000E+00  0.00000000000E+00  0.74505805969E-08  0.10566000000E+00  0.10566000000E+00 0. -1.
     999900   -1    0    0    0    0 -0.00000000000E+00 -0.00000000000E+00 -0.74505805969E-08  0.93827000000E+00  0.93827000000E+00 0.  1.
     999902    2    1    2    0    0  0.17901409758E-01  0.11649873452E-01 -0.94862299814E-02  0.10205597501E+01  0.10202921321E+01 0.  0.
     999903    2    3    3    0    0  0.11995663561E+00 -0.50961611259E-01  0.10150097007E-01  0.13223489255E+00  0.19908844497E-01 0.  0.
         14    1    1    2    0    0 -0.17901409758E-01 -0.11649873452E-01  0.94862299814E-02  0.23370249935E-01  0.00000000000E+00 0. -1.
     999901    1    3    3    0    0 -0.10205522585E+00  0.62611484710E-01 -0.19636326988E-01  0.88832485752E+00  0.88000000000E+00 0.  1.
        -11    1    4    4    0    0  0.23066220037E-01 -0.64584116179E-02  0.90347829390E-02  0.25605663655E-01  0.51100000000E-03 0. -1.
         11    1    4    4    0    0  0.96890415574E-01 -0.44503199641E-01  0.11153140680E-02  0.10662922890E+00  0.51100000000E-03 0.  1.
</event>
<event>
 8    1  0.1145101E+005  0.1043930E+01  0.7957747E-01            NaN
         13   -1    0    0    0    0  0.00000000000E+00  0.00000000000E+00  0.74505805969E-08  0.10566000000E+00  0.10566000000E+00 0. -1.
     999900   -1    0    0    0    0 -0.00000000000E+00 -0.00000000000E+00 -0.74505805969E-08  0.93827000000E+00  0.93827000000E+00 0.  1.
     999902    2    1    2    0    0 -0.11460098710E-01  0.16940567797E-01 -0.11166759905E-01  0.10206273558E+01  0.10203613018E+01 0.  0.
     999903    2    3    3    0    0  0.12468353617E+00  0.30099912162E-01  0.53806823486E-02  0.12990737988E+00  0.19874272343E-01 0.  0.
         14    1    1    2    0    0  0.11460098710E-01 -0.16940567797E-01  0.11166759905E-01  0.23302644195E-01  0.00000000000E+00 0. -1.
     999901    1    3    3    0    0 -0.13614363488E+00 -0.13159344366E-01 -0.16547442253E-01  0.89071997592E+00  0.88000000000E+00 0.  1.
        -11    1    4    4    0    0  0.73671977567E-01  0.25975909836E-01  0.87983866477E-02  0.78612854541E-01  0.51100000000E-03 0. -1.
         11    1    4    4    0    0  0.51011558603E-01  0.41240023267E-02 -0.34177042991E-02  0.51294525341E-01  0.51100000000E-03 0.  1.
</event>
<event>
 8    1  0.1145101E+005  0.1043930E+01  0.7957747E-01            NaN
         13   -1    0    0    0    0  0.00000000000E+00  0.00000000000E+00  0.74505805969E-08  0.10566000000E+00  0.10566000000E+00 0.  1.
     999900   -1    0    0    0    0 -0.00000000000E+00 -0.00000000000E+00 -0.74505805969E-08  0.93827000000E+00  0.93827000000E+00 0. -1.
     999902    2    1    2    0    0  0.21291813951E-01 -0.17270013838E-01 -0.20229825422E-01  0.10098588897E+01  0.10092839722E+01 0.  0.
     999903    2    3    3    0    0 -0.83758370790E-01 -0.40959941559E-01 -0.75332631845E-01  0.12158355331E+00  0.20356166768E-01 0.  0.
         14    1    1    2    0    0 -0.21291813951E-01  0.17270013838E-01  0.20229825422E-01  0.34071110283E-01  0.00000000000E+00 0.  1.
     999901    1    3    3    0    0  0.10505018474E+00  0.23689927722E-01  0.55102806423E-01  0.88827533640E+00  0.88000000000E+00 0.  1.
        -11    1    4    4    0    0 -0.62475196360E-01 -0.25464506486E-01 -0.63733415682E-01  0.92810563226E-01  0.51100000000E-03 0.  1.
         11    1    4    4    0    0 -0.21283174430E-01 -0.15495435074E-01 -0.11599216163E-01  0.28772990087E-01  0.51100000000E-03 0. -1.
</event>
<event>
 8    1  0.1145101E+005  0.1043930E+01  0.7957747E-01            NaN
         13   -1    0    0    0    0  0.00000000000E+00  0.00000000000E+00  0.74505805969E-08  0.10566000000E+00  0.10566000000E+00 0. -1.
     999900   -1    0    0    0    0 -0.00000000000E+00 -0.00000000000E+00 -0.74505805969E-08  0.93827000000E+00  0.93827000000E+00 0. -1.
     999902    2    1    2    0    0  0.52256739372E-02 -0.18637861925E-01 -0.11974266820E-01  0.10211690547E+01  0.10209153626E+01 0.  0.
     999903    2    3    3    0    0 -0.12955596176E-01  0.12584476686E+00 -0.16310150773E-01  0.12919114662E+00  0.20483616119E-01 0.  0.
         14    1    1    2    0    0 -0.52256739372E-02  0.18637861925E-01  0.11974266820E-01  0.22760945303E-01  0.00000000000E+00 0. -1.
     999901    1    3    3    0    0  0.18181270113E-01 -0.14448262878E+00  0.43358839525E-02  0.89197790807E+00  0.88000000000E+00 0.  1.
        -11    1    4    4    0    0 -0.17639905501E-01  0.11477927886E+00 -0.14546289355E-01  0.11703548512E+00  0.51100000000E-03 0. -1.
         11    1    4    4    0    0  0.46843093255E-02  0.11065487997E-01 -0.17638614177E-02  0.12155661503E-01  0.51100000000E-03 0.  1.
</event>
<event>
 8    1  0.1145101E+005  0.1043930E+01  0.7957747E-01            NaN
         13   -1    0    0    0    0  0.00000000000E+00  0.00000000000E+00  0.74505805969E-08  0.10566000000E+00  0.10566000000E+00 0. -1.
     999900   -1    0    0    0    0 -0.00000000000E+00 -0.00000000000E+00 -0.74505805969E-08  0.93827000000E+00  0.93827000000E+00 0. -1.
     999902    2    1    2    0    0 -0.20321412251E-01 -0.10481933853E-01  0.32490254767E-02  0.10208348295E+01  0.10205735457E+01 0.  0.
     999903    2    3    3    0    0  0.92335615840E-01 -0.86199970235E-01 -0.23478450972E-01  0.13002666554E+00  0.19984876024E-01 0.  0.
         14    1    1    2    0    0  0.20321412251E-01  0.10481933853E-01 -0.32490254767E-02  0.23095170485E-01  0.00000000000E+00 0.  1.
     999901    1    3    3    0    0 -0.11265702809E+00  0.75718036382E-01  0.26727476449E-01  0.89080816398E+00  0.88000000000E+00 0. -1.
        -11    1    4    4    0    0  0.25842046958E-01 -0.32322237145E-01 -0.15017265434E-01  0.44026330612E-01  0.51100000000E-03 0. -1.
         11    1    4    4    0    0  0.66493568882E-01 -0.53877733091E-01 -0.84611855376E-02  0.86000334926E-01  0.51100000000E-03 0.  1.
</event>
<event>
 8    1  0.1145101E+005  0.1043930E+01  0.7957747E-01            NaN
         13   -1    0    0    0    0  0.00000000000E+00  0.00000000000E+00  0.74505805969E-08  0.10566000000E+00  0.10566000000E+00 0.  1.
     999900   -1    0    0    0    0 -0.00000000000E+00 -0.00000000000E+00 -0.74505805969E-08  0.93827000000E+00  0.93827000000E+00 0. -1.
     999902    2    1    2    0    0  0.18435785016E-01  0.10379677070E-01 -0.96969744181E-02  0.10206566853E+01  0.10203913083E+01 0.  0.
     999903    2    3    3    0    0 -0.81193499631E-02  0.12569908846E+00 -0.35322487331E-01  0.13236596218E+00  0.20171394277E-01 0.  0.
         14    1    1    2    0    0 -0.18435785016E-01 -0.10379677070E-01  0.96969744181E-02  0.23273314721E-01  0.00000000000E+00 0.  1.
     999901    1    3    3    0    0  0.26555134980E-01 -0.11531941139E+00  0.25625512913E-01  0.88829072310E+00  0.88000000000E+00 0.  1.
        -11    1    4    4    0    0 -0.11081087055E-01  0.76327558934E-01 -0.13495449684E-01  0.78301181513E-01  0.51100000000E-03 0.  1.
         11    1    4    4    0    0  0.29617370917E-02  0.49371529530E-01 -0.21827037647E-01  0.54064780663E-01  0.51100000000E-03 0. -1.
</event>
<event>
 8    1  0.1145101E+005  0.1043930E+01  0.7957747E-01            NaN
         13   -1    0    0    0    0  0.00000000000E+00  0.00000000000E+00  0.74505805969E-08  0.10566000000E+00  0.10566000000E+00 0.  1.
     999900   -1    0    0    0    0 -0.00000000000E+00 -0.00000000000E+00 -0.74505805969E-08  0.93827000000E+00  0.93827000000E+00 0.  1.
     999902    2    1    2    0    0 -0.20787403266E-01  0.12297531890E-01 -0.34695878617E-02  0.10195295192E+01  0.10192374880E+01 0.  0.
     999903    2    3    3    0    0  0.13353408002E-01 -0.11948128263E+00 -0.40403439237E-01  0.12829702406E+00  0.19328685321E-01 0.  0.
         14    1    1    2    0    0  0.20787403266E-01 -0.12297531890E-01  0.34695878617E-02  0.24400480836E-01  0.00000000000E+00 0.  1.
     999901    1    3    3    0    0 -0.34140811268E-01  0.13177881452E+00  0.36933851375E-01  0.89123249510E+00  0.88000000000E+00 0. -1.
        -11    1    4    4    0    0  0.12122257733E-01 -0.31189068650E-01 -0.10897503932E-01  0.35195508928E-01  0.51100000000E-03 0. -1.
         11    1    4    4    0    0  0.12311502686E-02 -0.88292213981E-01 -0.29505935305E-01  0.93101515132E-01  0.51100000000E-03 0.  1.
</event>
<event>
 8    1  0.1145101E+005  0.1043930E+01  0.7957747E-01            NaN
         13   -1    0    0    0    0  0.00000000000E+00  0.00000000000E+00  0.74505805969E-08  0.10566000000E+00  0.10566000000E+00 0.  1.
     999900   -1    0    0    0    0 -0.00000000000E+00 -0.00000000000E+00 -0.74505805969E-08  0.93827000000E+00  0.93827000000E+00 0. -1.
     999902    2    1    2    0    0  0.14920644880E-01 -0.15885331293E-01  0.39623120769E-02  0.10217789433E+01  0.10215388097E+01 0.  0.
     999903    2    3    3    0    0 -0.38547531932E-02  0.12173103759E+00 -0.40645244682E-01  0.12976963023E+00  0.18836570334E-01 0.  0.
         14    1    1    2    0    0 -0.14920644880E-01  0.15885331293E-01 -0.39623120769E-02  0.22151056654E-01  0.00000000000E+00 0. -1.
     999901    1    3    3    0    0  0.18775398073E-01 -0.13761636888E+00  0.44607556759E-01  0.89200931311E+00  0.88000000000E+00 0.  1.
        -11    1    4    4    0    0 -0.41420902886E-02  0.10906242937E+00 -0.29942890263E-01  0.11317512187E+00  0.51100000000E-03 0.  1.
         11    1    4    4    0    0  0.28733709544E-03  0.12668608216E-01 -0.10702354419E-01  0.16594508364E-01  0.51100000000E-03 0. -1.
</event>
<event>
 8    1  0.1145101E+005  0.1043930E+01  0.7957747E-01            NaN
         13   -1    0    0    0    0  0.00000000000E+00  0.00000000000E+00  0.74505805969E-08  0.10566000000E+00  0.10566000000E+00 0. -1.
     999900   -1    0    0    0    0 -0.00000000000E+00 -0.00000000000E+00 -0.74505805969E-08  0.93827000000E+00  0.93827000000E+00 0.  1.
     999902    2    1    2    0    0  0.16178230882E-01 -0.13625995955E-01  0.98671539096E-02  0.10205898276E+01  0.10203229060E+01 0.  0.
     999903    2    3    3    0    0 -0.39110614701E-01 -0.88225357264E-01  0.87918583069E-01  0.13226896963E+00  0.21261449423E-01 0.  0.
         14    1    1    2    0    0 -0.16178230882E-01  0.13625995955E-01 -0.98671539096E-02  0.23340172375E-01  0.00000000000E+00 0. -1.
     999901    1    3    3    0    0  0.55288845583E-01  0.74599361309E-01 -0.78051429160E-01  0.88832085799E+00  0.88000000000E+00 0.  1.
        -11    1    4    4    0    0 -0.54894572663E-02 -0.87210827393E-02  0.19723872255E-01  0.22259462773E-01  0.51100000000E-03 0. -1.
         11    1    4    4    0    0 -0.33621157435E-01 -0.79504274524E-01  0.68194710814E-01  0.11000950686E+00  0.51100000000E-03 0.  1.
</event>
<event>
 8    1  0.1145101E+005  0.1043930E+01  0.7957747E-01            NaN
         13   -1    0    0    0    0  0.00000000000E+00  0.00000000000E+00  0.74505805969E-08  0.10566000000E+00  0.10566000000E+00 0.  1.
     999900   -1    0    0    0    0 -0.00000000000E+00 -0.00000000000E+00 -0.74505805969E-08  0.93827000000E+00  0.93827000000E+00 0.  1.
     999902    2    1    2    0    0  0.46842112118E-02  0.17881562642E-01 -0.57582771504E-02  0.10245689599E+01  0.10243860131E+01 0.  0.
     999903    2    3    3    0    0 -0.10271225819E+00  0.70000685736E-01  0.48634811253E-01  0.13484483824E+00  0.19180238488E-01 0.  0.
         14    1    1    2    0    0 -0.46842112118E-02 -0.17881562642E-01  0.57582771504E-02  0.19361040079E-01  0.00000000000E+00 0.  1.
     999901    1    3    3    0    0  0.10739646940E+00 -0.52119123093E-01 -0.54393088404E-01  0.88972412168E+00  0.88000000000E+00 0.  1.
        -11    1    4    4    0    0 -0.39313843645E-01  0.38273504540E-01  0.20757854940E-01  0.58665058721E-01  0.51100000000E-03 0.  1.
         11    1    4    4    0    0 -0.63398414546E-01  0.31727181195E-01  0.27876956313E-01  0.76179779521E-01  0.51100000000E-03 0. -1.
</event>
<event>
 8    1  0.1145101E+005  0.1043930E+01  0.7957747E-01            NaN
         13   -1    0    0    0    0  0.00000000000E+00  0.00000000000E+00  0.74505805969E-08  0.10566000000E+00  0.10566000000E+00 0. -1.
     999900   -1    0    0    0    0 -0.00000000000E+00 -0.00000000000E+00 -0.74505805969E-08  0.93827000000E+00  0.93827000000E+00 0.  1.
     999902    2    1    2    0    0 -0.20604215321E-01 -0.10625850395E-01  0.52195452535E-02  0.10201668765E+01  0.10198900774E+01 0.  0.
     999903    2    3    3    0    0 -0.55084444107E-01 -0.87673046237E-01 -0.79265430183E-01  0.13209994905E+00  0.21131235125E-01 0.  0.
         14    1    1    2    0    0  0.20604215321E-01  0.10625850395E-01 -0.52195452535E-02  0.23763123495E-01  0.00000000000E+00 0.  1.
     999901    1    3    3    0    0  0.34480228786E-01  0.77047195842E-01  0.84484975436E-01  0.88806692745E+00  0.88000000000E+00 0. -1.
        -11    1    4    4    0    0 -0.23463244248E-01 -0.41782054303E-01 -0.49579944674E-01  0.68954303182E-01  0.51100000000E-03 0. -1.
         11    1    4    4    0    0 -0.31621199859E-01 -0.45890991934E-01 -0.29685485508E-01  0.63145645868E-01  0.51100000000E-03 0.  1.
</event>
<event>
 8    1  0.1145101E+005  0.1043930E+01  0.7957747E-01            NaN
         13   -1    0    0    0    0  0.00000000000E+00  0.00000000000E+00  0.74505805969E-08  0.10566000000E+00  0.10566000000E+00 0.  1.
     999900   -1    0    0    0    0 -0.00000000000E+00 -0.00000000000E+00 -0.74505805969E-08  0.93827000000E+00  0.93827000000E+00 0. -1.
     999902    2    1    2    0    0 -0.64190264776E-02 -0.17120766882E-01  0.15252117458E-01  0.10201192535E+01  0.10198413307E+01 0.  0.
     999903    2    3    3    0    0 -0.70313524010E-01 -0.29425509221E-01  0.10706183980E+00  0.13295357646E+00  0.20113768924E-01 0.  0.
         14    1    1    2    0    0  0.64190264776E-02  0.17120766882E-01 -0.15252117458E-01  0.23810746450E-01  0.00000000000E+00 0.  1.
     999901    1    3    3    0    0  0.63894497532E-01  0.12304742339E-01 -0.91809722337E-01  0.88716567709E+00  0.88000000000E+00 0.  1.
        -11    1    4    4    0    0 -0.23239653707E-01  0.96127175270E-04  0.30267753878E-01  0.38163972418E-01  0.51100000000E-03 0.  1.
         11    1    4    4    0    0 -0.47073870303E-01 -0.29521636397E-01  0.76794085917E-01  0.94789604038E-01  0.51100000000E-03 0. -1.
</event>
<event>
 8    1  0.1145101E+005  0.1043930E+01  0.7957747E-01            NaN
         13   -1    0    0    0    0  0.00000000000E+00  0.00000000000E+00  0.74505805969E-08  0.10566000000E+00  0.10566000000E+00 0. -1.
     999900   -1    0    0    0    0 -0.00000000000E+00 -0.00000000000E+00 -0.74505805969E-08  0.93827000000E+00  0.93827000000E+00 0.  1.
     999902    2    1    2    0    0  0.91657955626E-03  0.18532194687E-01 -0.13607699875E-01  0.10209201792E+01  0.10206608450E+01 0.  0.
     999903    2    3    3    0    0  0.12135124259E+00 -0.38673699206E-01  0.18950214954E-01  0.13028162165E+00  0.19809371624E-01 0.  0.
         14    1    1    2    0    0 -0.91657955626E-03 -0.18532194687E-01  0.13607699875E-01  0.23009820813E-01  0.00000000000E+00 0. -1.
     999901    1    3    3    0    0 -0.12043466303E+00  0.57205893893E-01 -0.32557914829E-01  0.89063855754E+00  0.88000000000E+00 0. -1.
        -11    1    4    4    0    0  0.57827392419E-01 -0.24984599196E-01  0.17080964134E-01  0.65270651657E-01  0.51100000000E-03 0. -1.
         11    1    4    4    0    0  0.63523850170E-01 -0.13689100010E-01  0.18692508207E-02  0.65010969991E-01  0.51100000000E-03 0.  1.
</event>
<event>
 8    1  0.1145101E+005  0.1043930E+01  0.7957747E-01            NaN
         13   -1    0    0    0    0  0.00000000000E+00  0.00000000000E+00  0.74505805969E-08  0.10566000000E+00  0.10566000000E+00 0.  1.
     999900   -1    0    0    0    0 -0.00000000000E+00 -0.00000000000E+00 -0.74505805969E-08  0.93827000000E+00  0.93827000000E+00 0.  1.
     999902    2    1    2    0    0 -0.89087499244E-02 -0.21156549437E-01 -0.34544057147E-02  0.10207158162E+01  0.10204518015E+01 0.  0.
     999903    2    3    3    0    0 -0.11298586151E+00 -0.16053266696E-01  0.63390133358E-01  0.13205036677E+00  0.19886630825E-01 0.  0.
         14    1    1    2    0    0  0.89087499244E-02  0.21156549437E-01  0.34544057147E-02  0.23214183771E-01  0.00000000000E+00 0.  1.
     999901    1    3    3    0    0  0.10407711158E+00 -0.51032827413E-02 -0.66844539073E-01  0.88866544945E+00  0.88000000000E+00 0. -1.
        -11    1    4    4    0    0 -0.50234978135E-01 -0.55552727385E-02  0.39271987071E-01  0.64007532157E-01  0.51100000000E-03 0.  1.
         11    1    4    4    0    0 -0.62750883375E-01 -0.10497993957E-01  0.24118146288E-01  0.68042834617E-01  0.51100000000E-03 0. -1.
</event>
<event>
 8    1  0.1145101E+005  0.1043930E+01  0.7957747E-01            NaN
         13   -1    0    0    0    0  0.00000000000E+00  0.00000000000E+00  0.74505805969E-08  0.10566000000E+00  0.10566000000E+00 0. -1.
     999900   -1    0    0    0    0 -0.00000000000E+00 -0.00000000000E+00 -0.74505805969E-08  0.93827000000E+00  0.93827000000E+00 0.  1.
     999902    2    1    2    0    0 -0.21586889247E-01 -0.46046778938E-02  0.95427328739E-02  0.10198829504E+01  0.10195994173E+01 0.  0.
     999903    2    3    3    0    0  0.23426739573E-01  0.10119008329E+00 -0.73226779016E-01  0.12855273637E+00  0.19375236251E-01 0.  0.
         14    1    1    2    0    0  0.21586889247E-01  0.46046778938E-02 -0.95427328739E-02  0.24047049644E-01  0.00000000000E+00 0.  1.
     999901    1    3    3    0    0 -0.45013628820E-01 -0.10579476118E+00  0.82769511890E-01  0.89133021399E+00  0.88000000000E+00 0. -1.
        -11    1    4    4    0    0  0.11078476740E-01  0.79179050769E-01 -0.50346926675E-01  0.94483484663E-01  0.51100000000E-03 0. -1.
         11    1    4    4    0    0  0.12348262833E-01  0.22011032518E-01 -0.22879852340E-01  0.34069251703E-01  0.51100000000E-03 0.  1.
</event>
<event>
 8    1  0.1145101E+005  0.1043930E+01  0.7957747E-01            NaN
         13   -1    0    0    0    0  0.00000000000E+00  0.00000000000E+00  0.74505805969E-08  0.10566000000E+00  0.10566000000E+00 0. -1.
     999900   -1    0    0    0    0 -0.00000000000E+00 -0.00000000000E+00 -0.74505805969E-08  0.93827000000E+00  0.93827000000E+00 0. -1.
     999902    2    1    2    0    0  0.73025312059E-03  0.72602547696E-02  0.25873969567E-01  0.10170467920E+01  0.10166914332E+01 0.  0.
     999903    2    3    3    0    0  0.10325466851E+00 -0.51658161895E-01 -0.46909996645E-01  0.12615951449E+00  0.19636268783E-01 0.  0.
         14    1    1    2    0    0 -0.73025312059E-03 -0.72602547696E-02 -0.25873969567E-01  0.26883207958E-01  0.00000000000E+00 0.  1.
     999901    1    3    3    0    0 -0.10252441539E+00  0.58918416664E-01  0.72783966212E-01  0.89088727756E+00  0.88000000000E+00 0.  1.
        -11    1    4    4    0    0  0.55712071022E-01 -0.17159500905E-01 -0.21122235334E-01  0.62005590678E-01  0.51100000000E-03 0.  1.
         11    1    4    4    0    0  0.47542597484E-01 -0.34498660990E-01 -0.25787761312E-01  0.64153923809E-01  0.51100000000E-03 0. -1.
</event>
<event>
 8    1  0.1145101E+005  0.1043930E+01  0.7957747E-01            NaN
         13   -1    0    0    0    0  0.00000000000E+00  0.00000000000E+00  0.74505805969E-08  0.10566000000E+00  0.10566000000E+00 0. -1.
     999900   -1    0    0    0    0 -0.00000000000E+00 -0.00000000000E+00 -0.74505805969E-08  0.93827000000E+00  0.93827000000E+00 0. -1.
     999902    2    1    2    0    0 -0.63676121853E-02 -0.19424113607E-01 -0.12080075047E-01  0.10201861400E+01  0.10199097947E+01 0.  0.
     999903    2    3    3    0    0 -0.11292449907E+00  0.24075464025E-01 -0.62142848480E-01  0.13128070933E+00  0.64281076114E-02 0.  0.
         14    1    1    2    0    0  0.63676121853E-02  0.19424113607E-01  0.12080075047E-01  0.23743859995E-01  0.00000000000E+00 0. -1.
     999901    1    3    3    0    0  0.10655688688E+00 -0.43499577631E-01  0.50062773433E-01  0.88890543067E+00  0.88000000000E+00 0.  1.
        -11    1    4    4    0    0 -0.18367766418E-01  0.18438793690E-02 -0.11168568419E-01  0.21581769525E-01  0.51100000000E-03 0.  1.
         11    1    4    4    0    0 -0.94556732651E-01  0.22231584656E-01 -0.50974280061E-01  0.10969893981E+00  0.51100000000E-03 0. -1.
</event>
<event>
 8    1  0.1145101E+005  0.1043930E+01  0.7957747E-01            NaN
         13   -1    0    0    0    0  0.00000000000E+00  0.00000000000E+00  0.74505805969E-08  0.10566000000E+00  0.10566000000E+00 0.  1.
     999900   -1    0    0    0    0 -0.00000000000E+00 -0.00000000000E+00 -0.74505805969E-08  0.93827000000E+00  0.93827000000E+00 0. -1.
     999902    2    1    2    0    0  0.13171273436E-01  0.14957902829E-01 -0.11103043518E-01  0.10211155555E+01  0.10208606560E+01 0.  0.
     999903    2    3    3    0    0 -0.78520695690E-01 -0.84865340412E-01 -0.55538826736E-01  0.12962992137E+00  0.18754455032E-01 0.  0.
         14    1    1    2    0    0 -0.13171273436E-01 -0.14957902829E-01  0.11103043518E-01  0.22814444467E-01  0.00000000000E+00 0.  1.
     999901    1    3    3    0    0  0.91691969126E-01  0.99823243241E-01  0.44435783217E-01  0.89148563417E+00  0.88000000000E+00 0.  1.
        -11    1    4    4    0    0 -0.75364652711E-01 -0.73737575376E-01 -0.48298055179E-01  0.11597423919E+00  0.51100000000E-03 0.  1.
         11    1    4    4    0    0 -0.31560429788E-02 -0.11127765037E-01 -0.72407715569E-02  0.13655682177E-01  0.51100000000E-03 0. -1.
</event>
<event>
 8    1  0.1145101E+005  0.1043930E+01  0.7957747E-01            NaN
         13   -1    0    0    0    0  0.00000000000E+00  0.00000000000E+00  0.74505805969E-08  0.10566000000E+00  0.10566000000E+00 0.  1.
     999900   -1    0    0    0    0 -0.00000000000E+00 -0.00000000000E+00 -0.74505805969E-08  0.93827000000E+00  0.93827000000E+00 0.  1.
     999902    2    1    2    0    0  0.23821376313E-01  0.12208561612E-01 -0.15035893782E-01  0.10132284520E+01  0.10127632058E+01 0.  0.
     999903    2    3    3    0    0 -0.11103264987E-01 -0.57224793972E-01 -0.10872692240E+00  0.12484861756E+00  0.19174830231E-01 0.  0.
         14    1    1    2    0    0 -0.23821376313E-01 -0.12208561612E-01  0.15035893782E-01  0.30701547972E-01  0.00000000000E+00 0.  1.
     999901    1    3    3    0    0  0.34924641299E-01  0.69433355584E-01  0.93691028619E-01  0.88837983446E+00  0.88000000000E+00 0.  1.
        -11    1    4    4    0    0  0.33788481738E-02 -0.30018322253E-01 -0.47383168487E-01  0.56195569779E-01  0.51100000000E-03 0.  1.
         11    1    4    4    0    0 -0.14482113160E-01 -0.27206471719E-01 -0.61343753914E-01  0.68653047786E-01  0.51100000000E-03 0. -1.
</event>
<event>
 8    1  0.1145101E+005  0.1043930E+01  0.7957747E-01            NaN
         13   -1    0    0    0    0  0.00000000000E+00  0.00000000000E+00  0.74505805969E-08  0.10566000000E+00  0.10566000000E+00 0. -1.
     999900   -1    0    0    0    0 -0.00000000000E+00 -0.00000000000E+00 -0.74505805969E-08  0.93827000000E+00  0.93827000000E+00 0.  1.
     999902    2    1    2    0    0  0.10985403345E-01 -0.19974103781E-01 -0.66936193360E-02  0.10201718762E+01  0.10198951948E+01 0.  0.
     999903    2    3    3    0    0 -0.12063249896E+00 -0.26339304954E-01  0.33510184948E-01  0.12945299016E+00  0.19727781819E-01 0.  0.
         14    1    1    2    0    0 -0.10985403345E-01  0.19974103781E-01  0.66936193360E-02  0.23758123839E-01  0.00000000000E+00 0. -1.
     999901    1    3    3    0    0  0.13161790231E+00  0.63652011723E-02 -0.40203804284E-01  0.89071888600E+00  0.88000000000E+00 0. -1.
        -11    1    4    4    0    0 -0.93331674220E-03  0.16779486934E-02 -0.15042328170E-03  0.19925712341E-02  0.51100000000E-03 0.  1.
         11    1    4    4    0    0 -0.11969918222E+00 -0.28017253647E-01  0.33660608230E-01  0.12746041893E+00  0.51100000000E-03 0. -1.
</event>
<event>
 8    1  0.1145101E+005  0.1043930E+01  0.7957747E-01            NaN
         13   -1    0    0    0    0  0.00000000000E+00  0.00000000000E+00  0.74505805969E-08  0.10566000000E+00  0.10566000000E+00 0.  1.
     999900   -1    0    0    0    0 -0.00000000000E+00 -0.00000000000E+00 -0.74505805969E-08  0.93827000000E+00  0.93827000000E+00 0. -1.
     999902    2    1    2    0    0  0.80745117756E-02  0.19446075429E-01  0.53307040382E-02  0.10222098712E+01  0.10219790882E+01 0.  0.
     999903    2    3    3    0    0 -0.40073387108E-01 -0.93417542155E-01 -0.78246968579E-01  0.12977407871E+00  0.19647134045E-01 0.  0.
         14    1    1    2    0    0 -0.80745117756E-02 -0.19446075429E-01 -0.53307040382E-02  0.21720128811E-01  0.00000000000E+00 0.  1.
     999901    1    3    3    0    0  0.48147898884E-01  0.11286361758E+00  0.83577672617E-01  0.89243579248E+00  0.88000000000E+00 0.  1.
        -11    1    4    4    0    0 -0.18599680748E-01 -0.33626328612E-01 -0.18867479210E-01  0.42812626556E-01  0.51100000000E-03 0. -1.
         11    1    4    4    0    0 -0.21473706360E-01 -0.59791213544E-01 -0.59379489369E-01  0.86961452153E-01  0.51100000000E-03 0.  1.
</event>
<event>
 8    1  0.1145101E+005  0.1043930E+01  0.7957747E-01            NaN
         13   -1    0    0    0    0  0.00000000000E+00  0.00000000000E+00  0.74505805969E-08  0.10566000000E+00  0.10566000000E+00 0. -1.
     999900   -1    0    0    0    0 -0.00000000000E+00 -0.00000000000E+00 -0.74505805969E-08  0.93827000000E+00  0.93827000000E+00 0. -1.
     999902    2    1    2    0    0  0.10288023714E-01 -0.51286041850E-02  0.15871088248E-01  0.10243331264E+01  0.10241456519E+01 0.  0.
     999903    2    3    3    0    0 -0.59639050055E-01 -0.13798434459E-01  0.11918390334E+00  0.13549202734E+00  0.20151267294E-01 0.  0.
         14    1    1    2    0    0 -0.10288023714E-01  0.51286041850E-02 -0.15871088248E-01  0.19596873603E-01  0.00000000000E+00 0.  1.
     999901    1    3    3    0    0  0.69927073769E-01  0.86698302744E-02 -0.10331281509E+00  0.88884109905E+00  0.88000000000E+00 0. -1.
        -11    1    4    4    0    0 -0.36738417896E-01 -0.35491719329E-03  0.56302045495E-01  0.67231084802E-01  0.51100000000E-03 0.  1.
         11    1    4    4    0    0 -0.22900632159E-01 -0.13443517266E-01  0.62881857844E-01  0.68260942542E-01  0.51100000000E-03 0. -1.
</event>
<event>
 8    1  0.1145101E+005  0.1043930E+01  0.7957747E-01            NaN
         13   -1    0    0    0    0  0.00000000000E+00  0.00000000000E+00  0.74505805969E-08  0.10566000000E+00  0.10566000000E+00 0. -1.
     999900   -1    0    0    0    0 -0.00000000000E+00 -0.00000000000E+00 -0.74505805969E-08  0.93827000000E+00  0.93827000000E+00 0. -1.
     999902    2    1    2    0    0 -0.11358949366E-01 -0.16068182110E-01  0.11382475023E-01  0.10211973595E+01  0.10209443051E+01 0.  0.
     999903    2    3    3    0    0 -0.32436602615E-01  0.11698125363E+00 -0.40482669939E-01  0.12943707046E+00  0.19451523170E-01 0.  0.
         14    1    1    2    0    0  0.11358949366E-01  0.16068182110E-01 -0.11382475023E-01  0.22732640513E-01  0.00000000000E+00 0.  1.
     999901    1    3    3    0    0  0.21077653249E-01 -0.13304943574E+00  0.51865144962E-01  0.89176028902E+00  0.88000000000E+00 0.  1.
        -11    1    4    4    0    0 -0.92257690582E-02  0.10739057569E-01 -0.38023523760E-02  0.14668373351E-01  0.51100000000E-03 0.  1.
         11    1    4    4    0    0 -0.23210833557E-01  0.10624219607E+00 -0.36680317563E-01  0.11476869711E+00  0.51100000000E-03 0. -1.
</event>
<event>
 8    1  0.1145101E+005  0.1043930E+01  0.7957747E-01            NaN
         13   -1    0    0    0    0  0.00000000000E+00  0.00000000000E+00  0.74505805969E-08  0.10566000000E+00  0.10566000000E+00 0. -1.
     999900   -1    0    0    0    0 -0.00000000000E+00 -0.00000000000E+00 -0.74505805969E-08  0.93827000000E+00  0.93827000000E+00 0.  1.
     999902    2    1    2    0    0  0.13911540501E-01  0.16305329409E-01  0.95644964007E-02  0.10204592881E+01  0.10201893375E+01 0.  0.
     999903    2    3    3    0    0  0.75750881445E-01  0.25334604396E-01  0.10459210479E+00  0.13313979757E+00  0.20165790164E-01 0.  0.
         14    1    1    2    0    0 -0.13911540501E-01 -0.16305329409E-01 -0.95644964007E-02  0.23470711912E-01  0.00000000000E+00 0.  1.
     999901    1    3    3    0    0 -0.61839340944E-01 -0.90292749861E-02 -0.95027608391E-01  0.88731949052E+00  0.88000000000E+00 0.  1.
        -11    1    4    4    0    0  0.19480137570E-01  0.55402478671E-02  0.42245628578E-01  0.46852154285E-01  0.51100000000E-03 0. -1.
         11    1    4    4    0    0  0.56270743875E-01  0.19794356528E-01  0.62346476213E-01  0.86287643286E-01  0.51100000000E-03 0.  1.
</event>
<event>
 8    1  0.1145101E+005  0.1043930E+01  0.7957747E-01            NaN
         13   -1    0    0    0    0  0.00000000000E+00  0.00000000000E+00  0.74505805969E-08  0.10566000000E+00  0.10566000000E+00 0.  1.
     999900   -1    0    0    0    0 -0.00000000000E+00 -0.00000000000E+00 -0.74505805969E-08  0.93827000000E+00  0.93827000000E+00 0.  1.
     999902    2    1    2    0    0  0.17852531019E-01  0.14876338088E-01  0.62733851524E-02  0.10198598180E+01  0.10195757327E+01 0.  0.
     999903    2    3    3    0    0 -0.30900348471E-01  0.12597276827E+00 -0.10390189123E-01  0.13137969177E+00  0.18130016480E-01 0.  0.
         14    1    1    2    0    0 -0.17852531019E-01 -0.14876338088E-01 -0.62733851524E-02  0.24070181967E-01  0.00000000000E+00 0. -1.
     999901    1    3    3    0    0  0.48752879489E-01 -0.11109643018E+00  0.16663574276E-01  0.88848012626E+00  0.88000000000E+00 0. -1.
        -11    1    4    4    0    0 -0.22569630271E-01  0.61037121715E-01 -0.10436789868E-01  0.65909833420E-01  0.51100000000E-03 0. -1.
         11    1    4    4    0    0 -0.83307182001E-02  0.64935646557E-01  0.46600744731E-04  0.65469858348E-01  0.51100000000E-03 0.  1.
</event>
<event>
 8    1  0.1145101E+005  0.1043930E+01  0.7957747E-01            NaN
         13   -1    0    0    0    0  0.00000000000E+00  0.00000000000E+00  0.74505805969E-08  0.10566000000E+00  0.10566000000E+00 0.  1.
     999900   -1    0    0    0    0 -0.00000000000E+00 -0.00000000000E+00 -0.74505805969E-08  0.93827000000E+00  0.93827000000E+00 0. -1.
     999902    2    1    2    0    0  0.21126380481E-02  0.18699582070E-01 -0.13749716689E-01  0.10206235134E+01  0.10203573706E+01 0.  0.
     999903    2    3    3    0    0 -0.11406371344E-01 -0.29855048729E-01 -0.12646158594E+00  0.13200420162E+00  0.20276767069E-01 0.  0.
         14    1    1    2    0    0 -0.21126380481E-02 -0.18699582070E-01  0.13749716689E-01  0.23306486611E-01  0.00000000000E+00 0.  1.
     999901    1    3    3    0    0  0.13519009392E-01  0.48554630799E-01  0.11271186925E+00  0.88861931177E+00  0.88000000000E+00 0.  1.
        -11    1    4    4    0    0  0.39934783633E-02 -0.13765421261E-01 -0.34088271675E-01  0.36982510443E-01  0.51100000000E-03 0. -1.
         11    1    4    4    0    0 -0.15399849707E-01 -0.16089627468E-01 -0.92373314269E-01  0.95021691172E-01  0.51100000000E-03 0.  1.
</event>
<event>
 8    1  0.1145101E+005  0.1043930E+01  0.7957747E-01            NaN
         13   -1    0    0    0    0  0.00000000000E+00  0.00000000000E+00  0.74505805969E-08  0.10566000000E+00  0.10566000000E+00 0. -1.
     999900   -1    0    0    0    0 -0.00000000000E+00 -0.00000000000E+00 -0.74505805969E-08  0.93827000000E+00  0.93827000000E+00 0. -1.
     999902    2    1    2    0    0  0.16165179587E-02  0.87506825527E-02 -0.21998202523E-01  0.10202000929E+01  0.10199240762E+01 0.  0.
     999903    2    3    3    0    0  0.65008093119E-02  0.97481281793E-01 -0.88348363243E-01  0.13323937262E+00  0.20060815189E-01 0.  0.
         14    1    1    2    0    0 -0.16165179587E-02 -0.87506825527E-02  0.21998202523E-01  0.23729907073E-01  0.00000000000E+00 0. -1.
     999901    1    3    3    0    0 -0.48842913532E-02 -0.88730599241E-01  0.66350160719E-01  0.88696072031E+00  0.88000000000E+00 0. -1.
        -11    1    4    4    0    0  0.10719079994E-01  0.26838649849E-01 -0.23523450653E-01  0.37266951220E-01  0.51100000000E-03 0.  1.
         11    1    4    4    0    0 -0.42182706822E-02  0.70642631944E-01 -0.64824912590E-01  0.95972421397E-01  0.51100000000E-03 0. -1.
</event>
<event>
 8    1  0.1145101E+005  0.1043930E+01  0.7957747E-01            NaN
         13   -1    0    0    0    0  0.00000000000E+00  0.00000000000E+00  0.74505805969E-08  0.10566000000E+00  0.10566000000E+00 0.  1.
     999900   -1    0    0    0    0 -0.00000000000E+00 -0.00000000000E+00 -0.74505805969E-08  0.93827000000E+00  0.93827000000E+00 0.  1.
     999902    2    1    2    0    0  0.11160036429E-02  0.25801367975E-01 -0.14852711602E-01  0.10141380700E+01  0.10137003827E+01 0.  0.
     999903    2    3    3    0    0 -0.11738685529E+00 -0.25322269955E-01  0.22703108247E-01  0.12393191769E+00  0.20562051201E-01 0.  0.
         14    1    1    2    0    0 -0.11160036429E-02 -0.25801367975E-01  0.14852711602E-01  0.29791930039E-01  0.00000000000E+00 0.  1.
     999901    1    3    3    0    0  0.11850285893E+00  0.51123637930E-01 -0.37555819849E-01  0.89020615227E+00  0.88000000000E+00 0. -1.
        -11    1    4    4    0    0 -0.90775758307E-01 -0.24935524197E-01  0.10746519233E-01  0.94751081576E-01  0.51100000000E-03 0. -1.
         11    1    4    4    0    0 -0.26611096979E-01 -0.38674575847E-03  0.11956589014E-01  0.29180836118E-01  0.51100000000E-03 0.  1.
</event>
<event>
 8    1  0.1145101E+005  0.1043930E+01  0.7957747E-01            NaN
         13   -1    0    0    0    0  0.00000000000E+00  0.00000000000E+00  0.74505805969E-08  0.10566000000E+00  0.10566000000E+00 0. -1.
     999900   -1    0    0    0    0 -0.00000000000E+00 -0.00000000000E+00 -0.74505805969E-08  0.93827000000E+00  0.93827000000E+00 0. -1.
     999902    2    1    2    0    0  0.17726931853E-01  0.78764418918E-02  0.14957838184E-01  0.10194347071E+01  0.10191403744E+01 0.  0.
     999903    2    3    3    0    0 -0.15586468694E-01  0.70473065985E-01  0.10824548645E+00  0.13166744859E+00  0.20244521393E-01 0.  0.
         14    1    1    2    0    0 -0.17726931853E-01 -0.78764418918E-02 -0.14957838184E-01  0.24495292873E-01  0.00000000000E+00 0.  1.
     999901    1    3    3    0    0  0.33313400547E-01 -0.62596624093E-01 -0.93287648267E-01  0.88776725853E+00  0.88000000000E+00 0. -1.
        -11    1    4    4    0    0  0.11127264846E-02  0.35640129840E-02  0.16317683722E-01  0.16747186983E-01  0.51100000000E-03 0. -1.
         11    1    4    4    0    0 -0.16699195178E-01  0.66909053001E-01  0.91927802729E-01  0.11492026161E+00  0.51100000000E-03 0.  1.
</event>
<event>
 8    1  0.1145101E+005  0.1043930E+01  0.7957747E-01            NaN
         13   -1    0    0    0    0  0.00000000000E+00  0.00000000000E+00  0.74505805969E-08  0.10566000000E+00  0.10566000000E+00 0. -1.
     999900   -1    0    0    0    0 -0.00000000000E+00 -0.00000000000E+00 -0.74505805969E-08  0.93827000000E+00  0.93827000000E+00 0. -1.
     999902    2    1    2    0    0  0.15344797669E-01  0.98115035561E-02  0.16814913485E-01  0.10191415000E+01  0.10188399910E+01 0.  0.
     999903    2    3    3    0    0  0.52926210044E-02 -0.81118343547E-01 -0.95751650519E-01  0.12726678082E+00  0.20500181139E-01 0.  0.
         14    1    1    2    0    0 -0.15344797669E-01 -0.98115035561E-02 -0.16814913485E-01  0.24788500016E-01  0.00000000000E+00 0. -1.
     999901    1    3    3    0    0  0.10052176665E-01  0.90929847103E-01  0.11256656400E+00  0.89187471916E+00  0.88000000000E+00 0.  1.
        -11    1    4    4    0    0  0.12966256968E-01 -0.45907787029E-01 -0.51632413039E-01  0.70298050662E-01  0.51100000000E-03 0. -1.
         11    1    4    4    0    0 -0.76736359634E-02 -0.35210556518E-01 -0.44119237480E-01  0.56968730160E-01  0.51100000000E-03 0.  1.
</event>
<event>
 8    1  0.1145101E+005  0.1043930E+01  0.7957747E-01            NaN
         13   -1    0    0    0    0  0.00000000000E+00  0.00000000000E+00  0.74505805969E-08  0.10566000000E+00  0.10566000000E+00 0.  1.
     999900   -1    0    0    0    0 -0.00000000000E+00 -0.00000000000E+00 -0.74505805969E-08  0.93827000000E+00  0.93827000000E+00 0. -1.
     999902    2    1    2    0    0 -0.20402287780E-01 -0.14058373538E-01  0.58550592225E-03  0.10191462547E+01  0.10188448628E+01 0.  0.
     999903    2    3    3    0    0  0.65092604166E-01  0.28889660310E-01 -0.10418614427E+00  0.12778156569E+00  0.20042861089E-01 0.  0.
         14    1    1    2    0    0  0.20402287780E-01  0.14058373538E-01 -0.58550592225E-03  0.24783745285E-01  0.00000000000E+00 0.  1.
     999901    1    3    3    0    0 -0.85494891945E-01 -0.42948033848E-01  0.10477165020E+00  0.89136468903E+00  0.88000000000E+00 0.  1.
        -11    1    4    4    0    0  0.21170551405E-01  0.18656514367E-01 -0.48594175020E-01  0.56195308897E-01  0.51100000000E-03 0. -1.
         11    1    4    4    0    0  0.43922052761E-01  0.10233145943E-01 -0.55591969255E-01  0.71586256790E-01  0.51100000000E-03 0.  1.
</event>
<event>
 8    1  0.1145101E+005  0.1043930E+01  0.7957747E-01            NaN
         13   -1    0    0    0    0  0.00000000000E+00  0.00000000000E+00  0.74505805969E-08  0.10566000000E+00  0.10566000000E+00 0. -1.
     999900   -1    0    0    0    0 -0.00000000000E+00 -0.00000000000E+00 -0.74505805969E-08  0.93827000000E+00  0.93827000000E+00 0. -1.
     999902    2    1    2    0    0  0.24589170664E-01  0.52164244831E-02 -0.85474229278E-04  0.10187934588E+01  0.10184833165E+01 0.  0.
     999903    2    3    3    0    0  0.72817019596E-01 -0.10396816737E+00 -0.23389851610E-01  0.13042962875E+00  0.18791081090E-01 0.  0.
         14    1    1    2    0    0 -0.24589170664E-01 -0.52164244831E-02  0.85474229278E-04  0.25136541213E-01  0.00000000000E+00 0.  1.
     999901    1    3    3    0    0 -0.48227848932E-01  0.10918459185E+00  0.23304377381E-01  0.88836383004E+00  0.88000000000E+00 0.  1.
        -11    1    4    4    0    0  0.48569621400E-01 -0.82881772377E-01 -0.19874412954E-01  0.98100202479E-01  0.51100000000E-03 0.  1.
         11    1    4    4    0    0  0.24247398195E-01 -0.21086394994E-01 -0.35154386565E-02  0.32329426271E-01  0.51100000000E-03 0. -1.
</event>
<event>
 8    1  0.1369095E+005  0.1043930E+01  0.7957747E-01            NaN
         13   -1    0    0    0    0  0.00000000000E+00  0.00000000000E+00  0.74505805969E-08  0.10566000000E+00  0.10566000000E+00 0. -1.
     999900   -1    0    0    0    0 -0.00000000000E+00 -0.00000000000E+00 -0.74505805969E-08  0.93827000000E+00  0.93827000000E+00 0. -1.
     999902    2    1    2    0    0 -0.90754975720E-02 -0.53706854026E-02  0.22009330092E-01  0.10195246824E+01  0.10192325340E+01 0.  0.
     999903    2    3    3    0    0  0.10579605918E+00  0.58380038129E-01  0.42253593931E-01  0.12954184010E+00  0.19866734677E-01 0.  0.
         14    1    1    2    0    0  0.90754975720E-02  0.53706854026E-02 -0.22009330092E-01  0.24405317637E-01  0.00000000000E+00 0. -1.
     999901    1    3    3    0    0 -0.11487155675E+00 -0.63750723531E-01 -0.20244263839E-01  0.88998284226E+00  0.88000000000E+00 0.  1.
        -11    1    4    4    0    0  0.44567002421E-01  0.21822903743E-01  0.27435216318E-01  0.56704576958E-01  0.51100000000E-03 0.  1.
         11    1    4    4    0    0  0.61229056759E-01  0.36557134385E-01  0.14818377613E-01  0.72837263143E-01  0.51100000000E-03 0. -1.
</event>
<event>
 8    1  0.1145101E+005  0.1043930E+01  0.7957747E-01            NaN
         13   -1    0    0    0    0  0.00000000000E+00  0.00000000000E+00  0.74505805969E-08  0.10566000000E+00  0.10566000000E+00 0.  1.
     999900   -1    0    0    0    0 -0.00000000000E+00 -0.00000000000E+00 -0.74505805969E-08  0.93827000000E+00  0.93827000000E+00 0. -1.
     999902    2    1    2    0    0  0.15144563273E-01  0.27398380615E-02 -0.16997631577E-01  0.10210000199E+01  0.10207425026E+01 0.  0.
     999903    2    3    3    0    0 -0.10334447531E+00  0.17653213364E-01  0.71338415384E-01  0.12855096350E+00  0.21082319328E-01 0.  0.
         14    1    1    2    0    0 -0.15144563273E-01 -0.27398380615E-02  0.16997631577E-01  0.22929980126E-01  0.00000000000E+00 0.  1.
     999901    1    3    3    0    0  0.11848903858E+00 -0.14913375303E-01 -0.88336046961E-01  0.89244905637E+00  0.88000000000E+00 0. -1.
        -11    1    4    4    0    0 -0.39955473279E-01  0.12722568863E-01  0.38776734862E-01  0.57115671150E-01  0.51100000000E-03 0.  1.
         11    1    4    4    0    0 -0.63389002033E-01  0.49306445008E-02  0.32561680522E-01  0.71435292351E-01  0.51100000000E-03 0. -1.
</event>
<event>
 8    1  0.1145101E+005  0.1043930E+01  0.7957747E-01            NaN
         13   -1    0    0    0    0  0.00000000000E+00  0.00000000000E+00  0.74505805969E-08  0.10566000000E+00  0.10566000000E+00 0. -1.
     999900   -1    0    0    0    0 -0.00000000000E+00 -0.00000000000E+00 -0.74505805969E-08  0.93827000000E+00  0.93827000000E+00 0. -1.
     999902    2    1    2    0    0 -0.23053342898E-01  0.38077975449E-02  0.53500986579E-02  0.10199596121E+01  0.10196779054E+01 0.  0.
     999903    2    3    3    0    0 -0.19160132815E-02 -0.88033993539E-01  0.94242883736E-01  0.13047457650E+00  0.19703777645E-01 0.  0.
         14    1    1    2    0    0  0.23053342898E-01 -0.38077975449E-02 -0.53500986579E-02  0.23970387911E-01  0.00000000000E+00 0. -1.
     999901    1    3    3    0    0 -0.21137329617E-01  0.91841791084E-01 -0.88892785078E-01  0.88948503559E+00  0.88000000000E+00 0. -1.
        -11    1    4    4    0    0  0.24581578465E-02 -0.80991290494E-01  0.79293745126E-01  0.11337279574E+00  0.51100000000E-03 0.  1.
         11    1    4    4    0    0 -0.43741711280E-02 -0.70427030458E-02  0.14949138610E-01  0.17101780768E-01  0.51100000000E-03 0. -1.
</event>
<event>
 8    1  0.1145101E+005  0.1043930E+01  0.7957747E-01            NaN
         13   -1    0    0    0    0  0.00000000000E+00  0.00000000000E+00  0.74505805969E-08  0.10566000000E+00  0.10566000000E+00 0.  1.
     999900   -1    0    0    0    0 -0.00000000000E+00 -0.00000000000E+00 -0.74505805969E-08  0.93827000000E+00  0.93827000000E+00 0.  1.
     999902    2    1    2    0    0 -0.35295631224E-02  0.13652717707E-01 -0.19071273145E-01  0.10202114845E+01  0.10199357358E+01 0.  0.
     999903    2    3    3    0    0  0.26282813273E-01  0.12731454290E+00  0.10126794478E-01  0.13192081395E+00  0.20019242703E-01 0.  0.
         14    1    1    2    0    0  0.35295631224E-02 -0.13652717707E-01  0.19071273145E-01  0.23718515468E-01  0.00000000000E+00 0.  1.
     999901    1    3    3    0    0 -0.29812376395E-01 -0.11366182520E+00 -0.29198067624E-01  0.88829067058E+00  0.88000000000E+00 0. -1.
        -11    1    4    4    0    0  0.94757281721E-02  0.58457000332E-01 -0.50370340576E-02  0.59436042477E-01  0.51100000000E-03 0.  1.
         11    1    4    4    0    0  0.16807085101E-01  0.68857542570E-01  0.15163828536E-01  0.72484771471E-01  0.51100000000E-03 0. -1.
</event>
<event>
 8    1  0.1145101E+005  0.1043930E+01  0.7957747E-01            NaN
         13   -1    0    0    0    0  0.00000000000E+00  0.00000000000E+00  0.74505805969E-08  0.10566000000E+00  0.10566000000E+00 0.  1.
     999900   -1    0    0    0    0 -0.00000000000E+00 -0.00000000000E+00 -0.74505805969E-08  0.93827000000E+00  0.93827000000E+00 0. -1.
     999902    2    1    2    0    0  0.15678720678E-01  0.11247245940E-02  0.18496318556E-01  0.10196565353E+01  0.10193675730E+01 0.  0.
     999903    2    3    3    0    0 -0.80166102209E-01  0.28058608648E-01  0.97213025534E-01  0.13055137610E+00  0.19478193106E-01 0.  0.
         14    1    1    2    0    0 -0.15678720678E-01 -0.11247245940E-02 -0.18496318556E-01  0.24273464681E-01  0.00000000000E+00 0.  1.
     999901    1    3    3    0    0  0.95844822887E-01 -0.26933884054E-01 -0.78716706978E-01  0.88910515921E+00  0.88000000000E+00 0. -1.
        -11    1    4    4    0    0 -0.53570388978E-01  0.28116121165E-01  0.65775963541E-01  0.89370248659E-01  0.51100000000E-03 0.  1.
         11    1    4    4    0    0 -0.26595713230E-01 -0.57512516513E-04  0.31437061993E-01  0.41181127446E-01  0.51100000000E-03 0. -1.
</event>
<event>
 8    1  0.1145101E+005  0.1043930E+01  0.7957747E-01            NaN
         13   -1    0    0    0    0  0.00000000000E+00  0.00000000000E+00  0.74505805969E-08  0.10566000000E+00  0.10566000000E+00 0.  1.
     999900   -1    0    0    0    0 -0.00000000000E+00 -0.00000000000E+00 -0.74505805969E-08  0.93827000000E+00  0.93827000000E+00 0.  1.
     999902    2    1    2    0    0  0.16402255375E-01 -0.94186177389E-02  0.14039409479E-01  0.10203747594E+01  0.10201028381E+01 0.  0.
     999903    2    3    3    0    0  0.95359219649E-01 -0.78126036628E-01 -0.43553493557E-01  0.13230277239E+00  0.20249899020E-01 0.  0.
         14    1    1    2    0    0 -0.16402255375E-01  0.94186177389E-02 -0.14039409479E-01  0.23555240606E-01  0.00000000000E+00 0. -1.
     999901    1    3    3    0    0 -0.78956964273E-01  0.68707418889E-01  0.57592903036E-01  0.88807198700E+00  0.88000000000E+00 0. -1.
        -11    1    4    4    0    0  0.89014102117E-01 -0.66430661957E-01 -0.34911228900E-01  0.11642851132E+00  0.51100000000E-03 0.  1.
         11    1    4    4    0    0  0.63451175315E-02 -0.11695374670E-01 -0.86422646577E-02  0.15874261072E-01  0.51100000000E-03 0. -1.
</event>
<event>
 8    1  0.1145101E+005  0.1043930E+01  0.7957747E-01            NaN
         13   -1    0    0    0    0  0.00000000000E+00  0.00000000000E+00  0.74505805969E-08  0.10566000000E+00  0.10566000000E+00 0.  1.
     999900   -1    0    0    0    0 -0.00000000000E+00 -0.00000000000E+00 -0.74505805969E-08  0.93827000000E+00  0.93827000000E+00 0.  1.
     999902    2    1    2    0    0 -0.77702602521E-02  0.95771778480E-02  0.20275705466E-01  0.10201980908E+01  0.10199220269E+01 0.  0.
     999903    2    3    3    0    0  0.23048356842E-01 -0.10211918543E+00  0.75855551438E-01  0.13086407935E+00  0.20292555113E-01 0.  0.
         14    1    1    2    0    0  0.77702602521E-02 -0.95771778480E-02 -0.20275705466E-01  0.23731909153E-01  0.00000000000E+00 0. -1.
     999901    1    3    3    0    0 -0.30818617094E-01  0.11169636328E+00 -0.55579845973E-01  0.88933401150E+00  0.88000000000E+00 0.  1.
        -11    1    4    4    0    0  0.25111263127E-01 -0.70019901929E-01  0.50626139668E-01  0.89981272166E-01  0.51100000000E-03 0.  1.
         11    1    4    4    0    0 -0.20629062842E-02 -0.32099283504E-01  0.25229411770E-01  0.40882807182E-01  0.51100000000E-03 0. -1.
</event>
<event>
 8    1  0.1145101E+005  0.1043930E+01  0.7957747E-01            NaN
         13   -1    0    0    0    0  0.00000000000E+00  0.00000000000E+00  0.74505805969E-08  0.10566000000E+00  0.10566000000E+00 0.  1.
     999900   -1    0    0    0    0 -0.00000000000E+00 -0.00000000000E+00 -0.74505805969E-08  0.93827000000E+00  0.93827000000E+00 0.  1.
     999902    2    1    2    0    0 -0.12778428270E-01  0.17891337121E-01 -0.74030491391E-02  0.10207310063E+01  0.10204673409E+01 0.  0.
     999903    2    3    3    0    0  0.47230820710E-01 -0.11748064185E+00  0.44481558808E-02  0.12828093277E+00  0.20093779826E-01 0.  0.
         14    1    1    2    0    0  0.12778428270E-01 -0.17891337121E-01  0.74030491391E-02  0.23198993719E-01  0.00000000000E+00 0.  1.
     999901    1    3    3    0    0 -0.60009248981E-01  0.13537197897E+00 -0.11851205020E-01  0.89245007351E+00  0.88000000000E+00 0. -1.
        -11    1    4    4    0    0  0.13859920004E-01 -0.41940333168E-01 -0.75968671745E-02  0.44822566199E-01  0.51100000000E-03 0.  1.
         11    1    4    4    0    0  0.33370900706E-01 -0.75540308677E-01  0.12045023055E-01  0.83458366569E-01  0.51100000000E-03 0. -1.
</event>
<event>
 8    1  0.1145101E+005  0.1043930E+01  0.7957747E-01            NaN
         13   -1    0    0    0    0  0.00000000000E+00  0.00000000000E+00  0.74505805969E-08  0.10566000000E+00  0.10566000000E+00 0. -1.
     999900   -1    0    0    0    0 -0.00000000000E+00 -0.00000000000E+00 -0.74505805969E-08  0.93827000000E+00  0.93827000000E+00 0.  1.
     999902    2    1    2    0    0 -0.14084259218E-01  0.18749956046E-01  0.11799796948E-02  0.10204498049E+01  0.10201796336E+01 0.  0.
     999903    2    3    3    0    0  0.96808356715E-01  0.35712849366E-03 -0.83546135150E-01  0.12926296540E+00  0.18893704116E-01 0.  0.
         14    1    1    2    0    0  0.14084259218E-01 -0.18749956046E-01 -0.11799796948E-02  0.23480195092E-01  0.00000000000E+00 0. -1.
     999901    1    3    3    0    0 -0.11089261593E+00  0.18392827552E-01  0.84726114845E-01  0.89118683951E+00  0.88000000000E+00 0.  1.
        -11    1    4    4    0    0  0.28247356819E-01  0.64399406693E-02 -0.32673199006E-01  0.43671329925E-01  0.51100000000E-03 0. -1.
         11    1    4    4    0    0  0.68560999896E-01 -0.60828121757E-02 -0.50872936144E-01  0.85591635477E-01  0.51100000000E-03 0.  1.
</event>
<event>
 8    1  0.1145101E+005  0.1043930E+01  0.7957747E-01            NaN
         13   -1    0    0    0    0  0.00000000000E+00  0.00000000000E+00  0.74505805969E-08  0.10566000000E+00  0.10566000000E+00 0. -1.
     999900   -1    0    0    0    0 -0.00000000000E+00 -0.00000000000E+00 -0.74505805969E-08  0.93827000000E+00  0.93827000000E+00 0.  1.
     999902    2    1    2    0    0 -0.20210806284E-01 -0.71118590778E-02 -0.94339653981E-02  0.10205194269E+01  0.10202508739E+01 0.  0.
     999903    2    3    3    0    0  0.84102528165E-01 -0.13967775207E-02  0.94629682492E-01  0.12825087051E+00  0.20452939780E-01 0.  0.
         14    1    1    2    0    0  0.20210806284E-01  0.71118590778E-02  0.94339653981E-02  0.23410573109E-01  0.00000000000E+00 0.  1.
     999901    1    3    3    0    0 -0.10431333445E+00 -0.57150815571E-02 -0.10406364789E+00  0.89226855638E+00  0.88000000000E+00 0. -1.
        -11    1    4    4    0    0  0.50268346943E-01  0.86415745144E-02  0.50982611484E-01  0.72118453320E-01  0.51100000000E-03 0.  1.
         11    1    4    4    0    0  0.33834181222E-01 -0.10038352035E-01  0.43647071008E-01  0.56132417186E-01  0.51100000000E-03 0. -1.
</event>
<event>
 8    1  0.1145101E+005  0.1043930E+01  0.7957747E-01            NaN
         13   -1    0    0    0    0  0.00000000000E+00  0.00000000000E+00  0.74505805969E-08  0.10566000000E+00  0.10566000000E+00 0. -1.
     999900   -1    0    0    0    0 -0.00000000000E+00 -0.00000000000E+00 -0.74505805969E-08  0.93827000000E+00  0.93827000000E+00 0.  1.
     999902    2    1    2    0    0  0.14561651538E-01 -0.80266090513E-02  0.18194142282E-01  0.10192825871E+01  0.10189845423E+01 0.  0.
     999903    2    3    3    0    0  0.53327739405E-01  0.36996138218E-01  0.11333050525E+00  0.13216321246E+00  0.20266950306E-01 0.  0.
         14    1    1    2    0    0 -0.14561651538E-01  0.80266090513E-02 -0.18194142282E-01  0.24647412882E-01  0.00000000000E+00 0.  1.
     999901    1    3    3    0    0 -0.38766087867E-01 -0.45022747269E-01 -0.95136362964E-01  0.88711937466E+00  0.88000000000E+00 0.  1.
        -11    1    4    4    0    0  0.36120931148E-01  0.15444434925E-01  0.78048348491E-01  0.87378819289E-01  0.51100000000E-03 0. -1.
         11    1    4    4    0    0  0.17206808257E-01  0.21551703293E-01  0.35282156755E-01  0.44784393169E-01  0.51100000000E-03 0.  1.
</event>
<event>
 8    1  0.1145101E+005  0.1043930E+01  0.7957747E-01            NaN
         13   -1    0    0    0    0  0.00000000000E+00  0.00000000000E+00  0.74505805969E-08  0.10566000000E+00  0.10566000000E+00 0.  1.
     999900   -1    0    0    0    0 -0.00000000000E+00 -0.00000000000E+00 -0.74505805969E-08  0.93827000000E+00  0.93827000000E+00 0. -1.
     999902    2    1    2    0    0  0.67540557579E-03  0.43591427734E-02  0.20636725235E-01  0.10228270920E+01  0.10226093718E+01 0.  0.
     999903    2    3    3    0    0  0.39886478940E-01  0.97223879163E-01 -0.76848822172E-01  0.13172395570E+00  0.20051063664E-01 0.  0.
         14    1    1    2    0    0 -0.67540557579E-03 -0.43591427734E-02 -0.20636725235E-01  0.21102908018E-01  0.00000000000E+00 0. -1.
     999901    1    3    3    0    0 -0.39211073364E-01 -0.92864736390E-01  0.97485547407E-01  0.89110313628E+00  0.88000000000E+00 0.  1.
        -11    1    4    4    0    0  0.18847769622E-01  0.66362741237E-01 -0.56593200185E-01  0.89231739154E-01  0.51100000000E-03 0.  1.
         11    1    4    4    0    0  0.21038709318E-01  0.30861137926E-01 -0.20255621987E-01  0.42492216546E-01  0.51100000000E-03 0. -1.
</event>
<event>
 8    1  0.1145101E+005  0.1043930E+01  0.7957747E-01            NaN
         13   -1    0    0    0    0  0.00000000000E+00  0.00000000000E+00  0.74505805969E-08  0.10566000000E+00  0.10566000000E+00 0.  1.
     999900   -1    0    0    0    0 -0.00000000000E+00 -0.00000000000E+00 -0.74505805969E-08  0.93827000000E+00  0.93827000000E+00 0.  1.
     999902    2    1    2    0    0  0.15129064474E-02 -0.17973986122E-01  0.15845246892E-01  0.10199211493E+01  0.10196385271E+01 0.  0.
     999903    2    3    3    0    0 -0.95167878666E-02  0.84498892847E-01 -0.93199491310E-01  0.12722125571E+00  0.16385071871E-01 0.  0.
         14    1    1    2    0    0 -0.15129064474E-02  0.17973986122E-01 -0.15845246892E-01  0.24008850704E-01  0.00000000000E+00 0. -1.
     999901    1    3    3    0    0  0.11029694314E-01 -0.10247287897E+00  0.10904473820E+00  0.89269989359E+00  0.88000000000E+00 0. -1.
        -11    1    4    4    0    0 -0.14484613500E-02  0.65596166753E-01 -0.65355579301E-01  0.92609761903E-01  0.51100000000E-03 0. -1.
         11    1    4    4    0    0 -0.80683265167E-02  0.18902726094E-01 -0.27843912009E-01  0.34611493807E-01  0.51100000000E-03 0.  1.
</event>
<event>
 8    1  0.1145101E+005  0.1043930E+01  0.7957747E-01            NaN
         13   -1    0    0    0    0  0.00000000000E+00  0.00000000000E+00  0.74505805969E-08  0.10566000000E+00  0.10566000000E+00 0. -1.
     999900   -1    0    0    0    0 -0.00000000000E+00 -0.00000000000E+00 -0.74505805969E-08  0.93827000000E+00  0.93827000000E+00 0. -1.
     999902    2    1    2    0    0  0.14500651404E-01 -0.16557054709E-01  0.58553301669E-02  0.10211552367E+01  0.10209012330E+01 0.  0.
     999903    2    3    3    0    0  0.34316569057E-02 -0.11200002603E+00 -0.68413477185E-01  0.13281535853E+00  0.20093120755E-01 0.  0.
         14    1    1    2    0    0 -0.14500651404E-01  0.16557054709E-01 -0.58553301669E-02  0.22774763294E-01  0.00000000000E+00 0.  1.
     999901    1    3    3    0    0  0.11068994498E-01  0.95442971318E-01  0.74268807351E-01  0.88833987818E+00  0.88000000000E+00 0.  1.
        -11    1    4    4    0    0 -0.75385269009E-02 -0.69655511557E-01 -0.43603562593E-01  0.82524247770E-01  0.51100000000E-03 0. -1.
         11    1    4    4    0    0  0.10970183807E-01 -0.42344514469E-01 -0.24809914591E-01  0.50291110759E-01  0.51100000000E-03 0.  1.
</event>
<event>
 8    1  0.1145101E+005  0.1043930E+01  0.7957747E-01            NaN
         13   -1    0    0    0    0  0.00000000000E+00  0.00000000000E+00  0.74505805969E-08  0.10566000000E+00  0.10566000000E+00 0. -1.
     999900   -1    0    0    0    0 -0.00000000000E+00 -0.00000000000E+00 -0.74505805969E-08  0.93827000000E+00  0.93827000000E+00 0.  1.
     999902    2    1    2    0    0  0.70794768173E-02 -0.21512896816E-01 -0.37432476941E-02  0.10209749216E+01  0.10207168338E+01 0.  0.
     999903    2    3    3    0    0  0.87451222571E-01 -0.85887223619E-01  0.48953615956E-01  0.13340485061E+00  0.19392424829E-01 0.  0.
         14    1    1    2    0    0 -0.70794768173E-02  0.21512896816E-01  0.37432476941E-02  0.22955078408E-01  0.00000000000E+00 0.  1.
     999901    1    3    3    0    0 -0.80371745753E-01  0.64374326803E-01 -0.52696863650E-01  0.88757007098E+00  0.88000000000E+00 0. -1.
        -11    1    4    4    0    0  0.85087462544E-01 -0.79266757508E-01  0.42394207657E-01  0.12377651268E+00  0.51100000000E-03 0. -1.
         11    1    4    4    0    0  0.23637600264E-02 -0.66204661104E-02  0.65594082989E-02  0.96283379258E-02  0.51100000000E-03 0.  1.
</event>
<event>
 7    1  0.1145101E+005  0.1043930E+01  0.7957747E-01            NaN
         13   -1    0    0    0    0  0.00000000000E+00  0.00000000000E+00  0.74505805969E-08  0.10566000000E+00  0.10566000000E+00 0. -1.
     999900   -1    0    0    0    0 -0.00000000000E+00 -0.00000000000E+00 -0.74505805969E-08  0.93827000000E+00  0.93827000000E+00 0. -1.
     999903    2    1    2    0    0 -0.73061331594E-01  0.72205854491E-01  0.47837900099E-01  0.11510936284E+00  0.20249867404E-01 0.  0.
         14    1    1    2    0    0  0.38421800857E-01 -0.26822263916E-02  0.18859778502E-01  0.42884966651E-01  0.00000000000E+00 0. -1.
     999901    1    1    2    0    0  0.34639530736E-01 -0.69523628099E-01 -0.66697678602E-01  0.88593567051E+00  0.88000000000E+00 0. -1.
        -11    1    3    3    0    0 -0.52392479514E-01  0.46553300177E-01  0.22719027771E-01  0.73679013368E-01  0.51100000000E-03 0. -1.
         11    1    3    3    0    0 -0.20668852080E-01  0.25652554314E-01  0.25118872328E-01  0.41430349469E-01  0.51100000000E-03 0.  1.
</event>
<event>
 8    1  0.1145101E+005  0.1043930E+01  0.7957747E-01            NaN
         13   -1    0    0    0    0  0.00000000000E+00  0.00000000000E+00  0.74505805969E-08  0.10566000000E+00  0.10566000000E+00 0.  1.
     999900   -1    0    0    0    0 -0.00000000000E+00 -0.00000000000E+00 -0.74505805969E-08  0.93827000000E+00  0.93827000000E+00 0. -1.
     999902    2    1    2    0    0 -0.12014649204E-01 -0.90254258515E-02 -0.15106870257E-01  0.10226220757E+01  0.10224000597E+01 0.  0.
     999903    2    3    3    0    0 -0.61249511927E-01 -0.30678968322E-02  0.11484439956E+00  0.13169733347E+00  0.19850360950E-01 0.  0.
         14    1    1    2    0    0  0.12014649204E-01  0.90254258515E-02  0.15106870257E-01  0.21307924260E-01  0.00000000000E+00 0.  1.
     999901    1    3    3    0    0  0.49234862723E-01 -0.59575290193E-02 -0.12995126982E+00  0.89092474227E+00  0.88000000000E+00 0. -1.
        -11    1    4    4    0    0 -0.41590797319E-01  0.12198381375E-02  0.93597307491E-01  0.10243046186E+00  0.51100000000E-03 0.  1.
         11    1    4    4    0    0 -0.19658714608E-01 -0.42877349697E-02  0.21247092073E-01  0.29266871609E-01  0.51100000000E-03 0. -1.
</event>
<event>
 8    1  0.1145101E+005  0.1043930E+01  0.7957747E-01            NaN
         13   -1    0    0    0    0  0.00000000000E+00  0.00000000000E+00  0.74505805969E-08  0.10566000000E+00  0.10566000000E+00 0.  1.
     999900   -1    0    0    0    0 -0.00000000000E+00 -0.00000000000E+00 -0.74505805969E-08  0.93827000000E+00  0.93827000000E+00 0. -1.
     999902    2    1    2    0    0 -0.26643567583E-02  0.17152620080E-02 -0.17571750589E-01  0.10260748232E+01  0.10259194585E+01 0.  0.
     999903    2    3    3    0    0 -0.24797309948E-01 -0.12966775878E+00  0.21850130421E-01  0.13517334126E+00  0.19125107593E-01 0.  0.
         14    1    1    2    0    0  0.26643567583E-02 -0.17152620080E-02  0.17571750589E-01  0.17855176825E-01  0.00000000000E+00 0.  1.
     999901    1    3    3    0    0  0.22132953190E-01  0.13138302079E+00 -0.39421881010E-01  0.89090148191E+00  0.88000000000E+00 0.  1.
        -11    1    4    4    0    0 -0.14197871121E-01 -0.65659184782E-01  0.20647034039E-01  0.70279934734E-01  0.51100000000E-03 0. -1.
         11    1    4    4    0    0 -0.10599438828E-01 -0.64008574002E-01  0.12030963816E-02  0.64893406530E-01  0.51100000000E-03 0.  1.
</event>
<event>
 8    1  0.1145101E+005  0.1043930E+01  0.7957747E-01            NaN
         13   -1    0    0    0    0  0.00000000000E+00  0.00000000000E+00  0.74505805969E-08  0.10566000000E+00  0.10566000000E+00 0.  1.
     999900   -1    0    0    0    0 -0.00000000000E+00 -0.00000000000E+00 -0.74505805969E-08  0.93827000000E+00  0.93827000000E+00 0. -1.
     999902    2    1    2    0    0  0.13586636564E-01  0.17384486238E-01  0.10313545243E-01  0.10195745844E+01  0.10192836440E+01 0.  0.
     999903    2    3    3    0    0  0.93736847533E-01 -0.84613938948E-01 -0.20400997061E-01  0.12953463124E+00  0.20418245771E-01 0.  0.
         14    1    1    2    0    0 -0.13586636564E-01 -0.17384486238E-01 -0.10313545243E-01  0.24355415627E-01  0.00000000000E+00 0.  1.
     999901    1    3    3    0    0 -0.80150210969E-01  0.10199842519E+00  0.30714542304E-01  0.89003995313E+00  0.88000000000E+00 0. -1.
        -11    1    4    4    0    0  0.69313303172E-01 -0.73512641912E-01 -0.17544078837E-01  0.10254997972E+00  0.51100000000E-03 0.  1.
         11    1    4    4    0    0  0.24423544361E-01 -0.11101297036E-01 -0.28569182249E-02  0.26984651522E-01  0.51100000000E-03 0. -1.
</event>
<event>
 8    1  0.1145101E+005  0.1043930E+01  0.7957747E-01            NaN
         13   -1    0    0    0    0  0.00000000000E+00  0.00000000000E+00  0.74505805969E-08  0.10566000000E+00  0.10566000000E+00 0.  1.
     999900   -1    0    0    0    0 -0.00000000000E+00 -0.00000000000E+00 -0.74505805969E-08  0.93827000000E+00  0.93827000000E+00 0.  1.
     999902    2    1    2    0    0 -0.22971901846E-01  0.73285977860E-02 -0.17865308077E-01  0.10139202374E+01  0.10134760293E+01 0.  0.
     999903    2    3    3    0    0 -0.29350959391E-01  0.10739626732E+00  0.54536257844E-01  0.12527170302E+00  0.17982188646E-01 0.  0.
         14    1    1    2    0    0  0.22971901846E-01 -0.73285977860E-02  0.17865308077E-01  0.30009762622E-01  0.00000000000E+00 0.  1.
     999901    1    3    3    0    0  0.63790575448E-02 -0.10006766953E+00 -0.72401565921E-01  0.88864853435E+00  0.88000000000E+00 0.  1.
        -11    1    4    4    0    0 -0.10875263385E-01  0.18175919297E-01  0.59226630822E-02  0.21999419424E-01  0.51100000000E-03 0. -1.
         11    1    4    4    0    0 -0.18475696006E-01  0.89220348019E-01  0.48613594762E-01  0.10327228360E+00  0.51100000000E-03 0.  1.
</event>
<event>
 8    1  0.1145101E+005  0.1043930E+01  0.7957747E-01            NaN
         13   -1    0    0    0    0  0.00000000000E+00  0.00000000000E+00  0.74505805969E-08  0.10566000000E+00  0.10566000000E+00 0.  1.
     999900   -1    0    0    0    0 -0.00000000000E+00 -0.00000000000E+00 -0.74505805969E-08  0.93827000000E+00  0.93827000000E+00 0. -1.
     999902    2    1    2    0    0 -0.16894649622E-02 -0.10288093190E-01 -0.20652020121E-01  0.10207955000E+01  0.10205333154E+01 0.  0.
     999903    2    3    3    0    0  0.64980230730E-01  0.10931714960E+00  0.14551228368E-01  0.12951017472E+00  0.19709833256E-01 0.  0.
         14    1    1    2    0    0  0.16894649622E-02  0.10288093190E-01  0.20652020121E-01  0.23134499960E-01  0.00000000000E+00 0.  1.
     999901    1    3    3    0    0 -0.66669695692E-01 -0.11960524279E+00 -0.35203248488E-01  0.89128532532E+00  0.88000000000E+00 0.  1.
        -11    1    4    4    0    0  0.55925948690E-01  0.77921737143E-01  0.86729138906E-02  0.96306746454E-01  0.51100000000E-03 0. -1.
         11    1    4    4    0    0  0.90542820398E-02  0.31395412456E-01  0.58783144771E-02  0.33203428266E-01  0.51100000000E-03 0.  1.
</event>
<event>
 8    1  0.2536704E+005  0.1043930E+01  0.7957747E-01            NaN
         13   -1    0    0    0    0  0.00000000000E+00  0.00000000000E+00  0.74505805969E-08  0.10566000000E+00  0.10566000000E+00 0.  1.
     999900   -1    0    0    0    0 -0.00000000000E+00 -0.00000000000E+00 -0.74505805969E-08  0.93827000000E+00  0.93827000000E+00 0.  1.
     999902    2    1    2    0    0 -0.21435337502E-01  0.15857111060E-02  0.16836596948E-01  0.10166269018E+01  0.10162602021E+01 0.  0.
     999903    2    3    3    0    0 -0.18425788568E-01  0.24318738769E-02 -0.12260191970E+00  0.12564268574E+00  0.20234378422E-01 0.  0.
         14    1    1    2    0    0  0.21435337502E-01 -0.15857111060E-02 -0.16836596948E-01  0.27303098181E-01  0.00000000000E+00 0. -1.
     999901    1    3    3    0    0 -0.30095489331E-02 -0.84616277087E-03  0.13943851665E+00  0.89098421608E+00  0.88000000000E+00 0. -1.
        -11    1    4    4    0    0 -0.19385273180E-01  0.74305560874E-02 -0.76877123885E-01  0.79632626968E-01  0.51100000000E-03 0.  1.
         11    1    4    4    0    0  0.95948461189E-03 -0.49986822105E-02 -0.45724795818E-01  0.46010058771E-01  0.51100000000E-03 0. -1.
</event>
<event>
 8    1  0.1145101E+005  0.1043930E+01  0.7957747E-01            NaN
         13   -1    0    0    0    0  0.00000000000E+00  0.00000000000E+00  0.74505805969E-08  0.10566000000E+00  0.10566000000E+00 0. -1.
     999900   -1    0    0    0    0 -0.00000000000E+00 -0.00000000000E+00 -0.74505805969E-08  0.93827000000E+00  0.93827000000E+00 0.  1.
     999902    2    1    2    0    0 -0.19383304329E-01 -0.26009995267E-02  0.12738944305E-01  0.10205899403E+01  0.10203230213E+01 0.  0.
     999903    2    3    3    0    0 -0.14166566426E-01 -0.12904443084E+00  0.60341078191E-02  0.13151170385E+00  0.20143511558E-01 0.  0.
         14    1    1    2    0    0  0.19383304329E-01  0.26009995267E-02 -0.12738944305E-01  0.23340059709E-01  0.00000000000E+00 0. -1.
     999901    1    3    3    0    0 -0.52167379026E-02  0.12644343131E+00  0.67048364856E-02  0.88907823644E+00  0.88000000000E+00 0. -1.
        -11    1    4    4    0    0 -0.11142225424E-01 -0.93838190003E-01  0.13308168760E-01  0.95431250474E-01  0.51100000000E-03 0.  1.
         11    1    4    4    0    0 -0.30243410018E-02 -0.35206240837E-01 -0.72740609410E-02  0.36080453378E-01  0.51100000000E-03 0. -1.
</event>
<event>
 8    1  0.1145101E+005  0.1043930E+01  0.7957747E-01            NaN
         13   -1    0    0    0    0  0.00000000000E+00  0.00000000000E+00  0.74505805969E-08  0.10566000000E+00  0.10566000000E+00 0.  1.
     999900   -1    0    0    0    0 -0.00000000000E+00 -0.00000000000E+00 -0.74505805969E-08  0.93827000000E+00  0.93827000000E+00 0. -1.
     999902    2    1    2    0    0 -0.12018332759E-02 -0.13234883822E-01 -0.16851161459E-01  0.10224691474E+01  0.10222438990E+01 0.  0.
     999903    2    3    3    0    0  0.11819488287E+00  0.50223318026E-01 -0.24504044105E-01  0.13210905964E+00  0.18972175753E-01 0.  0.
         14    1    1    2    0    0  0.12018332759E-02  0.13234883822E-01  0.16851161459E-01  0.21460852628E-01  0.00000000000E+00 0.  1.
     999901    1    3    3    0    0 -0.11939671614E+00 -0.63458201848E-01  0.76528826458E-02  0.89036008773E+00  0.88000000000E+00 0.  1.
        -11    1    4    4    0    0  0.11230164298E+00  0.51641305874E-01 -0.24571246503E-01  0.12602575436E+00  0.51100000000E-03 0. -1.
         11    1    4    4    0    0  0.58932398911E-02 -0.14179878476E-02  0.67202398148E-04  0.60833052786E-02  0.51100000000E-03 0.  1.
</event>
<event>
 8    1  0.1145101E+005  0.1043930E+01  0.7957747E-01            NaN
         13   -1    0    0    0    0  0.00000000000E+00  0.00000000000E+00  0.74505805969E-08  0.10566000000E+00  0.10566000000E+00 0.  1.
     999900   -1    0    0    0    0 -0.00000000000E+00 -0.00000000000E+00 -0.74505805969E-08  0.93827000000E+00  0.93827000000E+00 0. -1.
     999902    2    1    2    0    0 -0.13803227336E-02 -0.21650904933E-01  0.10653568591E-01  0.10197604841E+01  0.10194740210E+01 0.  0.
     999903    2    3    3    0    0 -0.66067626396E-02 -0.11888738358E+00  0.56074597990E-01  0.13322491326E+00  0.20655693781E-01 0.  0.
         14    1    1    2    0    0  0.13803227336E-02  0.21650904933E-01 -0.10653568591E-01  0.24169515903E-01  0.00000000000E+00 0. -1.
     999901    1    3    3    0    0  0.52264399061E-02  0.97236478647E-01 -0.45421029399E-01  0.88653557084E+00  0.88000000000E+00 0. -1.
        -11    1    4    4    0    0  0.23990118568E-02 -0.70792210796E-01  0.24331541001E-01  0.74897111932E-01  0.51100000000E-03 0. -1.
         11    1    4    4    0    0 -0.90057744964E-02 -0.48095172784E-01  0.31743056990E-01  0.58327801325E-01  0.51100000000E-03 0.  1.
</event>
<event>
 8    1  0.1145101E+005  0.1043930E+01  0.7957747E-01            NaN
         13   -1    0    0    0    0  0.00000000000E+00  0.00000000000E+00  0.74505805969E-08  0.10566000000E+00  0.10566000000E+00 0. -1.
     999900   -1    0    0    0    0 -0.00000000000E+00 -0.00000000000E+00 -0.74505805969E-08  0.93827000000E+00  0.93827000000E+00 0.  1.
     999902    2    1    2    0    0 -0.65228001954E-02  0.21553857077E-01 -0.80572421336E-02  0.10200127504E+01  0.10197323061E+01 0.  0.
     999903    2    3    3    0    0 -0.11476286718E+00  0.39968308270E-01  0.45927354104E-01  0.13154815306E+00  0.20678814455E-01 0.  0.
         14    1    1    2    0    0  0.65228001954E-02 -0.21553857077E-01  0.80572421336E-02  0.23917249592E-01  0.00000000000E+00 0.  1.
     999901    1    3    3    0    0  0.10824006699E+00 -0.18414451194E-01 -0.53984596238E-01  0.88846459735E+00  0.88000000000E+00 0.  1.
        -11    1    4    4    0    0 -0.18476742518E-01  0.23121348988E-03  0.11821067404E-01  0.21941791844E-01  0.51100000000E-03 0.  1.
         11    1    4    4    0    0 -0.96286124666E-01  0.39737094780E-01  0.34106286700E-01  0.10960636121E+00  0.51100000000E-03 0. -1.
</event>
<event>
 8    1  0.1145101E+005  0.1043930E+01  0.7957747E-01            NaN
         13   -1    0    0    0    0  0.00000000000E+00  0.00000000000E+00  0.74505805969E-08  0.10566000000E+00  0.10566000000E+00 0. -1.
     999900   -1    0    0    0    0 -0.00000000000E+00 -0.00000000000E+00 -0.74505805969E-08  0.93827000000E+00  0.93827000000E+00 0.  1.
     999902    2    1    2    0    0 -0.59259566922E-02  0.52692762229E-03  0.23112912301E-01  0.10200636779E+01  0.10197844408E+01 0.  0.
     999903    2    3    3    0    0 -0.67943536153E-01  0.85334387358E-01  0.72405238322E-01  0.13244426690E+00  0.20017080869E-01 0.  0.
         14    1    1    2    0    0  0.59259566922E-02 -0.52692762229E-03 -0.23112912301E-01  0.23866322098E-01  0.00000000000E+00 0.  1.
     999901    1    3    3    0    0  0.62017579461E-01 -0.84807459736E-01 -0.49292326021E-01  0.88761941101E+00  0.88000000000E+00 0.  1.
        -11    1    4    4    0    0 -0.44524037966E-01  0.44357780194E-01  0.33172188474E-01  0.71067980340E-01  0.51100000000E-03 0. -1.
         11    1    4    4    0    0 -0.23419498187E-01  0.40976607164E-01  0.39233049849E-01  0.61376286557E-01  0.51100000000E-03 0.  1.
</event>
<event>
 8    1  0.1145101E+005  0.1043930E+01  0.7957747E-01            NaN
         13   -1    0    0    0    0  0.00000000000E+00  0.00000000000E+00  0.74505805969E-08  0.10566000000E+00  0.10566000000E+00 0. -1.
     999900   -1    0    0    0    0 -0.00000000000E+00 -0.00000000000E+00 -0.74505805969E-08  0.93827000000E+00  0.93827000000E+00 0.  1.
     999902    2    1    2    0    0  0.20202256984E-01 -0.44599841330E-02 -0.11656108693E-01  0.10201836842E+01  0.10199072810E+01 0.  0.
     999903    2    3    3    0    0  0.34193033990E-01 -0.11534351224E+00 -0.50980650524E-01  0.13224375476E+00  0.20398395916E-01 0.  0.
         14    1    1    2    0    0 -0.20202256984E-01  0.44599841330E-02  0.11656108693E-01  0.23746315832E-01  0.00000000000E+00 0.  1.
     999901    1    3    3    0    0 -0.13990777006E-01  0.11088352811E+00  0.39324541831E-01  0.88793992941E+00  0.88000000000E+00 0. -1.
        -11    1    4    4    0    0  0.94597678370E-02 -0.56642777697E-01 -0.32159243369E-01  0.65820737826E-01  0.51100000000E-03 0. -1.
         11    1    4    4    0    0  0.24733266153E-01 -0.58700734543E-01 -0.18821407155E-01  0.66423016935E-01  0.51100000000E-03 0.  1.
</event>
<event>
 8    1  0.1145101E+005  0.1043930E+01  0.7957747E-01            NaN
         13   -1    0    0    0    0  0.00000000000E+00  0.00000000000E+00  0.74505805969E-08  0.10566000000E+00  0.10566000000E+00 0. -1.
     999900   -1    0    0    0    0 -0.00000000000E+00 -0.00000000000E+00 -0.74505805969E-08  0.93827000000E+00  0.93827000000E+00 0.  1.
     999902    2    1    2    0    0 -0.31049878373E-02 -0.16921940483E-01  0.15693698252E-01  0.10206429825E+01  0.10203772893E+01 0.  0.
     999903    2    3    3    0    0  0.62396294956E-01  0.71032226830E-02 -0.11072601084E+00  0.12887531693E+00  0.20120746493E-01 0.  0.
         14    1    1    2    0    0  0.31049878373E-02  0.16921940483E-01 -0.15693698252E-01  0.23287017499E-01  0.00000000000E+00 0.  1.
     999901    1    3    3    0    0 -0.65501282793E-01 -0.24025163166E-01  0.12641970910E+00  0.89176766557E+00  0.88000000000E+00 0. -1.
        -11    1    4    4    0    0  0.36891523905E-01  0.50680816191E-02 -0.83934783006E-01  0.91825807410E-01  0.51100000000E-03 0.  1.
         11    1    4    4    0    0  0.25504771050E-01  0.20351410639E-02 -0.26791227838E-01  0.37049509518E-01  0.51100000000E-03 0. -1.
</event>
<event>
 8    1  0.1145101E+005  0.1043930E+01  0.7957747E-01            NaN
         13   -1    0    0    0    0  0.00000000000E+00  0.00000000000E+00  0.74505805969E-08  0.10566000000E+00  0.10566000000E+00 0.  1.
     999900   -1    0    0    0    0 -0.00000000000E+00 -0.00000000000E+00 -0.74505805969E-08  0.93827000000E+00  0.93827000000E+00 0.  1.
     999902    2    1    2    0    0  0.15880432824E-01  0.47132931645E-03  0.18120606771E-01  0.10198308986E+01  0.10195461221E+01 0.  0.
     999903    2    3    3    0    0  0.12844901084E+00  0.16441444887E-01 -0.83812115164E-02  0.13212088080E+00  0.24823636751E-01 0.  0.
         14    1    1    2    0    0 -0.15880432824E-01 -0.47132931645E-03 -0.18120606771E-01  0.24099101389E-01  0.00000000000E+00 0. -1.
     999901    1    3    3    0    0 -0.11256857802E+00 -0.15970115570E-01  0.26501818287E-01  0.88771001781E+00  0.88000000000E+00 0.  1.
        -11    1    4    4    0    0  0.48540994374E-01  0.65802593694E-02 -0.15266130781E-01  0.51311244559E-01  0.51100000000E-03 0. -1.
         11    1    4    4    0    0  0.79908016466E-01  0.98611855175E-02  0.68849192647E-02  0.80809636242E-01  0.51100000000E-03 0.  1.
</event>
<event>
 8    1  0.1145101E+005  0.1043930E+01  0.7957747E-01            NaN
         13   -1    0    0    0    0  0.00000000000E+00  0.00000000000E+00  0.74505805969E-08  0.10566000000E+00  0.10566000000E+00 0. -1.
     999900   -1    0    0    0    0 -0.00000000000E+00 -0.00000000000E+00 -0.74505805969E-08  0.93827000000E+00  0.93827000000E+00 0. -1.
     999902    2    1    2    0    0  0.21725128947E-01  0.31454310037E-02  0.50421607450E-02  0.10214067154E+01  0.10211583520E+01 0.  0.
     999903    2    3    3    0    0 -0.11590043732E+00 -0.44608524385E-01 -0.27630747376E-01  0.12883248562E+00  0.20285939272E-01 0.  0.
         14    1    1    2    0    0 -0.21725128947E-01 -0.31454310037E-02 -0.50421607450E-02  0.22523284595E-01  0.00000000000E+00 0.  1.
     999901    1    3    3    0    0  0.13762556627E+00  0.47753955389E-01  0.32672908121E-01  0.89257422978E+00  0.88000000000E+00 0.  1.
        -11    1    4    4    0    0 -0.34550316119E-01 -0.66078038212E-02 -0.10685903066E-02  0.35196454672E-01  0.51100000000E-03 0.  1.
         11    1    4    4    0    0 -0.81350121202E-01 -0.38000720564E-01 -0.26562157069E-01  0.93636030951E-01  0.51100000000E-03 0. -1.
</event>
<event>
 8    1  0.1145101E+005  0.1043930E+01  0.7957747E-01            NaN
         13   -1    0    0    0    0  0.00000000000E+00  0.00000000000E+00  0.74505805969E-08  0.10566000000E+00  0.10566000000E+00 0. -1.
     999900   -1    0    0    0    0 -0.00000000000E+00 -0.00000000000E+00 -0.74505805969E-08  0.93827000000E+00  0.93827000000E+00 0.  1.
     999902    2    1    2    0    0 -0.14214580208E-01 -0.18978240065E-01 -0.13774383277E-02  0.10201786796E+01  0.10199021585E+01 0.  0.
     999903    2    3    3    0    0 -0.86985942483E-01  0.50808437897E-01  0.80579227010E-01  0.13063792918E+00  0.20620503478E-01 0.  0.
         14    1    1    2    0    0  0.14214580208E-01  0.18978240065E-01  0.13774383277E-02  0.23751320443E-01  0.00000000000E+00 0. -1.
     999901    1    3    3    0    0  0.72771362275E-01 -0.69786677962E-01 -0.81956665338E-01  0.88954075038E+00  0.88000000000E+00 0. -1.
        -11    1    4    4    0    0 -0.29919074741E-01  0.66728850288E-02  0.25312111012E-01  0.39757295090E-01  0.51100000000E-03 0.  1.
         11    1    4    4    0    0 -0.57066867741E-01  0.44135552869E-01  0.55267115998E-01  0.90880634089E-01  0.51100000000E-03 0. -1.
</event>
<event>
 8    1  0.1145101E+005  0.1043930E+01  0.7957747E-01            NaN
         13   -1    0    0    0    0  0.00000000000E+00  0.00000000000E+00  0.74505805969E-08  0.10566000000E+00  0.10566000000E+00 0. -1.
     999900   -1    0    0    0    0 -0.00000000000E+00 -0.00000000000E+00 -0.74505805969E-08  0.93827000000E+00  0.93827000000E+00 0.  1.
     999902    2    1    2    0    0  0.16331052288E-01 -0.22066133099E-01  0.97647823192E-02  0.10147929364E+01  0.10143745538E+01 0.  0.
     999903    2    3    3    0    0 -0.10475700804E+00 -0.10277840787E-02  0.64276916365E-01  0.12458144290E+00  0.20345192633E-01 0.  0.
         14    1    1    2    0    0 -0.16331052288E-01  0.22066133099E-01 -0.97647823192E-02  0.29137063553E-01  0.00000000000E+00 0.  1.
     999901    1    3    3    0    0  0.12108806033E+00 -0.21038349020E-01 -0.54512134045E-01  0.89021149355E+00  0.88000000000E+00 0. -1.
        -11    1    4    4    0    0 -0.56748608079E-01 -0.36667676626E-02  0.23492055351E-01  0.61530378592E-01  0.51100000000E-03 0.  1.
         11    1    4    4    0    0 -0.48008399965E-01  0.26389835839E-02  0.40784861013E-01  0.63051064308E-01  0.51100000000E-03 0. -1.
</event>
<event>
 8    1  0.1145101E+005  0.1043930E+01  0.7957747E-01            NaN
         13   -1    0    0    0    0  0.00000000000E+00  0.00000000000E+00  0.74505805969E-08  0.10566000000E+00  0.10566000000E+00 0. -1.
     999900   -1    0    0    0    0 -0.00000000000E+00 -0.00000000000E+00 -0.74505805969E-08  0.93827000000E+00  0.93827000000E+00 0. -1.
     999902    2    1    2    0    0 -0.20536810901E-01 -0.80450733691E-02  0.90668585734E-02  0.10200827416E+01  0.10198039557E+01 0.  0.
     999903    2    3    3    0    0  0.45864763117E-01 -0.47153377834E-01  0.11136096713E+00  0.13081185312E+00  0.19582093337E-01 0.  0.
         14    1    1    2    0    0  0.20536810901E-01  0.80450733691E-02 -0.90668585734E-02  0.23847258372E-01  0.00000000000E+00 0.  1.
     999901    1    3    3    0    0 -0.66401574018E-01  0.39108304465E-01 -0.10229410855E+00  0.88927088851E+00  0.88000000000E+00 0. -1.
        -11    1    4    4    0    0  0.10385815442E-01 -0.75195969862E-02  0.38609893625E-01  0.40686539641E-01  0.51100000000E-03 0. -1.
         11    1    4    4    0    0  0.35478947675E-01 -0.39633780847E-01  0.72751073501E-01  0.90125313475E-01  0.51100000000E-03 0.  1.
</event>
<event>
 8    1  0.1145101E+005  0.1043930E+01  0.7957747E-01            NaN
         13   -1    0    0    0    0  0.00000000000E+00  0.00000000000E+00  0.74505805969E-08  0.10566000000E+00  0.10566000000E+00 0.  1.
     999900   -1    0    0    0    0 -0.00000000000E+00 -0.00000000000E+00 -0.74505805969E-08  0.93827000000E+00  0.93827000000E+00 0.  1.
     999902    2    1    2    0    0  0.15877115668E-01 -0.43102856397E-03  0.17668975384E-01  0.10201716061E+01  0.10198949185E+01 0.  0.
     999903    2    3    3    0    0  0.70889481646E-01  0.34648446494E-01  0.10583246042E+00  0.13336287249E+00  0.18955543508E-01 0.  0.
         14    1    1    2    0    0 -0.15877115668E-01  0.43102856397E-03 -0.17668975384E-01  0.23758393858E-01  0.00000000000E+00 0. -1.
     999901    1    3    3    0    0 -0.55012365977E-01 -0.35079475058E-01 -0.88163485033E-01  0.88680873365E+00  0.88000000000E+00 0.  1.
        -11    1    4    4    0    0  0.16718341404E-01  0.10165676047E-01  0.40804245657E-01  0.45255844854E-01  0.51100000000E-03 0. -1.
         11    1    4    4    0    0  0.54171140241E-01  0.24482770447E-01  0.65028214760E-01  0.88107027640E-01  0.51100000000E-03 0.  1.
</event>
<event>
 8    1  0.1145101E+005  0.1043930E+01  0.7957747E-01            NaN
         13   -1    0    0    0    0  0.00000000000E+00  0.00000000000E+00  0.74505805969E-08  0.10566000000E+00  0.10566000000E+00 0.  1.
     999900   -1    0    0    0    0 -0.00000000000E+00 -0.00000000000E+00 -0.74505805969E-08  0.93827000000E+00  0.93827000000E+00 0. -1.
     999902    2    1    2    0    0 -0.51472264254E-02  0.14798057881E-01  0.17923955398E-01  0.10201236010E+01  0.10198457808E+01 0.  0.
     999903    2    3    3    0    0  0.83777751210E-01 -0.15919980881E-01 -0.93558194880E-01  0.12811490182E+00  0.19701138310E-01 0.  0.
         14    1    1    2    0    0  0.51472264254E-02 -0.14798057881E-01 -0.17923955398E-01  0.23806399014E-01  0.00000000000E+00 0. -1.
     999901    1    3    3    0    0 -0.88924977636E-01  0.30718038761E-01  0.11148215028E+00  0.89200869916E+00  0.88000000000E+00 0.  1.
        -11    1    4    4    0    0  0.65690446866E-01 -0.20554881959E-01 -0.72739767912E-01  0.10014525919E+00  0.51100000000E-03 0.  1.
         11    1    4    4    0    0  0.18087304345E-01  0.46349010780E-02 -0.20818426968E-01  0.27969642630E-01  0.51100000000E-03 0. -1.
</event>
<event>
 8    1  0.1145101E+005  0.1043930E+01  0.7957747E-01            NaN
         13   -1    0    0    0    0  0.00000000000E+00  0.00000000000E+00  0.74505805969E-08  0.10566000000E+00  0.10566000000E+00 0. -1.
     999900   -1    0    0    0    0 -0.00000000000E+00 -0.00000000000E+00 -0.74505805969E-08  0.93827000000E+00  0.93827000000E+00 0.  1.
     999902    2    1    2    0    0  0.97061871428E-03  0.21912602088E-01 -0.49836018653E-02  0.10214368784E+01  0.10211891872E+01 0.  0.
     999903    2    3    3    0    0  0.23578052725E-01 -0.12514426044E+00  0.62100405185E-02  0.12887757253E+00  0.18810997013E-01 0.  0.
         14    1    1    2    0    0 -0.97061871428E-03 -0.21912602088E-01  0.49836018653E-02  0.22493121582E-01  0.00000000000E+00 0.  1.
     999901    1    3    3    0    0 -0.22607434011E-01  0.14705686253E+00 -0.11193642384E-01  0.89255930588E+00  0.88000000000E+00 0. -1.
        -11    1    4    4    0    0  0.26038780080E-02 -0.35879462344E-01 -0.56434586754E-02  0.36417382465E-01  0.51100000000E-03 0.  1.
         11    1    4    4    0    0  0.20974174717E-01 -0.89264798093E-01  0.11853499194E-01  0.92460190070E-01  0.51100000000E-03 0. -1.
</event>
<event>
 8    1  0.1145101E+005  0.1043930E+01  0.7957747E-01            NaN
         13   -1    0    0    0    0  0.00000000000E+00  0.00000000000E+00  0.74505805969E-08  0.10566000000E+00  0.10566000000E+00 0. -1.
     999900   -1    0    0    0    0 -0.00000000000E+00 -0.00000000000E+00 -0.74505805969E-08  0.93827000000E+00  0.93827000000E+00 0. -1.
     999902    2    1    2    0    0 -0.10797828465E-01  0.72433028522E-02 -0.19813057730E-01  0.10202315656E+01  0.10199562891E+01 0.  0.
     999903    2    3    3    0    0 -0.55732443807E-01  0.18011465540E-01 -0.11850695842E+00  0.13350976086E+00  0.18720012527E-01 0.  0.
         14    1    1    2    0    0  0.10797828465E-01 -0.72433028522E-02  0.19813057730E-01  0.23698434387E-01  0.00000000000E+00 0. -1.
     999901    1    3    3    0    0  0.44934615342E-01 -0.10768162687E-01  0.98693900689E-01  0.88672180475E+00  0.88000000000E+00 0.  1.
        -11    1    4    4    0    0 -0.20512082255E-01 -0.91207716906E-03 -0.29630665117E-01  0.36052944949E-01  0.51100000000E-03 0.  1.
         11    1    4    4    0    0 -0.35220361552E-01  0.18923542709E-01 -0.88876293301E-01  0.97456815916E-01  0.51100000000E-03 0. -1.
</event>
<event>
 7    1  0.1145101E+005  0.1043930E+01  0.7957747E-01            NaN
         13   -1    0    0    0    0  0.00000000000E+00  0.00000000000E+00  0.74505805969E-08  0.10566000000E+00  0.10566000000E+00 0.  1.
     999900   -1    0    0    0    0 -0.00000000000E+00 -0.00000000000E+00 -0.74505805969E-08  0.93827000000E+00  0.93827000000E+00 0.  1.
     999902    2    1    2    0    0 -0.13485911342E-02 -0.22566445590E-01 -0.88674621702E-03  0.10213059092E+01  0.10210552927E+01 0.  0.
         14    1    1    2    0    0  0.13485911342E-02  0.22566445590E-01  0.88674621702E-03  0.22624090776E-01  0.00000000000E+00 0. -1.
     999901    1    3    3    0    0  0.36579527676E-01 -0.62430943624E-01  0.66924526462E-01  0.88550244314E+00  0.88000000000E+00 0. -1.
        -11    1    3    3    0    0  0.33187626359E-01  0.73926426087E-02 -0.40745226913E-01  0.53070748490E-01  0.51100000000E-03 0. -1.
         11    1    3    3    0    0 -0.71115745170E-01  0.32471855426E-01 -0.27066045766E-01  0.82732717592E-01  0.51100000000E-03 0.  1.
</event>
<event>
 8    1  0.1145101E+005  0.1043930E+01  0.7957747E-01            NaN
         13   -1    0    0    0    0  0.00000000000E+00  0.00000000000E+00  0.74505805969E-08  0.10566000000E+00  0.10566000000E+00 0.  1.
     999900   -1    0    0    0    0 -0.00000000000E+00 -0.00000000000E+00 -0.74505805969E-08  0.93827000000E+00  0.93827000000E+00 0. -1.
     999902    2    1    2    0    0 -0.40273941096E-03  0.14759721954E-01  0.98462103366E-02  0.10261829031E+01  0.10260294299E+01 0.  0.
     999903    2    3    3    0    0  0.93070036500E-01  0.98629479207E-01 -0.44587213027E-02  0.13715201099E+00  0.20024686256E-01 0.  0.
         14    1    1    2    0    0  0.40273941096E-03 -0.14759721954E-01 -0.98462103366E-02  0.17747096923E-01  0.00000000000E+00 0. -1.
     999901    1    3    3    0    0 -0.93472775911E-01 -0.83869757253E-01  0.14304931639E-01  0.88903089209E+00  0.88000000000E+00 0. -1.
        -11    1    4    4    0    0  0.60821616150E-01  0.53030302191E-01 -0.85654493139E-02  0.81148690590E-01  0.51100000000E-03 0. -1.
         11    1    4    4    0    0  0.32248420350E-01  0.45599177017E-01  0.41067280112E-02  0.56003320398E-01  0.51100000000E-03 0.  1.
</event>
<event>
 8    1  0.1145101E+005  0.1043930E+01  0.7957747E-01            NaN
         13   -1    0    0    0    0  0.00000000000E+00  0.00000000000E+00  0.74505805969E-08  0.10566000000E+00  0.10566000000E+00 0. -1.
     999900   -1    0    0    0    0 -0.00000000000E+00 -0.00000000000E+00 -0.74505805969E-08  0.93827000000E+00  0.93827000000E+00 0. -1.
     999902    2    1    2    0    0  0.33848566847E-04 -0.13218817598E-01  0.20200382259E-01  0.10197888789E+01  0.10195030965E+01 0.  0.
     999903    2    3    3    0    0  0.12049834928E+00  0.12711384156E-01  0.45593926783E-01  0.13084067828E+00  0.18948495079E-01 0.  0.
         14    1    1    2    0    0 -0.33848566847E-04  0.13218817598E-01 -0.20200382259E-01  0.24141121097E-01  0.00000000000E+00 0.  1.
     999901    1    3    3    0    0 -0.12046450071E+00 -0.25930201753E-01 -0.25393544525E-01  0.88894820063E+00  0.88000000000E+00 0.  1.
        -11    1    4    4    0    0  0.64396902474E-01  0.16241638273E-01  0.23884440506E-01  0.70579596778E-01  0.51100000000E-03 0. -1.
         11    1    4    4    0    0  0.56101446806E-01 -0.35302541176E-02  0.21709486277E-01  0.60261081498E-01  0.51100000000E-03 0.  1.
</event>
<event>
 8    1  0.1145101E+005  0.1043930E+01  0.7957747E-01            NaN
         13   -1    0    0    0    0  0.00000000000E+00  0.00000000000E+00  0.74505805969E-08  0.10566000000E+00  0.10566000000E+00 0.  1.
     999900   -1    0    0    0    0 -0.00000000000E+00 -0.00000000000E+00 -0.74505805969E-08  0.93827000000E+00  0.93827000000E+00 0.  1.
     999902    2    1    2    0    0  0.82411282246E-02 -0.17056229302E-01 -0.14760944200E-01  0.10199150749E+01  0.10196323080E+01 0.  0.
     999903    2    3    3    0    0  0.95880395979E-01 -0.86637980974E-01 -0.23382205959E-01  0.13278679358E+00  0.19657439131E-01 0.  0.
         14    1    1    2    0    0 -0.82411282246E-02  0.17056229302E-01  0.14760944200E-01  0.24014925070E-01  0.00000000000E+00 0.  1.
     999901    1    3    3    0    0 -0.87639267754E-01  0.69581751672E-01  0.86212617596E-02  0.88712828135E+00  0.88000000000E+00 0.  1.
        -11    1    4    4    0    0  0.60880816648E-01 -0.58672949245E-01 -0.24296572089E-01  0.87974844956E-01  0.51100000000E-03 0. -1.
         11    1    4    4    0    0  0.34999579331E-01 -0.27965031730E-01  0.91436612967E-03  0.44811948623E-01  0.51100000000E-03 0.  1.
</event>
<event>
 8    1  0.1145101E+005  0.1043930E+01  0.7957747E-01            NaN
         13   -1    0    0    0    0  0.00000000000E+00  0.00000000000E+00  0.74505805969E-08  0.10566000000E+00  0.10566000000E+00 0.  1.
     999900   -1    0    0    0    0 -0.00000000000E+00 -0.00000000000E+00 -0.74505805969E-08  0.93827000000E+00  0.93827000000E+00 0.  1.
     999902    2    1    2    0    0 -0.55460931570E-02 -0.24282666005E-02  0.23603238046E-01  0.10195626351E+01  0.10192714056E+01 0.  0.
     999903    2    3    3    0    0 -0.12135693895E+00  0.32704173263E-01 -0.25940389800E-01  0.12989920915E+00  0.20095550118E-01 0.  0.
         14    1    1    2    0    0  0.55460931570E-02  0.24282666005E-02 -0.23603238046E-01  0.24367364943E-01  0.00000000000E+00 0. -1.
     999901    1    3    3    0    0  0.11581084580E+00 -0.35132439864E-01  0.49543627846E-01  0.88966342591E+00  0.88000000000E+00 0. -1.
        -11    1    4    4    0    0 -0.39706942014E-01  0.15588897572E-02 -0.11062436341E-01  0.41251787842E-01  0.51100000000E-03 0. -1.
         11    1    4    4    0    0 -0.81649996938E-01  0.31145283506E-01 -0.14877953458E-01  0.88647421309E-01  0.51100000000E-03 0.  1.
</event>
<event>
 8    1  0.1160129E+005  0.1043930E+01  0.7957747E-01            NaN
         13   -1    0    0    0    0  0.00000000000E+00  0.00000000000E+00  0.74505805969E-08  0.10566000000E+00  0.10566000000E+00 0.  1.
     999900   -1    0    0    0    0 -0.00000000000E+00 -0.00000000000E+00 -0.74505805969E-08  0.93827000000E+00  0.93827000000E+00 0.  1.
     999902    2    1    2    0    0 -0.23178079758E-01  0.79885819298E-02 -0.49867657595E-02  0.10189118335E+01  0.10186046415E+01 0.  0.
     999903    2    3    3    0    0 -0.80267757607E-01 -0.55547802313E-01  0.84014242746E-01  0.13030771300E+00  0.19830174760E-01 0.  0.
         14    1    1    2    0    0  0.23178079758E-01 -0.79885819298E-02  0.49867657595E-02  0.25018166505E-01  0.00000000000E+00 0.  1.
     999901    1    3    3    0    0  0.57089677849E-01  0.63536384243E-01 -0.89001008505E-01  0.88860412049E+00  0.88000000000E+00 0.  1.
        -11    1    4    4    0    0 -0.33367612345E-01 -0.34475593494E-01  0.36362977074E-01  0.60203748414E-01  0.51100000000E-03 0. -1.
         11    1    4    4    0    0 -0.46900145262E-01 -0.21072208819E-01  0.47651265672E-01  0.70103964590E-01  0.51100000000E-03 0.  1.
</event>
<event>
 8    1  0.1145101E+005  0.1043930E+01  0.7957747E-01            NaN
         13   -1    0    0    0    0  0.00000000000E+00  0.00000000000E+00  0.74505805969E-08  0.10566000000E+00  0.10566000000E+00 0.  1.
     999900   -1    0    0    0    0 -0.00000000000E+00 -0.00000000000E+00 -0.74505805969E-08  0.93827000000E+00  0.93827000000E+00 0. -1.
     999902    2    1    2    0    0 -0.50103570543E-02 -0.18848283434E-01 -0.13943676623E-01  0.10199552720E+01  0.10196734621E+01 0.  0.
     999903    2    3    3    0    0  0.70894498950E-01  0.68882020947E-01 -0.81665788783E-01  0.12976178854E+00  0.19951388830E-01 0.  0.
         14    1    1    2    0    0  0.50103570543E-02  0.18848283434E-01  0.13943676623E-01  0.23974728027E-01  0.00000000000E+00 0. -1.
     999901    1    3    3    0    0 -0.75904856005E-01 -0.87730304381E-01  0.67722112160E-01  0.89019348343E+00  0.88000000000E+00 0. -1.
        -11    1    4    4    0    0  0.44553178007E-01  0.29824454014E-01 -0.40425384296E-01  0.67148764279E-01  0.51100000000E-03 0.  1.
         11    1    4    4    0    0  0.26341320944E-01  0.39057566933E-01 -0.41240404487E-01  0.62613024260E-01  0.51100000000E-03 0. -1.
</event>
<event>
 8    1  0.1145101E+005  0.1043930E+01  0.7957747E-01            NaN
         13   -1    0    0    0    0  0.00000000000E+00  0.00000000000E+00  0.74505805969E-08  0.10566000000E+00  0.10566000000E+00 0. -1.
     999900   -1    0    0    0    0 -0.00000000000E+00 -0.00000000000E+00 -0.74505805969E-08  0.93827000000E+00  0.93827000000E+00 0.  1.
     999902    2    1    2    0    0 -0.11396326718E-01 -0.14821427167E-01 -0.12530226350E-01  0.10214231669E+01  0.10211751702E+01 0.  0.
     999903    2    3    3    0    0 -0.42187019378E-01 -0.10049909603E+00  0.73989371459E-01  0.13250563946E+00  0.14265500106E-01 0.  0.
         14    1    1    2    0    0  0.11396326718E-01  0.14821427167E-01  0.12530226350E-01  0.22506833148E-01  0.00000000000E+00 0. -1.
     999901    1    3    3    0    0  0.30790692660E-01  0.85677668864E-01 -0.86519597809E-01  0.88891752739E+00  0.88000000000E+00 0.  1.
        -11    1    4    4    0    0 -0.40501241374E-01 -0.97968782456E-01  0.68522317025E-01  0.12622916438E+00  0.51100000000E-03 0.  1.
         11    1    4    4    0    0 -0.16857780043E-02 -0.25303135759E-02  0.54670544340E-02  0.62764750821E-02  0.51100000000E-03 0. -1.
</event>
<event>
 8    1  0.1145101E+005  0.1043930E+01  0.7957747E-01            NaN
         13   -1    0    0    0    0  0.00000000000E+00  0.00000000000E+00  0.74505805969E-08  0.10566000000E+00  0.10566000000E+00 0. -1.
     999900   -1    0    0    0    0 -0.00000000000E+00 -0.00000000000E+00 -0.74505805969E-08  0.93827000000E+00  0.93827000000E+00 0.  1.
     999902    2    1    2    0    0 -0.22977204472E-01  0.32384464186E-02  0.13823891854E-02  0.10206845604E+01  0.10204198261E+01 0.  0.
     999903    2    3    3    0    0  0.68683897912E-01 -0.44041961181E-01  0.98362990156E-01  0.12936955911E+00  0.20100567507E-01 0.  0.
         14    1    1    2    0    0  0.22977204472E-01 -0.32384464186E-02 -0.13823891854E-02  0.23245439562E-01  0.00000000000E+00 0.  1.
     999901    1    3    3    0    0 -0.91661102384E-01  0.47280407600E-01 -0.96980600971E-01  0.89131500133E+00  0.88000000000E+00 0.  1.
        -11    1    4    4    0    0  0.34605500532E-01 -0.33544108309E-01  0.52424521562E-01  0.71213337594E-01  0.51100000000E-03 0.  1.
         11    1    4    4    0    0  0.34078397380E-01 -0.10497852872E-01  0.45938468594E-01  0.58156221513E-01  0.51100000000E-03 0. -1.
</event>
<event>
 8    1  0.1145101E+005  0.1043930E+01  0.7957747E-01            NaN
         13   -1    0    0    0    0  0.00000000000E+00  0.00000000000E+00  0.74505805969E-08  0.10566000000E+00  0.10566000000E+00 0.  1.
     999900   -1    0    0    0    0 -0.00000000000E+00 -0.00000000000E+00 -0.74505805969E-08  0.93827000000E+00  0.93827000000E+00 0.  1.
     999902    2    1    2    0    0 -0.13547576656E-01  0.17845373364E-01  0.78033928154E-02  0.10202047577E+01  0.10199288507E+01 0.  0.
     999903    2    3    3    0    0 -0.11061999536E+00  0.69357288315E-01  0.16550952011E-01  0.13332649566E+00  0.21326125214E-01 0.  0.
         14    1    1    2    0    0  0.13547576656E-01 -0.17845373364E-01 -0.78033928154E-02  0.23725242321E-01  0.00000000000E+00 0. -1.
     999901    1    3    3    0    0  0.97072418701E-01 -0.51511914951E-01 -0.87475591958E-02  0.88687826202E+00  0.88000000000E+00 0.  1.
        -11    1    4    4    0    0 -0.76934397888E-01  0.45334936880E-01  0.20926545257E-01  0.91718806674E-01  0.51100000000E-03 0. -1.
         11    1    4    4    0    0 -0.33685597469E-01  0.24022351434E-01 -0.43755932457E-02  0.41607688984E-01  0.51100000000E-03 0.  1.
</event>
<event>
 8    1  0.1145101E+005  0.1043930E+01  0.7957747E-01            NaN
         13   -1    0    0    0    0  0.00000000000E+00  0.00000000000E+00  0.74505805969E-08  0.10566000000E+00  0.10566000000E+00 0.  1.
     999900   -1    0    0    0    0 -0.00000000000E+00 -0.00000000000E+00 -0.74505805969E-08  0.93827000000E+00  0.93827000000E+00 0. -1.
     999902    2    1    2    0    0  0.20648422243E-01 -0.36329154360E-02  0.11997163498E-01  0.10197745172E+01  0.10194883906E+01 0.  0.
     999903    2    3    3    0    0  0.19016140300E-01  0.39462139486E-01  0.12187714270E+00  0.13189307361E+00  0.24957381849E-01 0.  0.
         14    1    1    2    0    0 -0.20648422243E-01  0.36329154360E-02 -0.11997163498E-01  0.24155482766E-01  0.00000000000E+00 0.  1.
     999901    1    3    3    0    0  0.16322819426E-02 -0.43095054922E-01 -0.10987997920E+00  0.88788144362E+00  0.88000000000E+00 0. -1.
        -11    1    4    4    0    0  0.77807320652E-02  0.37595584711E-01  0.84464873434E-01  0.92782238313E-01  0.51100000000E-03 0. -1.
         11    1    4    4    0    0  0.11235408235E-01  0.18665547748E-02  0.37412269266E-01  0.39110835296E-01  0.51100000000E-03 0.  1.
</event>
<event>
 8    1  0.1145101E+005  0.1043930E+01  0.7957747E-01            NaN
         13   -1    0    0    0    0  0.00000000000E+00  0.00000000000E+00  0.74505805969E-08  0.10566000000E+00  0.10566000000E+00 0. -1.
     999900   -1    0    0    0    0 -0.00000000000E+00 -0.00000000000E+00 -0.74505805969E-08  0.93827000000E+00  0.93827000000E+00 0. -1.
     999902    2    1    2    0    0  0.21739681698E-01 -0.35335210077E-03 -0.71613676992E-02  0.10210384338E+01  0.10207817883E+01 0.  0.
     999903    2    3    3    0    0  0.11923836993E-01 -0.11656267345E+00 -0.57039300254E-01  0.13194408255E+00  0.20657309024E-01 0.  0.
         14    1    1    2    0    0 -0.21739681698E-01  0.35335210077E-03  0.71613676992E-02  0.22891566250E-01  0.00000000000E+00 0.  1.
     999901    1    3    3    0    0  0.98158447048E-02  0.11620932135E+00  0.49877932555E-01  0.88909435120E+00  0.88000000000E+00 0.  1.
        -11    1    4    4    0    0  0.25123161624E-02 -0.92981667246E-01 -0.39363323688E-01  0.10100314128E+00  0.51100000000E-03 0. -1.
         11    1    4    4    0    0  0.94115208309E-02 -0.23581006207E-01 -0.17675976566E-01  0.30940941269E-01  0.51100000000E-03 0.  1.
</event>
<event>
 8    1  0.1145101E+005  0.1043930E+01  0.7957747E-01            NaN
         13   -1    0    0    0    0  0.00000000000E+00  0.00000000000E+00  0.74505805969E-08  0.10566000000E+00  0.10566000000E+00 0. -1.
     999900   -1    0    0    0    0 -0.00000000000E+00 -0.00000000000E+00 -0.74505805969E-08  0.93827000000E+00  0.93827000000E+00 0.  1.
     999902    2    1    2    0    0  0.18483509530E-01 -0.15158390116E-01  0.13116885297E-02  0.10199897109E+01  0.10197087196E+01 0.  0.
     999903    2    3    3    0    0 -0.46713953610E-01 -0.10166181600E+00  0.65039634329E-01  0.13106069069E+00  0.20722748790E-01 0.  0.
         14    1    1    2    0    0 -0.18483509530E-01  0.15158390116E-01 -0.13116885297E-02  0.23940289101E-01  0.00000000000E+00 0.  1.
     999901    1    3    3    0    0  0.65197463139E-01  0.86503425881E-01 -0.63727945799E-01  0.88892902021E+00  0.88000000000E+00 0.  1.
        -11    1    4    4    0    0 -0.18107456246E-01 -0.19122905249E-01  0.12943041014E-01  0.29348746286E-01  0.51100000000E-03 0. -1.
         11    1    4    4    0    0 -0.28606497364E-01 -0.82538910749E-01  0.52096593315E-01  0.10171194441E+00  0.51100000000E-03 0.  1.
</event>
<event>
 8    1  0.1145101E+005  0.1043930E+01  0.7957747E-01            NaN
         13   -1    0    0    0    0  0.00000000000E+00  0.00000000000E+00  0.74505805969E-08  0.10566000000E+00  0.10566000000E+00 0. -1.
     999900   -1    0    0    0    0 -0.00000000000E+00 -0.00000000000E+00 -0.74505805969E-08  0.93827000000E+00  0.93827000000E+00 0.  1.
     999902    2    1    2    0    0  0.12165190549E-01  0.15720873318E-01  0.17750795436E-01  0.10172798882E+01  0.10169307462E+01 0.  0.
     999903    2    3    3    0    0 -0.11550099389E+00 -0.38678139364E-01 -0.21357036416E-01  0.12554712010E+00  0.21667448119E-01 0.  0.
         14    1    1    2    0    0 -0.12165190549E-01 -0.15720873318E-01 -0.17750795436E-01  0.26650111775E-01  0.00000000000E+00 0.  1.
     999901    1    3    3    0    0  0.12766618444E+00  0.54399012682E-01  0.39107831852E-01  0.89173276812E+00  0.88000000000E+00 0. -1.
        -11    1    4    4    0    0 -0.24573320300E-01 -0.46193030931E-02 -0.12740270216E-01  0.28067091723E-01  0.51100000000E-03 0. -1.
         11    1    4    4    0    0 -0.90927673588E-01 -0.34058836271E-01 -0.86167662007E-02  0.97480028380E-01  0.51100000000E-03 0.  1.
</event>
<event>
 8    1  0.1145101E+005  0.1043930E+01  0.7957747E-01            NaN
         13   -1    0    0    0    0  0.00000000000E+00  0.00000000000E+00  0.74505805969E-08  0.10566000000E+00  0.10566000000E+00 0. -1.
     999900   -1    0    0    0    0 -0.00000000000E+00 -0.00000000000E+00 -0.74505805969E-08  0.93827000000E+00  0.93827000000E+00 0. -1.
     999902    2    1    2    0    0 -0.78278060024E-02  0.95442439638E-02  0.20445545929E-01  0.10200472136E+01  0.10197675865E+01 0.  0.
     999903    2    3    3    0    0  0.91686062461E-01  0.28309810168E-01  0.87995542099E-01  0.13166770093E+00  0.19631317749E-01 0.  0.
         14    1    1    2    0    0  0.78278060024E-02 -0.95442439638E-02 -0.20445545929E-01  0.23882786437E-01  0.00000000000E+00 0.  1.
     999901    1    3    3    0    0 -0.99513868463E-01 -0.18765566204E-01 -0.67549996170E-01  0.88837951264E+00  0.88000000000E+00 0. -1.
        -11    1    4    4    0    0  0.65553275563E-01  0.27058843378E-01  0.56196276303E-01  0.90485885824E-01  0.51100000000E-03 0. -1.
         11    1    4    4    0    0  0.26132786898E-01  0.12509667896E-02  0.31799265796E-01  0.41181815102E-01  0.51100000000E-03 0.  1.
</event>
<event>
 8    1  0.1145101E+005  0.1043930E+01  0.7957747E-01            NaN
         13   -1    0    0    0    0  0.00000000000E+00  0.00000000000E+00  0.74505805969E-08  0.10566000000E+00  0.10566000000E+00 0.  1.
     999900   -1    0    0    0    0 -0.00000000000E+00 -0.00000000000E+00 -0.74505805969E-08  0.93827000000E+00  0.93827000000E+00 0.  1.
     999902    2    1    2    0    0  0.23601622837E-01 -0.10577045972E-02  0.11254791287E-02  0.10202778956E+01  0.10200037070E+01 0.  0.
     999903    2    3    3    0    0 -0.11591066335E+00  0.35056990654E-01  0.34992291038E-01  0.12791311023E+00  0.21749226772E-01 0.  0.
         14    1    1    2    0    0 -0.23601622837E-01  0.10577045972E-02 -0.11254791287E-02  0.23652104406E-01  0.00000000000E+00 0.  1.
     999901    1    3    3    0    0  0.13951228618E+00 -0.36114695251E-01 -0.33866811909E-01  0.89236478536E+00  0.88000000000E+00 0. -1.
        -11    1    4    4    0    0 -0.78975203686E-01  0.13305814733E-01  0.24936866225E-01  0.83882274177E-01  0.51100000000E-03 0. -1.
         11    1    4    4    0    0 -0.36935459662E-01  0.21751175921E-01  0.10055424812E-01  0.44030836053E-01  0.51100000000E-03 0.  1.
</event>
<event>
 7    1  0.1260738E+005  0.1043930E+01  0.7957747E-01            NaN
         13   -1    0    0    0    0  0.00000000000E+00  0.00000000000E+00  0.74505805969E-08  0.10566000000E+00  0.10566000000E+00 0. -1.
     999900   -1    0    0    0    0 -0.00000000000E+00 -0.00000000000E+00 -0.74505805969E-08  0.93827000000E+00  0.93827000000E+00 0. -1.
     999903    2    1    2    0    0 -0.11023379797E-01 -0.61934575711E-01 -0.29050191420E-01  0.72748521991E-01  0.22159134901E-01 0.  0.
         14    1    1    2    0    0  0.80765639884E-01 -0.18581916825E-01  0.17393293737E-01  0.84681183776E-01  0.00000000000E+00 0.  1.
     999901    1    1    2    0    0 -0.69742260087E-01  0.80516492536E-01  0.11656897684E-01  0.88650029423E+00  0.88000000000E+00 0. -1.
        -11    1    3    3    0    0 -0.84090722708E-02 -0.35541122422E-01 -0.48604561793E-02  0.36847917644E-01  0.51100000000E-03 0. -1.
         11    1    3    3    0    0 -0.26143075260E-02 -0.26393453289E-01 -0.24189735241E-01  0.35900604346E-01  0.51100000000E-03 0.  1.
</event>
<event>
 8    1  0.1145101E+005  0.1043930E+01  0.7957747E-01            NaN
         13   -1    0    0    0    0  0.00000000000E+00  0.00000000000E+00  0.74505805969E-08  0.10566000000E+00  0.10566000000E+00 0.  1.
     999900   -1    0    0    0    0 -0.00000000000E+00 -0.00000000000E+00 -0.74505805969E-08  0.93827000000E+00  0.93827000000E+00 0.  1.
     999902    2    1    2    0    0  0.11775002828E-01  0.19854707187E-01  0.55494535805E-02  0.10201885484E+01  0.10199122598E+01 0.  0.
     999903    2    3    3    0    0 -0.11551663226E+00 -0.36902445179E-01  0.38230254436E-01  0.12862106949E+00  0.19389285023E-01 0.  0.
         14    1    1    2    0    0 -0.11775002828E-01 -0.19854707187E-01 -0.55494535805E-02  0.23741451601E-01  0.00000000000E+00 0. -1.
     999901    1    3    3    0    0  0.12729163509E+00  0.56757152366E-01 -0.32680800856E-01  0.89156747891E+00  0.88000000000E+00 0. -1.
        -11    1    4    4    0    0 -0.57141159685E-01 -0.11883958918E-01  0.10431122571E-01  0.59290893473E-01  0.51100000000E-03 0. -1.
         11    1    4    4    0    0 -0.58375472572E-01 -0.25018486261E-01  0.27799131865E-01  0.69330176015E-01  0.51100000000E-03 0.  1.
</event>
<event>
 8    1  0.1145101E+005  0.1043930E+01  0.7957747E-01            NaN
         13   -1    0    0    0    0  0.00000000000E+00  0.00000000000E+00  0.74505805969E-08  0.10566000000E+00  0.10566000000E+00 0. -1.
     999900   -1    0    0    0    0 -0.00000000000E+00 -0.00000000000E+00 -0.74505805969E-08  0.93827000000E+00  0.93827000000E+00 0. -1.
     999902    2    1    2    0    0 -0.27810492605E-02  0.18025129431E-01 -0.12679303720E-01  0.10217172949E+01  0.10214758080E+01 0.  0.
     999903    2    3    3    0    0 -0.10056395541E-01  0.43419742411E-01  0.12165362544E+00  0.13113144675E+00  0.20234787396E-01 0.  0.
         14    1    1    2    0    0  0.27810492605E-02 -0.18025129431E-01  0.12679303720E-01  0.22212705122E-01  0.00000000000E+00 0. -1.
     999901    1    3    3    0    0  0.72753462805E-02 -0.25394612980E-01 -0.13433292916E+00  0.89058584813E+00  0.88000000000E+00 0. -1.
        -11    1    4    4    0    0 -0.18850006721E-02  0.13564400181E-01  0.16156065545E-01  0.21185508129E-01  0.51100000000E-03 0. -1.
         11    1    4    4    0    0 -0.81713948689E-02  0.29855342231E-01  0.10549755990E+00  0.10994593862E+00  0.51100000000E-03 0.  1.
</event>
<event>
 8    1  0.1145101E+005  0.1043930E+01  0.7957747E-01            NaN
         13   -1    0    0    0    0  0.00000000000E+00  0.00000000000E+00  0.74505805969E-08  0.10566000000E+00  0.10566000000E+00 0. -1.
     999900   -1    0    0    0    0 -0.00000000000E+00 -0.00000000000E+00 -0.74505805969E-08  0.93827000000E+00  0.93827000000E+00 0. -1.
     999902    2    1    2    0    0  0.54381265969E-02 -0.28402945678E-02  0.22397049726E-01  0.10207078483E+01  0.10204436502E+01 0.  0.
     999903    2    3    3    0    0  0.27192319421E-01  0.10104358241E+00  0.78795305134E-01  0.13253789381E+00  0.20208052967E-01 0.  0.
         14    1    1    2    0    0 -0.54381265969E-02  0.28402945678E-02 -0.22397049726E-01  0.23222151721E-01  0.00000000000E+00 0.  1.
     999901    1    3    3    0    0 -0.21754192824E-01 -0.10388387697E+00 -0.56398255408E-01  0.88816995446E+00  0.88000000000E+00 0. -1.
        -11    1    4    4    0    0  0.98279258139E-02  0.70948140524E-01  0.49244279710E-01  0.86922304242E-01  0.51100000000E-03 0.  1.
         11    1    4    4    0    0  0.17364393607E-01  0.30095441881E-01  0.29551025424E-01  0.45615589572E-01  0.51100000000E-03 0. -1.
</event>
<event>
 8    1  0.1145101E+005  0.1043930E+01  0.7957747E-01            NaN
         13   -1    0    0    0    0  0.00000000000E+00  0.00000000000E+00  0.74505805969E-08  0.10566000000E+00  0.10566000000E+00 0.  1.
     999900   -1    0    0    0    0 -0.00000000000E+00 -0.00000000000E+00 -0.74505805969E-08  0.93827000000E+00  0.93827000000E+00 0.  1.
     999902    2    1    2    0    0 -0.11095425117E-02  0.70366509325E-02 -0.21077931122E-01  0.10216808490E+01  0.10214385603E+01 0.  0.
     999903    2    3    3    0    0 -0.12997559887E+00 -0.10403130683E-01 -0.14771088124E-02  0.13190851928E+00  0.19894576589E-01 0.  0.
         14    1    1    2    0    0  0.11095425117E-02 -0.70366509325E-02  0.21077931122E-01  0.22249151024E-01  0.00000000000E+00 0.  1.
     999901    1    3    3    0    0  0.12886605636E+00  0.17439781615E-01 -0.19600822309E-01  0.88977232970E+00  0.88000000000E+00 0.  1.
        -11    1    4    4    0    0 -0.53846064086E-01  0.49166279346E-02  0.26910530696E-02  0.54139400952E-01  0.51100000000E-03 0.  1.
         11    1    4    4    0    0 -0.76129534783E-01 -0.15319758617E-01 -0.41681618820E-02  0.77769118324E-01  0.51100000000E-03 0. -1.
</event>
<event>
 8    1  0.1145101E+005  0.1043930E+01  0.7957747E-01            NaN
         13   -1    0    0    0    0  0.00000000000E+00  0.00000000000E+00  0.74505805969E-08  0.10566000000E+00  0.10566000000E+00 0.  1.
     999900   -1    0    0    0    0 -0.00000000000E+00 -0.00000000000E+00 -0.74505805969E-08  0.93827000000E+00  0.93827000000E+00 0. -1.
     999902    2    1    2    0    0  0.20776889969E-01 -0.14886517106E-01 -0.73537681517E-02  0.10173336571E+01  0.10169859411E+01 0.  0.
     999903    2    3    3    0    0 -0.61457101329E-02 -0.65695934475E-01 -0.10976588152E+00  0.12953037697E+00  0.19386702965E-01 0.  0.
         14    1    1    2    0    0 -0.20776889969E-01  0.14886517106E-01  0.73537681517E-02  0.26596342875E-01  0.00000000000E+00 0.  1.
     999901    1    3    3    0    0  0.26922600102E-01  0.50809417369E-01  0.10241211337E+00  0.88780328016E+00  0.88000000000E+00 0.  1.
        -11    1    4    4    0    0  0.20790908760E-02 -0.29111975620E-01 -0.32757257409E-01  0.43876289467E-01  0.51100000000E-03 0.  1.
         11    1    4    4    0    0 -0.82248010090E-02 -0.36583958855E-01 -0.77008624113E-01  0.85654087503E-01  0.51100000000E-03 0. -1.
</event>
<event>
 8    1  0.1145101E+005  0.1043930E+01  0.7957747E-01            NaN
         13   -1    0    0    0    0  0.00000000000E+00  0.00000000000E+00  0.74505805969E-08  0.10566000000E+00  0.10566000000E+00 0.  1.
     999900   -1    0    0    0    0 -0.00000000000E+00 -0.00000000000E+00 -0.74505805969E-08  0.93827000000E+00  0.93827000000E+00 0.  1.
     999902    2    1    2    0    0  0.74049892213E-02 -0.37984400441E-04 -0.23474844502E-01  0.10193148902E+01  0.10190176356E+01 0.  0.
     999903    2    3    3    0    0 -0.47345845868E-01  0.10851695901E+00  0.45722419344E-01  0.12826489661E+00  0.18541428102E-01 0.  0.
         14    1    1    2    0    0 -0.74049892213E-02  0.37984400441E-04  0.23474844502E-01  0.24615109843E-01  0.00000000000E+00 0.  1.
     999901    1    3    3    0    0  0.54750835090E-01 -0.10855494341E+00 -0.69197263846E-01  0.89104999355E+00  0.88000000000E+00 0.  1.
        -11    1    4    4    0    0 -0.76193670906E-02  0.31070877885E-01  0.58547438060E-02  0.32526809765E-01  0.51100000000E-03 0. -1.
         11    1    4    4    0    0 -0.39726478778E-01  0.77446081129E-01  0.39867675538E-01  0.95738086842E-01  0.51100000000E-03 0.  1.
</event>
<event>
 8    1  0.1145101E+005  0.1043930E+01  0.7957747E-01            NaN
         13   -1    0    0    0    0  0.00000000000E+00  0.00000000000E+00  0.74505805969E-08  0.10566000000E+00  0.10566000000E+00 0. -1.
     999900   -1    0    0    0    0 -0.00000000000E+00 -0.00000000000E+00 -0.74505805969E-08  0.93827000000E+00  0.93827000000E+00 0. -1.
     999902    2    1    2    0    0  0.20761576784E-01 -0.11130836908E-01 -0.48365946713E-02  0.10198814814E+01  0.10195979133E+01 0.  0.
     999903    2    3    3    0    0  0.73274058568E-01  0.89295372576E-01  0.57351718277E-01  0.13043762672E+00  0.19544913701E-01 0.  0.
         14    1    1    2    0    0 -0.20761576784E-01  0.11130836908E-01  0.48365946713E-02  0.24048518641E-01  0.00000000000E+00 0.  1.
     999901    1    3    3    0    0 -0.52512481784E-01 -0.10042620948E+00 -0.62188312948E-01  0.88944385464E+00  0.88000000000E+00 0. -1.
        -11    1    4    4    0    0  0.10700584312E-01  0.91104038643E-02  0.14091416655E-01  0.19908066393E-01  0.51100000000E-03 0. -1.
         11    1    4    4    0    0  0.62573474256E-01  0.80184968711E-01  0.43260301622E-01  0.11052956032E+00  0.51100000000E-03 0.  1.
</event>
<event>
 8    1  0.1145101E+005  0.1043930E+01  0.7957747E-01            NaN
         13   -1    0    0    0    0  0.00000000000E+00  0.00000000000E+00  0.74505805969E-08  0.10566000000E+00  0.10566000000E+00 0. -1.
     999900   -1    0    0    0    0 -0.00000000000E+00 -0.00000000000E+00 -0.74505805969E-08  0.93827000000E+00  0.93827000000E+00 0.  1.
     999902    2    1    2    0    0 -0.20242396268E-01  0.40829067904E-02  0.11791306845E-01  0.10201506045E+01  0.10198734216E+01 0.  0.
     999903    2    3    3    0    0 -0.92595568854E-01 -0.22787057013E-01  0.91159035038E-01  0.13321418465E+00  0.18516478683E-01 0.  0.
         14    1    1    2    0    0  0.20242396268E-01 -0.40829067904E-02 -0.11791306845E-01  0.23779395527E-01  0.00000000000E+00 0.  1.
     999901    1    3    3    0    0  0.72353172586E-01  0.26869963804E-01 -0.79367728193E-01  0.88693641983E+00  0.88000000000E+00 0.  1.
        -11    1    4    4    0    0 -0.42764401465E-01 -0.27230309381E-02  0.47632423330E-01  0.64072753986E-01  0.51100000000E-03 0.  1.
         11    1    4    4    0    0 -0.49831167389E-01 -0.20064026075E-01  0.43526611708E-01  0.69141430659E-01  0.51100000000E-03 0. -1.
</event>
<event>
 8    1  0.1145101E+005  0.1043930E+01  0.7957747E-01            NaN
         13   -1    0    0    0    0  0.00000000000E+00  0.00000000000E+00  0.74505805969E-08  0.10566000000E+00  0.10566000000E+00 0.  1.
     999900   -1    0    0    0    0 -0.00000000000E+00 -0.00000000000E+00 -0.74505805969E-08  0.93827000000E+00  0.93827000000E+00 0. -1.
     999902    2    1    2    0    0  0.76312572830E-02  0.22677410262E-01  0.15001583556E-02  0.10199560245E+01  0.10196742325E+01 0.  0.
     999903    2    3    3    0    0  0.26699229201E-01  0.12720923731E+00  0.21890937484E-01  0.13332968031E+00  0.20063688896E-01 0.  0.
         14    1    1    2    0    0 -0.76312572830E-02 -0.22677410262E-01 -0.15001583556E-02  0.23973975452E-01  0.00000000000E+00 0.  1.
     999901    1    3    3    0    0 -0.19067971918E-01 -0.10453182705E+00 -0.20390779129E-01  0.88662634424E+00  0.88000000000E+00 0. -1.
        -11    1    4    4    0    0  0.19067008946E-01  0.44027240895E-01  0.85994098711E-02  0.48745868975E-01  0.51100000000E-03 0. -1.
         11    1    4    4    0    0  0.76322202546E-02  0.83181996412E-01  0.13291527613E-01  0.84583811337E-01  0.51100000000E-03 0.  1.
</event>
<event>
 8    1  0.1145101E+005  0.1043930E+01  0.7957747E-01            NaN
         13   -1    0    0    0    0  0.00000000000E+00  0.00000000000E+00  0.74505805969E-08  0.10566000000E+00  0.10566000000E+00 0.  1.
     999900   -1    0    0    0    0 -0.00000000000E+00 -0.00000000000E+00 -0.74505805969E-08  0.93827000000E+00  0.93827000000E+00 0.  1.
     999902    2    1    2    0    0 -0.25729236442E-01 -0.83967073693E-02 -0.97342731567E-02  0.10151679699E+01  0.10147604410E+01 0.  0.
     999903    2    3    3    0    0 -0.65684889267E-01 -0.10367076615E+00 -0.25830937095E-01  0.12897797724E+00  0.30098984515E-01 0.  0.
         14    1    1    2    0    0  0.25729236442E-01  0.83967073693E-02  0.97342731567E-02  0.28762030116E-01  0.00000000000E+00 0.  1.
     999901    1    3    3    0    0  0.39955652826E-01  0.95274058785E-01  0.16096663938E-01  0.88618999264E+00  0.88000000000E+00 0. -1.
        -11    1    4    4    0    0 -0.22307577571E-01 -0.37032733388E-01  0.53571453973E-02  0.43566173657E-01  0.51100000000E-03 0. -1.
         11    1    4    4    0    0 -0.43377311696E-01 -0.66638032767E-01 -0.31188082492E-01  0.85411803584E-01  0.51100000000E-03 0.  1.
</event>
<event>
 8    1  0.1145101E+005  0.1043930E+01  0.7957747E-01            NaN
         13   -1    0    0    0    0  0.00000000000E+00  0.00000000000E+00  0.74505805969E-08  0.10566000000E+00  0.10566000000E+00 0.  1.
     999900   -1    0    0    0    0 -0.00000000000E+00 -0.00000000000E+00 -0.74505805969E-08  0.93827000000E+00  0.93827000000E+00 0.  1.
     999902    2    1    2    0    0 -0.17524851196E-01  0.31329524868E-02  0.14330047153E-01  0.10210764215E+01  0.10208206367E+01 0.  0.
     999903    2    3    3    0    0  0.21994355621E-01 -0.98426570245E-01  0.82323630213E-01  0.13175126624E+00  0.20240421324E-01 0.  0.
         14    1    1    2    0    0  0.17524851196E-01 -0.31329524868E-02 -0.14330047153E-01  0.22853578542E-01  0.00000000000E+00 0. -1.
     999901    1    3    3    0    0 -0.39519206817E-01  0.10155952273E+00 -0.67993583060E-01  0.88932515522E+00  0.88000000000E+00 0. -1.
        -11    1    4    4    0    0  0.81939136130E-03 -0.48462163362E-01  0.42081818319E-01  0.64190289249E-01  0.51100000000E-03 0. -1.
         11    1    4    4    0    0  0.21174964259E-01 -0.49964406883E-01  0.40241811894E-01  0.67560976992E-01  0.51100000000E-03 0.  1.
</event>
<event>
 8    1  0.1145101E+005  0.1043930E+01  0.7957747E-01            NaN
         13   -1    0    0    0    0  0.00000000000E+00  0.00000000000E+00  0.74505805969E-08  0.10566000000E+00  0.10566000000E+00 0. -1.
     999900   -1    0    0    0    0 -0.00000000000E+00 -0.00000000000E+00 -0.74505805969E-08  0.93827000000E+00  0.93827000000E+00 0. -1.
     999902    2    1    2    0    0 -0.70482372171E-02 -0.40865709402E-02  0.22444606066E-01  0.10200524362E+01  0.10197729329E+01 0.  0.
     999903    2    3    3    0    0  0.52160890009E-01 -0.97023780659E-01 -0.64025717726E-01  0.12897434617E+00  0.20017916466E-01 0.  0.
         14    1    1    2    0    0  0.70482372171E-02  0.40865709402E-02 -0.22444606066E-01  0.23877563765E-01  0.00000000000E+00 0.  1.
     999901    1    3    3    0    0 -0.59209127226E-01  0.92937209719E-01  0.86470323792E-01  0.89107809007E+00  0.88000000000E+00 0. -1.
        -11    1    4    4    0    0  0.30828821755E-01 -0.40156316514E-01 -0.35738927026E-01  0.61971590530E-01  0.51100000000E-03 0.  1.
         11    1    4    4    0    0  0.21332068254E-01 -0.56867464145E-01 -0.28286790701E-01  0.67002755640E-01  0.51100000000E-03 0. -1.
</event>
<event>
 8    1  0.1145101E+005  0.1043930E+01  0.7957747E-01            NaN
         13   -1    0    0    0    0  0.00000000000E+00  0.00000000000E+00  0.74505805969E-08  0.10566000000E+00  0.10566000000E+00 0. -1.
     999900   -1    0    0    0    0 -0.00000000000E+00 -0.00000000000E+00 -0.74505805969E-08  0.93827000000E+00  0.93827000000E+00 0. -1.
     999902    2    1    2    0    0 -0.17561102144E-01 -0.84035487416E-02  0.13649669780E-01  0.10201534270E+01  0.10198763107E+01 0.  0.
     999903    2    3    3    0    0  0.10203563190E+00  0.33834219072E-01 -0.65763797283E-01  0.12752029596E+00  0.19507031829E-01 0.  0.
         14    1    1    2    0    0  0.17561102144E-01  0.84035487416E-02 -0.13649669780E-01  0.23776573030E-01  0.00000000000E+00 0. -1.
     999901    1    3    3    0    0 -0.11959673405E+00 -0.42237767814E-01  0.79413467063E-01  0.89263313101E+00  0.88000000000E+00 0.  1.
        -11    1    4    4    0    0  0.17564988470E-01  0.12536063796E-01 -0.81327385286E-02  0.23066951953E-01  0.51100000000E-03 0.  1.
         11    1    4    4    0    0  0.84470643433E-01  0.21298155276E-01 -0.57631058755E-01  0.10445334401E+00  0.51100000000E-03 0. -1.
</event>
<event>
 8    1  0.1145101E+005  0.1043930E+01  0.7957747E-01            NaN
         13   -1    0    0    0    0  0.00000000000E+00  0.00000000000E+00  0.74505805969E-08  0.10566000000E+00  0.10566000000E+00 0.  1.
     999900   -1    0    0    0    0 -0.00000000000E+00 -0.00000000000E+00 -0.74505805969E-08  0.93827000000E+00  0.93827000000E+00 0. -1.
     999902    2    1    2    0    0 -0.88000768468E-02 -0.20330897302E-01  0.87271855063E-02  0.10201192775E+01  0.10198413553E+01 0.  0.
     999903    2    3    3    0    0 -0.61777542861E-01  0.10372267621E+00 -0.38140923885E-01  0.12860790874E+00  0.22592161336E-01 0.  0.
         14    1    1    2    0    0  0.88000768468E-02  0.20330897302E-01 -0.87271855063E-02  0.23810722469E-01  0.00000000000E+00 0. -1.
     999901    1    3    3    0    0  0.52977466014E-01 -0.12405357351E+00  0.46868109391E-01  0.89151136879E+00  0.88000000000E+00 0.  1.
        -11    1    4    4    0    0 -0.14829341875E-01  0.27810141123E-01 -0.20561989230E-01  0.37634689474E-01  0.51100000000E-03 0. -1.
         11    1    4    4    0    0 -0.46948200987E-01  0.75912535086E-01 -0.17578934655E-01  0.90973219266E-01  0.51100000000E-03 0.  1.
</event>
<event>
 8    1  0.1145101E+005  0.1043930E+01  0.7957747E-01            NaN
         13   -1    0    0    0    0  0.00000000000E+00  0.00000000000E+00  0.74505805969E-08  0.10566000000E+00  0.10566000000E+00 0.  1.
     999900   -1    0    0    0    0 -0.00000000000E+00 -0.00000000000E+00 -0.74505805969E-08  0.93827000000E+00  0.93827000000E+00 0.  1.
     999902    2    1    2    0    0 -0.23011259422E-01 -0.21476799011E-02  0.40819211014E-02  0.10204610275E+01  0.10201911174E+01 0.  0.
     999903    2    3    3    0    0 -0.10042978330E+00  0.16812573755E-01 -0.82438755832E-01  0.13263280844E+00  0.20652104086E-01 0.  0.
         14    1    1    2    0    0  0.23011259422E-01  0.21476799011E-02 -0.40819211014E-02  0.23468972475E-01  0.00000000000E+00 0.  1.
     999901    1    3    3    0    0  0.77418523876E-01 -0.18960253656E-01  0.86520676934E-01  0.88782821908E+00  0.88000000000E+00 0. -1.
        -11    1    4    4    0    0 -0.73270885720E-01  0.77924914729E-02 -0.48401320674E-01  0.88160618087E-01  0.51100000000E-03 0.  1.
         11    1    4    4    0    0 -0.27158897578E-01  0.90200822817E-02 -0.34037435159E-01  0.44472190358E-01  0.51100000000E-03 0. -1.
</event>
<event>
 8    1  0.1222637E+005  0.1043930E+01  0.7957747E-01            NaN
         13   -1    0    0    0    0  0.00000000000E+00  0.00000000000E+00  0.74505805969E-08  0.10566000000E+00  0.10566000000E+00 0. -1.
     999900   -1    0    0    0    0 -0.00000000000E+00 -0.00000000000E+00 -0.74505805969E-08  0.93827000000E+00  0.93827000000E+00 0. -1.
     999902    2    1    2    0    0  0.14777044972E-01 -0.14156782054E-01  0.18109820636E-01  0.10166034353E+01  0.10162360963E+01 0.  0.
     999903    2    3    3    0    0  0.11435847785E+00 -0.57416546235E-01 -0.21379767066E-02  0.12969992177E+00  0.21047031242E-01 0.  0.
         14    1    1    2    0    0 -0.14777044972E-01  0.14156782054E-01 -0.18109820636E-01  0.27326564726E-01  0.00000000000E+00 0. -1.
     999901    1    3    3    0    0 -0.99581432881E-01  0.43259764181E-01  0.20247797343E-01  0.88690351351E+00  0.88000000000E+00 0. -1.
        -11    1    4    4    0    0  0.71751885356E-01 -0.46398724266E-01  0.21904110841E-02  0.85476509565E-01  0.51100000000E-03 0. -1.
         11    1    4    4    0    0  0.42606592496E-01 -0.11017821969E-01 -0.43283877907E-02  0.44223412204E-01  0.51100000000E-03 0.  1.
</event>
<event>
 8    1  0.1145101E+005  0.1043930E+01  0.7957747E-01            NaN
         13   -1    0    0    0    0  0.00000000000E+00  0.00000000000E+00  0.74505805969E-08  0.10566000000E+00  0.10566000000E+00 0. -1.
     999900   -1    0    0    0    0 -0.00000000000E+00 -0.00000000000E+00 -0.74505805969E-08  0.93827000000E+00  0.93827000000E+00 0. -1.
     999902    2    1    2    0    0  0.66159902895E-02 -0.13399640651E-01  0.18236080790E-01  0.10203529701E+01  0.10200805396E+01 0.  0.
     999903    2    3    3    0    0  0.87775876790E-01 -0.18727860819E-01  0.96320530099E-01  0.13315936194E+00  0.19960807519E-01 0.  0.
         14    1    1    2    0    0 -0.66159902895E-02  0.13399640651E-01 -0.18236080790E-01  0.23577029916E-01  0.00000000000E+00 0.  1.
     999901    1    3    3    0    0 -0.81159886500E-01  0.53282201680E-02 -0.78084449308E-01  0.88719360814E+00  0.88000000000E+00 0. -1.
        -11    1    4    4    0    0  0.53360729537E-01 -0.12734400747E-01  0.44392451989E-01  0.70572539516E-01  0.51100000000E-03 0.  1.
         11    1    4    4    0    0  0.34415147253E-01 -0.59934600717E-02  0.51928078109E-01  0.62586822425E-01  0.51100000000E-03 0. -1.
</event>
<event>
 8    1  0.1145101E+005  0.1043930E+01  0.7957747E-01            NaN
         13   -1    0    0    0    0  0.00000000000E+00  0.00000000000E+00  0.74505805969E-08  0.10566000000E+00  0.10566000000E+00 0.  1.
     999900   -1    0    0    0    0 -0.00000000000E+00 -0.00000000000E+00 -0.74505805969E-08  0.93827000000E+00  0.93827000000E+00 0. -1.
     999902    2    1    2    0    0  0.41329332199E-02 -0.16655721294E-01 -0.17874438663E-01  0.10191511835E+01  0.10188499129E+01 0.  0.
     999903    2    3    3    0    0 -0.11825208573E+00 -0.47500707361E-01  0.12807551632E-01  0.12961709729E+00  0.19916966416E-01 0.  0.
         14    1    1    2    0    0 -0.41329332199E-02  0.16655721294E-01  0.17874438663E-01  0.24778816484E-01  0.00000000000E+00 0.  1.
     999901    1    3    3    0    0  0.12238501895E+00  0.30844986066E-01 -0.30681990295E-01  0.88953408623E+00  0.88000000000E+00 0.  1.
        -11    1    4    4    0    0 -0.90809283997E-01 -0.27049256834E-01  0.93478716549E-02  0.95213613422E-01  0.51100000000E-03 0.  1.
         11    1    4    4    0    0 -0.27442801736E-01 -0.20451450527E-01  0.34596799774E-02  0.34403483869E-01  0.51100000000E-03 0. -1.
</event>
<event>
 8    1  0.1145101E+005  0.1043930E+01  0.7957747E-01            NaN
         13   -1    0    0    0    0  0.00000000000E+00  0.00000000000E+00  0.74505805969E-08  0.10566000000E+00  0.10566000000E+00 0.  1.
     999900   -1    0    0    0    0 -0.00000000000E+00 -0.00000000000E+00 -0.74505805969E-08  0.93827000000E+00  0.93827000000E+00 0.  1.
     999902    2    1    2    0    0  0.78138397727E-02  0.72953168676E-02 -0.33559276120E-02  0.10327255370E+01  0.10326647543E+01 0.  0.
     999903    2    3    3    0    0  0.74802816676E-01 -0.68203069262E-01  0.96008261663E-01  0.14140024768E+00  0.23007035810E-01 0.  0.
         14    1    1    2    0    0 -0.78138397727E-02 -0.72953168676E-02  0.33559276120E-02  0.11204462965E-01  0.00000000000E+00 0.  1.
     999901    1    3    3    0    0 -0.66988976903E-01  0.75498386130E-01 -0.99364189275E-01  0.89132528936E+00  0.88000000000E+00 0.  1.
        -11    1    4    4    0    0  0.20906300734E-01 -0.32910934837E-01  0.42232646567E-01  0.57480958580E-01  0.51100000000E-03 0. -1.
         11    1    4    4    0    0  0.53896515942E-01 -0.35292134425E-01  0.53775615097E-01  0.83919289100E-01  0.51100000000E-03 0.  1.
</event>
<event>
 8    1  0.1145101E+005  0.1043930E+01  0.7957747E-01            NaN
         13   -1    0    0    0    0  0.00000000000E+00  0.00000000000E+00  0.74505805969E-08  0.10566000000E+00  0.10566000000E+00 0.  1.
     999900   -1    0    0    0    0 -0.00000000000E+00 -0.00000000000E+00 -0.74505805969E-08  0.93827000000E+00  0.93827000000E+00 0.  1.
     999902    2    1    2    0    0 -0.57424158294E-02 -0.15028029761E-01  0.17803630500E-01  0.10199344530E+01  0.10196521476E+01 0.  0.
     999903    2    3    3    0    0  0.59505861880E-02  0.92671427409E-01  0.89255047740E-01  0.13041705326E+00  0.20463169352E-01 0.  0.
         14    1    1    2    0    0  0.57424158294E-02  0.15028029761E-01 -0.17803630500E-01  0.23995547025E-01  0.00000000000E+00 0. -1.
     999901    1    3    3    0    0 -0.11693002017E-01 -0.10769945717E+00 -0.71451417239E-01  0.88951739972E+00  0.88000000000E+00 0.  1.
        -11    1    4    4    0    0 -0.62396708385E-02  0.20342257956E-01  0.25641788691E-01  0.33324216408E-01  0.51100000000E-03 0. -1.
         11    1    4    4    0    0  0.12190257027E-01  0.72329169454E-01  0.63613259049E-01  0.97092836852E-01  0.51100000000E-03 0.  1.
</event>
<event>
 8    1  0.1145101E+005  0.1043930E+01  0.7957747E-01            NaN
         13   -1    0    0    0    0  0.00000000000E+00  0.00000000000E+00  0.74505805969E-08  0.10566000000E+00  0.10566000000E+00 0. -1.
     999900   -1    0    0    0    0 -0.00000000000E+00 -0.00000000000E+00 -0.74505805969E-08  0.93827000000E+00  0.93827000000E+00 0. -1.
     999902    2    1    2    0    0 -0.15006547605E-01 -0.21428356323E-01  0.28717699589E-02  0.10176123635E+01  0.10172719914E+01 0.  0.
     999903    2    3    3    0    0  0.80775460211E-01  0.17756670367E-01 -0.93242219704E-01  0.12635058475E+00  0.20745708389E-01 0.  0.
         14    1    1    2    0    0  0.15006547605E-01  0.21428356323E-01 -0.28717699589E-02  0.26317636452E-01  0.00000000000E+00 0.  1.
     999901    1    3    3    0    0 -0.95782007815E-01 -0.39185026690E-01  0.96113989663E-01  0.89126177880E+00  0.88000000000E+00 0.  1.
        -11    1    4    4    0    0  0.36836132943E-01  0.11206025609E-01 -0.28832787775E-01  0.48104744797E-01  0.51100000000E-03 0. -1.
         11    1    4    4    0    0  0.43939327268E-01  0.65506447581E-02 -0.64409431929E-01  0.78245839953E-01  0.51100000000E-03 0.  1.
</event>
<event>
 8    1  0.1145101E+005  0.1043930E+01  0.7957747E-01            NaN
         13   -1    0    0    0    0  0.00000000000E+00  0.00000000000E+00  0.74505805969E-08  0.10566000000E+00  0.10566000000E+00 0. -1.
     999900   -1    0    0    0    0 -0.00000000000E+00 -0.00000000000E+00 -0.74505805969E-08  0.93827000000E+00  0.93827000000E+00 0. -1.
     999902    2    1    2    0    0  0.17952314252E-01 -0.14356752011E-01  0.20004674913E-02  0.10208561233E+01  0.10205953266E+01 0.  0.
     999903    2    3    3    0    0  0.57495589681E-01  0.55730930259E-02 -0.11672391652E+00  0.13178000243E+00  0.20117011597E-01 0.  0.
         14    1    1    2    0    0 -0.17952314252E-01  0.14356752011E-01 -0.20004674913E-02  0.23073876690E-01  0.00000000000E+00 0.  1.
     999901    1    3    3    0    0 -0.39543275429E-01 -0.19929845037E-01  0.11872438401E+00  0.88907612088E+00  0.88000000000E+00 0.  1.
        -11    1    4    4    0    0  0.32885412403E-01  0.13056414152E-01 -0.70296175442E-01  0.78700277650E-01  0.51100000000E-03 0. -1.
         11    1    4    4    0    0  0.24610177278E-01 -0.74833211260E-02 -0.46427741075E-01  0.53079724783E-01  0.51100000000E-03 0.  1.
</event>
<event>
 8    1  0.1145101E+005  0.1043930E+01  0.7957747E-01            NaN
         13   -1    0    0    0    0  0.00000000000E+00  0.00000000000E+00  0.74505805969E-08  0.10566000000E+00  0.10566000000E+00 0. -1.
     999900   -1    0    0    0    0 -0.00000000000E+00 -0.00000000000E+00 -0.74505805969E-08  0.93827000000E+00  0.93827000000E+00 0. -1.
     999902    2    1    2    0    0  0.14706773005E-01  0.39911456449E-02 -0.17337394995E-01  0.10208474594E+01  0.10205864646E+01 0.  0.
     999903    2    3    3    0    0 -0.12494706557E+00 -0.12744552923E-01  0.20873513425E-01  0.12885903359E+00  0.19868420990E-01 0.  0.
         14    1    1    2    0    0 -0.14706773005E-01 -0.39911456449E-02  0.17337394995E-01  0.23082540610E-01  0.00000000000E+00 0. -1.
     999901    1    3    3    0    0  0.13965383857E+00  0.16735698568E-01 -0.38210908420E-01  0.89198842580E+00  0.88000000000E+00 0.  1.
        -11    1    4    4    0    0 -0.48096896984E-01 -0.49384924790E-02 -0.16958605598E-02  0.48382199945E-01  0.51100000000E-03 0.  1.
         11    1    4    4    0    0 -0.76850168583E-01 -0.78060604439E-02  0.22569373985E-01  0.80476833648E-01  0.51100000000E-03 0. -1.
</event>
<event>
 8    1  0.1145101E+005  0.1043930E+01  0.7957747E-01            NaN
         13   -1    0    0    0    0  0.00000000000E+00  0.00000000000E+00  0.74505805969E-08  0.10566000000E+00  0.10566000000E+00 0. -1.
     999900   -1    0    0    0    0 -0.00000000000E+00 -0.00000000000E+00 -0.74505805969E-08  0.93827000000E+00  0.93827000000E+00 0.  1.
     999902    2    1    2    0    0  0.11286584517E-01  0.18715248104E-01  0.11597003901E-01  0.10191885772E+01  0.10188882264E+01 0.  0.
     999903    2    3    3    0    0  0.10611936893E+00  0.72645015124E-01 -0.22559472821E-01  0.13179444738E+00  0.17950706493E-01 0.  0.
         14    1    1    2    0    0 -0.11286584517E-01 -0.18715248104E-01 -0.11597003901E-01  0.24741422779E-01  0.00000000000E+00 0. -1.
     999901    1    3    3    0    0 -0.94832784408E-01 -0.53929767020E-01  0.34156476722E-01  0.88739412984E+00  0.88000000000E+00 0. -1.
        -11    1    4    4    0    0  0.51697401788E-01  0.25803531447E-01 -0.59078719593E-02  0.58082765593E-01  0.51100000000E-03 0.  1.
         11    1    4    4    0    0  0.54421967137E-01  0.46841483677E-01 -0.16651600862E-01  0.73711681790E-01  0.51100000000E-03 0. -1.
</event>
<event>
 8    1  0.1145101E+005  0.1043930E+01  0.7957747E-01            NaN
         13   -1    0    0    0    0  0.00000000000E+00  0.00000000000E+00  0.74505805969E-08  0.10566000000E+00  0.10566000000E+00 0.  1.
     999900   -1    0    0    0    0 -0.00000000000E+00 -0.00000000000E+00 -0.74505805969E-08  0.93827000000E+00  0.93827000000E+00 0. -1.
     999902    2    1    2    0    0 -0.20263933038E-02  0.23334590325E-01 -0.62276234573E-02  0.10196938149E+01  0.10194057501E+01 0.  0.
     999903    2    3    3    0    0  0.10474568304E+00 -0.69834702601E-01  0.12834128722E-01  0.12815349395E+00  0.20249922206E-01 0.  0.
         14    1    1    2    0    0  0.20263933038E-02 -0.23334590325E-01  0.62276234573E-02  0.24236185125E-01  0.00000000000E+00 0.  1.
     999901    1    3    3    0    0 -0.10677207635E+00  0.93169292926E-01 -0.19061752180E-01  0.89154032092E+00  0.88000000000E+00 0. -1.
        -11    1    4    4    0    0  0.79061841935E-01 -0.48876905832E-01  0.17769309656E-01  0.94634751865E-01  0.51100000000E-03 0.  1.
         11    1    4    4    0    0  0.25683841108E-01 -0.20957796769E-01 -0.49351809336E-02  0.33518742090E-01  0.51100000000E-03 0. -1.
</event>
<event>
 8    1  0.1145101E+005  0.1043930E+01  0.7957747E-01            NaN
         13   -1    0    0    0    0  0.00000000000E+00  0.00000000000E+00  0.74505805969E-08  0.10566000000E+00  0.10566000000E+00 0. -1.
     999900   -1    0    0    0    0 -0.00000000000E+00 -0.00000000000E+00 -0.74505805969E-08  0.93827000000E+00  0.93827000000E+00 0. -1.
     999902    2    1    2    0    0 -0.11803897902E-01 -0.16694214270E-01 -0.98542649309E-02  0.10212334070E+01  0.10209811635E+01 0.  0.
     999903    2    3    3    0    0  0.89590540776E-01  0.54871296079E-01 -0.74212035291E-01  0.13019784259E+00  0.20167496201E-01 0.  0.
         14    1    1    2    0    0  0.11803897902E-01  0.16694214270E-01  0.98542649309E-02  0.22696592984E-01  0.00000000000E+00 0.  1.
     999901    1    3    3    0    0 -0.10139443868E+00 -0.71565510348E-01  0.64357770361E-01  0.89103556443E+00  0.88000000000E+00 0.  1.
        -11    1    4    4    0    0  0.46964690024E-01  0.18776135488E-01 -0.28774403312E-01  0.58193236547E-01  0.51100000000E-03 0. -1.
         11    1    4    4    0    0  0.42625850752E-01  0.36095160590E-01 -0.45437631980E-01  0.72004606042E-01  0.51100000000E-03 0.  1.
</event>
<event>
 8    1  0.1145101E+005  0.1043930E+01  0.7957747E-01            NaN
         13   -1    0    0    0    0  0.00000000000E+00  0.00000000000E+00  0.74505805969E-08  0.10566000000E+00  0.10566000000E+00 0. -1.
     999900   -1    0    0    0    0 -0.00000000000E+00 -0.00000000000E+00 -0.74505805969E-08  0.93827000000E+00  0.93827000000E+00 0.  1.
     999902    2    1    2    0    0 -0.10310916670E-01  0.60457635084E-02 -0.20264872569E-01  0.10204027537E+01  0.10201314858E+01 0.  0.
     999903    2    3    3    0    0  0.93757250814E-01  0.74761019276E-01  0.43811526881E-01  0.12930357019E+00  0.20501982649E-01 0.  0.
         14    1    1    2    0    0  0.10310916670E-01 -0.60457635084E-02  0.20264872569E-01  0.23527246316E-01  0.00000000000E+00 0. -1.
     999901    1    3    3    0    0 -0.10406816748E+00 -0.68715255768E-01 -0.64076399450E-01  0.89109918349E+00  0.88000000000E+00 0.  1.
        -11    1    4    4    0    0  0.14608209563E-01  0.44135783732E-02  0.17786029608E-02  0.15372183000E-01  0.51100000000E-03 0.  1.
         11    1    4    4    0    0  0.79149041252E-01  0.70347440903E-01  0.42032923920E-01  0.11393138719E+00  0.51100000000E-03 0. -1.
</event>
<event>
 8    1  0.1145101E+005  0.1043930E+01  0.7957747E-01            NaN
         13   -1    0    0    0    0  0.00000000000E+00  0.00000000000E+00  0.74505805969E-08  0.10566000000E+00  0.10566000000E+00 0. -1.
     999900   -1    0    0    0    0 -0.00000000000E+00 -0.00000000000E+00 -0.74505805969E-08  0.93827000000E+00  0.93827000000E+00 0. -1.
     999902    2    1    2    0    0  0.79307979312E-02  0.22788881892E-01  0.21014972770E-02  0.10197092035E+01  0.10194215088E+01 0.  0.
     999903    2    3    3    0    0 -0.57675548477E-01 -0.52129533729E-01 -0.10003789082E+00  0.12822200991E+00  0.19731878933E-01 0.  0.
         14    1    1    2    0    0 -0.79307979312E-02 -0.22788881892E-01 -0.21014972770E-02  0.24220796530E-01  0.00000000000E+00 0.  1.
     999901    1    3    3    0    0  0.65606346408E-01  0.74918415621E-01  0.10213938810E+00  0.89148719356E+00  0.88000000000E+00 0.  1.
        -11    1    4    4    0    0 -0.38069700941E-01 -0.41239160931E-01 -0.82331385243E-01  0.99642805265E-01  0.51100000000E-03 0.  1.
         11    1    4    4    0    0 -0.19605847535E-01 -0.10890372797E-01 -0.17706505575E-01  0.28579204641E-01  0.51100000000E-03 0. -1.
</event>
<event>
 8    1  0.1145101E+005  0.1043930E+01  0.7957747E-01            NaN
         13   -1    0    0    0    0  0.00000000000E+00  0.00000000000E+00  0.74505805969E-08  0.10566000000E+00  0.10566000000E+00 0. -1.
     999900   -1    0    0    0    0 -0.00000000000E+00 -0.00000000000E+00 -0.74505805969E-08  0.93827000000E+00  0.93827000000E+00 0. -1.
     999902    2    1    2    0    0  0.35789903523E-02  0.22796430290E-01  0.60101332251E-02  0.10200844950E+01  0.10198057506E+01 0.  0.
     999903    2    3    3    0    0 -0.62195331718E-01  0.82352890876E-01 -0.79023225329E-01  0.13154417208E+00  0.20222293230E-01 0.  0.
         14    1    1    2    0    0 -0.35789903523E-02 -0.22796430290E-01 -0.60101332251E-02  0.23845504970E-01  0.00000000000E+00 0.  1.
     999901    1    3    3    0    0  0.65774322070E-01 -0.59556460586E-01  0.85033358554E-01  0.88854032295E+00  0.88000000000E+00 0.  1.
        -11    1    4    4    0    0 -0.44023471643E-01  0.45989305471E-01 -0.56194947067E-01  0.84918875817E-01  0.51100000000E-03 0.  1.
         11    1    4    4    0    0 -0.18171860075E-01  0.36363585406E-01 -0.22828278262E-01  0.46625296262E-01  0.51100000000E-03 0. -1.
</event>
<event>
 8    1  0.1145101E+005  0.1043930E+01  0.7957747E-01            NaN
         13   -1    0    0    0    0  0.00000000000E+00  0.00000000000E+00  0.74505805969E-08  0.10566000000E+00  0.10566000000E+00 0. -1.
     999900   -1    0    0    0    0 -0.00000000000E+00 -0.00000000000E+00 -0.74505805969E-08  0.93827000000E+00  0.93827000000E+00 0. -1.
     999902    2    1    2    0    0  0.22954163567E-01  0.58091331046E-02 -0.77987836554E-03  0.10202393296E+01  0.10199642356E+01 0.  0.
     999903    2    3    3    0    0  0.55160134917E-01  0.85125341740E-01  0.82414047558E-01  0.13217992010E+00  0.19760864142E-01 0.  0.
         14    1    1    2    0    0 -0.22954163567E-01 -0.58091331046E-02  0.77987836554E-03  0.23690670374E-01  0.00000000000E+00 0.  1.
     999901    1    3    3    0    0 -0.32205971350E-01 -0.79316208635E-01 -0.83193925923E-01  0.88805940953E+00  0.88000000000E+00 0. -1.
        -11    1    4    4    0    0  0.27194933897E-01  0.56321150222E-01  0.42874914099E-01  0.75829781563E-01  0.51100000000E-03 0. -1.
         11    1    4    4    0    0  0.27965201020E-01  0.28804191518E-01  0.39539133459E-01  0.56350138534E-01  0.51100000000E-03 0.  1.
</event>
<event>
 8    1  0.1145101E+005  0.1043930E+01  0.7957747E-01            NaN
         13   -1    0    0    0    0  0.00000000000E+00  0.00000000000E+00  0.74505805969E-08  0.10566000000E+00  0.10566000000E+00 0.  1.
     999900   -1    0    0    0    0 -0.00000000000E+00 -0.00000000000E+00 -0.74505805969E-08  0.93827000000E+00  0.93827000000E+00 0. -1.
     999902    2    1    2    0    0 -0.15898644882E-01 -0.10085432063E-01  0.13375616916E-01  0.10208347629E+01  0.10205734776E+01 0.  0.
     999903    2    3    3    0    0 -0.10919398747E+00 -0.55699832386E-01  0.49991017351E-01  0.13397210047E+00  0.20582119933E-01 0.  0.
         14    1    1    2    0    0  0.15898644882E-01  0.10085432063E-01 -0.13375616916E-01  0.23095237104E-01  0.00000000000E+00 0. -1.
     999901    1    3    3    0    0  0.93295342584E-01  0.45614400323E-01 -0.36615400435E-01  0.88686266243E+00  0.88000000000E+00 0. -1.
        -11    1    4    4    0    0 -0.62842725027E-01 -0.20736221993E-01  0.28643256240E-01  0.72110306062E-01  0.51100000000E-03 0.  1.
         11    1    4    4    0    0 -0.46351262439E-01 -0.34963610393E-01  0.21347761111E-01  0.61861794404E-01  0.51100000000E-03 0. -1.
</event>
<event>
 8    1  0.1145101E+005  0.1043930E+01  0.7957747E-01            NaN
         13   -1    0    0    0    0  0.00000000000E+00  0.00000000000E+00  0.74505805969E-08  0.10566000000E+00  0.10566000000E+00 0.  1.
     999900   -1    0    0    0    0 -0.00000000000E+00 -0.00000000000E+00 -0.74505805969E-08  0.93827000000E+00  0.93827000000E+00 0. -1.
     999902    2    1    2    0    0 -0.14939664777E-01 -0.29168833581E-02 -0.17972719156E-01  0.10203774964E+01  0.10201056390E+01 0.  0.
     999903    2    3    3    0    0  0.10610279567E-01  0.44526121643E-02 -0.13078711566E+00  0.13277725013E+00  0.19802139782E-01 0.  0.
         14    1    1    2    0    0  0.14939664777E-01  0.29168833581E-02  0.17972719156E-01  0.23552503604E-01  0.00000000000E+00 0.  1.
     999901    1    3    3    0    0 -0.25549944344E-01 -0.73694955225E-02  0.11281439651E+00  0.88760024627E+00  0.88000000000E+00 0.  1.
        -11    1    4    4    0    0  0.80676470908E-02 -0.68806081308E-02 -0.46774142380E-01  0.47963644714E-01  0.51100000000E-03 0.  1.
         11    1    4    4    0    0  0.25426324763E-02  0.11333220295E-01 -0.84012973282E-01  0.84813605412E-01  0.51100000000E-03 0. -1.
</event>
<event>
 8    1  0.1145101E+005  0.1043930E+01  0.7957747E-01            NaN
         13   -1    0    0    0    0  0.00000000000E+00  0.00000000000E+00  0.74505805969E-08  0.10566000000E+00  0.10566000000E+00 0. -1.
     999900   -1    0    0    0    0 -0.00000000000E+00 -0.00000000000E+00 -0.74505805969E-08  0.93827000000E+00  0.93827000000E+00 0.  1.
     999902    2    1    2    0    0 -0.18929915752E-01  0.10456517306E-01 -0.92899896926E-02  0.10203931274E+01  0.10201216349E+01 0.  0.
     999903    2    3    3    0    0 -0.25611715538E-01  0.11842489023E+00  0.48284572117E-01  0.13190190841E+00  0.19654489054E-01 0.  0.
         14    1    1    2    0    0  0.18929915752E-01 -0.10456517306E-01  0.92899896926E-02  0.23536872627E-01  0.00000000000E+00 0. -1.
     999901    1    3    3    0    0  0.66817997862E-02 -0.10796837292E+00 -0.57574561810E-01  0.88849121896E+00  0.88000000000E+00 0.  1.
        -11    1    4    4    0    0 -0.21170005726E-01  0.10223104443E+00  0.33847133663E-01  0.10975083219E+00  0.51100000000E-03 0.  1.
         11    1    4    4    0    0 -0.44417098124E-02  0.16193845798E-01  0.14437438455E-01  0.22151076225E-01  0.51100000000E-03 0. -1.
</event>
<event>
 7    1  0.1145101E+005  0.1043930E+01  0.7957747E-01            NaN
         13   -1    0    0    0    0  0.00000000000E+00  0.00000000000E+00  0.74505805969E-08  0.10566000000E+00  0.10566000000E+00 0.  1.
     999900   -1    0    0    0    0 -0.00000000000E+00 -0.00000000000E+00 -0.74505805969E-08  0.93827000000E+00  0.93827000000E+00 0. -1.
     999902    2    1    2    0    0 -0.11744790769E-01  0.18654917122E-01  0.17156538700E-01  0.10159962773E+01  0.10156122009E+01 0.  0.
         14    1    1    2    0    0  0.11744790769E-01 -0.18654917122E-01 -0.17156538700E-01  0.27933722687E-01  0.00000000000E+00 0. -1.
     999901    1    3    3    0    0 -0.11210946840E+00 -0.28411810247E-01 -0.17920826524E-01  0.88774823001E+00  0.88000000000E+00 0.  1.
        -11    1    3    3    0    0  0.58466893967E-01  0.13234356829E-01  0.43052933387E-01  0.73806111434E-01  0.51100000000E-03 0. -1.
         11    1    3    3    0    0  0.41897783665E-01  0.33832370539E-01 -0.79755681632E-02  0.54441935866E-01  0.51100000000E-03 0.  1.
</event>
<event>
 8    1  0.1145101E+005  0.1043930E+01  0.7957747E-01            NaN
         13   -1    0    0    0    0  0.00000000000E+00  0.00000000000E+00  0.74505805969E-08  0.10566000000E+00  0.10566000000E+00 0. -1.
     999900   -1    0    0    0    0 -0.00000000000E+00 -0.00000000000E+00 -0.74505805969E-08  0.93827000000E+00  0.93827000000E+00 0. -1.
     999902    2    1    2    0    0 -0.49772922796E-02 -0.82536048081E-02 -0.21175222621E-01  0.10206644572E+01  0.10203992594E+01 0.  0.
     999903    2    3    3    0    0 -0.43291587919E-01 -0.63625480085E-01 -0.10771205142E+00  0.13385971396E+00  0.19853808156E-01 0.  0.
         14    1    1    2    0    0  0.49772922796E-02  0.82536048081E-02  0.21175222621E-01  0.23265542843E-01  0.00000000000E+00 0. -1.
     999901    1    3    3    0    0  0.38314295640E-01  0.55371875277E-01  0.86536828802E-01  0.88680474320E+00  0.88000000000E+00 0.  1.
        -11    1    4    4    0    0 -0.27942055973E-01 -0.54251034959E-01 -0.76820426723E-01  0.98110001371E-01  0.51100000000E-03 0.  1.
         11    1    4    4    0    0 -0.15349531947E-01 -0.93744451267E-02 -0.30891624699E-01  0.35749712586E-01  0.51100000000E-03 0. -1.
</event>
<event>
 8    1  0.1145101E+005  0.1043930E+01  0.7957747E-01            NaN
         13   -1    0    0    0    0  0.00000000000E+00  0.00000000000E+00  0.74505805969E-08  0.10566000000E+00  0.10566000000E+00 0.  1.
     999900   -1    0    0    0    0 -0.00000000000E+00 -0.00000000000E+00 -0.74505805969E-08  0.93827000000E+00  0.93827000000E+00 0. -1.
     999902    2    1    2    0    0 -0.44677558208E-02 -0.22791355756E-01  0.67108257396E-02  0.10197547664E+01  0.10194681661E+01 0.  0.
     999903    2    3    3    0    0  0.10681701351E+00 -0.69567809082E-02 -0.69856968563E-01  0.12930675510E+00  0.19544044638E-01 0.  0.
         14    1    1    2    0    0  0.44677558208E-02  0.22791355756E-01 -0.67108257396E-02  0.24175233637E-01  0.00000000000E+00 0. -1.
     999901    1    3    3    0    0 -0.11128476933E+00 -0.15834574848E-01  0.76567794302E-01  0.89044801127E+00  0.88000000000E+00 0.  1.
        -11    1    4    4    0    0  0.38234306258E-01  0.31711943631E-02 -0.33944756893E-01  0.51229154690E-01  0.51100000000E-03 0.  1.
         11    1    4    4    0    0  0.68582707252E-01 -0.10127975271E-01 -0.35912211669E-01  0.78077600406E-01  0.51100000000E-03 0. -1.
</event>
<event>
 8    1  0.1145101E+005  0.1043930E+01  0.7957747E-01            NaN
         13   -1    0    0    0    0  0.00000000000E+00  0.00000000000E+00  0.74505805969E-08  0.10566000000E+00  0.10566000000E+00 0.  1.
     999900   -1    0    0    0    0 -0.00000000000E+00 -0.00000000000E+00 -0.74505805969E-08  0.93827000000E+00  0.93827000000E+00 0.  1.
     999902    2    1    2    0    0 -0.32890038893E-02  0.11861147435E-01  0.21371786903E-01  0.10192671202E+01  0.10189686966E+01 0.  0.
     999903    2    3    3    0    0 -0.11875995445E+00  0.18244374732E-01  0.49007877961E-01  0.13127047631E+00  0.19833856344E-01 0.  0.
         14    1    1    2    0    0  0.32890038893E-02 -0.11861147435E-01 -0.21371786903E-01  0.24662879809E-01  0.00000000000E+00 0. -1.
     999901    1    3    3    0    0  0.11547095056E+00 -0.63832272968E-02 -0.27636091059E-01  0.88799664388E+00  0.88000000000E+00 0. -1.
        -11    1    4    4    0    0 -0.58850507524E-01  0.48397808662E-02  0.14348148426E-01  0.60769533476E-01  0.51100000000E-03 0.  1.
         11    1    4    4    0    0 -0.59909446928E-01  0.13404593866E-01  0.34659729536E-01  0.70500942834E-01  0.51100000000E-03 0. -1.
</event>
<event>
 8    1  0.1145101E+005  0.1043930E+01  0.7957747E-01            NaN
         13   -1    0    0    0    0  0.00000000000E+00  0.00000000000E+00  0.74505805969E-08  0.10566000000E+00  0.10566000000E+00 0.  1.
     999900   -1    0    0    0    0 -0.00000000000E+00 -0.00000000000E+00 -0.74505805969E-08  0.93827000000E+00  0.93827000000E+00 0.  1.
     999902    2    1    2    0    0  0.22990795266E-01  0.99503823767E-02 -0.32184376053E-03  0.10188762506E+01  0.10185681733E+01 0.  0.
     999903    2    3    3    0    0 -0.36868540846E-01  0.12155809663E+00 -0.17315520756E-01  0.12964725474E+00  0.19311220616E-01 0.  0.
         14    1    1    2    0    0 -0.22990795266E-01 -0.99503823767E-02  0.32184376053E-03  0.25053749416E-01  0.00000000000E+00 0.  1.
     999901    1    3    3    0    0  0.59859336112E-01 -0.11160771425E+00  0.16993676996E-01  0.88922899585E+00  0.88000000000E+00 0. -1.
        -11    1    4    4    0    0 -0.38343707674E-01  0.10834480858E+00 -0.17963920607E-01  0.11632626973E+00  0.51100000000E-03 0. -1.
         11    1    4    4    0    0  0.14751668283E-02  0.13213288044E-01  0.64839985096E-03  0.13320985004E-01  0.51100000000E-03 0.  1.
</event>
<event>
 8    1  0.1145101E+005  0.1043930E+01  0.7957747E-01            NaN
         13   -1    0    0    0    0  0.00000000000E+00  0.00000000000E+00  0.74505805969E-08  0.10566000000E+00  0.10566000000E+00 0.  1.
     999900   -1    0    0    0    0 -0.00000000000E+00 -0.00000000000E+00 -0.74505805969E-08  0.93827000000E+00  0.93827000000E+00 0. -1.
     999902    2    1    2    0    0 -0.23011180076E-01 -0.41477986145E-02  0.42055054980E-02  0.10201727923E+01  0.10198961326E+01 0.  0.
     999903    2    3    3    0    0  0.40457073646E-01  0.26146426522E-01 -0.11789965925E+00  0.12896258669E+00  0.20263481575E-01 0.  0.
         14    1    1    2    0    0  0.23011180076E-01  0.41477986145E-02 -0.42055054980E-02  0.23757207713E-01  0.00000000000E+00 0.  1.
     999901    1    3    3    0    0 -0.63468253722E-01 -0.30294225136E-01  0.12210516475E+00  0.89121020560E+00  0.88000000000E+00 0.  1.
        -11    1    4    4    0    0  0.18412970538E-01  0.23309058190E-01 -0.60296918894E-01  0.67218518481E-01  0.51100000000E-03 0.  1.
         11    1    4    4    0    0  0.22044103108E-01  0.28373683320E-02 -0.57602740358E-01  0.61744068206E-01  0.51100000000E-03 0. -1.
</event>
<event>
 8    1  0.1280972E+005  0.1043930E+01  0.7957747E-01            NaN
         13   -1    0    0    0    0  0.00000000000E+00  0.00000000000E+00  0.74505805969E-08  0.10566000000E+00  0.10566000000E+00 0. -1.
     999900   -1    0    0    0    0 -0.00000000000E+00 -0.00000000000E+00 -0.74505805969E-08  0.93827000000E+00  0.93827000000E+00 0.  1.
     999902    2    1    2    0    0  0.17095844989E-01 -0.18624717287E-01  0.86261182643E-02  0.10172174949E+01  0.10168666944E+01 0.  0.
     999903    2    3    3    0    0 -0.70432087875E-01 -0.53622097129E-01  0.90468408155E-01  0.12840698868E+00  0.21628998263E-01 0.  0.
         14    1    1    2    0    0 -0.17095844989E-01  0.18624717287E-01 -0.86261182643E-02  0.26712505054E-01  0.00000000000E+00 0. -1.
     999901    1    3    3    0    0  0.87527932864E-01  0.34997379841E-01 -0.81842289891E-01  0.88881050626E+00  0.88000000000E+00 0.  1.
        -11    1    4    4    0    0 -0.50737978505E-01 -0.25730356567E-01  0.59213333991E-01  0.82115003229E-01  0.51100000000E-03 0.  1.
         11    1    4    4    0    0 -0.19694109370E-01 -0.27891740562E-01  0.31255074164E-01  0.46291985456E-01  0.51100000000E-03 0. -1.
</event>
<event>
 8    1  0.1145101E+005  0.1043930E+01  0.7957747E-01            NaN
         13   -1    0    0    0    0  0.00000000000E+00  0.00000000000E+00  0.74505805969E-08  0.10566000000E+00  0.10566000000E+00 0. -1.
     999900   -1    0    0    0    0 -0.00000000000E+00 -0.00000000000E+00 -0.74505805969E-08  0.93827000000E+00  0.93827000000E+00 0. -1.
     999902    2    1    2    0    0 -0.21626847787E-01  0.20777751128E-02  0.90900358868E-02  0.10203786424E+01  0.10201068117E+01 0.  0.
     999903    2    3    3    0    0  0.16742818831E-01  0.11310471279E+00 -0.58311823335E-01  0.13001791611E+00  0.20769971885E-01 0.  0.
         14    1    1    2    0    0  0.21626847787E-01 -0.20777751128E-02 -0.90900358868E-02  0.23551357648E-01  0.00000000000E+00 0. -1.
     999901    1    3    3    0    0 -0.38369666619E-01 -0.11102693767E+00  0.67401859222E-01  0.89036072624E+00  0.88000000000E+00 0.  1.
        -11    1    4    4    0    0  0.63237495828E-02  0.39971177636E-01 -0.32014741974E-01  0.51603194427E-01  0.51100000000E-03 0. -1.
         11    1    4    4    0    0  0.10419069249E-01  0.73133535151E-01 -0.26297081362E-01  0.78414721684E-01  0.51100000000E-03 0.  1.
</event>
<event>
 8    1  0.1145101E+005  0.1043930E+01  0.7957747E-01            NaN
         13   -1    0    0    0    0  0.00000000000E+00  0.00000000000E+00  0.74505805969E-08  0.10566000000E+00  0.10566000000E+00 0. -1.
     999900   -1    0    0    0    0 -0.00000000000E+00 -0.00000000000E+00 -0.74505805969E-08  0.93827000000E+00  0.93827000000E+00 0.  1.
     999902    2    1    2    0    0 -0.10818982288E-01 -0.15590861009E-01 -0.17301663438E-01  0.10182497959E+01  0.10179259177E+01 0.  0.
     999903    2    3    3    0    0 -0.11375527758E+00 -0.13715406183E-02  0.57338267440E-01  0.12899775669E+00  0.20263267671E-01 0.  0.
         14    1    1    2    0    0  0.10818982288E-01  0.15590861009E-01  0.17301663438E-01  0.25680204097E-01  0.00000000000E+00 0. -1.
     999901    1    3    3    0    0  0.10293629529E+00 -0.14219320391E-01 -0.74639930878E-01  0.88925203921E+00  0.88000000000E+00 0.  1.
        -11    1    4    4    0    0 -0.25088996287E-01 -0.87289377408E-03  0.22548542895E-01  0.33747853056E-01  0.51100000000E-03 0. -1.
         11    1    4    4    0    0 -0.88666281296E-01 -0.49864684418E-03  0.34789724545E-01  0.95249903634E-01  0.51100000000E-03 0.  1.
</event>
<event>
 8    1  0.1145101E+005  0.1043930E+01  0.7957747E-01            NaN
         13   -1    0    0    0    0  0.00000000000E+00  0.00000000000E+00  0.74505805969E-08  0.10566000000E+00  0.10566000000E+00 0. -1.
     999900   -1    0    0    0    0 -0.00000000000E+00 -0.00000000000E+00 -0.74505805969E-08  0.93827000000E+00  0.93827000000E+00 0.  1.
     999902    2    1    2    0    0 -0.62661865202E-02  0.18619556620E-01  0.13905751327E-01  0.10198608724E+01  0.10195768123E+01 0.  0.
     999903    2    3    3    0    0 -0.23364780839E-01  0.89394795223E-01  0.93948756724E-01  0.13323334125E+00  0.19682782677E-01 0.  0.
         14    1    1    2    0    0  0.62661865202E-02 -0.18619556620E-01 -0.13905751327E-01  0.24069127574E-01  0.00000000000E+00 0.  1.
     999901    1    3    3    0    0  0.17098594318E-01 -0.70775238603E-01 -0.80043005398E-01  0.88662753118E+00  0.88000000000E+00 0.  1.
        -11    1    4    4    0    0 -0.41719179741E-02  0.43498500623E-01  0.34258664671E-01  0.55528746448E-01  0.51100000000E-03 0. -1.
         11    1    4    4    0    0 -0.19192862865E-01  0.45896294599E-01  0.59690092054E-01  0.77704594801E-01  0.51100000000E-03 0.  1.
</event>
<event>
 8    1  0.1145101E+005  0.1043930E+01  0.7957747E-01            NaN
         13   -1    0    0    0    0  0.00000000000E+00  0.00000000000E+00  0.74505805969E-08  0.10566000000E+00  0.10566000000E+00 0.  1.
     999900   -1    0    0    0    0 -0.00000000000E+00 -0.00000000000E+00 -0.74505805969E-08  0.93827000000E+00  0.93827000000E+00 0.  1.
     999902    2    1    2    0    0 -0.11106410159E-02 -0.20024767049E-01 -0.11265014224E-01  0.10209272749E+01  0.10206681024E+01 0.  0.
     999903    2    3    3    0    0 -0.34986707750E-02 -0.10578868303E+00 -0.79756554495E-01  0.13410584803E+00  0.20488639223E-01 0.  0.
         14    1    1    2    0    0  0.11106410159E-02  0.20024767049E-01  0.11265014224E-01  0.23002725150E-01  0.00000000000E+00 0.  1.
     999901    1    3    3    0    0  0.23880297592E-02  0.85763915983E-01  0.68491540271E-01  0.88682142682E+00  0.88000000000E+00 0. -1.
        -11    1    4    4    0    0 -0.55213047825E-02 -0.76691250070E-01 -0.46460519213E-01  0.89838040998E-01  0.51100000000E-03 0.  1.
         11    1    4    4    0    0  0.20226340074E-02 -0.29097432962E-01 -0.33296035282E-01  0.44267807037E-01  0.51100000000E-03 0. -1.
</event>
<event>
 7    1  0.1145101E+005  0.1043930E+01  0.7957747E-01            NaN
         13   -1    0    0    0    0  0.00000000000E+00  0.00000000000E+00  0.74505805969E-08  0.10566000000E+00  0.10566000000E+00 0.  1.
     999900   -1    0    0    0    0 -0.00000000000E+00 -0.00000000000E+00 -0.74505805969E-08  0.93827000000E+00  0.93827000000E+00 0. -1.
     999902    2    1    2    0    0 -0.13586414478E-01 -0.66047082531E-02 -0.19134499372E-01  0.10195508717E+01  0.10192593576E+01 0.  0.
         14    1    1    2    0    0  0.13586414478E-01  0.66047082531E-02  0.19134499372E-01  0.24379128279E-01  0.00000000000E+00 0. -1.
     999901    1    3    3    0    0 -0.83874046829E-01 -0.93704587677E-01 -0.53963586000E-01  0.89057704557E+00  0.88000000000E+00 0. -1.
        -11    1    3    3    0    0  0.67173767050E-01  0.52281540430E-01  0.39246432951E-01  0.93734828478E-01  0.51100000000E-03 0.  1.
         11    1    3    3    0    0  0.31138653013E-02  0.34818338994E-01 -0.44173463220E-02  0.35238997672E-01  0.51100000000E-03 0. -1.
</event>
<event>
 8    1  0.1145101E+005  0.1043930E+01  0.7957747E-01            NaN
         13   -1    0    0    0    0  0.00000000000E+00  0.00000000000E+00  0.74505805969E-08  0.10566000000E+00  0.10566000000E+00 0.  1.
     999900   -1    0    0    0    0 -0.00000000000E+00 -0.00000000000E+00 -0.74505805969E-08  0.93827000000E+00  0.93827000000E+00 0.  1.
     999902    2    1    2    0    0  0.27282806594E-02 -0.76313908961E-02 -0.17533419388E-01  0.10246141403E+01  0.10244320543E+01 0.  0.
     999903    2    3    3    0    0  0.16982760409E-01 -0.55462810651E-01  0.11737026151E+00  0.13293592586E+00  0.23057419179E-01 0.  0.
         14    1    1    2    0    0 -0.27282806594E-02  0.76313908961E-02  0.17533419388E-01  0.19315859748E-01  0.00000000000E+00 0.  1.
     999901    1    3    3    0    0 -0.14254479750E-01  0.47831419755E-01 -0.13490368090E+00  0.89167821440E+00  0.88000000000E+00 0.  1.
        -11    1    4    4    0    0 -0.51336754364E-02 -0.18254582614E-01  0.40285956401E-01  0.44528685294E-01  0.51100000000E-03 0.  1.
         11    1    4    4    0    0  0.22116435845E-01 -0.37208228038E-01  0.77084305111E-01  0.88407240562E-01  0.51100000000E-03 0. -1.
</event>
<event>
 8    1  0.1145101E+005  0.1043930E+01  0.7957747E-01            NaN
         13   -1    0    0    0    0  0.00000000000E+00  0.00000000000E+00  0.74505805969E-08  0.10566000000E+00  0.10566000000E+00 0.  1.
     999900   -1    0    0    0    0 -0.00000000000E+00 -0.00000000000E+00 -0.74505805969E-08  0.93827000000E+00  0.93827000000E+00 0.  1.
     999902    2    1    2    0    0  0.16406785362E-01  0.84018453059E-02  0.11027772587E-01  0.10224501169E+01  0.10222244647E+01 0.  0.
     999903    2    3    3    0    0 -0.46240006140E-01 -0.55418477122E-01 -0.10647946051E+00  0.13014657891E+00  0.19771462210E-01 0.  0.
         14    1    1    2    0    0 -0.16406785362E-01 -0.84018453059E-02 -0.11027772587E-01  0.21479883117E-01  0.00000000000E+00 0. -1.
     999901    1    3    3    0    0  0.62646791502E-01  0.63820322427E-01  0.11750723310E+00  0.89230353797E+00  0.88000000000E+00 0. -1.
        -11    1    4    4    0    0 -0.34639242421E-01 -0.26801360323E-01 -0.66486136262E-01  0.79616942083E-01  0.51100000000E-03 0. -1.
         11    1    4    4    0    0 -0.11600763719E-01 -0.28617116799E-01 -0.39993324250E-01  0.50529636832E-01  0.51100000000E-03 0.  1.
</event>
<event>
 8    1  0.1145101E+005  0.1043930E+01  0.7957747E-01            NaN
         13   -1    0    0    0    0  0.00000000000E+00  0.00000000000E+00  0.74505805969E-08  0.10566000000E+00  0.10566000000E+00 0.  1.
     999900   -1    0    0    0    0 -0.00000000000E+00 -0.00000000000E+00 -0.74505805969E-08  0.93827000000E+00  0.93827000000E+00 0. -1.
     999902    2    1    2    0    0 -0.21419499878E-01 -0.79833059948E-02 -0.50972470157E-02  0.10205097080E+01  0.10202409294E+01 0.  0.
     999903    2    3    3    0    0  0.34252118711E-01 -0.12008703538E+00  0.33160484508E-01  0.13082986151E+00  0.20560428680E-01 0.  0.
         14    1    1    2    0    0  0.21419499878E-01  0.79833059948E-02  0.50972470157E-02  0.23420291987E-01  0.00000000000E+00 0. -1.
     999901    1    3    3    0    0 -0.55671618589E-01  0.11210372938E+00 -0.38257731524E-01  0.88967984651E+00  0.88000000000E+00 0. -1.
        -11    1    4    4    0    0  0.12593005671E-01 -0.76211462106E-01  0.25202582963E-01  0.81253935641E-01  0.51100000000E-03 0.  1.
         11    1    4    4    0    0  0.21659113040E-01 -0.43875573270E-01  0.79579015455E-02  0.49575925866E-01  0.51100000000E-03 0. -1.
</event>
<event>
 8    1  0.1145101E+005  0.1043930E+01  0.7957747E-01            NaN
         13   -1    0    0    0    0  0.00000000000E+00  0.00000000000E+00  0.74505805969E-08  0.10566000000E+00  0.10566000000E+00 0. -1.
     999900   -1    0    0    0    0 -0.00000000000E+00 -0.00000000000E+00 -0.74505805969E-08  0.93827000000E+00  0.93827000000E+00 0.  1.
     999902    2    1    2    0    0  0.24964701488E-02  0.81827007501E-02 -0.21888638318E-01  0.10204289055E+01  0.10201582474E+01 0.  0.
     999903    2    3    3    0    0  0.70530866418E-01 -0.43268576712E-01 -0.10191738185E+00  0.13268991638E+00  0.19305137585E-01 0.  0.
         14    1    1    2    0    0 -0.24964701488E-02 -0.81827007501E-02  0.21888638318E-01  0.23501094490E-01  0.00000000000E+00 0. -1.
     999901    1    3    3    0    0 -0.68034396269E-01  0.51451277462E-01  0.80028743535E-01  0.88773898913E+00  0.88000000000E+00 0. -1.
        -11    1    4    4    0    0  0.21278109839E-01 -0.19779723944E-01 -0.24696327697E-01  0.38133517544E-01  0.51100000000E-03 0. -1.
         11    1    4    4    0    0  0.49252756579E-01 -0.23488852768E-01 -0.77221054157E-01  0.94556398837E-01  0.51100000000E-03 0.  1.
</event>
<event>
 8    1  0.1145101E+005  0.1043930E+01  0.7957747E-01            NaN
         13   -1    0    0    0    0  0.00000000000E+00  0.00000000000E+00  0.74505805969E-08  0.10566000000E+00  0.10566000000E+00 0. -1.
     999900   -1    0    0    0    0 -0.00000000000E+00 -0.00000000000E+00 -0.74505805969E-08  0.93827000000E+00  0.93827000000E+00 0.  1.
     999902    2    1    2    0    0  0.83734425384E-02 -0.22630345755E-01 -0.91583052145E-02  0.10181206675E+01  0.10177934820E+01 0.  0.
     999903    2    3    3    0    0  0.22062017264E-01  0.65675562427E-01 -0.10605162787E+00  0.12830404232E+00  0.20370748544E-01 0.  0.
         14    1    1    2    0    0 -0.83734425384E-02  0.22630345755E-01  0.91583052145E-02  0.25809332485E-01  0.00000000000E+00 0. -1.
     999901    1    3    3    0    0 -0.13688574726E-01 -0.88305908181E-01  0.96893322655E-01  0.88981662519E+00  0.88000000000E+00 0. -1.
        -11    1    4    4    0    0  0.20677948501E-03  0.30781554021E-01 -0.50720354919E-01  0.59332641521E-01  0.51100000000E-03 0.  1.
         11    1    4    4    0    0  0.21855237779E-01  0.34894008406E-01 -0.55331272950E-01  0.68971400800E-01  0.51100000000E-03 0. -1.
</event>
<event>
 8    1  0.1145101E+005  0.1043930E+01  0.7957747E-01            NaN
         13   -1    0    0    0    0  0.00000000000E+00  0.00000000000E+00  0.74505805969E-08  0.10566000000E+00  0.10566000000E+00 0.  1.
     999900   -1    0    0    0    0 -0.00000000000E+00 -0.00000000000E+00 -0.74505805969E-08  0.93827000000E+00  0.93827000000E+00 0.  1.
     999902    2    1    2    0    0  0.16009123710E-01  0.12501088212E-01 -0.16618145904E-01  0.10176862956E+01  0.10173478580E+01 0.  0.
     999903    2    3    3    0    0 -0.30792865452E-01  0.12043440631E+00 -0.24513964952E-01  0.12982235820E+00  0.28288927598E-01 0.  0.
         14    1    1    2    0    0 -0.16009123710E-01 -0.12501088212E-01  0.16618145904E-01  0.26243704421E-01  0.00000000000E+00 0.  1.
     999901    1    3    3    0    0  0.46801989162E-01 -0.10793331810E+00  0.78958190477E-02  0.88786393738E+00  0.88000000000E+00 0. -1.
        -11    1    4    4    0    0 -0.24635127612E-02  0.28765230072E-01  0.52820384665E-02  0.29354188928E-01  0.51100000000E-03 0.  1.
         11    1    4    4    0    0 -0.28329352691E-01  0.91669176236E-01 -0.29796003418E-01  0.10046816927E+00  0.51100000000E-03 0. -1.
</event>
<event>
 8    1  0.1145101E+005  0.1043930E+01  0.7957747E-01            NaN
         13   -1    0    0    0    0  0.00000000000E+00  0.00000000000E+00  0.74505805969E-08  0.10566000000E+00  0.10566000000E+00 0. -1.
     999900   -1    0    0    0    0 -0.00000000000E+00 -0.00000000000E+00 -0.74505805969E-08  0.93827000000E+00  0.93827000000E+00 0.  1.
     999902    2    1    2    0    0 -0.26145959380E-02  0.23360051108E-01  0.15822405604E-02  0.10203708917E+01  0.10200988800E+01 0.  0.
     999903    2    3    3    0    0 -0.68479071063E-01 -0.88058789464E-01 -0.61085367544E-01  0.12869857730E+00  0.19701982042E-01 0.  0.
         14    1    1    2    0    0  0.26145959380E-02 -0.23360051108E-01 -0.15822405604E-02  0.23559108321E-01  0.00000000000E+00 0. -1.
     999901    1    3    3    0    0  0.65864475125E-01  0.11141884057E+00  0.62667608104E-01  0.89167231438E+00  0.88000000000E+00 0.  1.
        -11    1    4    4    0    0 -0.77793020646E-02 -0.32299881812E-02 -0.81223230531E-02  0.11712541016E-01  0.51100000000E-03 0. -1.
         11    1    4    4    0    0 -0.60699768999E-01 -0.84828801283E-01 -0.52963044491E-01  0.11698603629E+00  0.51100000000E-03 0.  1.
</event>
<event>
 8    1  0.1145101E+005  0.1043930E+01  0.7957747E-01            NaN
         13   -1    0    0    0    0  0.00000000000E+00  0.00000000000E+00  0.74505805969E-08  0.10566000000E+00  0.10566000000E+00 0.  1.
     999900   -1    0    0    0    0 -0.00000000000E+00 -0.00000000000E+00 -0.74505805969E-08  0.93827000000E+00  0.93827000000E+00 0. -1.
     999902    2    1    2    0    0 -0.68713617439E-05  0.22472471012E-01  0.84597415087E-02  0.10199179358E+01  0.10196352370E+01 0.  0.
     999903    2    3    3    0    0  0.86572146132E-01  0.41513686145E-01  0.87840235158E-01  0.13190906371E+00  0.21586374243E-01 0.  0.
         14    1    1    2    0    0  0.68713617439E-05 -0.22472471012E-01 -0.84597415087E-02  0.24012064197E-01  0.00000000000E+00 0.  1.
     999901    1    3    3    0    0 -0.86579017494E-01 -0.19041215133E-01 -0.79380493649E-01  0.88800887209E+00  0.88000000000E+00 0. -1.
        -11    1    4    4    0    0  0.64275243616E-01  0.19763957096E-01  0.59228517632E-01  0.89611379656E-01  0.51100000000E-03 0.  1.
         11    1    4    4    0    0  0.22296902516E-01  0.21749729050E-01  0.28611717526E-01  0.42297684054E-01  0.51100000000E-03 0. -1.
</event>
<event>
 8    1  0.1145101E+005  0.1043930E+01  0.7957747E-01            NaN
         13   -1    0    0    0    0  0.00000000000E+00  0.00000000000E+00  0.74505805969E-08  0.10566000000E+00  0.10566000000E+00 0.  1.
     999900   -1    0    0    0    0 -0.00000000000E+00 -0.00000000000E+00 -0.74505805969E-08  0.93827000000E+00  0.93827000000E+00 0.  1.
     999902    2    1    2    0    0 -0.30525810005E-03 -0.16744002543E-01  0.16810240692E-01  0.10202015572E+01  0.10199255749E+01 0.  0.
     999903    2    3    3    0    0 -0.10096274905E+00  0.35086856161E-03  0.82743544562E-01  0.13184838104E+00  0.18544584470E-01 0.  0.
         14    1    1    2    0    0  0.30525810005E-03  0.16744002543E-01 -0.16810240692E-01  0.23728442760E-01  0.00000000000E+00 0. -1.
     999901    1    3    3    0    0  0.10065749095E+00 -0.17094871105E-01 -0.65933303870E-01  0.88835317620E+00  0.88000000000E+00 0.  1.
        -11    1    4    4    0    0 -0.33891257845E-01  0.85435880443E-02  0.25157088557E-01  0.43066814146E-01  0.51100000000E-03 0.  1.
         11    1    4    4    0    0 -0.67071491201E-01 -0.81927194827E-02  0.57586456005E-01  0.88781566896E-01  0.51100000000E-03 0. -1.
</event>
<event>
 8    1  0.1145101E+005  0.1043930E+01  0.7957747E-01            NaN
         13   -1    0    0    0    0  0.00000000000E+00  0.00000000000E+00  0.74505805969E-08  0.10566000000E+00  0.10566000000E+00 0.  1.
     999900   -1    0    0    0    0 -0.00000000000E+00 -0.00000000000E+00 -0.74505805969E-08  0.93827000000E+00  0.93827000000E+00 0.  1.
     999902    2    1    2    0    0  0.18371969421E-01 -0.53261388316E-02 -0.12174404129E-01  0.10212559370E+01  0.10210041997E+01 0.  0.
     999903    2    3    3    0    0  0.26813482330E-01 -0.30949082646E-01 -0.12546956197E+00  0.13358280622E+00  0.20614232579E-01 0.  0.
         14    1    1    2    0    0 -0.18371969421E-01  0.53261388316E-02  0.12174404129E-01  0.22674062961E-01  0.00000000000E+00 0.  1.
     999901    1    3    3    0    0 -0.84415129085E-02  0.25622943814E-01  0.11329515784E+00  0.88767313082E+00  0.88000000000E+00 0. -1.
        -11    1    4    4    0    0  0.23441973998E-01 -0.18807309744E-01 -0.62369692775E-01  0.69234967629E-01  0.51100000000E-03 0. -1.
         11    1    4    4    0    0  0.33715083318E-02 -0.12141772902E-01 -0.63099869196E-01  0.64347838590E-01  0.51100000000E-03 0.  1.
</event>
<event>
 8    1  0.1145101E+005  0.1043930E+01  0.7957747E-01            NaN
         13   -1    0    0    0    0  0.00000000000E+00  0.00000000000E+00  0.74505805969E-08  0.10566000000E+00  0.10566000000E+00 0.  1.
     999900   -1    0    0    0    0 -0.00000000000E+00 -0.00000000000E+00 -0.74505805969E-08  0.93827000000E+00  0.93827000000E+00 0. -1.
     999902    2    1    2    0    0  0.13960737352E-01  0.34607391826E-02 -0.17942508204E-01  0.10209340764E+01  0.10206750589E+01 0.  0.
     999903    2    3    3    0    0 -0.94137801390E-01 -0.69144237820E-01 -0.54466358849E-01  0.13060224585E+00  0.21154458178E-01 0.  0.
         14    1    1    2    0    0 -0.13960737352E-01 -0.34607391826E-02  0.17942508204E-01  0.22995923633E-01  0.00000000000E+00 0.  1.
     999901    1    3    3    0    0  0.10809853874E+00  0.72604977003E-01  0.36523850645E-01  0.89033183052E+00  0.88000000000E+00 0. -1.
        -11    1    4    4    0    0 -0.77215719947E-01 -0.46193977442E-01 -0.38037420408E-01  0.97689597354E-01  0.51100000000E-03 0.  1.
         11    1    4    4    0    0 -0.16922081442E-01 -0.22950260379E-01 -0.16428938440E-01  0.32912648497E-01  0.51100000000E-03 0. -1.
</event>
<event>
 8    1  0.1145101E+005  0.1043930E+01  0.7957747E-01            NaN
         13   -1    0    0    0    0  0.00000000000E+00  0.00000000000E+00  0.74505805969E-08  0.10566000000E+00  0.10566000000E+00 0.  1.
     999900   -1    0    0    0    0 -0.00000000000E+00 -0.00000000000E+00 -0.74505805969E-08  0.93827000000E+00  0.93827000000E+00 0.  1.
     999902    2    1    2    0    0 -0.69135783006E-02  0.23113664114E-01  0.25563044598E-02  0.10196694615E+01  0.10193808106E+01 0.  0.
     999903    2    3    3    0    0  0.11483818958E+00  0.30818480452E-01  0.48639769637E-01  0.13005912947E+00  0.20296833364E-01 0.  0.
         14    1    1    2    0    0  0.69135783006E-02 -0.23113664114E-01 -0.25563044598E-02  0.24260538456E-01  0.00000000000E+00 0. -1.
     999901    1    3    3    0    0 -0.12175176788E+00 -0.77048163383E-02 -0.46083465178E-01  0.88961033208E+00  0.88000000000E+00 0.  1.
        -11    1    4    4    0    0  0.49350836010E-01  0.21894562174E-01  0.27977327057E-01  0.60810104572E-01  0.51100000000E-03 0.  1.
         11    1    4    4    0    0  0.65487353566E-01  0.89239182775E-02  0.20662442580E-01  0.69249024895E-01  0.51100000000E-03 0. -1.
</event>
<event>
 8    1  0.1145101E+005  0.1043930E+01  0.7957747E-01            NaN
         13   -1    0    0    0    0  0.00000000000E+00  0.00000000000E+00  0.74505805969E-08  0.10566000000E+00  0.10566000000E+00 0.  1.
     999900   -1    0    0    0    0 -0.00000000000E+00 -0.00000000000E+00 -0.74505805969E-08  0.93827000000E+00  0.93827000000E+00 0.  1.
     999902    2    1    2    0    0  0.15373163385E-01  0.15819838576E-01  0.79342410451E-02  0.10204874399E+01  0.10202181440E+01 0.  0.
     999903    2    3    3    0    0  0.22843376758E-01 -0.12296294435E+00 -0.24710821733E-01  0.12898187900E+00  0.19595786658E-01 0.  0.
         14    1    1    2    0    0 -0.15373163385E-01 -0.15819838576E-01 -0.79342410451E-02  0.23442560142E-01  0.00000000000E+00 0. -1.
     999901    1    3    3    0    0 -0.74702133724E-02  0.13878278292E+00  0.32645062778E-01  0.89150556086E+00  0.88000000000E+00 0. -1.
        -11    1    4    4    0    0  0.14721897460E-01 -0.31722270431E-01 -0.59671161936E-02  0.35481041455E-01  0.51100000000E-03 0.  1.
         11    1    4    4    0    0  0.81214792984E-02 -0.91240673915E-01 -0.18743705539E-01  0.93500837541E-01  0.51100000000E-03 0. -1.
</event>
<event>
 8    1  0.1145101E+005  0.1043930E+01  0.7957747E-01            NaN
         13   -1    0    0    0    0  0.00000000000E+00  0.00000000000E+00  0.74505805969E-08  0.10566000000E+00  0.10566000000E+00 0.  1.
     999900   -1    0    0    0    0 -0.00000000000E+00 -0.00000000000E+00 -0.74505805969E-08  0.93827000000E+00  0.93827000000E+00 0.  1.
     999902    2    1    2    0    0 -0.31485584471E-02 -0.17044592876E-01  0.16794094899E-01  0.10197955186E+01  0.10195098953E+01 0.  0.
     999903    2    3    3    0    0  0.55994688904E-01 -0.69759598073E-03  0.11770924250E+00  0.13190531427E+00  0.20190451665E-01 0.  0.
         14    1    1    2    0    0  0.31485584471E-02  0.17044592876E-01 -0.16794094899E-01  0.24134481351E-01  0.00000000000E+00 0. -1.
     999901    1    3    3    0    0 -0.59143247351E-01 -0.16346996895E-01 -0.10091514760E+00  0.88789020438E+00  0.88000000000E+00 0.  1.
        -11    1    4    4    0    0  0.20466482372E-01  0.94743215313E-02  0.45772365457E-01  0.51029503522E-01  0.51100000000E-03 0.  1.
         11    1    4    4    0    0  0.35528206532E-01 -0.10171917512E-01  0.71936877039E-01  0.80875810750E-01  0.51100000000E-03 0. -1.
</event>
<event>
 8    1  0.1145101E+005  0.1043930E+01  0.7957747E-01            NaN
         13   -1    0    0    0    0  0.00000000000E+00  0.00000000000E+00  0.74505805969E-08  0.10566000000E+00  0.10566000000E+00 0.  1.
     999900   -1    0    0    0    0 -0.00000000000E+00 -0.00000000000E+00 -0.74505805969E-08  0.93827000000E+00  0.93827000000E+00 0. -1.
     999902    2    1    2    0    0  0.12177414584E-01 -0.86791558885E-02  0.18437922713E-01  0.10201902829E+01  0.10199140352E+01 0.  0.
     999903    2    3    3    0    0  0.15414916542E-01 -0.12826428684E+00 -0.13970534788E-01  0.13150507821E+00  0.20225301495E-01 0.  0.
         14    1    1    2    0    0 -0.12177414584E-01  0.86791558885E-02 -0.18437922713E-01  0.23739717076E-01  0.00000000000E+00 0.  1.
     999901    1    3    3    0    0 -0.32375019582E-02  0.11958513095E+00  0.32408457501E-01  0.88868520472E+00  0.88000000000E+00 0.  1.
        -11    1    4    4    0    0  0.89027085850E-02 -0.29415640248E-01  0.34154599393E-02  0.30926761857E-01  0.51100000000E-03 0.  1.
         11    1    4    4    0    0  0.65122079573E-02 -0.98848646596E-01 -0.17385994727E-01  0.10057831635E+00  0.51100000000E-03 0. -1.
</event>
<event>
 8    1  0.1145101E+005  0.1043930E+01  0.7957747E-01            NaN
         13   -1    0    0    0    0  0.00000000000E+00  0.00000000000E+00  0.74505805969E-08  0.10566000000E+00  0.10566000000E+00 0.  1.
     999900   -1    0    0    0    0 -0.00000000000E+00 -0.00000000000E+00 -0.74505805969E-08  0.93827000000E+00  0.93827000000E+00 0.  1.
     999902    2    1    2    0    0 -0.19889976188E-01  0.60325457391E-02  0.51668190071E-02  0.10225127458E+01  0.10222884214E+01 0.  0.
     999903    2    3    3    0    0 -0.42022001637E-01 -0.38172398843E-01 -0.11805659855E+00  0.13255324425E+00  0.20248986303E-01 0.  0.
         14    1    1    2    0    0  0.19889976188E-01 -0.60325457391E-02 -0.51668190071E-02  0.21417254248E-01  0.00000000000E+00 0. -1.
     999901    1    3    3    0    0  0.22132025449E-01  0.44204944582E-01  0.12322341755E+00  0.88995950150E+00  0.88000000000E+00 0. -1.
        -11    1    4    4    0    0 -0.35678159200E-01 -0.39967724019E-01 -0.10714532015E+00  0.11979453560E+00  0.51100000000E-03 0. -1.
         11    1    4    4    0    0 -0.63438424375E-02  0.17953251764E-02 -0.10911278393E-01  0.12758708654E-01  0.51100000000E-03 0.  1.
</event>
<event>
 7    1  0.1145101E+005  0.1043930E+01  0.7957747E-01            NaN
         13   -1    0    0    0    0  0.00000000000E+00  0.00000000000E+00  0.74505805969E-08  0.10566000000E+00  0.10566000000E+00 0. -1.
     999900   -1    0    0    0    0 -0.00000000000E+00 -0.00000000000E+00 -0.74505805969E-08  0.93827000000E+00  0.93827000000E+00 0.  1.
     999903    2    1    2    0    0 -0.86331071032E-01  0.65458827825E-01  0.16646034937E-01  0.11151115568E+00  0.20487444862E-01 0.  0.
         14    1    1    2    0    0  0.40386169268E-01  0.22668818547E-01 -0.64935052297E-02  0.46766265754E-01  0.00000000000E+00 0. -1.
     999901    1    1    2    0    0  0.45944901764E-01 -0.88127646372E-01 -0.10152529708E-01  0.88565257856E+00  0.88000000000E+00 0.  1.
        -11    1    3    3    0    0 -0.82364458379E-01  0.57611597782E-01  0.19218007417E-01  0.10233568846E+00  0.51100000000E-03 0. -1.
         11    1    3    3    0    0 -0.39666126538E-02  0.78472300428E-02 -0.25719724799E-02  0.91754672212E-02  0.51100000000E-03 0.  1.
</event>
<event>
 8    1  0.1145101E+005  0.1043930E+01  0.7957747E-01            NaN
         13   -1    0    0    0    0  0.00000000000E+00  0.00000000000E+00  0.74505805969E-08  0.10566000000E+00  0.10566000000E+00 0. -1.
     999900   -1    0    0    0    0 -0.00000000000E+00 -0.00000000000E+00 -0.74505805969E-08  0.93827000000E+00  0.93827000000E+00 0.  1.
     999902    2    1    2    0    0  0.17511047048E-01  0.98226655506E-02 -0.15825462915E-01  0.10183650474E+01  0.10180441065E+01 0.  0.
     999903    2    3    3    0    0  0.11255086991E+00  0.64186873322E-01 -0.12090132702E-01  0.13157195553E+00  0.19425631257E-01 0.  0.
         14    1    1    2    0    0 -0.17511047048E-01 -0.98226655506E-02  0.15825462915E-01  0.25564952645E-01  0.00000000000E+00 0. -1.
     999901    1    3    3    0    0 -0.95039822859E-01 -0.54364207772E-01 -0.37353302130E-02  0.88679309182E+00  0.88000000000E+00 0. -1.
        -11    1    4    4    0    0  0.59525386331E-01  0.24198159497E-01 -0.10692164522E-01  0.65141431087E-01  0.51100000000E-03 0. -1.
         11    1    4    4    0    0  0.53025483576E-01  0.39988713825E-01 -0.13979681804E-02  0.66430524444E-01  0.51100000000E-03 0.  1.
</event>
<event>
 8    1  0.1145101E+005  0.1043930E+01  0.7957747E-01            NaN
         13   -1    0    0    0    0  0.00000000000E+00  0.00000000000E+00  0.74505805969E-08  0.10566000000E+00  0.10566000000E+00 0. -1.
     999900   -1    0    0    0    0 -0.00000000000E+00 -0.00000000000E+00 -0.74505805969E-08  0.93827000000E+00  0.93827000000E+00 0.  1.
     999902    2    1    2    0    0 -0.13115304299E-01  0.25824044280E-01  0.78682115136E-02  0.10139166493E+01  0.10134723333E+01 0.  0.
     999903    2    3    3    0    0 -0.10276781732E+00 -0.67206397138E-01  0.30211843547E-02  0.12446978194E+00  0.20141374571E-01 0.  0.
         14    1    1    2    0    0  0.13115304299E-01 -0.25824044280E-01 -0.78682115136E-02  0.30013350734E-01  0.00000000000E+00 0.  1.
     999901    1    3    3    0    0  0.89652513017E-01  0.93030441418E-01  0.48470271589E-02  0.88944686732E+00  0.88000000000E+00 0.  1.
        -11    1    4    4    0    0 -0.69543830419E-01 -0.56151746560E-01  0.94429553149E-03  0.89389685122E-01  0.51100000000E-03 0. -1.
         11    1    4    4    0    0 -0.33223986897E-01 -0.11054650578E-01  0.20768888232E-02  0.35080096820E-01  0.51100000000E-03 0.  1.
</event>
<event>
 8    1  0.1145101E+005  0.1043930E+01  0.7957747E-01            NaN
         13   -1    0    0    0    0  0.00000000000E+00  0.00000000000E+00  0.74505805969E-08  0.10566000000E+00  0.10566000000E+00 0.  1.
     999900   -1    0    0    0    0 -0.00000000000E+00 -0.00000000000E+00 -0.74505805969E-08  0.93827000000E+00  0.93827000000E+00 0.  1.
     999902    2    1    2    0    0  0.21490490383E-01 -0.96932154724E-02  0.71925951951E-02  0.10192818149E+01  0.10189837512E+01 0.  0.
     999903    2    3    3    0    0 -0.53629428573E-01 -0.11416395685E+00 -0.20878712642E-01  0.12948119883E+00  0.20492329220E-01 0.  0.
         14    1    1    2    0    0 -0.21490490383E-01  0.96932154724E-02 -0.71925951951E-02  0.24648185100E-01  0.00000000000E+00 0.  1.
     999901    1    3    3    0    0  0.75119918956E-01  0.10447074138E+00  0.28071307837E-01  0.88980061607E+00  0.88000000000E+00 0.  1.
        -11    1    4    4    0    0 -0.41198453168E-01 -0.10303729926E+00 -0.20074324196E-01  0.11277072845E+00  0.51100000000E-03 0.  1.
         11    1    4    4    0    0 -0.12430975405E-01 -0.11126657591E-01 -0.80438844583E-03  0.16710470383E-01  0.51100000000E-03 0. -1.
</event>
<event>
 8    1  0.1145101E+005  0.1043930E+01  0.7957747E-01            NaN
         13   -1    0    0    0    0  0.00000000000E+00  0.00000000000E+00  0.74505805969E-08  0.10566000000E+00  0.10566000000E+00 0.  1.
     999900   -1    0    0    0    0 -0.00000000000E+00 -0.00000000000E+00 -0.74505805969E-08  0.93827000000E+00  0.93827000000E+00 0.  1.
     999902    2    1    2    0    0 -0.14615294969E-01  0.13188197112E-01 -0.12039952346E-01  0.10208541286E+01  0.10205932863E+01 0.  0.
     999903    2    3    3    0    0  0.66830660237E-01  0.10735380008E+00 -0.28214517041E-01  0.13194343510E+00  0.24936630823E-01 0.  0.
         14    1    1    2    0    0  0.14615294969E-01 -0.13188197112E-01  0.12039952346E-01  0.23075871437E-01  0.00000000000E+00 0.  1.
     999901    1    3    3    0    0 -0.81445955206E-01 -0.94165602965E-01  0.16174564695E-01  0.88891069346E+00  0.88000000000E+00 0.  1.
        -11    1    4    4    0    0  0.28577467681E-01  0.25990605059E-01 -0.12972903665E-01  0.40752184737E-01  0.51100000000E-03 0.  1.
         11    1    4    4    0    0  0.38253192556E-01  0.81363195018E-01 -0.15241613376E-01  0.91191250367E-01  0.51100000000E-03 0. -1.
</event>
<event>
 8    1  0.1145101E+005  0.1043930E+01  0.7957747E-01            NaN
         13   -1    0    0    0    0  0.00000000000E+00  0.00000000000E+00  0.74505805969E-08  0.10566000000E+00  0.10566000000E+00 0.  1.
     999900   -1    0    0    0    0 -0.00000000000E+00 -0.00000000000E+00 -0.74505805969E-08  0.93827000000E+00  0.93827000000E+00 0. -1.
     999902    2    1    2    0    0 -0.21897254097E-01 -0.20731840131E-02 -0.22219459681E-02  0.10218228773E+01  0.10215837057E+01 0.  0.
     999903    2    3    3    0    0  0.69160703565E-01 -0.10580214374E+00 -0.26369163494E-01  0.13073683387E+00  0.20481465020E-01 0.  0.
         14    1    1    2    0    0  0.21897254097E-01  0.20731840131E-02  0.22219459681E-02  0.22107122671E-01  0.00000000000E+00 0. -1.
     999901    1    3    3    0    0 -0.91057957662E-01  0.10372895972E+00  0.24147217526E-01  0.89108604346E+00  0.88000000000E+00 0.  1.
        -11    1    4    4    0    0  0.34582003777E-01 -0.59500793413E-01 -0.45788150575E-02  0.68974532042E-01  0.51100000000E-03 0. -1.
         11    1    4    4    0    0  0.34578699788E-01 -0.46301350323E-01 -0.21790348436E-01  0.61762301825E-01  0.51100000000E-03 0.  1.
</event>
<event>
 8    1  0.1145101E+005  0.1043930E+01  0.7957747E-01            NaN
         13   -1    0    0    0    0  0.00000000000E+00  0.00000000000E+00  0.74505805969E-08  0.10566000000E+00  0.10566000000E+00 0. -1.
     999900   -1    0    0    0    0 -0.00000000000E+00 -0.00000000000E+00 -0.74505805969E-08  0.93827000000E+00  0.93827000000E+00 0.  1.
     999902    2    1    2    0    0  0.19995096829E-01 -0.10413120433E-01  0.33719566617E-02  0.10211351088E+01  0.10208806509E+01 0.  0.
     999903    2    3    3    0    0  0.48762042972E-01 -0.11644876495E+00 -0.37939227439E-01  0.13334137764E+00  0.20062061693E-01 0.  0.
         14    1    1    2    0    0 -0.19995096829E-01  0.10413120433E-01 -0.33719566617E-02  0.22794891227E-01  0.00000000000E+00 0.  1.
     999901    1    3    3    0    0 -0.28766946143E-01  0.10603564452E+00  0.41311184101E-01  0.88779373113E+00  0.88000000000E+00 0. -1.
        -11    1    4    4    0    0  0.28800244938E-01 -0.50981354746E-01 -0.99534918290E-02  0.59396007954E-01  0.51100000000E-03 0.  1.
         11    1    4    4    0    0  0.19961798033E-01 -0.65467410208E-01 -0.27985735610E-01  0.73945369690E-01  0.51100000000E-03 0. -1.
</event>
<event>
 8    1  0.1145101E+005  0.1043930E+01  0.7957747E-01            NaN
         13   -1    0    0    0    0  0.00000000000E+00  0.00000000000E+00  0.74505805969E-08  0.10566000000E+00  0.10566000000E+00 0. -1.
     999900   -1    0    0    0    0 -0.00000000000E+00 -0.00000000000E+00 -0.74505805969E-08  0.93827000000E+00  0.93827000000E+00 0.  1.
     999902    2    1    2    0    0 -0.52172102153E-02 -0.24199473587E-02  0.23638035408E-01  0.10196023995E+01  0.10193121313E+01 0.  0.
     999903    2    3    3    0    0 -0.46552848127E-01  0.35171910038E-01 -0.11186548692E+00  0.12747965724E+00  0.18246778421E-01 0.  0.
         14    1    1    2    0    0  0.52172102153E-02  0.24199473587E-02 -0.23638035408E-01  0.24327600490E-01  0.00000000000E+00 0.  1.
     999901    1    3    3    0    0  0.41335637911E-01 -0.37591857397E-01  0.13550352233E+00  0.89212274227E+00  0.88000000000E+00 0. -1.
        -11    1    4    4    0    0 -0.16534628706E-01  0.97297169360E-02 -0.20945140927E-01  0.28408121859E-01  0.51100000000E-03 0. -1.
         11    1    4    4    0    0 -0.30018219420E-01  0.25442193102E-01 -0.90920345993E-01  0.99071535385E-01  0.51100000000E-03 0.  1.
</event>
<event>
 8    1  0.1145101E+005  0.1043930E+01  0.7957747E-01            NaN
         13   -1    0    0    0    0  0.00000000000E+00  0.00000000000E+00  0.74505805969E-08  0.10566000000E+00  0.10566000000E+00 0.  1.
     999900   -1    0    0    0    0 -0.00000000000E+00 -0.00000000000E+00 -0.74505805969E-08  0.93827000000E+00  0.93827000000E+00 0.  1.
     999902    2    1    2    0    0 -0.16637619978E-01  0.12737825843E-01  0.10868238708E-01  0.10203253136E+01  0.10200522361E+01 0.  0.
     999903    2    3    3    0    0 -0.95201852383E-01 -0.79436336550E-01  0.39607163969E-01  0.13156531192E+00  0.19161931037E-01 0.  0.
         14    1    1    2    0    0  0.16637619978E-01 -0.12737825843E-01 -0.10868238708E-01  0.23604686364E-01  0.00000000000E+00 0. -1.
     999901    1    3    3    0    0  0.78564232405E-01  0.92174162393E-01 -0.28738925260E-01  0.88876000172E+00  0.88000000000E+00 0.  1.
        -11    1    4    4    0    0 -0.81001567725E-01 -0.65180754805E-01  0.25701076176E-01  0.10710084597E+00  0.51100000000E-03 0. -1.
         11    1    4    4    0    0 -0.14200284658E-01 -0.14255581744E-01  0.13906087793E-01  0.24464465944E-01  0.51100000000E-03 0.  1.
</event>
<event>
 8    1  0.1145101E+005  0.1043930E+01  0.7957747E-01            NaN
         13   -1    0    0    0    0  0.00000000000E+00  0.00000000000E+00  0.74505805969E-08  0.10566000000E+00  0.10566000000E+00 0.  1.
     999900   -1    0    0    0    0 -0.00000000000E+00 -0.00000000000E+00 -0.74505805969E-08  0.93827000000E+00  0.93827000000E+00 0.  1.
     999902    2    1    2    0    0 -0.19130959887E-01  0.36412380710E-02  0.12769875235E-01  0.10206421930E+01  0.10203764816E+01 0.  0.
     999903    2    3    3    0    0 -0.10510800778E+00  0.79227970925E-01  0.38170527773E-02  0.13318201927E+00  0.19952836588E-01 0.  0.
         14    1    1    2    0    0  0.19130959887E-01 -0.36412380710E-02 -0.12769875235E-01  0.23287806989E-01  0.00000000000E+00 0.  1.
     999901    1    3    3    0    0  0.85977047895E-01 -0.75586732854E-01  0.89528224573E-02  0.88746017374E+00  0.88000000000E+00 0. -1.
        -11    1    4    4    0    0 -0.71104196248E-01  0.43984267017E-01 -0.33882596087E-02  0.83678933390E-01  0.51100000000E-03 0. -1.
         11    1    4    4    0    0 -0.34003811533E-01  0.35243703907E-01  0.72053123860E-02  0.49503085878E-01  0.51100000000E-03 0.  1.
</event>
<event>
 8    1  0.1145101E+005  0.1043930E+01  0.7957747E-01            NaN
         13   -1    0    0    0    0  0.00000000000E+00  0.00000000000E+00  0.74505805969E-08  0.10566000000E+00  0.10566000000E+00 0. -1.
     999900   -1    0    0    0    0 -0.00000000000E+00 -0.00000000000E+00 -0.74505805969E-08  0.93827000000E+00  0.93827000000E+00 0.  1.
     999902    2    1    2    0    0 -0.20317834154E-01 -0.41503680572E-02  0.92141527898E-02  0.10212376984E+01  0.10209855514E+01 0.  0.
     999903    2    3    3    0    0  0.63253094956E-01  0.32866745492E-01  0.10814631581E+00  0.13098945226E+00  0.19530335387E-01 0.  0.
         14    1    1    2    0    0  0.20317834154E-01  0.41503680572E-02 -0.92141527898E-02  0.22692301588E-01  0.00000000000E+00 0.  1.
     999901    1    3    3    0    0 -0.83570929110E-01 -0.37017113549E-01 -0.98932163021E-01  0.89024824615E+00  0.88000000000E+00 0.  1.
        -11    1    4    4    0    0  0.45954368796E-01  0.25929128136E-01  0.63219801960E-01  0.82347605783E-01  0.51100000000E-03 0.  1.
         11    1    4    4    0    0  0.17298726160E-01  0.69376173559E-02  0.44926513851E-01  0.48641846482E-01  0.51100000000E-03 0. -1.
</event>
<event>
 8    1  0.1145101E+005  0.1043930E+01  0.7957747E-01            NaN
         13   -1    0    0    0    0  0.00000000000E+00  0.00000000000E+00  0.74505805969E-08  0.10566000000E+00  0.10566000000E+00 0.  1.
     999900   -1    0    0    0    0 -0.00000000000E+00 -0.00000000000E+00 -0.74505805969E-08  0.93827000000E+00  0.93827000000E+00 0. -1.
     999902    2    1    2    0    0 -0.39114193813E-02 -0.19560897124E-01  0.14007600162E-01  0.10195549972E+01  0.10192635830E+01 0.  0.
     999903    2    3    3    0    0  0.54443993938E-01 -0.11459345198E+00  0.31646823134E-01  0.13234156015E+00  0.20419584125E-01 0.  0.
         14    1    1    2    0    0  0.39114193813E-02  0.19560897124E-01 -0.14007600162E-01  0.24375002772E-01  0.00000000000E+00 0. -1.
     999901    1    3    3    0    0 -0.58355413319E-01  0.95032554855E-01 -0.17639222972E-01  0.88721343708E+00  0.88000000000E+00 0.  1.
        -11    1    4    4    0    0  0.34160347288E-01 -0.67963858619E-01  0.87412987709E-02  0.76568184192E-01  0.51100000000E-03 0. -1.
         11    1    4    4    0    0  0.20283646650E-01 -0.46629593360E-01  0.22905524363E-01  0.55773375957E-01  0.51100000000E-03 0.  1.
</event>
<event>
 8    1  0.1145101E+005  0.1043930E+01  0.7957747E-01            NaN
         13   -1    0    0    0    0  0.00000000000E+00  0.00000000000E+00  0.74505805969E-08  0.10566000000E+00  0.10566000000E+00 0.  1.
     999900   -1    0    0    0    0 -0.00000000000E+00 -0.00000000000E+00 -0.74505805969E-08  0.93827000000E+00  0.93827000000E+00 0.  1.
     999902    2    1    2    0    0  0.11147667530E-01 -0.18781561442E-01  0.11709114364E-01  0.10191485372E+01  0.10188472014E+01 0.  0.
     999903    2    3    3    0    0 -0.11574497804E+00  0.15429382226E-03 -0.50197150130E-01  0.12769315650E+00  0.19719649792E-01 0.  0.
         14    1    1    2    0    0 -0.11147667530E-01  0.18781561442E-01 -0.11709114364E-01  0.24781462846E-01  0.00000000000E+00 0. -1.
     999901    1    3    3    0    0  0.12689264557E+00 -0.18935855264E-01  0.61906264494E-01  0.89145538065E+00  0.88000000000E+00 0. -1.
        -11    1    4    4    0    0 -0.34395526088E-01  0.89475268501E-02 -0.13601927582E-01  0.38057640581E-01  0.51100000000E-03 0.  1.
         11    1    4    4    0    0 -0.81349451951E-01 -0.87932330279E-02 -0.36595222548E-01  0.89635515919E-01  0.51100000000E-03 0. -1.
</event>
<event>
 8    1  0.1145101E+005  0.1043930E+01  0.7957747E-01            NaN
         13   -1    0    0    0    0  0.00000000000E+00  0.00000000000E+00  0.74505805969E-08  0.10566000000E+00  0.10566000000E+00 0.  1.
     999900   -1    0    0    0    0 -0.00000000000E+00 -0.00000000000E+00 -0.74505805969E-08  0.93827000000E+00  0.93827000000E+00 0.  1.
     999902    2    1    2    0    0  0.16089812019E-01  0.16371767971E-01  0.53253724186E-02  0.10203656959E+01  0.10200935628E+01 0.  0.
     999903    2    3    3    0    0  0.24796306805E-01 -0.51104303383E-01  0.11613580444E+00  0.13081087739E+00  0.19936246224E-01 0.  0.
         14    1    1    2    0    0 -0.16089812019E-01 -0.16371767971E-01 -0.53253724186E-02  0.23564304120E-01  0.00000000000E+00 0.  1.
     999901    1    3    3    0    0 -0.87064947864E-02  0.67476071353E-01 -0.11081043203E+00  0.88955481849E+00  0.88000000000E+00 0.  1.
        -11    1    4    4    0    0  0.87704350660E-02 -0.33767243886E-01  0.53509238217E-01  0.63879941973E-01  0.51100000000E-03 0. -1.
         11    1    4    4    0    0  0.16025871739E-01 -0.17337059496E-01  0.62626566228E-01  0.66930935415E-01  0.51100000000E-03 0.  1.
</event>
<event>
 8    1  0.1145101E+005  0.1043930E+01  0.7957747E-01            NaN
         13   -1    0    0    0    0  0.00000000000E+00  0.00000000000E+00  0.74505805969E-08  0.10566000000E+00  0.10566000000E+00 0.  1.
     999900   -1    0    0    0    0 -0.00000000000E+00 -0.00000000000E+00 -0.74505805969E-08  0.93827000000E+00  0.93827000000E+00 0.  1.
     999902    2    1    2    0    0 -0.12751549897E-01 -0.60891435233E-02 -0.18157995047E-01  0.10209214695E+01  0.10206621646E+01 0.  0.
     999903    2    3    3    0    0 -0.10936817330E-01 -0.74198791830E-01 -0.10892467973E+00  0.13363301101E+00  0.19186482064E-01 0.  0.
         14    1    1    2    0    0  0.12751549897E-01  0.60891435233E-02  0.18157995047E-01  0.23008530543E-01  0.00000000000E+00 0.  1.
     999901    1    3    3    0    0 -0.18147325672E-02  0.68109648307E-01  0.90766684686E-01  0.88728845845E+00  0.88000000000E+00 0. -1.
        -11    1    4    4    0    0 -0.89703107642E-03 -0.48014383113E-01 -0.80242350636E-01  0.93516210397E-01  0.51100000000E-03 0. -1.
         11    1    4    4    0    0 -0.10039786254E-01 -0.26184408717E-01 -0.28682329097E-01  0.40116800612E-01  0.51100000000E-03 0.  1.
</event>
<event>
 8    1  0.1145101E+005  0.1043930E+01  0.7957747E-01            NaN
         13   -1    0    0    0    0  0.00000000000E+00  0.00000000000E+00  0.74505805969E-08  0.10566000000E+00  0.10566000000E+00 0. -1.
     999900   -1    0    0    0    0 -0.00000000000E+00 -0.00000000000E+00 -0.74505805969E-08  0.93827000000E+00  0.93827000000E+00 0. -1.
     999902    2    1    2    0    0  0.27249522102E-02  0.11342162856E-01 -0.20568964085E-01  0.10202835984E+01  0.10200095436E+01 0.  0.
     999903    2    3    3    0    0  0.10280149274E+00 -0.51397331342E-02  0.75716650829E-01  0.12924045331E+00  0.19378333086E-01 0.  0.
         14    1    1    2    0    0 -0.27249522102E-02 -0.11342162856E-01  0.20568964085E-01  0.23646401552E-01  0.00000000000E+00 0. -1.
     999901    1    3    3    0    0 -0.10007654053E+00  0.16481895991E-01 -0.96285614915E-01  0.89104314514E+00  0.88000000000E+00 0. -1.
        -11    1    4    4    0    0  0.42430572838E-01 -0.11672913404E-01  0.31356657546E-01  0.54038056147E-01  0.51100000000E-03 0. -1.
         11    1    4    4    0    0  0.60370919899E-01  0.65331802696E-02  0.44359993283E-01  0.75202397162E-01  0.51100000000E-03 0.  1.
</event>
<event>
 8    1  0.1145101E+005  0.1043930E+01  0.7957747E-01            NaN
         13   -1    0    0    0    0  0.00000000000E+00  0.00000000000E+00  0.74505805969E-08  0.10566000000E+00  0.10566000000E+00 0. -1.
     999900   -1    0    0    0    0 -0.00000000000E+00 -0.00000000000E+00 -0.74505805969E-08  0.93827000000E+00  0.93827000000E+00 0. -1.
     999902    2    1    2    0    0 -0.22806049993E-01  0.14783761505E-01  0.41358734184E-02  0.10164385292E+01  0.10160666821E+01 0.  0.
     999903    2    3    3    0    0 -0.56406269567E-01  0.92326301199E-01 -0.68500671488E-01  0.12941097159E+00  0.18682730901E-01 0.  0.
         14    1    1    2    0    0  0.22806049993E-01 -0.14783761505E-01 -0.41358734184E-02  0.27491470849E-01  0.00000000000E+00 0.  1.
     999901    1    3    3    0    0  0.33600219574E-01 -0.77542539693E-01  0.72636544906E-01  0.88702755756E+00  0.88000000000E+00 0.  1.
        -11    1    4    4    0    0 -0.36829436233E-01  0.69679230022E-01 -0.57305774623E-01  0.97446474517E-01  0.51100000000E-03 0. -1.
         11    1    4    4    0    0 -0.19576833334E-01  0.22647071177E-01 -0.11194896865E-01  0.31964497072E-01  0.51100000000E-03 0.  1.
</event>
<event>
 8    1  0.1145101E+005  0.1043930E+01  0.7957747E-01            NaN
         13   -1    0    0    0    0  0.00000000000E+00  0.00000000000E+00  0.74505805969E-08  0.10566000000E+00  0.10566000000E+00 0.  1.
     999900   -1    0    0    0    0 -0.00000000000E+00 -0.00000000000E+00 -0.74505805969E-08  0.93827000000E+00  0.93827000000E+00 0.  1.
     999902    2    1    2    0    0  0.11311240911E-01 -0.99983122664E-02  0.14808281864E-01  0.10227829995E+01  0.10225643590E+01 0.  0.
     999903    2    3    3    0    0 -0.12076157585E+00  0.16711010161E-01 -0.42782375143E-01  0.13066568623E+00  0.19508302686E-01 0.  0.
         14    1    1    2    0    0 -0.11311240911E-01  0.99983122664E-02 -0.14808281864E-01  0.21147000518E-01  0.00000000000E+00 0. -1.
     999901    1    3    3    0    0  0.13207281676E+00 -0.26709322427E-01  0.57590657007E-01  0.89211731325E+00  0.88000000000E+00 0.  1.
        -11    1    4    4    0    0 -0.30916129841E-01  0.30903203288E-02 -0.20085655103E-01  0.37000700345E-01  0.51100000000E-03 0. -1.
         11    1    4    4    0    0 -0.89845446004E-01  0.13620689832E-01 -0.22696720040E-01  0.93664985885E-01  0.51100000000E-03 0.  1.
</event>
<event>
 8    1  0.1145101E+005  0.1043930E+01  0.7957747E-01            NaN
         13   -1    0    0    0    0  0.00000000000E+00  0.00000000000E+00  0.74505805969E-08  0.10566000000E+00  0.10566000000E+00 0. -1.
     999900   -1    0    0    0    0 -0.00000000000E+00 -0.00000000000E+00 -0.74505805969E-08  0.93827000000E+00  0.93827000000E+00 0. -1.
     999902    2    1    2    0    0  0.70879057031E-02 -0.99129270888E-03 -0.18330679786E-01  0.10242517153E+01  0.10240626648E+01 0.  0.
     999903    2    3    3    0    0 -0.81409949843E-01 -0.69037561690E-01 -0.80102736186E-01  0.13505097747E+00  0.20701529236E-01 0.  0.
         14    1    1    2    0    0 -0.70879057031E-02  0.99129270888E-03  0.18330679786E-01  0.19678284730E-01  0.00000000000E+00 0. -1.
     999901    1    3    3    0    0  0.88497855546E-01  0.68046268981E-01  0.61772056400E-01  0.88920073780E+00  0.88000000000E+00 0.  1.
        -11    1    4    4    0    0 -0.77349862445E-01 -0.59745337360E-01 -0.67104009489E-01  0.11855680397E+00  0.51100000000E-03 0. -1.
         11    1    4    4    0    0 -0.40600873979E-02 -0.92922243293E-02 -0.12998726697E-01  0.16494173499E-01  0.51100000000E-03 0.  1.
</event>
<event>
 8    1  0.1145101E+005  0.1043930E+01  0.7957747E-01            NaN
         13   -1    0    0    0    0  0.00000000000E+00  0.00000000000E+00  0.74505805969E-08  0.10566000000E+00  0.10566000000E+00 0.  1.
     999900   -1    0    0    0    0 -0.00000000000E+00 -0.00000000000E+00 -0.74505805969E-08  0.93827000000E+00  0.93827000000E+00 0. -1.
     999902    2    1    2    0    0 -0.53316312570E-02 -0.16177381628E-01 -0.16892103783E-01  0.10199408954E+01  0.10196587434E+01 0.  0.
     999903    2    3    3    0    0 -0.44947632455E-01 -0.11508037446E+00  0.40705620341E-01  0.13164548996E+00  0.20243647157E-01 0.  0.
         14    1    1    2    0    0  0.53316312570E-02  0.16177381628E-01  0.16892103783E-01  0.23989104577E-01  0.00000000000E+00 0.  1.
     999901    1    3    3    0    0  0.39616001198E-01  0.98902992832E-01 -0.57597724123E-01  0.88829540546E+00  0.88000000000E+00 0. -1.
        -11    1    4    4    0    0 -0.26940627385E-01 -0.41814309084E-01  0.16511007358E-01  0.52412864195E-01  0.51100000000E-03 0.  1.
         11    1    4    4    0    0 -0.18007005069E-01 -0.73266065376E-01  0.24194612983E-01  0.79232625765E-01  0.51100000000E-03 0. -1.
</event>
<event>
 8    1  0.1145101E+005  0.1043930E+01  0.7957747E-01            NaN
         13   -1    0    0    0    0  0.00000000000E+00  0.00000000000E+00  0.74505805969E-08  0.10566000000E+00  0.10566000000E+00 0. -1.
     999900   -1    0    0    0    0 -0.00000000000E+00 -0.00000000000E+00 -0.74505805969E-08  0.93827000000E+00  0.93827000000E+00 0. -1.
     999902    2    1    2    0    0 -0.70410055831E-03  0.18589992878E-01 -0.14060053603E-01  0.10206111514E+01  0.10203447230E+01 0.  0.
     999903    2    3    3    0    0  0.76407452230E-02  0.10117429246E+00  0.81031399134E-01  0.13160485931E+00  0.21427386822E-01 0.  0.
         14    1    1    2    0    0  0.70410055831E-03 -0.18589992878E-01  0.14060053603E-01  0.23318848602E-01  0.00000000000E+00 0.  1.
     999901    1    3    3    0    0 -0.83448457813E-02 -0.82584299583E-01 -0.95091452736E-01  0.88900629209E+00  0.88000000000E+00 0. -1.
        -11    1    4    4    0    0  0.47129605085E-02  0.29448686447E-01  0.36458896566E-01  0.47105725661E-01  0.51100000000E-03 0.  1.
         11    1    4    4    0    0  0.29277847145E-02  0.71725606014E-01  0.44572502567E-01  0.84499133649E-01  0.51100000000E-03 0. -1.
</event>
<event>
 8    1  0.1145101E+005  0.1043930E+01  0.7957747E-01            NaN
         13   -1    0    0    0    0  0.00000000000E+00  0.00000000000E+00  0.74505805969E-08  0.10566000000E+00  0.10566000000E+00 0. -1.
     999900   -1    0    0    0    0 -0.00000000000E+00 -0.00000000000E+00 -0.74505805969E-08  0.93827000000E+00  0.93827000000E+00 0.  1.
     999902    2    1    2    0    0 -0.71851879688E-02  0.17713458030E-01  0.13058829371E-01  0.10207799126E+01  0.10205173705E+01 0.  0.
     999903    2    3    3    0    0  0.85528916968E-01 -0.59214984724E-01 -0.72577878493E-01  0.12845287823E+00  0.20272726137E-01 0.  0.
         14    1    1    2    0    0  0.71851879688E-02 -0.17713458030E-01 -0.13058829371E-01  0.23150087388E-01  0.00000000000E+00 0.  1.
     999901    1    3    3    0    0 -0.92714104936E-01  0.76928442754E-01  0.85636707864E-01  0.89232703438E+00  0.88000000000E+00 0. -1.
        -11    1    4    4    0    0  0.34333455865E-01 -0.24718647856E-01 -0.17735026253E-01  0.45875810845E-01  0.51100000000E-03 0. -1.
         11    1    4    4    0    0  0.51195461102E-01 -0.34496336867E-01 -0.54842852240E-01  0.82577067383E-01  0.51100000000E-03 0.  1.
</event>
<event>
 8    1  0.1145101E+005  0.1043930E+01  0.7957747E-01            NaN
         13   -1    0    0    0    0  0.00000000000E+00  0.00000000000E+00  0.74505805969E-08  0.10566000000E+00  0.10566000000E+00 0.  1.
     999900   -1    0    0    0    0 -0.00000000000E+00 -0.00000000000E+00 -0.74505805969E-08  0.93827000000E+00  0.93827000000E+00 0.  1.
     999902    2    1    2    0    0 -0.25950160974E-02  0.23509477513E-01  0.21053987912E-02  0.10201842142E+01  0.10199078235E+01 0.  0.
     999903    2    3    3    0    0 -0.10820609336E-01 -0.54133372579E-01 -0.11493586620E+00  0.12900817640E+00  0.19630298633E-01 0.  0.
         14    1    1    2    0    0  0.25950160974E-02 -0.23509477513E-01 -0.21053987912E-02  0.23745785849E-01  0.00000000000E+00 0.  1.
     999901    1    3    3    0    0  0.82255932390E-02  0.77642850093E-01  0.11704126499E+00  0.89117603775E+00  0.88000000000E+00 0. -1.
        -11    1    4    4    0    0 -0.10805173511E-03 -0.19691162947E-01 -0.61159370724E-01  0.64253274794E-01  0.51100000000E-03 0. -1.
         11    1    4    4    0    0 -0.10712557601E-01 -0.34442209633E-01 -0.53776495479E-01  0.64754901604E-01  0.51100000000E-03 0.  1.
</event>
<event>
 8    1  0.1145101E+005  0.1043930E+01  0.7957747E-01            NaN
         13   -1    0    0    0    0  0.00000000000E+00  0.00000000000E+00  0.74505805969E-08  0.10566000000E+00  0.10566000000E+00 0.  1.
     999900   -1    0    0    0    0 -0.00000000000E+00 -0.00000000000E+00 -0.74505805969E-08  0.93827000000E+00  0.93827000000E+00 0. -1.
     999902    2    1    2    0    0  0.16133971014E-01 -0.12296390986E-01 -0.11132793637E-01  0.10207903080E+01  0.10205280043E+01 0.  0.
     999903    2    3    3    0    0 -0.73389566367E-01 -0.32775097624E-01 -0.10181957040E+00  0.13137593176E+00  0.20788820387E-01 0.  0.
         14    1    1    2    0    0 -0.16133971014E-01  0.12296390986E-01  0.11132793637E-01  0.23139692006E-01  0.00000000000E+00 0.  1.
     999901    1    3    3    0    0  0.89523537381E-01  0.20478706638E-01  0.90686776766E-01  0.88941437623E+00  0.88000000000E+00 0.  1.
        -11    1    4    4    0    0 -0.34370314536E-01 -0.42523921590E-02 -0.40287836618E-01  0.53129768123E-01  0.51100000000E-03 0.  1.
         11    1    4    4    0    0 -0.39019251830E-01 -0.28522705465E-01 -0.61531733785E-01  0.78246163638E-01  0.51100000000E-03 0. -1.
</event>
<event>
 8    1  0.1145101E+005  0.1043930E+01  0.7957747E-01            NaN
         13   -1    0    0    0    0  0.00000000000E+00  0.00000000000E+00  0.74505805969E-08  0.10566000000E+00  0.10566000000E+00 0. -1.
     999900   -1    0    0    0    0 -0.00000000000E+00 -0.00000000000E+00 -0.74505805969E-08  0.93827000000E+00  0.93827000000E+00 0.  1.
     999902    2    1    2    0    0 -0.91332336623E-02  0.18839289224E-01 -0.78428804291E-02  0.10215727741E+01  0.10213280997E+01 0.  0.
     999903    2    3    3    0    0  0.70896512984E-02 -0.11895452556E+00  0.45528022510E-01  0.12910497601E+00  0.19870875433E-01 0.  0.
         14    1    1    2    0    0  0.91332336623E-02 -0.18839289224E-01  0.78428804291E-02  0.22357225879E-01  0.00000000000E+00 0.  1.
     999901    1    3    3    0    0 -0.16222884961E-01  0.13779381478E+00 -0.53370902939E-01  0.89246779811E+00  0.88000000000E+00 0.  1.
        -11    1    4    4    0    0 -0.45559092478E-02 -0.80850669160E-02  0.43560162950E-02  0.10264531897E-01  0.51100000000E-03 0.  1.
         11    1    4    4    0    0  0.11645560546E-01 -0.11086945864E+00  0.41172006215E-01  0.11884044411E+00  0.51100000000E-03 0. -1.
</event>
<event>
 8    1  0.1145101E+005  0.1043930E+01  0.7957747E-01            NaN
         13   -1    0    0    0    0  0.00000000000E+00  0.00000000000E+00  0.74505805969E-08  0.10566000000E+00  0.10566000000E+00 0. -1.
     999900   -1    0    0    0    0 -0.00000000000E+00 -0.00000000000E+00 -0.74505805969E-08  0.93827000000E+00  0.93827000000E+00 0. -1.
     999902    2    1    2    0    0 -0.19299482970E-01  0.86482372828E-03  0.13505135240E-01  0.10203586903E+01  0.10200863935E+01 0.  0.
     999903    2    3    3    0    0 -0.73953956408E-01 -0.10498974406E+00 -0.21115354152E-01  0.13165689596E+00  0.19890853308E-01 0.  0.
         14    1    1    2    0    0  0.19299482970E-01 -0.86482372828E-03 -0.13505135240E-01  0.23571309697E-01  0.00000000000E+00 0. -1.
     999901    1    3    3    0    0  0.54654473437E-01  0.10585456779E+00  0.34620489392E-01  0.88870179435E+00  0.88000000000E+00 0.  1.
        -11    1    4    4    0    0 -0.46950719635E-01 -0.81114843313E-01 -0.18344493428E-01  0.95502719543E-01  0.51100000000E-03 0.  1.
         11    1    4    4    0    0 -0.27003236773E-01 -0.23874900748E-01 -0.27708607243E-02  0.36154176413E-01  0.51100000000E-03 0. -1.
</event>
<event>
 8    1  0.1145101E+005  0.1043930E+01  0.7957747E-01            NaN
         13   -1    0    0    0    0  0.00000000000E+00  0.00000000000E+00  0.74505805969E-08  0.10566000000E+00  0.10566000000E+00 0.  1.
     999900   -1    0    0    0    0 -0.00000000000E+00 -0.00000000000E+00 -0.74505805969E-08  0.93827000000E+00  0.93827000000E+00 0. -1.
     999902    2    1    2    0    0 -0.12782402571E-02 -0.21976063500E-01  0.10670224740E-01  0.10194670697E+01  0.10191735236E+01 0.  0.
     999903    2    3    3    0    0  0.31112069184E-01 -0.46526103867E-01  0.11779145631E+00  0.13204000511E+00  0.20666315094E-01 0.  0.
         14    1    1    2    0    0  0.12782402571E-02  0.21976063500E-01 -0.10670224740E-01  0.24462930346E-01  0.00000000000E+00 0. -1.
     999901    1    3    3    0    0 -0.32390309441E-01  0.24550040367E-01 -0.10712123157E+00  0.88742706454E+00  0.88000000000E+00 0. -1.
        -11    1    4    4    0    0  0.13392811209E-01 -0.46460054676E-02  0.27631314883E-01  0.31059675499E-01  0.51100000000E-03 0.  1.
         11    1    4    4    0    0  0.17719257975E-01 -0.41880098400E-01  0.90160141430E-01  0.10098032961E+00  0.51100000000E-03 0. -1.
</event>
<event>
 8    1  0.1145101E+005  0.1043930E+01  0.7957747E-01            NaN
         13   -1    0    0    0    0  0.00000000000E+00  0.00000000000E+00  0.74505805969E-08  0.10566000000E+00  0.10566000000E+00 0. -1.
     999900   -1    0    0    0    0 -0.00000000000E+00 -0.00000000000E+00 -0.74505805969E-08  0.93827000000E+00  0.93827000000E+00 0.  1.
     999902    2    1    2    0    0  0.15275738933E-01  0.17299131128E-01 -0.52379419446E-02  0.10202647475E+01  0.10199902504E+01 0.  0.
     999903    2    3    3    0    0  0.38524823518E-01  0.10721734592E+00 -0.66429690390E-01  0.13326405118E+00  0.19148949789E-01 0.  0.
         14    1    1    2    0    0 -0.15275738933E-01 -0.17299131128E-01  0.52379419446E-02  0.23665252451E-01  0.00000000000E+00 0.  1.
     999901    1    3    3    0    0 -0.23249084584E-01 -0.89918214792E-01  0.61191748445E-01  0.88700069637E+00  0.88000000000E+00 0. -1.
        -11    1    4    4    0    0  0.24279076837E-01  0.45430581622E-01 -0.36575381536E-01  0.63177772785E-01  0.51100000000E-03 0.  1.
         11    1    4    4    0    0  0.14245746681E-01  0.61786764297E-01 -0.29854308854E-01  0.70086278393E-01  0.51100000000E-03 0. -1.
</event>
<event>
 8    1  0.1145101E+005  0.1043930E+01  0.7957747E-01            NaN
         13   -1    0    0    0    0  0.00000000000E+00  0.00000000000E+00  0.74505805969E-08  0.10566000000E+00  0.10566000000E+00 0. -1.
     999900   -1    0    0    0    0 -0.00000000000E+00 -0.00000000000E+00 -0.74505805969E-08  0.93827000000E+00  0.93827000000E+00 0. -1.
     999902    2    1    2    0    0  0.99237915344E-03  0.24080305756E-01 -0.23224549499E-02  0.10197176119E+01  0.10194301193E+01 0.  0.
     999903    2    3    3    0    0  0.45592950366E-01  0.10958622502E+00  0.55987037504E-01  0.13253078257E+00  0.18493299386E-01 0.  0.
         14    1    1    2    0    0 -0.99237915344E-03 -0.24080305756E-01  0.23224549499E-02  0.24212388125E-01  0.00000000000E+00 0. -1.
     999901    1    3    3    0    0 -0.44600571213E-01 -0.85505919267E-01 -0.58309492454E-01  0.88718682931E+00  0.88000000000E+00 0.  1.
        -11    1    4    4    0    0  0.43783131997E-01  0.87249517750E-01  0.47488401329E-01  0.10855805072E+00  0.51100000000E-03 0. -1.
         11    1    4    4    0    0  0.18098183689E-02  0.22336707274E-01  0.84986361744E-02  0.23972731847E-01  0.51100000000E-03 0.  1.
</event>
<event>
 8    1  0.1145101E+005  0.1043930E+01  0.7957747E-01            NaN
         13   -1    0    0    0    0  0.00000000000E+00  0.00000000000E+00  0.74505805969E-08  0.10566000000E+00  0.10566000000E+00 0.  1.
     999900   -1    0    0    0    0 -0.00000000000E+00 -0.00000000000E+00 -0.74505805969E-08  0.93827000000E+00  0.93827000000E+00 0.  1.
     999902    2    1    2    0    0 -0.15888274351E-01 -0.15554436681E-01 -0.69878869287E-02  0.10206231700E+01  0.10203570193E+01 0.  0.
     999903    2    3    3    0    0  0.23300264960E-01 -0.63305976184E-02  0.12605686058E+00  0.12971255399E+00  0.18762615754E-01 0.  0.
         14    1    1    2    0    0  0.15888274351E-01  0.15554436681E-01  0.69878869287E-02  0.23306830030E-01  0.00000000000E+00 0.  1.
     999901    1    3    3    0    0 -0.39188539311E-01 -0.92238390623E-02 -0.13304474751E+00  0.89091061598E+00  0.88000000000E+00 0.  1.
        -11    1    4    4    0    0 -0.25112450289E-02 -0.14569200261E-02  0.29442742820E-01  0.29589950884E-01  0.51100000000E-03 0.  1.
         11    1    4    4    0    0  0.25811509989E-01 -0.48736775923E-02  0.96614117763E-01  0.10012260311E+00  0.51100000000E-03 0. -1.
</event>
<event>
 8    1  0.1145101E+005  0.1043930E+01  0.7957747E-01            NaN
         13   -1    0    0    0    0  0.00000000000E+00  0.00000000000E+00  0.74505805969E-08  0.10566000000E+00  0.10566000000E+00 0.  1.
     999900   -1    0    0    0    0 -0.00000000000E+00 -0.00000000000E+00 -0.74505805969E-08  0.93827000000E+00  0.93827000000E+00 0.  1.
     999902    2    1    2    0    0  0.21222397107E-01  0.30875138413E-02  0.78592811889E-02  0.10210894400E+01  0.10208339499E+01 0.  0.
     999903    2    3    3    0    0  0.56803265582E-01 -0.11658241614E+00 -0.14093410477E-01  0.13200631057E+00  0.20223033357E-01 0.  0.
         14    1    1    2    0    0 -0.21222397107E-01 -0.30875138413E-02 -0.78592811889E-02  0.22840560008E-01  0.00000000000E+00 0. -1.
     999901    1    3    3    0    0 -0.35580868475E-01  0.11966992998E+00  0.21952691666E-01  0.88908312942E+00  0.88000000000E+00 0.  1.
        -11    1    4    4    0    0  0.23017378286E-01 -0.53968707758E-01 -0.16050482990E-01  0.60830093255E-01  0.51100000000E-03 0. -1.
         11    1    4    4    0    0  0.33785887296E-01 -0.62613708385E-01  0.19570725127E-02  0.71176217319E-01  0.51100000000E-03 0.  1.
</event>
<event>
 8    1  0.1145101E+005  0.1043930E+01  0.7957747E-01            NaN
         13   -1    0    0    0    0  0.00000000000E+00  0.00000000000E+00  0.74505805969E-08  0.10566000000E+00  0.10566000000E+00 0. -1.
     999900   -1    0    0    0    0 -0.00000000000E+00 -0.00000000000E+00 -0.74505805969E-08  0.93827000000E+00  0.93827000000E+00 0. -1.
     999902    2    1    2    0    0 -0.20377854196E-02  0.23645781345E-01  0.74876538884E-03  0.10201847648E+01  0.10199083871E+01 0.  0.
     999903    2    3    3    0    0  0.29472186921E-01 -0.12211395097E+00 -0.10075103722E-01  0.12757290399E+00  0.19821990157E-01 0.  0.
         14    1    1    2    0    0  0.20377854196E-02 -0.23645781345E-01 -0.74876538884E-03  0.23745235195E-01  0.00000000000E+00 0.  1.
     999901    1    3    3    0    0 -0.31509972341E-01  0.14575973232E+00  0.10823869110E-01  0.89261186081E+00  0.88000000000E+00 0.  1.
        -11    1    4    4    0    0  0.12462924996E-01 -0.85750775133E-01 -0.23288880634E-02  0.86684512895E-01  0.51100000000E-03 0. -1.
         11    1    4    4    0    0  0.17009261925E-01 -0.36363175840E-01 -0.77462156582E-02  0.40888391096E-01  0.51100000000E-03 0.  1.
</event>
<event>
 8    1  0.1145101E+005  0.1043930E+01  0.7957747E-01            NaN
         13   -1    0    0    0    0  0.00000000000E+00  0.00000000000E+00  0.74505805969E-08  0.10566000000E+00  0.10566000000E+00 0. -1.
     999900   -1    0    0    0    0 -0.00000000000E+00 -0.00000000000E+00 -0.74505805969E-08  0.93827000000E+00  0.93827000000E+00 0. -1.
     999902    2    1    2    0    0 -0.17864323380E-01 -0.12440899282E-01  0.94147764691E-02  0.10202119048E+01  0.10199361660E+01 0.  0.
     999903    2    3    3    0    0 -0.32179410149E-01 -0.12203597709E+00 -0.33477335369E-01  0.13226160435E+00  0.21073819278E-01 0.  0.
         14    1    1    2    0    0  0.17864323380E-01  0.12440899282E-01 -0.94147764691E-02  0.23718095217E-01  0.00000000000E+00 0.  1.
     999901    1    3    3    0    0  0.14315086769E-01  0.10959507781E+00  0.42892111838E-01  0.88795030044E+00  0.88000000000E+00 0. -1.
        -11    1    4    4    0    0 -0.16559919534E-01 -0.91839480198E-01 -0.18644476915E-01  0.95166163622E-01  0.51100000000E-03 0. -1.
         11    1    4    4    0    0 -0.15619490616E-01 -0.30196496891E-01 -0.14832858454E-01  0.37095440724E-01  0.51100000000E-03 0.  1.
</event>
<event>
 8    1  0.1145101E+005  0.1043930E+01  0.7957747E-01            NaN
         13   -1    0    0    0    0  0.00000000000E+00  0.00000000000E+00  0.74505805969E-08  0.10566000000E+00  0.10566000000E+00 0. -1.
     999900   -1    0    0    0    0 -0.00000000000E+00 -0.00000000000E+00 -0.74505805969E-08  0.93827000000E+00  0.93827000000E+00 0. -1.
     999902    2    1    2    0    0  0.27467229385E-02  0.22908193371E-01  0.12021250202E-02  0.10208264307E+01  0.10205649547E+01 0.  0.
     999903    2    3    3    0    0  0.48168027582E-01 -0.75938249276E-01 -0.91444906204E-01  0.12930122828E+00  0.16427421552E-01 0.  0.
         14    1    1    2    0    0 -0.27467229385E-02 -0.22908193371E-01 -0.12021250202E-02  0.23103569313E-01  0.00000000000E+00 0.  1.
     999901    1    3    3    0    0 -0.45421304643E-01  0.98846442647E-01  0.92647031224E-01  0.89152520241E+00  0.88000000000E+00 0.  1.
        -11    1    4    4    0    0  0.30009074472E-01 -0.53893406780E-01 -0.52500769447E-01  0.81003924340E-01  0.51100000000E-03 0.  1.
         11    1    4    4    0    0  0.18158953110E-01 -0.22044842496E-01 -0.38944136757E-01  0.48297303935E-01  0.51100000000E-03 0. -1.
</event>
<event>
 8    1  0.1145101E+005  0.1043930E+01  0.7957747E-01            NaN
         13   -1    0    0    0    0  0.00000000000E+00  0.00000000000E+00  0.74505805969E-08  0.10566000000E+00  0.10566000000E+00 0.  1.
     999900   -1    0    0    0    0 -0.00000000000E+00 -0.00000000000E+00 -0.74505805969E-08  0.93827000000E+00  0.93827000000E+00 0.  1.
     999902    2    1    2    0    0  0.22376525423E-01  0.85199820072E-02  0.27274740352E-02  0.10198314918E+01  0.10195467295E+01 0.  0.
     999903    2    3    3    0    0  0.43704058512E-01 -0.69055509974E-01  0.99934769593E-01  0.13083088496E+00  0.21238034252E-01 0.  0.
         14    1    1    2    0    0 -0.22376525423E-01 -0.85199820072E-02 -0.27274740352E-02  0.24098508211E-01  0.00000000000E+00 0.  1.
     999901    1    3    3    0    0 -0.21327533089E-01  0.77575491981E-01 -0.97207295558E-01  0.88900060682E+00  0.88000000000E+00 0.  1.
        -11    1    4    4    0    0  0.21532457213E-01 -0.21464456953E-01  0.25180726554E-01  0.39480371537E-01  0.51100000000E-03 0. -1.
         11    1    4    4    0    0  0.22171601298E-01 -0.47591053020E-01  0.74754043040E-01  0.91350513428E-01  0.51100000000E-03 0.  1.
</event>
<event>
 8    1  0.1145101E+005  0.1043930E+01  0.7957747E-01            NaN
         13   -1    0    0    0    0  0.00000000000E+00  0.00000000000E+00  0.74505805969E-08  0.10566000000E+00  0.10566000000E+00 0. -1.
     999900   -1    0    0    0    0 -0.00000000000E+00 -0.00000000000E+00 -0.74505805969E-08  0.93827000000E+00  0.93827000000E+00 0.  1.
     999902    2    1    2    0    0 -0.21297572773E-01 -0.15577282221E-02 -0.83791888035E-02  0.10209904288E+01  0.10207326936E+01 0.  0.
     999903    2    3    3    0    0  0.83619676670E-03  0.33334998717E-01 -0.12638628713E+00  0.13215237749E+00  0.19463708174E-01 0.  0.
         14    1    1    2    0    0  0.21297572773E-01  0.15577282221E-02  0.83791888035E-02  0.22939571231E-01  0.00000000000E+00 0. -1.
     999901    1    3    3    0    0 -0.22133769540E-01 -0.34892726939E-01  0.11800709833E+00  0.88883805128E+00  0.88000000000E+00 0. -1.
        -11    1    4    4    0    0 -0.52317151812E-02  0.25658062251E-01 -0.10986572686E+00  0.11294443794E+00  0.51100000000E-03 0. -1.
         11    1    4    4    0    0  0.60679119479E-02  0.76769364659E-02 -0.16520560273E-01  0.19207939547E-01  0.51100000000E-03 0.  1.
</event>
<event>
 8    1  0.1145101E+005  0.1043930E+01  0.7957747E-01            NaN
         13   -1    0    0    0    0  0.00000000000E+00  0.00000000000E+00  0.74505805969E-08  0.10566000000E+00  0.10566000000E+00 0. -1.
     999900   -1    0    0    0    0 -0.00000000000E+00 -0.00000000000E+00 -0.74505805969E-08  0.93827000000E+00  0.93827000000E+00 0.  1.
     999902    2    1    2    0    0 -0.10603277254E-01 -0.18184435928E-01 -0.11948468625E-01  0.10197252670E+01  0.10194379584E+01 0.  0.
     999903    2    3    3    0    0  0.10932949089E+00 -0.42351104148E-01  0.52055590386E-01  0.12895907077E+00  0.13194841521E-01 0.  0.
         14    1    1    2    0    0  0.10603277254E-01  0.18184435928E-01  0.11948468625E-01  0.24204733029E-01  0.00000000000E+00 0.  1.
     999901    1    3    3    0    0 -0.11993276814E+00  0.24166668220E-01 -0.64004059011E-01  0.89076619620E+00  0.88000000000E+00 0.  1.
        -11    1    4    4    0    0  0.15550658537E-01 -0.82514610957E-02  0.12598803371E-01  0.21654111816E-01  0.51100000000E-03 0. -1.
         11    1    4    4    0    0  0.93778832350E-01 -0.34099643052E-01  0.39456787015E-01  0.10730495895E+00  0.51100000000E-03 0.  1.
</event>
<event>
 8    1  0.1145101E+005  0.1043930E+01  0.7957747E-01            NaN
         13   -1    0    0    0    0  0.00000000000E+00  0.00000000000E+00  0.74505805969E-08  0.10566000000E+00  0.10566000000E+00 0. -1.
     999900   -1    0    0    0    0 -0.00000000000E+00 -0.00000000000E+00 -0.74505805969E-08  0.93827000000E+00  0.93827000000E+00 0. -1.
     999902    2    1    2    0    0  0.58583811206E-02 -0.18116417311E-01  0.14486069977E-01  0.10200057147E+01  0.10197251034E+01 0.  0.
     999903    2    3    3    0    0 -0.11778471577E+00 -0.50890820634E-01  0.14946711652E-01  0.13075772388E+00  0.20274695337E-01 0.  0.
         14    1    1    2    0    0 -0.58583811206E-02  0.18116417311E-01 -0.14486069977E-01  0.23924285338E-01  0.00000000000E+00 0. -1.
     999901    1    3    3    0    0  0.12364309689E+00  0.32774403323E-01 -0.46064167541E-03  0.88924799078E+00  0.88000000000E+00 0.  1.
        -11    1    4    4    0    0 -0.91320102667E-01 -0.31702163671E-01  0.16320418722E-01  0.98035735938E-01  0.51100000000E-03 0.  1.
         11    1    4    4    0    0 -0.26464613102E-01 -0.19188656963E-01 -0.13737070696E-02  0.32721987941E-01  0.51100000000E-03 0. -1.
</event>
<event>
 8    1  0.1145101E+005  0.1043930E+01  0.7957747E-01            NaN
         13   -1    0    0    0    0  0.00000000000E+00  0.00000000000E+00  0.74505805969E-08  0.10566000000E+00  0.10566000000E+00 0. -1.
     999900   -1    0    0    0    0 -0.00000000000E+00 -0.00000000000E+00 -0.74505805969E-08  0.93827000000E+00  0.93827000000E+00 0. -1.
     999902    2    1    2    0    0 -0.11752601804E-01 -0.12908582810E-01 -0.89104970618E-02  0.10243302011E+01  0.10241426701E+01 0.  0.
     999903    2    3    3    0    0 -0.40485203335E-01  0.12310581934E+00 -0.24072389879E-01  0.13328847201E+00  0.19805109740E-01 0.  0.
         14    1    1    2    0    0  0.11752601804E-01  0.12908582810E-01  0.89104970618E-02  0.19599798907E-01  0.00000000000E+00 0.  1.
     999901    1    3    3    0    0  0.28732601531E-01 -0.13601440214E+00  0.15161892817E-01  0.89104172909E+00  0.88000000000E+00 0. -1.
        -11    1    4    4    0    0 -0.95007567416E-02  0.57002018069E-01 -0.61732155031E-02  0.58119395672E-01  0.51100000000E-03 0.  1.
         11    1    4    4    0    0 -0.30984446593E-01  0.66103801266E-01 -0.17899174376E-01  0.75169076334E-01  0.51100000000E-03 0. -1.
</event>
<event>
 8    1  0.1145101E+005  0.1043930E+01  0.7957747E-01            NaN
         13   -1    0    0    0    0  0.00000000000E+00  0.00000000000E+00  0.74505805969E-08  0.10566000000E+00  0.10566000000E+00 0. -1.
     999900   -1    0    0    0    0 -0.00000000000E+00 -0.00000000000E+00 -0.74505805969E-08  0.93827000000E+00  0.93827000000E+00 0.  1.
     999902    2    1    2    0    0  0.13587225243E-01 -0.20888593355E-01  0.22047077773E-02  0.10189138700E+01  0.10186067287E+01 0.  0.
     999903    2    3    3    0    0  0.92284865879E-01 -0.32849670151E-01  0.85372596870E-01  0.13141554115E+00  0.19646039274E-01 0.  0.
         14    1    1    2    0    0 -0.13587225243E-01  0.20888593355E-01 -0.22047077773E-02  0.25016129967E-01  0.00000000000E+00 0. -1.
     999901    1    3    3    0    0 -0.78697640636E-01  0.11961076796E-01 -0.83167889093E-01  0.88749832889E+00  0.88000000000E+00 0.  1.
        -11    1    4    4    0    0  0.58450250819E-01 -0.25467962368E-01  0.44042013503E-01  0.77491993150E-01  0.51100000000E-03 0. -1.
         11    1    4    4    0    0  0.33834615060E-01 -0.73817077827E-02  0.41330583367E-01  0.53923547996E-01  0.51100000000E-03 0.  1.
</event>
<event>
 8    1  0.1145101E+005  0.1043930E+01  0.7957747E-01            NaN
         13   -1    0    0    0    0  0.00000000000E+00  0.00000000000E+00  0.74505805969E-08  0.10566000000E+00  0.10566000000E+00 0. -1.
     999900   -1    0    0    0    0 -0.00000000000E+00 -0.00000000000E+00 -0.74505805969E-08  0.93827000000E+00  0.93827000000E+00 0.  1.
     999902    2    1    2    0    0 -0.79341603612E-02 -0.16120893839E-01  0.16410034306E-01  0.10195964153E+01  0.10193060025E+01 0.  0.
     999903    2    3    3    0    0  0.11406237246E+00 -0.31144522335E-01  0.51215200896E-01  0.13037188625E+00  0.19840006024E-01 0.  0.
         14    1    1    2    0    0  0.79341603612E-02  0.16120893839E-01 -0.16410034306E-01  0.24333584708E-01  0.00000000000E+00 0.  1.
     999901    1    3    3    0    0 -0.12199653282E+00  0.15023628496E-01 -0.34805166590E-01  0.88922452904E+00  0.88000000000E+00 0. -1.
        -11    1    4    4    0    0  0.49003226763E-01 -0.72438912764E-02  0.12969677148E-01  0.51208044684E-01  0.51100000000E-03 0. -1.
         11    1    4    4    0    0  0.65059145694E-01 -0.23900631059E-01  0.38245523748E-01  0.79163841564E-01  0.51100000000E-03 0.  1.
</event>
<event>
 8    1  0.1145101E+005  0.1043930E+01  0.7957747E-01            NaN
         13   -1    0    0    0    0  0.00000000000E+00  0.00000000000E+00  0.74505805969E-08  0.10566000000E+00  0.10566000000E+00 0. -1.
     999900   -1    0    0    0    0 -0.00000000000E+00 -0.00000000000E+00 -0.74505805969E-08  0.93827000000E+00  0.93827000000E+00 0. -1.
     999902    2    1    2    0    0 -0.19068289476E-01  0.13036518291E-02 -0.15087012507E-01  0.10195801105E+01  0.10192893037E+01 0.  0.
     999903    2    3    3    0    0  0.74355976253E-01  0.22650065838E-01 -0.10233791307E+00  0.13008784946E+00  0.20198104833E-01 0.  0.
         14    1    1    2    0    0  0.19068289476E-01 -0.13036518291E-02  0.15087012507E-01  0.24349889487E-01  0.00000000000E+00 0. -1.
     999901    1    3    3    0    0 -0.93424265729E-01 -0.21346414009E-01  0.87250900565E-01  0.88949226105E+00  0.88000000000E+00 0.  1.
        -11    1    4    4    0    0  0.44007201045E-01  0.32008976652E-02 -0.60050797231E-01  0.74520056755E-01  0.51100000000E-03 0. -1.
         11    1    4    4    0    0  0.30348775208E-01  0.19449168173E-01 -0.42287115841E-01  0.55567792708E-01  0.51100000000E-03 0.  1.
</event>
<event>
 8    1  0.1145101E+005  0.1043930E+01  0.7957747E-01            NaN
         13   -1    0    0    0    0  0.00000000000E+00  0.00000000000E+00  0.74505805969E-08  0.10566000000E+00  0.10566000000E+00 0. -1.
     999900   -1    0    0    0    0 -0.00000000000E+00 -0.00000000000E+00 -0.74505805969E-08  0.93827000000E+00  0.93827000000E+00 0.  1.
     999902    2    1    2    0    0  0.12636533722E-01 -0.19771927637E-01 -0.44862742464E-02  0.10200398815E+01  0.10197600806E+01 0.  0.
     999903    2    3    3    0    0  0.73518441663E-01 -0.10530371338E+00  0.29028130621E-01  0.13316587214E+00  0.19916922950E-01 0.  0.
         14    1    1    2    0    0 -0.12636533722E-01  0.19771927637E-01  0.44862742464E-02  0.23890118535E-01  0.00000000000E+00 0.  1.
     999901    1    3    3    0    0 -0.60881907941E-01  0.85531785738E-01 -0.33514404867E-01  0.88687400933E+00  0.88000000000E+00 0.  1.
        -11    1    4    4    0    0  0.35482928750E-01 -0.37583668228E-01  0.53559773251E-02  0.51966508101E-01  0.51100000000E-03 0. -1.
         11    1    4    4    0    0  0.38035512913E-01 -0.67720045147E-01  0.23672153296E-01  0.81199364037E-01  0.51100000000E-03 0.  1.
</event>
<event>
 8    1  0.1145101E+005  0.1043930E+01  0.7957747E-01            NaN
         13   -1    0    0    0    0  0.00000000000E+00  0.00000000000E+00  0.74505805969E-08  0.10566000000E+00  0.10566000000E+00 0. -1.
     999900   -1    0    0    0    0 -0.00000000000E+00 -0.00000000000E+00 -0.74505805969E-08  0.93827000000E+00  0.93827000000E+00 0.  1.
     999902    2    1    2    0    0 -0.17959425019E-01  0.13690560130E-01  0.77192729683E-04  0.10213472999E+01  0.10210976098E+01 0.  0.
     999903    2    3    3    0    0  0.21973257251E-01 -0.95931187376E-01  0.82280077779E-01  0.12984920069E+00  0.20129256697E-01 0.  0.
         14    1    1    2    0    0  0.17959425019E-01 -0.13690560130E-01 -0.77192729683E-04  0.22582700068E-01  0.00000000000E+00 0. -1.
     999901    1    3    3    0    0 -0.39932682270E-01  0.10962174751E+00 -0.82202885049E-01  0.89149809924E+00  0.88000000000E+00 0. -1.
        -11    1    4    4    0    0  0.10133930578E-01 -0.37119628020E-01  0.45026243869E-01  0.59229950964E-01  0.51100000000E-03 0.  1.
         11    1    4    4    0    0  0.11839326673E-01 -0.58811559356E-01  0.37253833910E-01  0.70619249727E-01  0.51100000000E-03 0. -1.
</event>
<event>
 8    1  0.1145101E+005  0.1043930E+01  0.7957747E-01            NaN
         13   -1    0    0    0    0  0.00000000000E+00  0.00000000000E+00  0.74505805969E-08  0.10566000000E+00  0.10566000000E+00 0.  1.
     999900   -1    0    0    0    0 -0.00000000000E+00 -0.00000000000E+00 -0.74505805969E-08  0.93827000000E+00  0.93827000000E+00 0.  1.
     999902    2    1    2    0    0  0.16315637936E-01  0.15385709035E-01 -0.66651111076E-03  0.10214942178E+01  0.10212478018E+01 0.  0.
     999903    2    3    3    0    0  0.22771070275E-01  0.28777833685E-01  0.12556006284E+00  0.13236308602E+00  0.20198311985E-01 0.  0.
         14    1    1    2    0    0 -0.16315637936E-01 -0.15385709035E-01  0.66651111076E-03  0.22435782153E-01  0.00000000000E+00 0. -1.
     999901    1    3    3    0    0 -0.64554323389E-02 -0.13392124650E-01 -0.12622657395E+00  0.88913113183E+00  0.88000000000E+00 0.  1.
        -11    1    4    4    0    0  0.12202006639E-01  0.28583245762E-01  0.99280654665E-01  0.10403268917E+00  0.51100000000E-03 0. -1.
         11    1    4    4    0    0  0.10569063635E-01  0.19458792328E-03  0.26279408178E-01  0.28330396851E-01  0.51100000000E-03 0.  1.
</event>
<event>
 8    1  0.1145101E+005  0.1043930E+01  0.7957747E-01            NaN
         13   -1    0    0    0    0  0.00000000000E+00  0.00000000000E+00  0.74505805969E-08  0.10566000000E+00  0.10566000000E+00 0.  1.
     999900   -1    0    0    0    0 -0.00000000000E+00 -0.00000000000E+00 -0.74505805969E-08  0.93827000000E+00  0.93827000000E+00 0.  1.
     999902    2    1    2    0    0  0.77467020928E-02  0.20813003874E-01 -0.78200564962E-02  0.10203854506E+01  0.10201137789E+01 0.  0.
     999903    2    3    3    0    0 -0.91926389380E-01  0.10583048995E-01  0.88458841337E-01  0.12948197472E+00  0.19446160962E-01 0.  0.
         14    1    1    2    0    0 -0.77467020928E-02 -0.20813003874E-01  0.78200564962E-02  0.23544549415E-01  0.00000000000E+00 0.  1.
     999901    1    3    3    0    0  0.99673091473E-01  0.10229954879E-01 -0.96278897833E-01  0.89090347587E+00  0.88000000000E+00 0.  1.
        -11    1    4    4    0    0 -0.30995961931E-01  0.37574500301E-02  0.43056219539E-01  0.53188036707E-01  0.51100000000E-03 0. -1.
         11    1    4    4    0    0 -0.60930427449E-01  0.68255989649E-02  0.45402621798E-01  0.76293938013E-01  0.51100000000E-03 0.  1.
</event>
<event>
 8    1  0.1145101E+005  0.1043930E+01  0.7957747E-01            NaN
         13   -1    0    0    0    0  0.00000000000E+00  0.00000000000E+00  0.74505805969E-08  0.10566000000E+00  0.10566000000E+00 0. -1.
     999900   -1    0    0    0    0 -0.00000000000E+00 -0.00000000000E+00 -0.74505805969E-08  0.93827000000E+00  0.93827000000E+00 0. -1.
     999902    2    1    2    0    0 -0.45372322632E-03  0.50534455383E-02  0.23386909036E-01  0.10199990433E+01  0.10197182736E+01 0.  0.
     999903    2    3    3    0    0 -0.26359767773E-01 -0.81877721890E-02  0.12882779656E+00  0.13322723847E+00  0.19774198697E-01 0.  0.
         14    1    1    2    0    0  0.45372322632E-03 -0.50534455383E-02 -0.23386909036E-01  0.23930956747E-01  0.00000000000E+00 0.  1.
     999901    1    3    3    0    0  0.25906044547E-01  0.13241217727E-01 -0.10544088752E+00  0.88677180478E+00  0.88000000000E+00 0. -1.
        -11    1    4    4    0    0 -0.16553739647E-01 -0.19132450709E-02  0.36024952199E-01  0.39695655996E-01  0.51100000000E-03 0.  1.
         11    1    4    4    0    0 -0.98060281264E-02 -0.62745271181E-02  0.92802844361E-01  0.93531582477E-01  0.51100000000E-03 0. -1.
</event>
<event>
 8    1  0.1145101E+005  0.1043930E+01  0.7957747E-01            NaN
         13   -1    0    0    0    0  0.00000000000E+00  0.00000000000E+00  0.74505805969E-08  0.10566000000E+00  0.10566000000E+00 0. -1.
     999900   -1    0    0    0    0 -0.00000000000E+00 -0.00000000000E+00 -0.74505805969E-08  0.93827000000E+00  0.93827000000E+00 0.  1.
     999902    2    1    2    0    0  0.24657747162E-02  0.12413316824E-01 -0.19257796329E-01  0.10208858424E+01  0.10206257248E+01 0.  0.
     999903    2    3    3    0    0  0.53221215423E-01 -0.56357079165E-01 -0.10549874765E+00  0.13254864077E+00  0.20749416194E-01 0.  0.
         14    1    1    2    0    0 -0.24657747162E-02 -0.12413316824E-01  0.19257796329E-01  0.23044157589E-01  0.00000000000E+00 0. -1.
     999901    1    3    3    0    0 -0.50755440707E-01  0.68770395989E-01  0.86240951321E-01  0.88833720164E+00  0.88000000000E+00 0. -1.
        -11    1    4    4    0    0  0.49961601042E-01 -0.42662407242E-01 -0.81072111649E-01  0.10435128642E+00  0.51100000000E-03 0.  1.
         11    1    4    4    0    0  0.32596143812E-02 -0.13694671923E-01 -0.24426636001E-01  0.28197354350E-01  0.51100000000E-03 0. -1.
</event>
<event>
 8    1  0.1145101E+005  0.1043930E+01  0.7957747E-01            NaN
         13   -1    0    0    0    0  0.00000000000E+00  0.00000000000E+00  0.74505805969E-08  0.10566000000E+00  0.10566000000E+00 0.  1.
     999900   -1    0    0    0    0 -0.00000000000E+00 -0.00000000000E+00 -0.74505805969E-08  0.93827000000E+00  0.93827000000E+00 0. -1.
     999902    2    1    2    0    0 -0.11129209754E-01  0.20813841439E-01  0.41618904661E-02  0.10199634267E+01  0.10196818107E+01 0.  0.
     999903    2    3    3    0    0  0.53612800189E-01  0.11908649452E+00  0.29462359990E-02  0.13212868978E+00  0.19833931464E-01 0.  0.
         14    1    1    2    0    0  0.11129209754E-01 -0.20813841439E-01 -0.41618904661E-02  0.23966573336E-01  0.00000000000E+00 0. -1.
     999901    1    3    3    0    0 -0.64742009943E-01 -0.98272653077E-01  0.12156544671E-02  0.88783473688E+00  0.88000000000E+00 0.  1.
        -11    1    4    4    0    0  0.26961530010E-02  0.95005882550E-02 -0.48995838173E-02  0.11036188689E-01  0.51100000000E-03 0. -1.
         11    1    4    4    0    0  0.50916647188E-01  0.10958590626E+00  0.78458198163E-02  0.12109250110E+00  0.51100000000E-03 0.  1.
</event>
<event>
 7    1  0.1145101E+005  0.1043930E+01  0.7957747E-01            NaN
         13   -1    0    0    0    0  0.00000000000E+00  0.00000000000E+00  0.74505805969E-08  0.10566000000E+00  0.10566000000E+00 0.  1.
     999900   -1    0    0    0    0 -0.00000000000E+00 -0.00000000000E+00 -0.74505805969E-08  0.93827000000E+00  0.93827000000E+00 0. -1.
     999903    2    1    2    0    0 -0.10624390769E+00 -0.23890843781E-01 -0.20585285200E-01  0.11271791537E+00  0.20567793785E-01 0.  0.
         14    1    1    2    0    0  0.50984391597E-02 -0.11440381470E-01 -0.40714234727E-01  0.42597245444E-01  0.00000000000E+00 0. -1.
     999901    1    1    2    0    0  0.10114546853E+00  0.35331225250E-01  0.61299519927E-01  0.88861483919E+00  0.88000000000E+00 0.  1.
        -11    1    3    3    0    0 -0.90392952127E-01 -0.15738285449E-01 -0.10827788536E-01  0.92390917025E-01  0.51100000000E-03 0. -1.
         11    1    3    3    0    0 -0.15850955559E-01 -0.81525583322E-02 -0.97574966642E-02  0.20326998343E-01  0.51100000000E-03 0.  1.
</event>
<event>
 8    1  0.1145101E+005  0.1043930E+01  0.7957747E-01            NaN
         13   -1    0    0    0    0  0.00000000000E+00  0.00000000000E+00  0.74505805969E-08  0.10566000000E+00  0.10566000000E+00 0. -1.
     999900   -1    0    0    0    0 -0.00000000000E+00 -0.00000000000E+00 -0.74505805969E-08  0.93827000000E+00  0.93827000000E+00 0.  1.
     999902    2    1    2    0    0  0.11039059912E-01  0.20408752097E-01  0.75501240664E-02  0.10195295414E+01  0.10192375108E+01 0.  0.
     999903    2    3    3    0    0 -0.10275803335E+00  0.74043300441E-02 -0.73957264938E-01  0.12837167218E+00  0.19888983374E-01 0.  0.
         14    1    1    2    0    0 -0.11039059912E-01 -0.20408752097E-01 -0.75501240664E-02  0.24400458589E-01  0.00000000000E+00 0. -1.
     999901    1    3    3    0    0  0.11379709326E+00  0.13004422053E-01  0.81507389004E-01  0.89115786923E+00  0.88000000000E+00 0. -1.
        -11    1    4    4    0    0 -0.33708131626E-01  0.80316483935E-02 -0.34203048789E-01  0.48691428210E-01  0.51100000000E-03 0.  1.
         11    1    4    4    0    0 -0.69049901727E-01 -0.62731834940E-03 -0.39754216148E-01  0.79680243971E-01  0.51100000000E-03 0. -1.
</event>
<event>
 8    1  0.1145101E+005  0.1043930E+01  0.7957747E-01            NaN
         13   -1    0    0    0    0  0.00000000000E+00  0.00000000000E+00  0.74505805969E-08  0.10566000000E+00  0.10566000000E+00 0.  1.
     999900   -1    0    0    0    0 -0.00000000000E+00 -0.00000000000E+00 -0.74505805969E-08  0.93827000000E+00  0.93827000000E+00 0.  1.
     999902    2    1    2    0    0  0.17724267740E-01 -0.75688424124E-02  0.15226664842E-01  0.10193680708E+01  0.10190721149E+01 0.  0.
     999903    2    3    3    0    0 -0.71219789082E-01  0.41016624668E-01 -0.94372376144E-01  0.12679676127E+00  0.20412041416E-01 0.  0.
         14    1    1    2    0    0 -0.17724267740E-01  0.75688424124E-02 -0.15226664842E-01  0.24561929171E-01  0.00000000000E+00 0.  1.
     999901    1    3    3    0    0  0.88944056822E-01 -0.48585467080E-01  0.10959904099E+00  0.89257130955E+00  0.88000000000E+00 0. -1.
        -11    1    4    4    0    0 -0.27193326967E-01  0.63140558015E-02 -0.23959660433E-01  0.36792265238E-01  0.51100000000E-03 0.  1.
         11    1    4    4    0    0 -0.44026462114E-01  0.34702568866E-01 -0.70412715710E-01  0.90004496037E-01  0.51100000000E-03 0. -1.
</event>
<event>
 8    1  0.1145101E+005  0.1043930E+01  0.7957747E-01            NaN
         13   -1    0    0    0    0  0.00000000000E+00  0.00000000000E+00  0.74505805969E-08  0.10566000000E+00  0.10566000000E+00 0. -1.
     999900   -1    0    0    0    0 -0.00000000000E+00 -0.00000000000E+00 -0.74505805969E-08  0.93827000000E+00  0.93827000000E+00 0.  1.
     999902    2    1    2    0    0  0.19828300408E-01 -0.11902252707E-01  0.60378493430E-02  0.10200285201E+01  0.10197484499E+01 0.  0.
     999903    2    3    3    0    0 -0.79882720017E-01  0.69641572097E-01 -0.68262357381E-01  0.12755319626E+00  0.19464606808E-01 0.  0.
         14    1    1    2    0    0 -0.19828300408E-01  0.11902252707E-01 -0.60378493430E-02  0.23901479897E-01  0.00000000000E+00 0.  1.
     999901    1    3    3    0    0  0.99711020425E-01 -0.81543824804E-01  0.74300206724E-01  0.89247532385E+00  0.88000000000E+00 0.  1.
        -11    1    4    4    0    0 -0.63599964399E-01  0.64590975813E-01 -0.56079701469E-01  0.10659335658E+00  0.51100000000E-03 0.  1.
         11    1    4    4    0    0 -0.16282755618E-01  0.50505962836E-02 -0.12182655912E-01  0.20959839680E-01  0.51100000000E-03 0. -1.
</event>
<event>
 8    1  0.1145101E+005  0.1043930E+01  0.7957747E-01            NaN
         13   -1    0    0    0    0  0.00000000000E+00  0.00000000000E+00  0.74505805969E-08  0.10566000000E+00  0.10566000000E+00 0.  1.
     999900   -1    0    0    0    0 -0.00000000000E+00 -0.00000000000E+00 -0.74505805969E-08  0.93827000000E+00  0.93827000000E+00 0.  1.
     999902    2    1    2    0    0 -0.12891194492E-01  0.16212481193E-01  0.89894301179E-02  0.10213504230E+01  0.10211008027E+01 0.  0.
     999903    2    3    3    0    0 -0.71726859133E-01  0.24149825156E-01 -0.10612948208E+00  0.13186911306E+00  0.19950930678E-01 0.  0.
         14    1    1    2    0    0  0.12891194492E-01 -0.16212481193E-01 -0.89894301179E-02  0.22579576960E-01  0.00000000000E+00 0.  1.
     999901    1    3    3    0    0  0.58835664642E-01 -0.79373439626E-02  0.11511891220E+00  0.88948130998E+00  0.88000000000E+00 0.  1.
        -11    1    4    4    0    0 -0.31308509844E-01  0.41154076921E-03 -0.45387088952E-01  0.55142008659E-01  0.51100000000E-03 0.  1.
         11    1    4    4    0    0 -0.40418349289E-01  0.23738284387E-01 -0.60742393131E-01  0.76727104397E-01  0.51100000000E-03 0. -1.
</event>
<event>
 8    1  0.1145101E+005  0.1043930E+01  0.7957747E-01            NaN
         13   -1    0    0    0    0  0.00000000000E+00  0.00000000000E+00  0.74505805969E-08  0.10566000000E+00  0.10566000000E+00 0. -1.
     999900   -1    0    0    0    0 -0.00000000000E+00 -0.00000000000E+00 -0.74505805969E-08  0.93827000000E+00  0.93827000000E+00 0.  1.
     999902    2    1    2    0    0  0.13336023168E-01 -0.13883652584E-01  0.13274650273E-01  0.10205457818E+01  0.10202778401E+01 0.  0.
     999903    2    3    3    0    0 -0.54858426763E-01  0.98965920802E-01  0.59671419746E-01  0.12951370072E+00  0.20234126444E-01 0.  0.
         14    1    1    2    0    0 -0.13336023168E-01  0.13883652584E-01 -0.13274650273E-01  0.23384218244E-01  0.00000000000E+00 0.  1.
     999901    1    3    3    0    0  0.68194449932E-01 -0.11284957339E+00 -0.46396769474E-01  0.89103208103E+00  0.88000000000E+00 0.  1.
        -11    1    4    4    0    0 -0.19572666501E-01  0.55015798829E-01  0.26662021671E-01  0.64194640862E-01  0.51100000000E-03 0. -1.
         11    1    4    4    0    0 -0.35285760262E-01  0.43950121973E-01  0.33009398075E-01  0.65319059860E-01  0.51100000000E-03 0.  1.
</event>
<event>
 8    1  0.1145101E+005  0.1043930E+01  0.7957747E-01            NaN
         13   -1    0    0    0    0  0.00000000000E+00  0.00000000000E+00  0.74505805969E-08  0.10566000000E+00  0.10566000000E+00 0. -1.
     999900   -1    0    0    0    0 -0.00000000000E+00 -0.00000000000E+00 -0.74505805969E-08  0.93827000000E+00  0.93827000000E+00 0. -1.
     999902    2    1    2    0    0 -0.11681839666E-01 -0.16207944354E-02  0.23944964792E-01  0.10172381718E+01  0.10168879213E+01 0.  0.
     999903    2    3    3    0    0  0.36960774597E-01 -0.11725395848E+00  0.31268865852E-01  0.12831141889E+00  0.19274039775E-01 0.  0.
         14    1    1    2    0    0  0.11681839666E-01  0.16207944354E-02 -0.23944964792E-01  0.26691828178E-01  0.00000000000E+00 0.  1.
     999901    1    3    3    0    0 -0.48642614263E-01  0.11563316404E+00 -0.73239010597E-02  0.88892675293E+00  0.88000000000E+00 0.  1.
        -11    1    4    4    0    0  0.19614544773E-01 -0.45259034168E-01  0.20731733671E-01  0.53508657640E-01  0.51100000000E-03 0.  1.
         11    1    4    4    0    0  0.17346229824E-01 -0.71994924309E-01  0.10537132181E-01  0.74802761252E-01  0.51100000000E-03 0. -1.
</event>
<event>
 8    1  0.1145101E+005  0.1043930E+01  0.7957747E-01            NaN
         13   -1    0    0    0    0  0.00000000000E+00  0.00000000000E+00  0.74505805969E-08  0.10566000000E+00  0.10566000000E+00 0. -1.
     999900   -1    0    0    0    0 -0.00000000000E+00 -0.00000000000E+00 -0.74505805969E-08  0.93827000000E+00  0.93827000000E+00 0. -1.
     999902    2    1    2    0    0 -0.23368580053E-01  0.38273820177E-02  0.28733469132E-02  0.10200763732E+01  0.10197974366E+01 0.  0.
     999903    2    3    3    0    0  0.12287109344E+00 -0.25764504312E-01  0.68645425801E-02  0.12750836380E+00  0.21216635170E-01 0.  0.
         14    1    1    2    0    0  0.23368580053E-01 -0.38273820177E-02 -0.28733469132E-02  0.23853626754E-01  0.00000000000E+00 0. -1.
     999901    1    3    3    0    0 -0.14623967350E+00  0.29591886330E-01 -0.39911956669E-02  0.89256800944E+00  0.88000000000E+00 0. -1.
        -11    1    4    4    0    0  0.41331981777E-01  0.84503027305E-03  0.56418852704E-02  0.41726955127E-01  0.51100000000E-03 0. -1.
         11    1    4    4    0    0  0.81539111667E-01 -0.26609534585E-01  0.12226573097E-02  0.85781408674E-01  0.51100000000E-03 0.  1.
</event>
<event>
 8    1  0.1145101E+005  0.1043930E+01  0.7957747E-01            NaN
         13   -1    0    0    0    0  0.00000000000E+00  0.00000000000E+00  0.74505805969E-08  0.10566000000E+00  0.10566000000E+00 0.  1.
     999900   -1    0    0    0    0 -0.00000000000E+00 -0.00000000000E+00 -0.74505805969E-08  0.93827000000E+00  0.93827000000E+00 0.  1.
     999902    2    1    2    0    0 -0.79184998319E-02 -0.38498376928E-02  0.22102656575E-01  0.10201381670E+01  0.10198606907E+01 0.  0.
     999903    2    3    3    0    0  0.63437699729E-01 -0.49388256048E-01  0.10314851778E+00  0.13236911686E+00  0.20455434409E-01 0.  0.
         14    1    1    2    0    0  0.79184998319E-02  0.38498376928E-02 -0.22102656575E-01  0.23791833001E-01  0.00000000000E+00 0. -1.
     999901    1    3    3    0    0 -0.71356199561E-01  0.45538418355E-01 -0.81045861203E-01  0.88776905014E+00  0.88000000000E+00 0.  1.
        -11    1    4    4    0    0  0.14985847816E-01 -0.11760437014E-01  0.40104905687E-01  0.44402118133E-01  0.51100000000E-03 0. -1.
         11    1    4    4    0    0  0.48451851913E-01 -0.37627819034E-01  0.63043612091E-01  0.87966998730E-01  0.51100000000E-03 0.  1.
</event>
<event>
 8    1  0.1145101E+005  0.1043930E+01  0.7957747E-01            NaN
         13   -1    0    0    0    0  0.00000000000E+00  0.00000000000E+00  0.74505805969E-08  0.10566000000E+00  0.10566000000E+00 0. -1.
     999900   -1    0    0    0    0 -0.00000000000E+00 -0.00000000000E+00 -0.74505805969E-08  0.93827000000E+00  0.93827000000E+00 0.  1.
     999902    2    1    2    0    0  0.85518791392E-02  0.18764512205E-01 -0.11238852074E-01  0.10204448270E+01  0.10201745398E+01 0.  0.
     999903    2    3    3    0    0  0.10647343229E+00 -0.55340760510E-01 -0.48995988481E-01  0.13111596579E+00  0.19788836281E-01 0.  0.
         14    1    1    2    0    0 -0.85518791392E-02 -0.18764512205E-01  0.11238852074E-01  0.23485173004E-01  0.00000000000E+00 0. -1.
     999901    1    3    3    0    0 -0.97921553152E-01  0.74105272715E-01  0.37757136407E-01  0.88932886120E+00  0.88000000000E+00 0. -1.
        -11    1    4    4    0    0  0.35056647502E-01 -0.26879940104E-01 -0.23982613587E-01  0.50268544733E-01  0.51100000000E-03 0. -1.
         11    1    4    4    0    0  0.71416784788E-01 -0.28460820406E-01 -0.25013374894E-01  0.80847421061E-01  0.51100000000E-03 0.  1.
</event>
<event>
 8    1  0.1145101E+005  0.1043930E+01  0.7957747E-01            NaN
         13   -1    0    0    0    0  0.00000000000E+00  0.00000000000E+00  0.74505805969E-08  0.10566000000E+00  0.10566000000E+00 0. -1.
     999900   -1    0    0    0    0 -0.00000000000E+00 -0.00000000000E+00 -0.74505805969E-08  0.93827000000E+00  0.93827000000E+00 0. -1.
     999902    2    1    2    0    0 -0.15946580431E-01  0.12278279329E-01 -0.11471247583E-01  0.10207645280E+01  0.10205016328E+01 0.  0.
     999903    2    3    3    0    0 -0.10422213489E+00 -0.75166371298E-01  0.16950124543E-01  0.13158124274E+00  0.22673331094E-01 0.  0.
         14    1    1    2    0    0  0.15946580431E-01 -0.12278279329E-01  0.11471247583E-01  0.23165471975E-01  0.00000000000E+00 0. -1.
     999901    1    3    3    0    0  0.88275554462E-01  0.87444650627E-01 -0.28421372126E-01  0.88918328529E+00  0.88000000000E+00 0. -1.
        -11    1    4    4    0    0 -0.49820084401E-01 -0.48903019540E-01  0.13227069142E-01  0.71054645231E-01  0.51100000000E-03 0.  1.
         11    1    4    4    0    0 -0.54402050492E-01 -0.26263351757E-01  0.37230554018E-02  0.60526597507E-01  0.51100000000E-03 0. -1.
</event>
<event>
 8    1  0.1145101E+005  0.1043930E+01  0.7957747E-01            NaN
         13   -1    0    0    0    0  0.00000000000E+00  0.00000000000E+00  0.74505805969E-08  0.10566000000E+00  0.10566000000E+00 0. -1.
     999900   -1    0    0    0    0 -0.00000000000E+00 -0.00000000000E+00 -0.74505805969E-08  0.93827000000E+00  0.93827000000E+00 0. -1.
     999902    2    1    2    0    0 -0.14813132802E-01 -0.18082374341E-01 -0.43398883192E-02  0.10201553119E+01  0.10198782401E+01 0.  0.
     999903    2    3    3    0    0 -0.47744464243E-02  0.12416209445E+00 -0.25621824003E-01  0.12842262495E+00  0.19921638938E-01 0.  0.
         14    1    1    2    0    0  0.14813132802E-01  0.18082374341E-01  0.43398883192E-02  0.23774688133E-01  0.00000000000E+00 0.  1.
     999901    1    3    3    0    0 -0.10038686377E-01 -0.14224446879E+00  0.21281935684E-01  0.89173268691E+00  0.88000000000E+00 0. -1.
        -11    1    4    4    0    0  0.12570127379E-02  0.50977575154E-01 -0.19986192866E-01  0.54772276527E-01  0.51100000000E-03 0.  1.
         11    1    4    4    0    0 -0.60314591622E-02  0.73184519294E-01 -0.56356311373E-02  0.73650348426E-01  0.51100000000E-03 0. -1.
</event>
<event>
 8    1  0.1145101E+005  0.1043930E+01  0.7957747E-01            NaN
         13   -1    0    0    0    0  0.00000000000E+00  0.00000000000E+00  0.74505805969E-08  0.10566000000E+00  0.10566000000E+00 0. -1.
     999900   -1    0    0    0    0 -0.00000000000E+00 -0.00000000000E+00 -0.74505805969E-08  0.93827000000E+00  0.93827000000E+00 0.  1.
     999902    2    1    2    0    0 -0.96870333364E-02 -0.19921745068E-01 -0.85475390601E-02  0.10201860541E+01  0.10199097068E+01 0.  0.
     999903    2    3    3    0    0  0.95455208261E-01  0.51682718589E-01 -0.66862827072E-01  0.12912894990E+00  0.20514577097E-01 0.  0.
         14    1    1    2    0    0  0.96870333364E-02  0.19921745068E-01  0.85475390601E-02  0.23743945869E-01  0.00000000000E+00 0. -1.
     999901    1    3    3    0    0 -0.10514224160E+00 -0.71604463658E-01  0.58315288012E-01  0.89105710423E+00  0.88000000000E+00 0. -1.
        -11    1    4    4    0    0  0.25369069030E-01  0.23090982590E-01 -0.26454824660E-01  0.43323227133E-01  0.51100000000E-03 0.  1.
         11    1    4    4    0    0  0.70086139231E-01  0.28591735999E-01 -0.40408002412E-01  0.85805722768E-01  0.51100000000E-03 0. -1.
</event>
<event>
 8    1  0.1145101E+005  0.1043930E+01  0.7957747E-01            NaN
         13   -1    0    0    0    0  0.00000000000E+00  0.00000000000E+00  0.74505805969E-08  0.10566000000E+00  0.10566000000E+00 0. -1.
     999900   -1    0    0    0    0 -0.00000000000E+00 -0.00000000000E+00 -0.74505805969E-08  0.93827000000E+00  0.93827000000E+00 0. -1.
     999902    2    1    2    0    0  0.44190267843E-02  0.16748824825E-01  0.90702817092E-02  0.10243769711E+01  0.10241903426E+01 0.  0.
     999903    2    3    3    0    0 -0.79353885746E-02 -0.29351383670E-01  0.12985047529E+00  0.13484579343E+00  0.19944120848E-01 0.  0.
         14    1    1    2    0    0 -0.44190267843E-02 -0.16748824825E-01 -0.90702817092E-02  0.19553028948E-01  0.00000000000E+00 0.  1.
     999901    1    3    3    0    0  0.12354415359E-01  0.46100208495E-01 -0.12078019358E+00  0.88953117762E+00  0.88000000000E+00 0. -1.
        -11    1    4    4    0    0 -0.33067138426E-02 -0.36964645279E-02  0.61324184031E-01  0.61526537969E-01  0.51100000000E-03 0. -1.
         11    1    4    4    0    0 -0.46286747319E-02 -0.25654919142E-01  0.68526291262E-01  0.73319255459E-01  0.51100000000E-03 0.  1.
</event>
<event>
 8    1  0.1145101E+005  0.1043930E+01  0.7957747E-01            NaN
         13   -1    0    0    0    0  0.00000000000E+00  0.00000000000E+00  0.74505805969E-08  0.10566000000E+00  0.10566000000E+00 0. -1.
     999900   -1    0    0    0    0 -0.00000000000E+00 -0.00000000000E+00 -0.74505805969E-08  0.93827000000E+00  0.93827000000E+00 0. -1.
     999902    2    1    2    0    0  0.63921556391E-03  0.74164816334E-02 -0.22397775692E-01  0.10203276028E+01  0.10200545789E+01 0.  0.
     999903    2    3    3    0    0 -0.58991211298E-01 -0.96181349940E-01 -0.64002828519E-01  0.13127232955E+00  0.20130756603E-01 0.  0.
         14    1    1    2    0    0 -0.63921556391E-03 -0.74164816334E-02  0.22397775692E-01  0.23602397173E-01  0.00000000000E+00 0. -1.
     999901    1    3    3    0    0  0.59630426862E-01  0.10359783157E+00  0.41605052828E-01  0.88905527327E+00  0.88000000000E+00 0.  1.
        -11    1    4    4    0    0 -0.26251065625E-01 -0.47955276705E-01 -0.42091518845E-01  0.68998435417E-01  0.51100000000E-03 0.  1.
         11    1    4    4    0    0 -0.32740145673E-01 -0.48226073235E-01 -0.21911309674E-01  0.62273894137E-01  0.51100000000E-03 0. -1.
</event>
<event>
 8    1  0.1145101E+005  0.1043930E+01  0.7957747E-01            NaN
         13   -1    0    0    0    0  0.00000000000E+00  0.00000000000E+00  0.74505805969E-08  0.10566000000E+00  0.10566000000E+00 0.  1.
     999900   -1    0    0    0    0 -0.00000000000E+00 -0.00000000000E+00 -0.74505805969E-08  0.93827000000E+00  0.93827000000E+00 0. -1.
     999902    2    1    2    0    0  0.20168055051E-01  0.14731762360E-01 -0.65743862127E-02  0.10181036990E+01  0.10177760776E+01 0.  0.
     999903    2    3    3    0    0 -0.43769723212E-01 -0.92780172458E-01 -0.71722104521E-01  0.12687360484E+00  0.20709955512E-01 0.  0.
         14    1    1    2    0    0 -0.20168055051E-01 -0.14731762360E-01  0.65743862127E-02  0.25826300952E-01  0.00000000000E+00 0.  1.
     999901    1    3    3    0    0  0.63937778264E-01  0.10751193482E+00  0.65147718309E-01  0.89123009421E+00  0.88000000000E+00 0. -1.
        -11    1    4    4    0    0 -0.21145795764E-01 -0.24899037143E-01 -0.27934679020E-01  0.42985045563E-01  0.51100000000E-03 0.  1.
         11    1    4    4    0    0 -0.22623927448E-01 -0.67881135315E-01 -0.43787425501E-01  0.83888559279E-01  0.51100000000E-03 0. -1.
</event>
<event>
 8    1  0.1145101E+005  0.1043930E+01  0.7957747E-01            NaN
         13   -1    0    0    0    0  0.00000000000E+00  0.00000000000E+00  0.74505805969E-08  0.10566000000E+00  0.10566000000E+00 0. -1.
     999900   -1    0    0    0    0 -0.00000000000E+00 -0.00000000000E+00 -0.74505805969E-08  0.93827000000E+00  0.93827000000E+00 0. -1.
     999902    2    1    2    0    0  0.51589866212E-02  0.20525578751E-01  0.87328625982E-02  0.10210350788E+01  0.10207783573E+01 0.  0.
     999903    2    3    3    0    0  0.31317614807E-01  0.18763095964E-01 -0.12388796402E+00  0.13071173093E+00  0.20111743014E-01 0.  0.
         14    1    1    2    0    0 -0.51589866212E-02 -0.20525578751E-01 -0.87328625982E-02  0.22894921166E-01  0.00000000000E+00 0.  1.
     999901    1    3    3    0    0 -0.26158628185E-01  0.17624827876E-02  0.13262082661E+00  0.89032334791E+00  0.88000000000E+00 0.  1.
        -11    1    4    4    0    0  0.25045096563E-03  0.85001726283E-02 -0.34061933021E-01  0.35111138724E-01  0.51100000000E-03 0.  1.
         11    1    4    4    0    0  0.31067163841E-01  0.10262923335E-01 -0.89826030995E-01  0.95600592204E-01  0.51100000000E-03 0. -1.
</event>
<event>
 8    1  0.1145101E+005  0.1043930E+01  0.7957747E-01            NaN
         13   -1    0    0    0    0  0.00000000000E+00  0.00000000000E+00  0.74505805969E-08  0.10566000000E+00  0.10566000000E+00 0.  1.
     999900   -1    0    0    0    0 -0.00000000000E+00 -0.00000000000E+00 -0.74505805969E-08  0.93827000000E+00  0.93827000000E+00 0. -1.
     999902    2    1    2    0    0  0.59965240598E-02 -0.12774923782E-01 -0.16898478355E-01  0.10219137435E+01  0.10216765553E+01 0.  0.
     999903    2    3    3    0    0  0.81787312298E-01  0.96164981795E-01 -0.33074609965E-01  0.13181610066E+00  0.18565731632E-01 0.  0.
         14    1    1    2    0    0 -0.59965240598E-02  0.12774923782E-01  0.16898478355E-01  0.22016256474E-01  0.00000000000E+00 0.  1.
     999901    1    3    3    0    0 -0.75790788238E-01 -0.10893990558E+00  0.16176131610E-01  0.89009764287E+00  0.88000000000E+00 0.  1.
        -11    1    4    4    0    0  0.61071001754E-01  0.58498383431E-01 -0.23466305003E-01  0.87764780583E-01  0.51100000000E-03 0.  1.
         11    1    4    4    0    0  0.20716310544E-01  0.37666598364E-01 -0.96083049616E-02  0.44051320072E-01  0.51100000000E-03 0. -1.
</event>
<event>
 8    1  0.1145101E+005  0.1043930E+01  0.7957747E-01            NaN
         13   -1    0    0    0    0  0.00000000000E+00  0.00000000000E+00  0.74505805969E-08  0.10566000000E+00  0.10566000000E+00 0.  1.
     999900   -1    0    0    0    0 -0.00000000000E+00 -0.00000000000E+00 -0.74505805969E-08  0.93827000000E+00  0.93827000000E+00 0. -1.
     999902    2    1    2    0    0 -0.34579905399E-02  0.21748398941E-01  0.10230492138E-01  0.10196480412E+01  0.10193588742E+01 0.  0.
     999903    2    3    3    0    0  0.78413351525E-01  0.10279008548E+00  0.18370917900E-01  0.13210258423E+00  0.19978657723E-01 0.  0.
         14    1    1    2    0    0  0.34579905399E-02 -0.21748398941E-01 -0.10230492138E-01  0.24281958827E-01  0.00000000000E+00 0. -1.
     999901    1    3    3    0    0 -0.81871342065E-01 -0.81041686543E-01 -0.81404257629E-02  0.88754545694E+00  0.88000000000E+00 0.  1.
        -11    1    4    4    0    0  0.12674358275E-01  0.30866861483E-01  0.41369460042E-02  0.33627041778E-01  0.51100000000E-03 0.  1.
         11    1    4    4    0    0  0.65738993250E-01  0.71923224002E-01  0.14233971896E-01  0.98475542452E-01  0.51100000000E-03 0. -1.
</event>
<event>
 8    1  0.1145101E+005  0.1043930E+01  0.7957747E-01            NaN
         13   -1    0    0    0    0  0.00000000000E+00  0.00000000000E+00  0.74505805969E-08  0.10566000000E+00  0.10566000000E+00 0.  1.
     999900   -1    0    0    0    0 -0.00000000000E+00 -0.00000000000E+00 -0.74505805969E-08  0.93827000000E+00  0.93827000000E+00 0. -1.
     999902    2    1    2    0    0 -0.48660296808E-03 -0.23343368284E-01  0.62315915542E-02  0.10197642731E+01  0.10194779008E+01 0.  0.
     999903    2    3    3    0    0 -0.12272923832E-01 -0.12895271033E+00  0.23501166680E-01  0.13320322682E+00  0.20282224661E-01 0.  0.
         14    1    1    2    0    0  0.48660296808E-03  0.23343368284E-01 -0.62315915542E-02  0.24165726941E-01  0.00000000000E+00 0. -1.
     999901    1    3    3    0    0  0.11786320864E-01  0.10560934205E+00 -0.17269575125E-01  0.88656104624E+00  0.88000000000E+00 0. -1.
        -11    1    4    4    0    0 -0.39324418060E-02 -0.10338441455E+00  0.24363200689E-01  0.10629030031E+00  0.51100000000E-03 0.  1.
         11    1    4    4    0    0 -0.83404820258E-02 -0.25568295782E-01 -0.86203400888E-03  0.26912926509E-01  0.51100000000E-03 0. -1.
</event>
<event>
 8    1  0.1145101E+005  0.1043930E+01  0.7957747E-01            NaN
         13   -1    0    0    0    0  0.00000000000E+00  0.00000000000E+00  0.74505805969E-08  0.10566000000E+00  0.10566000000E+00 0.  1.
     999900   -1    0    0    0    0 -0.00000000000E+00 -0.00000000000E+00 -0.74505805969E-08  0.93827000000E+00  0.93827000000E+00 0. -1.
     999902    2    1    2    0    0 -0.81807088838E-02  0.20236308591E-01 -0.73665653172E-02  0.10208931064E+01  0.10206331546E+01 0.  0.
     999903    2    3    3    0    0  0.75249611719E-01 -0.70305601197E-01 -0.75756744965E-01  0.12969409802E+00  0.21819556139E-01 0.  0.
         14    1    1    2    0    0  0.81807088838E-02 -0.20236308591E-01  0.73665653172E-02  0.23036893623E-01  0.00000000000E+00 0.  1.
     999901    1    3    3    0    0 -0.83430320603E-01  0.90541909787E-01  0.68390179648E-01  0.89119900836E+00  0.88000000000E+00 0.  1.
        -11    1    4    4    0    0  0.79651426640E-02 -0.18908650745E-01 -0.12887680130E-01  0.24234974536E-01  0.51100000000E-03 0. -1.
         11    1    4    4    0    0  0.67284469055E-01 -0.51396950452E-01 -0.62869064835E-01  0.10545912348E+00  0.51100000000E-03 0.  1.
</event>
<event>
 8    1  0.1145101E+005  0.1043930E+01  0.7957747E-01            NaN
         13   -1    0    0    0    0  0.00000000000E+00  0.00000000000E+00  0.74505805969E-08  0.10566000000E+00  0.10566000000E+00 0. -1.
     999900   -1    0    0    0    0 -0.00000000000E+00 -0.00000000000E+00 -0.74505805969E-08  0.93827000000E+00  0.93827000000E+00 0.  1.
     999902    2    1    2    0    0 -0.12613161795E-02 -0.67776557025E-02 -0.22469398998E-01  0.10204267784E+01  0.10201560707E+01 0.  0.
     999903    2    3    3    0    0  0.14001727348E-01  0.10278851577E+00 -0.78498884062E-01  0.13173278739E+00  0.20734635996E-01 0.  0.
         14    1    1    2    0    0  0.12613161795E-02  0.67776557025E-02  0.22469398998E-01  0.23503221623E-01  0.00000000000E+00 0. -1.
     999901    1    3    3    0    0 -0.15263043527E-01 -0.10956617147E+00  0.56029485065E-01  0.88869399099E+00  0.88000000000E+00 0. -1.
        -11    1    4    4    0    0  0.28456757204E-02  0.86369162049E-02 -0.15242622001E-01  0.17756487217E-01  0.51100000000E-03 0. -1.
         11    1    4    4    0    0  0.11156051627E-01  0.94151599567E-01 -0.63256262061E-01  0.11397630017E+00  0.51100000000E-03 0.  1.
</event>
<event>
 8    1  0.1145101E+005  0.1043930E+01  0.7957747E-01            NaN
         13   -1    0    0    0    0  0.00000000000E+00  0.00000000000E+00  0.74505805969E-08  0.10566000000E+00  0.10566000000E+00 0. -1.
     999900   -1    0    0    0    0 -0.00000000000E+00 -0.00000000000E+00 -0.74505805969E-08  0.93827000000E+00  0.93827000000E+00 0. -1.
     999902    2    1    2    0    0  0.11867692963E-01 -0.95539598322E-03 -0.20479484514E-01  0.10202410953E+01  0.10199660428E+01 0.  0.
     999903    2    3    3    0    0 -0.48130340248E-01  0.99814974507E-01  0.61705644528E-01  0.12866449909E+00  0.21619620045E-01 0.  0.
         14    1    1    2    0    0 -0.11867692963E-01  0.95539598322E-03  0.20479484514E-01  0.23688904654E-01  0.00000000000E+00 0. -1.
     999901    1    3    3    0    0  0.59998033211E-01 -0.10077037049E+00 -0.82185129042E-01  0.89157659626E+00  0.88000000000E+00 0. -1.
        -11    1    4    4    0    0 -0.41663815749E-01  0.70246854112E-01  0.52220715177E-01  0.96942035619E-01  0.51100000000E-03 0. -1.
         11    1    4    4    0    0 -0.64665244990E-02  0.29568120395E-01  0.94849293517E-02  0.31722463470E-01  0.51100000000E-03 0.  1.
</event>
<event>
 8    1  0.1145101E+005  0.1043930E+01  0.7957747E-01            NaN
         13   -1    0    0    0    0  0.00000000000E+00  0.00000000000E+00  0.74505805969E-08  0.10566000000E+00  0.10566000000E+00 0. -1.
     999900   -1    0    0    0    0 -0.00000000000E+00 -0.00000000000E+00 -0.74505805969E-08  0.93827000000E+00  0.93827000000E+00 0.  1.
     999902    2    1    2    0    0  0.15643948889E-01  0.37684418861E-02  0.19528991025E-01  0.10186255383E+01  0.10183111860E+01 0.  0.
     999903    2    3    3    0    0 -0.12535013690E+00  0.79911220816E-02 -0.33418002840E-03  0.12717071117E+00  0.19893799345E-01 0.  0.
         14    1    1    2    0    0 -0.15643948889E-01 -0.37684418861E-02 -0.19528991025E-01  0.25304461692E-01  0.00000000000E+00 0.  1.
     999901    1    3    3    0    0  0.14099408579E+00 -0.42226801955E-02  0.19863171053E-01  0.89145482713E+00  0.88000000000E+00 0.  1.
        -11    1    4    4    0    0 -0.75365839272E-01  0.93593130692E-02 -0.87961399164E-02  0.76454167111E-01  0.51100000000E-03 0.  1.
         11    1    4    4    0    0 -0.49984297624E-01 -0.13681909876E-02  0.84619598880E-02  0.50716544063E-01  0.51100000000E-03 0. -1.
</event>
<event>
 8    1  0.1145101E+005  0.1043930E+01  0.7957747E-01            NaN
         13   -1    0    0    0    0  0.00000000000E+00  0.00000000000E+00  0.74505805969E-08  0.10566000000E+00  0.10566000000E+00 0. -1.
     999900   -1    0    0    0    0 -0.00000000000E+00 -0.00000000000E+00 -0.74505805969E-08  0.93827000000E+00  0.93827000000E+00 0. -1.
     999902    2    1    2    0    0  0.15769624800E-01 -0.10544954270E-01 -0.99557696216E-02  0.10225058436E+01  0.10222813731E+01 0.  0.
     999903    2    3    3    0    0 -0.14488694960E-01  0.12764228637E+00  0.15658949165E-01  0.13084032720E+00  0.19274672002E-01 0.  0.
         14    1    1    2    0    0 -0.15769624800E-01  0.10544954270E-01  0.99557696216E-02  0.21424156358E-01  0.00000000000E+00 0. -1.
     999901    1    3    3    0    0  0.30258319761E-01 -0.13818724064E+00 -0.25614718787E-01  0.89166551644E+00  0.88000000000E+00 0.  1.
        -11    1    4    4    0    0 -0.23115235510E-03  0.57999269014E-01  0.14296718372E-01  0.59737977156E-01  0.51100000000E-03 0.  1.
         11    1    4    4    0    0 -0.14257542605E-01  0.69643017360E-01  0.13622307930E-02  0.71102350045E-01  0.51100000000E-03 0. -1.
</event>
<event>
 8    1  0.1145101E+005  0.1043930E+01  0.7957747E-01            NaN
         13   -1    0    0    0    0  0.00000000000E+00  0.00000000000E+00  0.74505805969E-08  0.10566000000E+00  0.10566000000E+00 0. -1.
     999900   -1    0    0    0    0 -0.00000000000E+00 -0.00000000000E+00 -0.74505805969E-08  0.93827000000E+00  0.93827000000E+00 0.  1.
     999902    2    1    2    0    0 -0.22646520129E-01 -0.10994742662E-01 -0.83361922396E-02  0.10174113020E+01  0.10170656401E+01 0.  0.
     999903    2    3    3    0    0  0.76178685900E-01  0.14365611328E-01  0.96319288989E-01  0.12535618119E+00  0.20668907947E-01 0.  0.
         14    1    1    2    0    0  0.22646520129E-01  0.10994742662E-01  0.83361922396E-02  0.26518697954E-01  0.00000000000E+00 0. -1.
     999901    1    3    3    0    0 -0.98825206029E-01 -0.25360353990E-01 -0.10465548123E+00  0.89205512086E+00  0.88000000000E+00 0.  1.
        -11    1    4    4    0    0  0.42014056545E-01  0.10685192199E-01  0.37932649621E-01  0.57606434605E-01  0.51100000000E-03 0.  1.
         11    1    4    4    0    0  0.34164629356E-01  0.36804191290E-02  0.58386639369E-01  0.67749746581E-01  0.51100000000E-03 0. -1.
</event>
<event>
 8    1  0.1145101E+005  0.1043930E+01  0.7957747E-01            NaN
         13   -1    0    0    0    0  0.00000000000E+00  0.00000000000E+00  0.74505805969E-08  0.10566000000E+00  0.10566000000E+00 0.  1.
     999900   -1    0    0    0    0 -0.00000000000E+00 -0.00000000000E+00 -0.74505805969E-08  0.93827000000E+00  0.93827000000E+00 0.  1.
     999902    2    1    2    0    0  0.19725967562E-01 -0.95346527317E-02  0.10767301407E-01  0.10195177453E+01  0.10192254289E+01 0.  0.
     999903    2    3    3    0    0 -0.54321905764E-01 -0.87411521829E-01 -0.75595995377E-01  0.12878405149E+00  0.16701311570E-01 0.  0.
         14    1    1    2    0    0 -0.19725967562E-01  0.95346527317E-02 -0.10767301407E-01  0.24412254680E-01  0.00000000000E+00 0. -1.
     999901    1    3    3    0    0  0.74047873325E-01  0.77876869097E-01  0.86363296784E-01  0.89073369383E+00  0.88000000000E+00 0. -1.
        -11    1    4    4    0    0 -0.19186364159E-01 -0.44005253292E-01 -0.29303379508E-01  0.56245249209E-01  0.51100000000E-03 0.  1.
         11    1    4    4    0    0 -0.35135541605E-01 -0.43406268537E-01 -0.46292615868E-01  0.72538802286E-01  0.51100000000E-03 0. -1.
</event>
<event>
 8    1  0.1145101E+005  0.1043930E+01  0.7957747E-01            NaN
         13   -1    0    0    0    0  0.00000000000E+00  0.00000000000E+00  0.74505805969E-08  0.10566000000E+00  0.10566000000E+00 0. -1.
     999900   -1    0    0    0    0 -0.00000000000E+00 -0.00000000000E+00 -0.74505805969E-08  0.93827000000E+00  0.93827000000E+00 0.  1.
     999902    2    1    2    0    0  0.67960775800E-02  0.18804003103E-01 -0.13815524354E-01  0.10196267921E+01  0.10193371126E+01 0.  0.
     999903    2    3    3    0    0 -0.93822913070E-02 -0.98991372115E-01  0.75015394733E-01  0.12719840713E+00  0.25783835736E-01 0.  0.
         14    1    1    2    0    0 -0.67960775800E-02 -0.18804003103E-01  0.13815524354E-01  0.24303207943E-01  0.00000000000E+00 0. -1.
     999901    1    3    3    0    0  0.16178368887E-01  0.11779537522E+00 -0.88830919087E-01  0.89242838493E+00  0.88000000000E+00 0.  1.
        -11    1    4    4    0    0 -0.17437678736E-01 -0.58119597818E-01  0.49805221212E-01  0.78503385094E-01  0.51100000000E-03 0. -1.
         11    1    4    4    0    0  0.80553874291E-02 -0.40871774297E-01  0.25210173521E-01  0.48695022033E-01  0.51100000000E-03 0.  1.
</event>
<event>
 8    1  0.1145101E+005  0.1043930E+01  0.7957747E-01            NaN
         13   -1    0    0    0    0  0.00000000000E+00  0.00000000000E+00  0.74505805969E-08  0.10566000000E+00  0.10566000000E+00 0. -1.
     999900   -1    0    0    0    0 -0.00000000000E+00 -0.00000000000E+00 -0.74505805969E-08  0.93827000000E+00  0.93827000000E+00 0. -1.
     999902    2    1    2    0    0  0.54023774833E-02 -0.14236715203E-01  0.13751822917E-01  0.10234121450E+01  0.10232064484E+01 0.  0.
     999903    2    3    3    0    0  0.12237611428E+00 -0.49692197406E-01 -0.15462522931E-01  0.13448390020E+00  0.20040009147E-01 0.  0.
         14    1    1    2    0    0 -0.54023774833E-02  0.14236715203E-01 -0.13751822917E-01  0.20517855048E-01  0.00000000000E+00 0.  1.
     999901    1    3    3    0    0 -0.11697373680E+00  0.35455482203E-01  0.29214345848E-01  0.88892824475E+00  0.88000000000E+00 0.  1.
        -11    1    4    4    0    0  0.16676119540E-01 -0.40450694980E-02 -0.84495236143E-02  0.19134030429E-01  0.51100000000E-03 0. -1.
         11    1    4    4    0    0  0.10569999474E+00 -0.45647127908E-01 -0.70129993165E-02  0.11534986977E+00  0.51100000000E-03 0.  1.
</event>
<event>
 8    1  0.1145101E+005  0.1043930E+01  0.7957747E-01            NaN
         13   -1    0    0    0    0  0.00000000000E+00  0.00000000000E+00  0.74505805969E-08  0.10566000000E+00  0.10566000000E+00 0. -1.
     999900   -1    0    0    0    0 -0.00000000000E+00 -0.00000000000E+00 -0.74505805969E-08  0.93827000000E+00  0.93827000000E+00 0.  1.
     999902    2    1    2    0    0  0.12292209001E-01 -0.20228282770E-01  0.77743937656E-03  0.10202469631E+01  0.10199720484E+01 0.  0.
     999903    2    3    3    0    0 -0.11608219808E+00 -0.28701274740E-01  0.46344145780E-01  0.12972570857E+00  0.19548394697E-01 0.  0.
         14    1    1    2    0    0 -0.12292209001E-01  0.20228282770E-01 -0.77743937656E-03  0.23683036924E-01  0.00000000000E+00 0. -1.
     999901    1    3    3    0    0  0.12837440708E+00  0.84729919701E-02 -0.45566706404E-01  0.89052125450E+00  0.88000000000E+00 0.  1.
        -11    1    4    4    0    0 -0.24256476727E-01 -0.11027807805E-01  0.35481685386E-02  0.26885680746E-01  0.51100000000E-03 0.  1.
         11    1    4    4    0    0 -0.91825721349E-01 -0.17673466936E-01  0.42795977242E-01  0.10284002783E+00  0.51100000000E-03 0. -1.
</event>
<event>
 8    1  0.1145101E+005  0.1043930E+01  0.7957747E-01            NaN
         13   -1    0    0    0    0  0.00000000000E+00  0.00000000000E+00  0.74505805969E-08  0.10566000000E+00  0.10566000000E+00 0.  1.
     999900   -1    0    0    0    0 -0.00000000000E+00 -0.00000000000E+00 -0.74505805969E-08  0.93827000000E+00  0.93827000000E+00 0. -1.
     999902    2    1    2    0    0 -0.52681513736E-02 -0.34373824393E-02  0.22973793563E-01  0.10201105918E+01  0.10198324643E+01 0.  0.
     999903    2    3    3    0    0 -0.72139427549E-01  0.67986296194E-01 -0.79759206036E-01  0.12874805126E+00  0.19705234807E-01 0.  0.
         14    1    1    2    0    0  0.52681513736E-02  0.34373824393E-02 -0.22973793563E-01  0.23819408213E-01  0.00000000000E+00 0. -1.
     999901    1    3    3    0    0  0.66871276175E-01 -0.71423678634E-01  0.10273299960E+00  0.89136254053E+00  0.88000000000E+00 0.  1.
        -11    1    4    4    0    0 -0.15766776123E-01  0.84567212622E-02 -0.22473576940E-01  0.28730300125E-01  0.51100000000E-03 0. -1.
         11    1    4    4    0    0 -0.56372651426E-01  0.59529574932E-01 -0.57285629096E-01  0.10001775114E+00  0.51100000000E-03 0.  1.
</event>
<event>
 8    1  0.1145101E+005  0.1043930E+01  0.7957747E-01            NaN
         13   -1    0    0    0    0  0.00000000000E+00  0.00000000000E+00  0.74505805969E-08  0.10566000000E+00  0.10566000000E+00 0.  1.
     999900   -1    0    0    0    0 -0.00000000000E+00 -0.00000000000E+00 -0.74505805969E-08  0.93827000000E+00  0.93827000000E+00 0. -1.
     999902    2    1    2    0    0 -0.20857913971E-01 -0.34796362436E-02  0.10454666027E-01  0.10203405853E+01  0.10200678652E+01 0.  0.
     999903    2    3    3    0    0  0.12174469668E+00 -0.16024315082E-01  0.31824666538E-01  0.12851686369E+00  0.20620984663E-01 0.  0.
         14    1    1    2    0    0  0.20857913971E-01  0.34796362436E-02 -0.10454666027E-01  0.23589414688E-01  0.00000000000E+00 0. -1.
     999901    1    3    3    0    0 -0.14260261065E+00  0.12544678838E-01 -0.21370000511E-01  0.89182372162E+00  0.88000000000E+00 0. -1.
        -11    1    4    4    0    0  0.60058491696E-01  0.63645284687E-03  0.21462987817E-01  0.63783606546E-01  0.51100000000E-03 0. -1.
         11    1    4    4    0    0  0.61686204982E-01 -0.16660767928E-01  0.10361678722E-01  0.64733257141E-01  0.51100000000E-03 0.  1.
</event>
<event>
 8    1  0.1145101E+005  0.1043930E+01  0.7957747E-01            NaN
         13   -1    0    0    0    0  0.00000000000E+00  0.00000000000E+00  0.74505805969E-08  0.10566000000E+00  0.10566000000E+00 0.  1.
     999900   -1    0    0    0    0 -0.00000000000E+00 -0.00000000000E+00 -0.74505805969E-08  0.93827000000E+00  0.93827000000E+00 0.  1.
     999902    2    1    2    0    0 -0.47887000795E-02 -0.11973657242E-01  0.19494897534E-01  0.10205558445E+01  0.10202881361E+01 0.  0.
     999903    2    3    3    0    0  0.22786434232E-01 -0.11661235861E+00  0.58697680784E-01  0.13306133517E+00  0.11926333045E-01 0.  0.
         14    1    1    2    0    0  0.47887000795E-02  0.11973657242E-01 -0.19494897534E-01  0.23374155516E-01  0.00000000000E+00 0.  1.
     999901    1    3    3    0    0 -0.27575134311E-01  0.10463870137E+00 -0.39202783250E-01  0.88749450932E+00  0.88000000000E+00 0.  1.
        -11    1    4    4    0    0  0.15224079406E-01 -0.56800237301E-01  0.24140823406E-01  0.63569489749E-01  0.51100000000E-03 0. -1.
         11    1    4    4    0    0  0.75623548255E-02 -0.59812121313E-01  0.34556857378E-01  0.69491845416E-01  0.51100000000E-03 0.  1.
</event>
<event>
 8    1  0.1145101E+005  0.1043930E+01  0.7957747E-01            NaN
         13   -1    0    0    0    0  0.00000000000E+00  0.00000000000E+00  0.74505805969E-08  0.10566000000E+00  0.10566000000E+00 0.  1.
     999900   -1    0    0    0    0 -0.00000000000E+00 -0.00000000000E+00 -0.74505805969E-08  0.93827000000E+00  0.93827000000E+00 0. -1.
     999902    2    1    2    0    0 -0.14296459486E-01 -0.15024886619E-01  0.84033966171E-03  0.10231732627E+01  0.10229626989E+01 0.  0.
     999903    2    3    3    0    0 -0.58245041082E-01 -0.45315128629E-01 -0.11071884521E+00  0.13452573512E+00  0.19813253903E-01 0.  0.
         14    1    1    2    0    0  0.14296459486E-01  0.15024886619E-01 -0.84033966171E-03  0.20756737279E-01  0.00000000000E+00 0. -1.
     999901    1    3    3    0    0  0.43948581597E-01  0.30290242011E-01  0.11155918488E+00  0.88864752760E+00  0.88000000000E+00 0.  1.
        -11    1    4    4    0    0 -0.12910184250E-01 -0.21602777272E-01 -0.33760002359E-01  0.42111182879E-01  0.51100000000E-03 0.  1.
         11    1    4    4    0    0 -0.45334856832E-01 -0.23712351357E-01 -0.76958842855E-01  0.92414552239E-01  0.51100000000E-03 0. -1.
</event>
<event>
 8    1  0.1145101E+005  0.1043930E+01  0.7957747E-01            NaN
         13   -1    0    0    0    0  0.00000000000E+00  0.00000000000E+00  0.74505805969E-08  0.10566000000E+00  0.10566000000E+00 0. -1.
     999900   -1    0    0    0    0 -0.00000000000E+00 -0.00000000000E+00 -0.74505805969E-08  0.93827000000E+00  0.93827000000E+00 0.  1.
     999902    2    1    2    0    0  0.18343766181E-01  0.58088325113E-02  0.14564442601E-01  0.10197978786E+01  0.10195123118E+01 0.  0.
     999903    2    3    3    0    0  0.28309685668E-01  0.11318063824E+00  0.58553269164E-01  0.13212505543E+00  0.20426692504E-01 0.  0.
         14    1    1    2    0    0 -0.18343766181E-01 -0.58088325113E-02 -0.14564442601E-01  0.24132121356E-01  0.00000000000E+00 0.  1.
     999901    1    3    3    0    0 -0.99659194869E-02 -0.10737180573E+00 -0.43988826563E-01  0.88767282322E+00  0.88000000000E+00 0.  1.
        -11    1    4    4    0    0  0.64428831663E-04  0.29851519967E-01  0.20760290373E-01  0.36364380551E-01  0.51100000000E-03 0.  1.
         11    1    4    4    0    0  0.28245256836E-01  0.83329118273E-01  0.37792978790E-01  0.95760674876E-01  0.51100000000E-03 0. -1.
</event>
<event>
 8    1  0.1145101E+005  0.1043930E+01  0.7957747E-01            NaN
         13   -1    0    0    0    0  0.00000000000E+00  0.00000000000E+00  0.74505805969E-08  0.10566000000E+00  0.10566000000E+00 0.  1.
     999900   -1    0    0    0    0 -0.00000000000E+00 -0.00000000000E+00 -0.74505805969E-08  0.93827000000E+00  0.93827000000E+00 0.  1.
     999902    2    1    2    0    0 -0.43085184886E-02  0.20053904482E-01 -0.13463981859E-01  0.10193942868E+01  0.10190989700E+01 0.  0.
     999903    2    3    3    0    0 -0.32696692771E-01 -0.32131273660E-01 -0.12108543499E+00  0.13084965737E+00  0.18932981808E-01 0.  0.
         14    1    1    2    0    0  0.43085184886E-02 -0.20053904482E-01  0.13463981859E-01  0.24535713237E-01  0.00000000000E+00 0.  1.
     999901    1    3    3    0    0  0.28388174282E-01  0.52185178142E-01  0.10762145313E+00  0.88854462940E+00  0.88000000000E+00 0. -1.
        -11    1    4    4    0    0 -0.19205360215E-01 -0.10747276143E-01 -0.76356263892E-01  0.79466281919E-01  0.51100000000E-03 0.  1.
         11    1    4    4    0    0 -0.13491332556E-01 -0.21383997516E-01 -0.44729171100E-01  0.51383375446E-01  0.51100000000E-03 0. -1.
</event>
<event>
 8    1  0.1145101E+005  0.1043930E+01  0.7957747E-01            NaN
         13   -1    0    0    0    0  0.00000000000E+00  0.00000000000E+00  0.74505805969E-08  0.10566000000E+00  0.10566000000E+00 0. -1.
     999900   -1    0    0    0    0 -0.00000000000E+00 -0.00000000000E+00 -0.74505805969E-08  0.93827000000E+00  0.93827000000E+00 0.  1.
     999902    2    1    2    0    0  0.18384863244E-01  0.12087700763E-01 -0.84352480103E-02  0.10203658511E+01  0.10200937216E+01 0.  0.
     999903    2    3    3    0    0 -0.10198578764E+00 -0.61733487741E-01  0.41152572132E-01  0.12773064373E+00  0.20235087456E-01 0.  0.
         14    1    1    2    0    0 -0.18384863244E-01 -0.12087700763E-01  0.84352480103E-02  0.23564148940E-01  0.00000000000E+00 0. -1.
     999901    1    3    3    0    0  0.12037065088E+00  0.73821188505E-01 -0.49587820143E-01  0.89263520733E+00  0.88000000000E+00 0. -1.
        -11    1    4    4    0    0 -0.55994178069E-01 -0.23176697075E-01  0.25162208181E-01  0.65619395810E-01  0.51100000000E-03 0. -1.
         11    1    4    4    0    0 -0.45991609571E-01 -0.38556790666E-01  0.15990363952E-01  0.62111247916E-01  0.51100000000E-03 0.  1.
</event>
<event>
 8    1  0.1145101E+005  0.1043930E+01  0.7957747E-01            NaN
         13   -1    0    0    0    0  0.00000000000E+00  0.00000000000E+00  0.74505805969E-08  0.10566000000E+00  0.10566000000E+00 0. -1.
     999900   -1    0    0    0    0 -0.00000000000E+00 -0.00000000000E+00 -0.74505805969E-08  0.93827000000E+00  0.93827000000E+00 0. -1.
     999902    2    1    2    0    0 -0.19070197645E-01  0.11115260546E-01  0.99768666952E-02  0.10197068845E+01  0.10194191341E+01 0.  0.
     999903    2    3    3    0    0 -0.45008232714E-01  0.64795919295E-01  0.10472914000E+00  0.13261478777E+00  0.19855402336E-01 0.  0.
         14    1    1    2    0    0  0.19070197645E-01 -0.11115260546E-01 -0.99768666952E-02  0.24223115495E-01  0.00000000000E+00 0.  1.
     999901    1    3    3    0    0  0.25938035068E-01 -0.53680658749E-01 -0.94752273304E-01  0.88709209673E+00  0.88000000000E+00 0.  1.
        -11    1    4    4    0    0 -0.19513854956E-01  0.12651825816E-01  0.32026758744E-01  0.39583249340E-01  0.51100000000E-03 0.  1.
         11    1    4    4    0    0 -0.25494377758E-01  0.52144093479E-01  0.72702381256E-01  0.93031538433E-01  0.51100000000E-03 0. -1.
</event>
<event>
 8    1  0.1145101E+005  0.1043930E+01  0.7957747E-01            NaN
         13   -1    0    0    0    0  0.00000000000E+00  0.00000000000E+00  0.74505805969E-08  0.10566000000E+00  0.10566000000E+00 0. -1.
     999900   -1    0    0    0    0 -0.00000000000E+00 -0.00000000000E+00 -0.74505805969E-08  0.93827000000E+00  0.93827000000E+00 0. -1.
     999902    2    1    2    0    0 -0.42627033125E-02  0.13408102508E-01  0.18398221352E-01  0.10207687738E+01  0.10205059760E+01 0.  0.
     999903    2    3    3    0    0 -0.32808997851E-01 -0.12321385096E+00 -0.97917237612E-02  0.12932324984E+00  0.19249459393E-01 0.  0.
         14    1    1    2    0    0  0.42627033125E-02 -0.13408102508E-01 -0.18398221352E-01  0.23161226248E-01  0.00000000000E+00 0.  1.
     999901    1    3    3    0    0  0.28546294538E-01  0.13662195346E+00  0.28189945113E-01  0.89144552391E+00  0.88000000000E+00 0.  1.
        -11    1    4    4    0    0 -0.27589052883E-01 -0.10059217752E+00 -0.49417096889E-03  0.10430938282E+00  0.51100000000E-03 0. -1.
         11    1    4    4    0    0 -0.52199449679E-02 -0.22621673435E-01 -0.92975527923E-02  0.25013867022E-01  0.51100000000E-03 0.  1.
</event>
<event>
 8    1  0.1145101E+005  0.1043930E+01  0.7957747E-01            NaN
         13   -1    0    0    0    0  0.00000000000E+00  0.00000000000E+00  0.74505805969E-08  0.10566000000E+00  0.10566000000E+00 0. -1.
     999900   -1    0    0    0    0 -0.00000000000E+00 -0.00000000000E+00 -0.74505805969E-08  0.93827000000E+00  0.93827000000E+00 0.  1.
     999902    2    1    2    0    0 -0.15675573638E-01  0.47458143814E-03 -0.17762770119E-01  0.10202347507E+01  0.10199595491E+01 0.  0.
     999903    2    3    3    0    0  0.14056966498E-01 -0.11397580729E+00  0.56142464621E-01  0.12925500956E+00  0.19151976642E-01 0.  0.
         14    1    1    2    0    0  0.15675573638E-01 -0.47458143814E-03  0.17762770119E-01  0.23695249285E-01  0.00000000000E+00 0. -1.
     999901    1    3    3    0    0 -0.29732540136E-01  0.11445038873E+00 -0.73905234740E-01  0.89097974115E+00  0.88000000000E+00 0.  1.
        -11    1    4    4    0    0 -0.24296627614E-02 -0.58372997355E-01  0.27807531418E-01  0.64705718495E-01  0.51100000000E-03 0. -1.
         11    1    4    4    0    0  0.16486629260E-01 -0.55602809932E-01  0.28334933203E-01  0.64549291067E-01  0.51100000000E-03 0.  1.
</event>
<event>
 7    1  0.1145101E+005  0.1043930E+01  0.7957747E-01            NaN
         13   -1    0    0    0    0  0.00000000000E+00  0.00000000000E+00  0.74505805969E-08  0.10566000000E+00  0.10566000000E+00 0. -1.
     999900   -1    0    0    0    0 -0.00000000000E+00 -0.00000000000E+00 -0.74505805969E-08  0.93827000000E+00  0.93827000000E+00 0.  1.
     999903    2    1    2    0    0 -0.81660469902E-01  0.78995191118E-01  0.89034269728E-03  0.11542671688E+00  0.20343591002E-01 0.  0.
         14    1    1    2    0    0  0.22761175294E-01 -0.20183963771E-01 -0.31836273655E-01  0.44034211865E-01  0.00000000000E+00 0.  1.
     999901    1    1    2    0    0  0.58899294607E-01 -0.58811227347E-01  0.30945930958E-01  0.88446907126E+00  0.88000000000E+00 0. -1.
        -11    1    3    3    0    0 -0.75146038183E-01  0.76711805360E-01 -0.31106399278E-02  0.10743167753E+00  0.51100000000E-03 0. -1.
         11    1    3    3    0    0 -0.65144317190E-02  0.22833857578E-02  0.40009826250E-02  0.79950393436E-02  0.51100000000E-03 0.  1.
</event>
<event>
 8    1  0.1145101E+005  0.1043930E+01  0.7957747E-01            NaN
         13   -1    0    0    0    0  0.00000000000E+00  0.00000000000E+00  0.74505805969E-08  0.10566000000E+00  0.10566000000E+00 0. -1.
     999900   -1    0    0    0    0 -0.00000000000E+00 -0.00000000000E+00 -0.74505805969E-08  0.93827000000E+00  0.93827000000E+00 0. -1.
     999902    2    1    2    0    0 -0.77851054392E-02 -0.75568458140E-02  0.21290388289E-01  0.10200345105E+01  0.10197545823E+01 0.  0.
     999903    2    3    3    0    0  0.69162624564E-01  0.18652861208E-01 -0.10354021477E+00  0.12751527745E+00  0.20203268022E-01 0.  0.
         14    1    1    2    0    0  0.77851054392E-02  0.75568458140E-02 -0.21290388289E-01  0.23895489508E-01  0.00000000000E+00 0.  1.
     999901    1    3    3    0    0 -0.76947730003E-01 -0.26209707022E-01  0.12483060306E+00  0.89251923305E+00  0.88000000000E+00 0.  1.
        -11    1    4    4    0    0  0.22417013803E-01 -0.34919610496E-02 -0.30772322187E-01  0.38234973958E-01  0.51100000000E-03 0.  1.
         11    1    4    4    0    0  0.46745610762E-01  0.22144822257E-01 -0.72767892588E-01  0.89280303488E-01  0.51100000000E-03 0. -1.
</event>
<event>
 8    1  0.1145101E+005  0.1043930E+01  0.7957747E-01            NaN
         13   -1    0    0    0    0  0.00000000000E+00  0.00000000000E+00  0.74505805969E-08  0.10566000000E+00  0.10566000000E+00 0. -1.
     999900   -1    0    0    0    0 -0.00000000000E+00 -0.00000000000E+00 -0.74505805969E-08  0.93827000000E+00  0.93827000000E+00 0.  1.
     999902    2    1    2    0    0 -0.17985064565E-01 -0.12349904837E-01  0.93087219263E-02  0.10202100717E+01  0.10199342897E+01 0.  0.
     999903    2    3    3    0    0  0.11059338292E+00  0.60345411058E-01  0.88874835481E-02  0.12790003386E+00  0.20173406146E-01 0.  0.
         14    1    1    2    0    0  0.17985064565E-01  0.12349904837E-01 -0.93087219263E-02  0.23719928347E-01  0.00000000000E+00 0.  1.
     999901    1    3    3    0    0 -0.12857844748E+00 -0.72695315895E-01  0.42123837823E-03  0.89231003780E+00  0.88000000000E+00 0. -1.
        -11    1    4    4    0    0  0.73444015981E-01  0.29224914896E-01  0.33163834668E-02  0.79116235087E-01  0.51100000000E-03 0. -1.
         11    1    4    4    0    0  0.37149366938E-01  0.31120496163E-01  0.55711000813E-02  0.48783798770E-01  0.51100000000E-03 0.  1.
</event>
<event>
 8    1  0.1145101E+005  0.1043930E+01  0.7957747E-01            NaN
         13   -1    0    0    0    0  0.00000000000E+00  0.00000000000E+00  0.74505805969E-08  0.10566000000E+00  0.10566000000E+00 0. -1.
     999900   -1    0    0    0    0 -0.00000000000E+00 -0.00000000000E+00 -0.74505805969E-08  0.93827000000E+00  0.93827000000E+00 0.  1.
     999902    2    1    2    0    0 -0.71626641019E-02 -0.15295935417E-01 -0.17813690062E-01  0.10193821498E+01  0.10190865372E+01 0.  0.
     999903    2    3    3    0    0  0.10566287473E+00  0.40234565255E-01  0.55271907595E-01  0.12744339441E+00  0.20084114924E-01 0.  0.
         14    1    1    2    0    0  0.71626641019E-02  0.15295935417E-01  0.17813690062E-01  0.24547850231E-01  0.00000000000E+00 0.  1.
     999901    1    3    3    0    0 -0.11282553884E+00 -0.55530500672E-01 -0.73085597657E-01  0.89193875535E+00  0.88000000000E+00 0. -1.
        -11    1    4    4    0    0  0.43452399518E-01  0.23791659465E-01  0.16020163048E-01  0.52067848324E-01  0.51100000000E-03 0.  1.
         11    1    4    4    0    0  0.62210475217E-01  0.16442905790E-01  0.39251744548E-01  0.75375546091E-01  0.51100000000E-03 0. -1.
</event>
<event>
 8    1  0.1210591E+005  0.1043930E+01  0.7957747E-01            NaN
         13   -1    0    0    0    0  0.00000000000E+00  0.00000000000E+00  0.74505805969E-08  0.10566000000E+00  0.10566000000E+00 0.  1.
     999900   -1    0    0    0    0 -0.00000000000E+00 -0.00000000000E+00 -0.74505805969E-08  0.93827000000E+00  0.93827000000E+00 0.  1.
     999902    2    1    2    0    0  0.14524804713E-01 -0.15320876877E-01 -0.10656299575E-01  0.10202814072E+01  0.10200073009E+01 0.  0.
     999903    2    3    3    0    0 -0.71924999016E-01 -0.43375373371E-01 -0.98666298111E-01  0.13123338647E+00  0.20797472050E-01 0.  0.
         14    1    1    2    0    0 -0.14524804713E-01  0.15320876877E-01  0.10656299575E-01  0.23648592788E-01  0.00000000000E+00 0.  1.
     999901    1    3    3    0    0  0.86449803729E-01  0.28054496494E-01  0.88009998536E-01  0.88904802074E+00  0.88000000000E+00 0. -1.
        -11    1    4    4    0    0 -0.42230732306E-01 -0.37004436247E-01 -0.64484030564E-01  0.85505639415E-01  0.51100000000E-03 0. -1.
         11    1    4    4    0    0 -0.29694266710E-01 -0.63709371236E-02 -0.34182267547E-01  0.45727747057E-01  0.51100000000E-03 0.  1.
</event>
<event>
 8    1  0.1145101E+005  0.1043930E+01  0.7957747E-01            NaN
         13   -1    0    0    0    0  0.00000000000E+00  0.00000000000E+00  0.74505805969E-08  0.10566000000E+00  0.10566000000E+00 0. -1.
     999900   -1    0    0    0    0 -0.00000000000E+00 -0.00000000000E+00 -0.74505805969E-08  0.93827000000E+00  0.93827000000E+00 0. -1.
     999902    2    1    2    0    0  0.18643286294E-01 -0.92711126662E-02  0.92649487707E-02  0.10211404206E+01  0.10208860826E+01 0.  0.
     999903    2    3    3    0    0 -0.26576015740E-01  0.83265933481E-01 -0.92964264034E-01  0.12925550529E+00  0.20618704378E-01 0.  0.
         14    1    1    2    0    0 -0.18643286294E-01  0.92711126662E-02 -0.92649487707E-02  0.22789579409E-01  0.00000000000E+00 0. -1.
     999901    1    3    3    0    0  0.45219302034E-01 -0.92537046147E-01  0.10222921280E+00  0.89188491530E+00  0.88000000000E+00 0.  1.
        -11    1    4    4    0    0 -0.27808912178E-01  0.56596550143E-01 -0.63553466924E-01  0.89531052511E-01  0.51100000000E-03 0.  1.
         11    1    4    4    0    0  0.12328964377E-02  0.26669383337E-01 -0.29410797110E-01  0.39724452782E-01  0.51100000000E-03 0. -1.
</event>
<event>
 8    1  0.1145101E+005  0.1043930E+01  0.7957747E-01            NaN
         13   -1    0    0    0    0  0.00000000000E+00  0.00000000000E+00  0.74505805969E-08  0.10566000000E+00  0.10566000000E+00 0.  1.
     999900   -1    0    0    0    0 -0.00000000000E+00 -0.00000000000E+00 -0.74505805969E-08  0.93827000000E+00  0.93827000000E+00 0.  1.
     999902    2    1    2    0    0 -0.10409662080E-01  0.23100747418E-01  0.49910559684E-03  0.10185872554E+01  0.10182719392E+01 0.  0.
     999903    2    3    3    0    0  0.74420761354E-01 -0.92211496761E-02  0.10202849311E+00  0.12811034821E+00  0.19467115565E-01 0.  0.
         14    1    1    2    0    0  0.10409662080E-01 -0.23100747418E-01 -0.49910559684E-03  0.25342744569E-01  0.00000000000E+00 0. -1.
     999901    1    3    3    0    0 -0.84830423434E-01  0.32321897094E-01 -0.10152938752E+00  0.89047690723E+00  0.88000000000E+00 0.  1.
        -11    1    4    4    0    0  0.40572928905E-01 -0.39286749103E-02  0.71075072219E-01  0.81936097408E-01  0.51100000000E-03 0.  1.
         11    1    4    4    0    0  0.33847832449E-01 -0.52924747657E-02  0.30953420895E-01  0.46174250798E-01  0.51100000000E-03 0. -1.
</event>
<event>
 8    1  0.1145101E+005  0.1043930E+01  0.7957747E-01            NaN
         13   -1    0    0    0    0  0.00000000000E+00  0.00000000000E+00  0.74505805969E-08  0.10566000000E+00  0.10566000000E+00 0.  1.
     999900   -1    0    0    0    0 -0.00000000000E+00 -0.00000000000E+00 -0.74505805969E-08  0.93827000000E+00  0.93827000000E+00 0.  1.
     999902    2    1    2    0    0  0.15501491348E-01 -0.19521867479E-01  0.22615014087E-03  0.10190010873E+01  0.10186961104E+01 0.  0.
     999903    2    3    3    0    0  0.18090994890E-01 -0.82784522595E-01 -0.98159410240E-01  0.13125755028E+00  0.20315349079E-01 0.  0.
         14    1    1    2    0    0 -0.15501491348E-01  0.19521867479E-01 -0.22615014087E-03  0.24928912687E-01  0.00000000000E+00 0.  1.
     999901    1    3    3    0    0 -0.25895035419E-02  0.63262655117E-01  0.98385560381E-01  0.88774353704E+00  0.88000000000E+00 0.  1.
        -11    1    4    4    0    0  0.14816491848E-01 -0.29974476119E-01 -0.29642860137E-01  0.44687335202E-01  0.51100000000E-03 0.  1.
         11    1    4    4    0    0  0.32745030423E-02 -0.52810046476E-01 -0.68516550103E-01  0.86570215074E-01  0.51100000000E-03 0. -1.
</event>
<event>
 8    1  0.1145101E+005  0.1043930E+01  0.7957747E-01            NaN
         13   -1    0    0    0    0  0.00000000000E+00  0.00000000000E+00  0.74505805969E-08  0.10566000000E+00  0.10566000000E+00 0. -1.
     999900   -1    0    0    0    0 -0.00000000000E+00 -0.00000000000E+00 -0.74505805969E-08  0.93827000000E+00  0.93827000000E+00 0. -1.
     999902    2    1    2    0    0  0.19156054570E-01  0.78727957294E-02  0.11213370703E-01  0.10203784603E+01  0.10201066254E+01 0.  0.
     999903    2    3    3    0    0 -0.17754792195E-01  0.11074956712E+00  0.66457111994E-01  0.13189778429E+00  0.19994461821E-01 0.  0.
         14    1    1    2    0    0 -0.19156054570E-01 -0.78727957294E-02 -0.11213370703E-01  0.23551539691E-01  0.00000000000E+00 0. -1.
     999901    1    3    3    0    0  0.36910846765E-01 -0.10287677139E+00 -0.55243741291E-01  0.88848067602E+00  0.88000000000E+00 0.  1.
        -11    1    4    4    0    0 -0.88706869609E-02  0.43939613330E-01  0.15609527063E-01  0.47468907327E-01  0.51100000000E-03 0.  1.
         11    1    4    4    0    0 -0.88841052339E-02  0.66809953792E-01  0.50847584931E-01  0.84428876966E-01  0.51100000000E-03 0. -1.
</event>
<event>
 8    1  0.1145101E+005  0.1043930E+01  0.7957747E-01            NaN
         13   -1    0    0    0    0  0.00000000000E+00  0.00000000000E+00  0.74505805969E-08  0.10566000000E+00  0.10566000000E+00 0. -1.
     999900   -1    0    0    0    0 -0.00000000000E+00 -0.00000000000E+00 -0.74505805969E-08  0.93827000000E+00  0.93827000000E+00 0.  1.
     999902    2    1    2    0    0 -0.20262881272E-01  0.68590900198E-02 -0.80491190943E-02  0.10210734956E+01  0.10208176447E+01 0.  0.
     999903    2    3    3    0    0 -0.28431686070E-01 -0.68426923412E-01  0.10557949080E+00  0.13054209576E+00  0.20089929503E-01 0.  0.
         14    1    1    2    0    0  0.20262881272E-01 -0.68590900198E-02  0.80491190943E-02  0.22856504360E-01  0.00000000000E+00 0. -1.
     999901    1    3    3    0    0  0.81688047979E-02  0.75286013432E-01 -0.11362860989E+00  0.89053139988E+00  0.88000000000E+00 0.  1.
        -11    1    4    4    0    0 -0.24296510169E-01 -0.60337266659E-01  0.78351611866E-01  0.10183389591E+00  0.51100000000E-03 0. -1.
         11    1    4    4    0    0 -0.41351759008E-02 -0.80896567536E-02  0.27227878931E-01  0.28708199843E-01  0.51100000000E-03 0.  1.
</event>
<event>
 8    1  0.1145101E+005  0.1043930E+01  0.7957747E-01            NaN
         13   -1    0    0    0    0  0.00000000000E+00  0.00000000000E+00  0.74505805969E-08  0.10566000000E+00  0.10566000000E+00 0.  1.
     999900   -1    0    0    0    0 -0.00000000000E+00 -0.00000000000E+00 -0.74505805969E-08  0.93827000000E+00  0.93827000000E+00 0.  1.
     999902    2    1    2    0    0  0.50178819884E-02  0.11468606586E-01  0.19374520318E-01  0.10208631382E+01  0.10206025018E+01 0.  0.
     999903    2    3    3    0    0  0.29415891611E-01  0.88045716864E-01  0.94697705844E-01  0.13399623781E+00  0.19235210370E-01 0.  0.
         14    1    1    2    0    0 -0.50178819884E-02 -0.11468606586E-01 -0.19374520318E-01  0.23066861820E-01  0.00000000000E+00 0. -1.
     999901    1    3    3    0    0 -0.24398009623E-01 -0.76577110278E-01 -0.75323185526E-01  0.88686690037E+00  0.88000000000E+00 0. -1.
        -11    1    4    4    0    0  0.27474929522E-01  0.84557318702E-01  0.94800900272E-01  0.12997031858E+00  0.51100000000E-03 0. -1.
         11    1    4    4    0    0  0.19409620893E-02  0.34883981622E-02 -0.10319442754E-03  0.40259192317E-02  0.51100000000E-03 0.  1.
</event>
<event>
 8    1  0.1145101E+005  0.1043930E+01  0.7957747E-01            NaN
         13   -1    0    0    0    0  0.00000000000E+00  0.00000000000E+00  0.74505805969E-08  0.10566000000E+00  0.10566000000E+00 0.  1.
     999900   -1    0    0    0    0 -0.00000000000E+00 -0.00000000000E+00 -0.74505805969E-08  0.93827000000E+00  0.93827000000E+00 0.  1.
     999902    2    1    2    0    0 -0.53185439949E-03 -0.15615356750E-01 -0.19805206831E-01  0.10187036556E+01  0.10183912654E+01 0.  0.
     999903    2    3    3    0    0 -0.41993084303E-02  0.11997759732E+00  0.35396373992E-01  0.12660157961E+00  0.19047273238E-01 0.  0.
         14    1    1    2    0    0  0.53185439949E-03  0.15615356750E-01  0.19805206831E-01  0.25226344427E-01  0.00000000000E+00 0.  1.
     999901    1    3    3    0    0  0.36674540308E-02 -0.13559295407E+00 -0.55201580823E-01  0.89210207596E+00  0.88000000000E+00 0. -1.
        -11    1    4    4    0    0 -0.98220566003E-02  0.70586557363E-01  0.26856038526E-01  0.76160638144E-01  0.51100000000E-03 0. -1.
         11    1    4    4    0    0  0.56227481700E-02  0.49391039957E-01  0.85403354661E-02  0.50440941465E-01  0.51100000000E-03 0.  1.
</event>
<event>
 8    1  0.1145101E+005  0.1043930E+01  0.7957747E-01            NaN
         13   -1    0    0    0    0  0.00000000000E+00  0.00000000000E+00  0.74505805969E-08  0.10566000000E+00  0.10566000000E+00 0.  1.
     999900   -1    0    0    0    0 -0.00000000000E+00 -0.00000000000E+00 -0.74505805969E-08  0.93827000000E+00  0.93827000000E+00 0.  1.
     999902    2    1    2    0    0  0.21742061429E-01  0.27269920404E-02 -0.72912146366E-02  0.10208363747E+01  0.10205751262E+01 0.  0.
     999903    2    3    3    0    0 -0.86813153404E-01 -0.52624946218E-01 -0.77984711847E-01  0.12963177285E+00  0.20417460199E-01 0.  0.
         14    1    1    2    0    0 -0.21742061429E-01 -0.27269920404E-02  0.72912146366E-02  0.23093625346E-01  0.00000000000E+00 0. -1.
     999901    1    3    3    0    0  0.10855521483E+00  0.55351938258E-01  0.70693497210E-01  0.89120460181E+00  0.88000000000E+00 0. -1.
        -11    1    4    4    0    0 -0.49101734437E-01 -0.19654634614E-01 -0.46796628465E-01  0.70622025906E-01  0.51100000000E-03 0. -1.
         11    1    4    4    0    0 -0.37711418967E-01 -0.32970311604E-01 -0.31188083382E-01  0.59009746939E-01  0.51100000000E-03 0.  1.
</event>
<event>
 8    1  0.1145101E+005  0.1043930E+01  0.7957747E-01            NaN
         13   -1    0    0    0    0  0.00000000000E+00  0.00000000000E+00  0.74505805969E-08  0.10566000000E+00  0.10566000000E+00 0.  1.
     999900   -1    0    0    0    0 -0.00000000000E+00 -0.00000000000E+00 -0.74505805969E-08  0.93827000000E+00  0.93827000000E+00 0.  1.
     999902    2    1    2    0    0 -0.21713298563E-01 -0.89235325201E-02 -0.75775294129E-02  0.10192618886E+01  0.10189633369E+01 0.  0.
     999903    2    3    3    0    0 -0.94754096603E-01  0.27711582371E-01 -0.85429324636E-01  0.13205391309E+00  0.19844289715E-01 0.  0.
         14    1    1    2    0    0  0.21713298563E-01  0.89235325201E-02  0.75775294129E-02  0.24668111381E-01  0.00000000000E+00 0.  1.
     999901    1    3    3    0    0  0.73040798040E-01 -0.36635114891E-01  0.77851795223E-01  0.88720797553E+00  0.88000000000E+00 0. -1.
        -11    1    4    4    0    0 -0.55442475055E-01  0.17321417512E-01 -0.62684208187E-01  0.85460345318E-01  0.51100000000E-03 0. -1.
         11    1    4    4    0    0 -0.39311621548E-01  0.10390164858E-01 -0.22745116449E-01  0.46593567773E-01  0.51100000000E-03 0.  1.
</event>
<event>
 8    1  0.1145101E+005  0.1043930E+01  0.7957747E-01            NaN
         13   -1    0    0    0    0  0.00000000000E+00  0.00000000000E+00  0.74505805969E-08  0.10566000000E+00  0.10566000000E+00 0. -1.
     999900   -1    0    0    0    0 -0.00000000000E+00 -0.00000000000E+00 -0.74505805969E-08  0.93827000000E+00  0.93827000000E+00 0. -1.
     999902    2    1    2    0    0  0.95407260794E-02  0.13152723160E-01 -0.16516640477E-01  0.10207606454E+01  0.10204976610E+01 0.  0.
     999903    2    3    3    0    0  0.13213472148E-01  0.13023533406E+00  0.85888816647E-02  0.13264347176E+00  0.19613353368E-01 0.  0.
         14    1    1    2    0    0 -0.95407260794E-02 -0.13152723160E-01  0.16516640477E-01  0.23169354616E-01  0.00000000000E+00 0. -1.
     999901    1    3    3    0    0 -0.36727460686E-02 -0.11708261090E+00 -0.25105522142E-01  0.88811717362E+00  0.88000000000E+00 0.  1.
        -11    1    4    4    0    0  0.11030897828E-01  0.73594453173E-01 -0.41882522119E-02  0.74536077320E-01  0.51100000000E-03 0. -1.
         11    1    4    4    0    0  0.21825743196E-02  0.56640880884E-01  0.12777133877E-01  0.58107394444E-01  0.51100000000E-03 0.  1.
</event>
<event>
 8    1  0.1145101E+005  0.1043930E+01  0.7957747E-01            NaN
         13   -1    0    0    0    0  0.00000000000E+00  0.00000000000E+00  0.74505805969E-08  0.10566000000E+00  0.10566000000E+00 0. -1.
     999900   -1    0    0    0    0 -0.00000000000E+00 -0.00000000000E+00 -0.74505805969E-08  0.93827000000E+00  0.93827000000E+00 0. -1.
     999902    2    1    2    0    0 -0.68653572224E-03  0.59439755627E-02 -0.23129321177E-01  0.10200392555E+01  0.10197594398E+01 0.  0.
     999903    2    3    3    0    0  0.99976306735E-01 -0.43577928393E-01 -0.71139128200E-01  0.13161910238E+00  0.19196739267E-01 0.  0.
         14    1    1    2    0    0  0.68653572224E-03 -0.59439755627E-02  0.23129321177E-01  0.23890744544E-01  0.00000000000E+00 0. -1.
     999901    1    3    3    0    0 -0.10066284246E+00  0.49521903956E-01  0.48009807023E-01  0.88842015308E+00  0.88000000000E+00 0.  1.
        -11    1    4    4    0    0  0.80561697819E-01 -0.40912343421E-01 -0.64126039284E-01  0.11079899383E+00  0.51100000000E-03 0. -1.
         11    1    4    4    0    0  0.19414608917E-01 -0.26655849722E-02 -0.70130889160E-02  0.20820108544E-01  0.51100000000E-03 0.  1.
</event>
<event>
 8    1  0.1145101E+005  0.1043930E+01  0.7957747E-01            NaN
         13   -1    0    0    0    0  0.00000000000E+00  0.00000000000E+00  0.74505805969E-08  0.10566000000E+00  0.10566000000E+00 0. -1.
     999900   -1    0    0    0    0 -0.00000000000E+00 -0.00000000000E+00 -0.74505805969E-08  0.93827000000E+00  0.93827000000E+00 0. -1.
     999902    2    1    2    0    0 -0.20580769759E-01  0.10700921284E-01  0.53130740155E-02  0.10201328036E+01  0.10198552007E+01 0.  0.
     999903    2    3    3    0    0  0.12363940918E+00 -0.23423605842E-01 -0.25637988795E-03  0.12772316551E+00  0.21858006905E-01 0.  0.
         14    1    1    2    0    0  0.20580769759E-01 -0.10700921284E-01 -0.53130740155E-02  0.23797196383E-01  0.00000000000E+00 0.  1.
     999901    1    3    3    0    0 -0.14422017894E+00  0.34124527126E-01  0.55694539034E-02  0.89240963810E+00  0.88000000000E+00 0. -1.
        -11    1    4    4    0    0  0.86928623599E-01 -0.92867505756E-02  0.70495830492E-02  0.87708534814E-01  0.51100000000E-03 0. -1.
         11    1    4    4    0    0  0.36710785578E-01 -0.14136855266E-01 -0.73059629372E-02  0.40014630699E-01  0.51100000000E-03 0.  1.
</event>
<event>
 8    1  0.1145101E+005  0.1043930E+01  0.7957747E-01            NaN
         13   -1    0    0    0    0  0.00000000000E+00  0.00000000000E+00  0.74505805969E-08  0.10566000000E+00  0.10566000000E+00 0.  1.
     999900   -1    0    0    0    0 -0.00000000000E+00 -0.00000000000E+00 -0.74505805969E-08  0.93827000000E+00  0.93827000000E+00 0. -1.
     999902    2    1    2    0    0  0.21970489799E-01 -0.51046991084E-02 -0.87120554925E-02  0.10197502505E+01  0.10194635418E+01 0.  0.
     999903    2    3    3    0    0 -0.68398450207E-01  0.87755491533E-01  0.59216240810E-01  0.12767188300E+00  0.20351222277E-01 0.  0.
         14    1    1    2    0    0 -0.21970489799E-01  0.51046991084E-02  0.87120554925E-02  0.24179749500E-01  0.00000000000E+00 0.  1.
     999901    1    3    3    0    0  0.90368940005E-01 -0.92860190641E-01 -0.67928296302E-01  0.89207836750E+00  0.88000000000E+00 0. -1.
        -11    1    4    4    0    0 -0.23131389873E-01  0.35929588067E-01  0.33157823647E-01  0.54089729951E-01  0.51100000000E-03 0.  1.
         11    1    4    4    0    0 -0.45267060334E-01  0.51825903466E-01  0.26058417162E-01  0.73582153049E-01  0.51100000000E-03 0. -1.
</event>
<event>
 8    1  0.1145101E+005  0.1043930E+01  0.7957747E-01            NaN
         13   -1    0    0    0    0  0.00000000000E+00  0.00000000000E+00  0.74505805969E-08  0.10566000000E+00  0.10566000000E+00 0.  1.
     999900   -1    0    0    0    0 -0.00000000000E+00 -0.00000000000E+00 -0.74505805969E-08  0.93827000000E+00  0.93827000000E+00 0.  1.
     999902    2    1    2    0    0 -0.22037475854E-01  0.12552430145E-01  0.37333642336E-02  0.10182950268E+01  0.10179723030E+01 0.  0.
     999903    2    3    3    0    0  0.86114127886E-01  0.54117718711E-01 -0.73803581637E-01  0.12732004362E+00  0.20470816908E-01 0.  0.
         14    1    1    2    0    0  0.22037475854E-01 -0.12552430145E-01 -0.37333642336E-02  0.25634973241E-01  0.00000000000E+00 0. -1.
     999901    1    3    3    0    0 -0.10815160374E+00 -0.41565288566E-01  0.77536945871E-01  0.89097498314E+00  0.88000000000E+00 0.  1.
        -11    1    4    4    0    0  0.68796575868E-01  0.36270888276E-01 -0.47566029358E-01  0.91166520485E-01  0.51100000000E-03 0. -1.
         11    1    4    4    0    0  0.17317552018E-01  0.17846830434E-01 -0.26237552279E-01  0.36153523134E-01  0.51100000000E-03 0.  1.
</event>
<event>
 7    1  0.1145101E+005  0.1043930E+01  0.7957747E-01            NaN
         13   -1    0    0    0    0  0.00000000000E+00  0.00000000000E+00  0.74505805969E-08  0.10566000000E+00  0.10566000000E+00 0.  1.
     999900   -1    0    0    0    0 -0.00000000000E+00 -0.00000000000E+00 -0.74505805969E-08  0.93827000000E+00  0.93827000000E+00 0. -1.
     999902    2    1    2    0    0 -0.85045518488E-02 -0.13432534929E-01 -0.17682804881E-01  0.10201509759E+01  0.10198738019E+01 0.  0.
         14    1    1    2    0    0  0.85045518488E-02  0.13432534929E-01  0.17682804881E-01  0.23779024060E-01  0.00000000000E+00 0. -1.
     999901    1    3    3    0    0 -0.33602998544E-01  0.83160635223E-01  0.43810283039E-01  0.88564337838E+00  0.88000000000E+00 0. -1.
        -11    1    3    3    0    0 -0.70545169381E-02 -0.82429740884E-01 -0.32261734366E-01  0.88800388607E-01  0.51100000000E-03 0.  1.
         11    1    3    3    0    0  0.32152963633E-01 -0.14163429268E-01 -0.29231353554E-01  0.45707208957E-01  0.51100000000E-03 0. -1.
</event>
<event>
 8    1  0.1145101E+005  0.1043930E+01  0.7957747E-01            NaN
         13   -1    0    0    0    0  0.00000000000E+00  0.00000000000E+00  0.74505805969E-08  0.10566000000E+00  0.10566000000E+00 0.  1.
     999900   -1    0    0    0    0 -0.00000000000E+00 -0.00000000000E+00 -0.74505805969E-08  0.93827000000E+00  0.93827000000E+00 0.  1.
     999902    2    1    2    0    0 -0.20262339492E-02 -0.20482657906E-01 -0.14257386394E-01  0.10188916701E+01  0.10185839766E+01 0.  0.
     999903    2    3    3    0    0 -0.58865346590E-01 -0.83649634213E-01  0.77891239352E-01  0.13000915767E+00  0.19311798921E-01 0.  0.
         14    1    1    2    0    0  0.20262339492E-02  0.20482657906E-01  0.14257386394E-01  0.25038329930E-01  0.00000000000E+00 0.  1.
     999901    1    3    3    0    0  0.56839112641E-01  0.63166976307E-01 -0.92148625746E-01  0.88888251240E+00  0.88000000000E+00 0.  1.
        -11    1    4    4    0    0 -0.25621150217E-01 -0.46672905788E-01  0.49757685246E-01  0.72875865931E-01  0.51100000000E-03 0.  1.
         11    1    4    4    0    0 -0.33244196373E-01 -0.36976728425E-01  0.28133554106E-01  0.57133291740E-01  0.51100000000E-03 0. -1.
</event>
<event>
 8    1  0.1145101E+005  0.1043930E+01  0.7957747E-01            NaN
         13   -1    0    0    0    0  0.00000000000E+00  0.00000000000E+00  0.74505805969E-08  0.10566000000E+00  0.10566000000E+00 0. -1.
     999900   -1    0    0    0    0 -0.00000000000E+00 -0.00000000000E+00 -0.74505805969E-08  0.93827000000E+00  0.93827000000E+00 0. -1.
     999902    2    1    2    0    0 -0.47264362246E-02  0.17226707219E-01 -0.15530217116E-01  0.10202596328E+01  0.10199850156E+01 0.  0.
     999903    2    3    3    0    0 -0.92247647119E-01 -0.15981454158E-01 -0.91080862998E-01  0.13207573040E+00  0.19576508387E-01 0.  0.
         14    1    1    2    0    0  0.47264362246E-02 -0.17226707219E-01  0.15530217116E-01  0.23670367227E-01  0.00000000000E+00 0. -1.
     999901    1    3    3    0    0  0.87521210895E-01  0.33208161377E-01  0.75550645881E-01  0.88818390237E+00  0.88000000000E+00 0.  1.
        -11    1    4    4    0    0 -0.84266381385E-01 -0.11788142519E-01 -0.88304240802E-01  0.12262823248E+00  0.51100000000E-03 0.  1.
         11    1    4    4    0    0 -0.79812657342E-02 -0.41933116388E-02 -0.27766221960E-02  0.94474979248E-02  0.51100000000E-03 0. -1.
</event>
<event>
 8    1  0.1145101E+005  0.1043930E+01  0.7957747E-01            NaN
         13   -1    0    0    0    0  0.00000000000E+00  0.00000000000E+00  0.74505805969E-08  0.10566000000E+00  0.10566000000E+00 0. -1.
     999900   -1    0    0    0    0 -0.00000000000E+00 -0.00000000000E+00 -0.74505805969E-08  0.93827000000E+00  0.93827000000E+00 0. -1.
     999902    2    1    2    0    0  0.18814062632E-01  0.18945841806E-04  0.14113775833E-01  0.10204104766E+01  0.10201393889E+01 0.  0.
     999903    2    3    3    0    0  0.39273968449E-01  0.11815274856E+00  0.38783780799E-01  0.13193829797E+00  0.20025389630E-01 0.  0.
         14    1    1    2    0    0 -0.18814062632E-01 -0.18945841806E-04 -0.14113775833E-01  0.23519523378E-01  0.00000000000E+00 0.  1.
     999901    1    3    3    0    0 -0.20459905817E-01 -0.11813380271E+00 -0.24670004966E-01  0.88847217865E+00  0.88000000000E+00 0. -1.
        -11    1    4    4    0    0  0.29504270723E-01  0.57384925768E-01  0.21323005886E-01  0.67959277493E-01  0.51100000000E-03 0. -1.
         11    1    4    4    0    0  0.97696977254E-02  0.60767822787E-01  0.17460774914E-01  0.63979020479E-01  0.51100000000E-03 0.  1.
</event>
<event>
 8    1  0.1145101E+005  0.1043930E+01  0.7957747E-01            NaN
         13   -1    0    0    0    0  0.00000000000E+00  0.00000000000E+00  0.74505805969E-08  0.10566000000E+00  0.10566000000E+00 0.  1.
     999900   -1    0    0    0    0 -0.00000000000E+00 -0.00000000000E+00 -0.74505805969E-08  0.93827000000E+00  0.93827000000E+00 0. -1.
     999902    2    1    2    0    0  0.12368192009E-01  0.18391870989E-01 -0.82153791920E-02  0.10202926239E+01  0.10200187807E+01 0.  0.
     999903    2    3    3    0    0 -0.69354347571E-01 -0.10289495959E+00  0.22447642843E-01  0.12769568821E+00  0.20121975056E-01 0.  0.
         14    1    1    2    0    0 -0.12368192009E-01 -0.18391870989E-01  0.82153791920E-02  0.23637376067E-01  0.00000000000E+00 0.  1.
     999901    1    3    3    0    0  0.81722539581E-01  0.12128683058E+00 -0.30663022035E-01  0.89259693573E+00  0.88000000000E+00 0. -1.
        -11    1    4    4    0    0 -0.31044510709E-01 -0.47414522374E-01  0.20416713340E-01  0.60241197545E-01  0.51100000000E-03 0.  1.
         11    1    4    4    0    0 -0.38309836862E-01 -0.55480437221E-01  0.20309295035E-02  0.67454490661E-01  0.51100000000E-03 0. -1.
</event>
<event>
 8    1  0.1145101E+005  0.1043930E+01  0.7957747E-01            NaN
         13   -1    0    0    0    0  0.00000000000E+00  0.00000000000E+00  0.74505805969E-08  0.10566000000E+00  0.10566000000E+00 0. -1.
     999900   -1    0    0    0    0 -0.00000000000E+00 -0.00000000000E+00 -0.74505805969E-08  0.93827000000E+00  0.93827000000E+00 0.  1.
     999902    2    1    2    0    0 -0.18757477295E-01  0.12873755465E-01 -0.68795852681E-02  0.10201622650E+01  0.10198853571E+01 0.  0.
     999903    2    3    3    0    0 -0.11573150594E+00 -0.51732262855E-01  0.28795240334E-01  0.13176449765E+00  0.21510659857E-01 0.  0.
         14    1    1    2    0    0  0.18757477295E-01 -0.12873755465E-01  0.68795852681E-02  0.23767735014E-01  0.00000000000E+00 0. -1.
     999901    1    3    3    0    0  0.96974028641E-01  0.64606018320E-01 -0.35674825602E-01  0.88839776734E+00  0.88000000000E+00 0. -1.
        -11    1    4    4    0    0 -0.86505428418E-02  0.11390157344E-02 -0.65080055168E-03  0.87643545489E-02  0.51100000000E-03 0. -1.
         11    1    4    4    0    0 -0.10708096309E+00 -0.52871278590E-01  0.29446040886E-01  0.12300014310E+00  0.51100000000E-03 0.  1.
</event>
<event>
 8    1  0.1145101E+005  0.1043930E+01  0.7957747E-01            NaN
         13   -1    0    0    0    0  0.00000000000E+00  0.00000000000E+00  0.74505805969E-08  0.10566000000E+00  0.10566000000E+00 0. -1.
     999900   -1    0    0    0    0 -0.00000000000E+00 -0.00000000000E+00 -0.74505805969E-08  0.93827000000E+00  0.93827000000E+00 0.  1.
     999902    2    1    2    0    0 -0.13013898916E-01 -0.12962419820E-01 -0.28656418648E-01  0.10098921355E+01  0.10093183586E+01 0.  0.
     999903    2    3    3    0    0 -0.11376455749E+00  0.16919621097E-01  0.33396521890E-01  0.12146982653E+00  0.20271728240E-01 0.  0.
         14    1    1    2    0    0  0.13013898916E-01  0.12962419820E-01  0.28656418648E-01  0.34037864538E-01  0.00000000000E+00 0. -1.
     999901    1    3    3    0    0  0.10075065857E+00 -0.29882040917E-01 -0.62052940537E-01  0.88842230893E+00  0.88000000000E+00 0.  1.
        -11    1    4    4    0    0 -0.86098860860E-01  0.73727574898E-02  0.32051292981E-01  0.92167878879E-01  0.51100000000E-03 0. -1.
         11    1    4    4    0    0 -0.27665696626E-01  0.95468636072E-02  0.13452289089E-02  0.29301947655E-01  0.51100000000E-03 0.  1.
</event>
<event>
 8    1  0.1145101E+005  0.1043930E+01  0.7957747E-01            NaN
         13   -1    0    0    0    0  0.00000000000E+00  0.00000000000E+00  0.74505805969E-08  0.10566000000E+00  0.10566000000E+00 0. -1.
     999900   -1    0    0    0    0 -0.00000000000E+00 -0.00000000000E+00 -0.74505805969E-08  0.93827000000E+00  0.93827000000E+00 0. -1.
     999902    2    1    2    0    0  0.11455382404E-01  0.80057147035E-02 -0.19031957499E-01  0.10203178705E+01  0.10200446187E+01 0.  0.
     999903    2    3    3    0    0  0.33101532241E-01  0.70773583904E-03  0.12262502460E+00  0.12869658492E+00  0.20729254296E-01 0.  0.
         14    1    1    2    0    0 -0.11455382404E-01 -0.80057147035E-02  0.19031957499E-01  0.23612129514E-01  0.00000000000E+00 0. -1.
     999901    1    3    3    0    0 -0.21646149837E-01  0.72979788644E-02 -0.14165698210E+00  0.89162128557E+00  0.88000000000E+00 0.  1.
        -11    1    4    4    0    0  0.21872013189E-01 -0.63620274063E-02  0.99069564392E-01  0.10165579208E+00  0.51100000000E-03 0.  1.
         11    1    4    4    0    0  0.11229519052E-01  0.70697632454E-02  0.23555460213E-01  0.27040792839E-01  0.51100000000E-03 0. -1.
</event>
<event>
 8    1  0.1145101E+005  0.1043930E+01  0.7957747E-01            NaN
         13   -1    0    0    0    0  0.00000000000E+00  0.00000000000E+00  0.74505805969E-08  0.10566000000E+00  0.10566000000E+00 0.  1.
     999900   -1    0    0    0    0 -0.00000000000E+00 -0.00000000000E+00 -0.74505805969E-08  0.93827000000E+00  0.93827000000E+00 0.  1.
     999902    2    1    2    0    0 -0.11666430227E-01 -0.21255089564E-01 -0.55020382003E-02  0.10190672397E+01  0.10187638991E+01 0.  0.
     999903    2    3    3    0    0 -0.11193447054E+00  0.55971259981E-01  0.25964969875E-01  0.12945622267E+00  0.20557876554E-01 0.  0.
         14    1    1    2    0    0  0.11666430227E-01  0.21255089564E-01  0.55020382003E-02  0.24862760325E-01  0.00000000000E+00 0.  1.
     999901    1    3    3    0    0  0.10026804032E+00 -0.77226349545E-01 -0.31467008075E-01  0.88961101700E+00  0.88000000000E+00 0.  1.
        -11    1    4    4    0    0 -0.41618221551E-01  0.26863572734E-01  0.18914248272E-01  0.53025822142E-01  0.51100000000E-03 0.  1.
         11    1    4    4    0    0 -0.70316248994E-01  0.29107687246E-01  0.70507216034E-02  0.76430400532E-01  0.51100000000E-03 0. -1.
</event>
<event>
 8    1  0.1145101E+005  0.1043930E+01  0.7957747E-01            NaN
         13   -1    0    0    0    0  0.00000000000E+00  0.00000000000E+00  0.74505805969E-08  0.10566000000E+00  0.10566000000E+00 0. -1.
     999900   -1    0    0    0    0 -0.00000000000E+00 -0.00000000000E+00 -0.74505805969E-08  0.93827000000E+00  0.93827000000E+00 0.  1.
     999902    2    1    2    0    0  0.61942483637E-02 -0.13675522422E-01 -0.18329277058E-01  0.10202371525E+01  0.10199620073E+01 0.  0.
     999903    2    3    3    0    0  0.11174693930E+00 -0.35319521886E-01 -0.59143252283E-01  0.13272624333E+00  0.19582755383E-01 0.  0.
         14    1    1    2    0    0 -0.61942483637E-02  0.13675522422E-01  0.18329277058E-01  0.23692847524E-01  0.00000000000E+00 0. -1.
     999901    1    3    3    0    0 -0.10555269094E+00  0.21643999464E-01  0.40813975225E-01  0.88751090914E+00  0.88000000000E+00 0.  1.
        -11    1    4    4    0    0  0.70486665396E-01 -0.31114741189E-01 -0.42847864461E-01  0.88162904488E-01  0.51100000000E-03 0. -1.
         11    1    4    4    0    0  0.41260273907E-01 -0.42047806972E-02 -0.16295387822E-01  0.44563338844E-01  0.51100000000E-03 0.  1.
</event>
<event>
 8    1  0.1145101E+005  0.1043930E+01  0.7957747E-01            NaN
         13   -1    0    0    0    0  0.00000000000E+00  0.00000000000E+00  0.74505805969E-08  0.10566000000E+00  0.10566000000E+00 0. -1.
     999900   -1    0    0    0    0 -0.00000000000E+00 -0.00000000000E+00 -0.74505805969E-08  0.93827000000E+00  0.93827000000E+00 0.  1.
     999902    2    1    2    0    0 -0.12474381100E-01  0.14004827231E-01 -0.14146572192E-01  0.10204380679E+01  0.10201676232E+01 0.  0.
     999903    2    3    3    0    0  0.26342167299E-01 -0.11281327899E+00 -0.54534115581E-01  0.12958414599E+00  0.19933274609E-01 0.  0.
         14    1    1    2    0    0  0.12474381100E-01 -0.14004827231E-01  0.14146572192E-01  0.23491932113E-01  0.00000000000E+00 0. -1.
     999901    1    3    3    0    0 -0.38816548399E-01  0.12681810622E+00  0.40387543389E-01  0.89085392189E+00  0.88000000000E+00 0. -1.
        -11    1    4    4    0    0  0.51408184385E-02 -0.41462569317E-01 -0.10437381772E-01  0.43067072431E-01  0.51100000000E-03 0. -1.
         11    1    4    4    0    0  0.21201348861E-01 -0.71350709670E-01 -0.44096733809E-01  0.86517073561E-01  0.51100000000E-03 0.  1.
</event>
<event>
 7    1  0.1145101E+005  0.1043930E+01  0.7957747E-01            NaN
         13   -1    0    0    0    0  0.00000000000E+00  0.00000000000E+00  0.74505805969E-08  0.10566000000E+00  0.10566000000E+00 0.  1.
     999900   -1    0    0    0    0 -0.00000000000E+00 -0.00000000000E+00 -0.74505805969E-08  0.93827000000E+00  0.93827000000E+00 0.  1.
     999903    2    1    2    0    0 -0.29658634408E-01 -0.14429476209E-01  0.24635504708E-01  0.45661841727E-01  0.19754779649E-01 0.  0.
         14    1    1    2    0    0 -0.54472740281E-02  0.52706965613E-01 -0.10036104628E+00  0.11349024905E+00  0.00000000000E+00 0. -1.
     999901    1    1    2    0    0  0.35105908436E-01 -0.38277489403E-01  0.75725541575E-01  0.88477790922E+00  0.88000000000E+00 0. -1.
        -11    1    3    3    0    0 -0.18098033076E-01  0.19110538753E-02  0.93183377944E-02  0.20451979571E-01  0.51100000000E-03 0. -1.
         11    1    3    3    0    0 -0.11560601332E-01 -0.16340530085E-01  0.15317166914E-01  0.25209862155E-01  0.51100000000E-03 0.  1.
</event>
<event>
 8    1  0.1145101E+005  0.1043930E+01  0.7957747E-01            NaN
         13   -1    0    0    0    0  0.00000000000E+00  0.00000000000E+00  0.74505805969E-08  0.10566000000E+00  0.10566000000E+00 0.  1.
     999900   -1    0    0    0    0 -0.00000000000E+00 -0.00000000000E+00 -0.74505805969E-08  0.93827000000E+00  0.93827000000E+00 0.  1.
     999902    2    1    2    0    0  0.68484349149E-02  0.28660118553E-02  0.19127057976E-01  0.10234127041E+01  0.10232070189E+01 0.  0.
     999903    2    3    3    0    0  0.66527018493E-01 -0.18626017129E-01  0.11392407304E+00  0.13605149538E+00  0.27541646183E-01 0.  0.
         14    1    1    2    0    0 -0.68484349149E-02 -0.28660118553E-02 -0.19127057976E-01  0.20517295913E-01  0.00000000000E+00 0. -1.
     999901    1    3    3    0    0 -0.59678583578E-01  0.21492028985E-01 -0.94797015063E-01  0.88736120870E+00  0.88000000000E+00 0.  1.
        -11    1    4    4    0    0  0.16658638847E-01  0.60077365618E-02  0.18609910178E-01  0.25694221620E-01  0.51100000000E-03 0.  1.
         11    1    4    4    0    0  0.49868379646E-01 -0.24633753691E-01  0.95314162862E-01  0.11035727376E+00  0.51100000000E-03 0. -1.
</event>
<event>
 7    1  0.1145101E+005  0.1043930E+01  0.7957747E-01            NaN
         13   -1    0    0    0    0  0.00000000000E+00  0.00000000000E+00  0.74505805969E-08  0.10566000000E+00  0.10566000000E+00 0.  1.
     999900   -1    0    0    0    0 -0.00000000000E+00 -0.00000000000E+00 -0.74505805969E-08  0.93827000000E+00  0.93827000000E+00 0. -1.
     999903    2    1    2    0    0  0.74376512272E-01  0.34814713406E-01  0.73248580696E-01  0.11272273126E+00  0.24436237870E-01 0.  0.
         14    1    1    2    0    0 -0.80762557329E-02  0.32684419062E-01  0.23213464874E-01  0.40894524175E-01  0.00000000000E+00 0.  1.
     999901    1    1    2    0    0 -0.66300256539E-01 -0.67499132468E-01 -0.96462045570E-01  0.89031274457E+00  0.88000000000E+00 0. -1.
        -11    1    3    3    0    0  0.14082778667E-01  0.16562271588E-01  0.26464853015E-01  0.34253219721E-01  0.51100000000E-03 0. -1.
         11    1    3    3    0    0  0.60293733604E-01  0.18252441818E-01  0.46783727680E-01  0.78469511538E-01  0.51100000000E-03 0.  1.
</event>
<event>
 8    1  0.1145101E+005  0.1043930E+01  0.7957747E-01            NaN
         13   -1    0    0    0    0  0.00000000000E+00  0.00000000000E+00  0.74505805969E-08  0.10566000000E+00  0.10566000000E+00 0.  1.
     999900   -1    0    0    0    0 -0.00000000000E+00 -0.00000000000E+00 -0.74505805969E-08  0.93827000000E+00  0.93827000000E+00 0.  1.
     999902    2    1    2    0    0  0.16078973502E-01  0.72955052940E-02 -0.16385850425E-01  0.10198415405E+01  0.10195570185E+01 0.  0.
     999903    2    3    3    0    0  0.11786916088E+00 -0.32763154114E-01 -0.46924620162E-01  0.13254308176E+00  0.19979619428E-01 0.  0.
         14    1    1    2    0    0 -0.16078973502E-01 -0.72955052940E-02  0.16385850425E-01  0.24088459489E-01  0.00000000000E+00 0.  1.
     999901    1    3    3    0    0 -0.10179018738E+00  0.40058659408E-01  0.30538769737E-01  0.88729845875E+00  0.88000000000E+00 0.  1.
        -11    1    4    4    0    0  0.72242945922E-01 -0.21018920546E-01 -0.18373117938E-01  0.77451086759E-01  0.51100000000E-03 0.  1.
         11    1    4    4    0    0  0.45626214955E-01 -0.11744233569E-01 -0.28551502225E-01  0.55091995004E-01  0.51100000000E-03 0. -1.
</event>
<event>
 8    1  0.1145101E+005  0.1043930E+01  0.7957747E-01            NaN
         13   -1    0    0    0    0  0.00000000000E+00  0.00000000000E+00  0.74505805969E-08  0.10566000000E+00  0.10566000000E+00 0.  1.
     999900   -1    0    0    0    0 -0.00000000000E+00 -0.00000000000E+00 -0.74505805969E-08  0.93827000000E+00  0.93827000000E+00 0.  1.
     999902    2    1    2    0    0 -0.10645758015E-02 -0.13879426247E-01  0.20604875919E-01  0.10190637034E+01  0.10187602755E+01 0.  0.
     999903    2    3    3    0    0 -0.76758572979E-01  0.28258444004E-01 -0.95194262905E-01  0.12725956467E+00  0.21038795748E-01 0.  0.
         14    1    1    2    0    0  0.10645758015E-02  0.13879426247E-01 -0.20604875919E-01  0.24866296592E-01  0.00000000000E+00 0. -1.
     999901    1    3    3    0    0  0.75693997178E-01 -0.42137870251E-01  0.11579913882E+00  0.89180413874E+00  0.88000000000E+00 0. -1.
        -11    1    4    4    0    0 -0.12830963989E-01  0.13921154082E-01 -0.21153550617E-01  0.28393062402E-01  0.51100000000E-03 0. -1.
         11    1    4    4    0    0 -0.63927608990E-01  0.14337289922E-01 -0.74040712288E-01  0.98866502267E-01  0.51100000000E-03 0.  1.
</event>
<event>
 8    1  0.1145101E+005  0.1043930E+01  0.7957747E-01            NaN
         13   -1    0    0    0    0  0.00000000000E+00  0.00000000000E+00  0.74505805969E-08  0.10566000000E+00  0.10566000000E+00 0. -1.
     999900   -1    0    0    0    0 -0.00000000000E+00 -0.00000000000E+00 -0.74505805969E-08  0.93827000000E+00  0.93827000000E+00 0.  1.
     999902    2    1    2    0    0  0.21299220222E-01 -0.16583273684E-02  0.93111668223E-02  0.10206253940E+01  0.10203592947E+01 0.  0.
     999903    2    3    3    0    0  0.90488511197E-01 -0.94281118139E-01 -0.12816743263E-01  0.13278769278E+00  0.19778840977E-01 0.  0.
         14    1    1    2    0    0 -0.21299220222E-01  0.16583273684E-02 -0.93111668223E-02  0.23304605968E-01  0.00000000000E+00 0.  1.
     999901    1    3    3    0    0 -0.69189290975E-01  0.92622790770E-01  0.22127910085E-01  0.88783770125E+00  0.88000000000E+00 0.  1.
        -11    1    4    4    0    0  0.85625175744E-01 -0.80428143714E-01 -0.11548323519E-01  0.11804228869E+00  0.51100000000E-03 0. -1.
         11    1    4    4    0    0  0.48633354530E-02 -0.13852974425E-01 -0.12684197442E-02  0.14745404091E-01  0.51100000000E-03 0.  1.
</event>
<event>
 8    1  0.1145101E+005  0.1043930E+01  0.7957747E-01            NaN
         13   -1    0    0    0    0  0.00000000000E+00  0.00000000000E+00  0.74505805969E-08  0.10566000000E+00  0.10566000000E+00 0. -1.
     999900   -1    0    0    0    0 -0.00000000000E+00 -0.00000000000E+00 -0.74505805969E-08  0.93827000000E+00  0.93827000000E+00 0. -1.
     999902    2    1    2    0    0 -0.84474058457E-02 -0.17699668398E-01 -0.11881137950E-01  0.10209997064E+01  0.10207421820E+01 0.  0.
     999903    2    3    3    0    0 -0.50734998800E-01 -0.90524404578E-01 -0.82718243958E-01  0.13414595388E+00  0.19599008441E-01 0.  0.
         14    1    1    2    0    0  0.84474058457E-02  0.17699668398E-01  0.11881137950E-01  0.22930293629E-01  0.00000000000E+00 0. -1.
     999901    1    3    3    0    0  0.42287592954E-01  0.72824736181E-01  0.70837106008E-01  0.88685375249E+00  0.88000000000E+00 0.  1.
        -11    1    4    4    0    0 -0.50013549028E-02 -0.32377408445E-02 -0.10094564905E-01  0.11732769420E-01  0.51100000000E-03 0.  1.
         11    1    4    4    0    0 -0.45733643897E-01 -0.87286663734E-01 -0.72623679053E-01  0.12241318446E+00  0.51100000000E-03 0. -1.
</event>
<event>
 8    1  0.1145101E+005  0.1043930E+01  0.7957747E-01            NaN
         13   -1    0    0    0    0  0.00000000000E+00  0.00000000000E+00  0.74505805969E-08  0.10566000000E+00  0.10566000000E+00 0.  1.
     999900   -1    0    0    0    0 -0.00000000000E+00 -0.00000000000E+00 -0.74505805969E-08  0.93827000000E+00  0.93827000000E+00 0.  1.
     999902    2    1    2    0    0  0.18106077718E-01 -0.14176863942E-01 -0.39069934822E-02  0.10206045178E+01  0.10203379360E+01 0.  0.
     999903    2    3    3    0    0 -0.11209555052E+00  0.57784033158E-01  0.99082015147E-02  0.12801183672E+00  0.19607420778E-01 0.  0.
         14    1    1    2    0    0 -0.18106077718E-01  0.14176863942E-01  0.39069934822E-02  0.23325482195E-01  0.00000000000E+00 0. -1.
     999901    1    3    3    0    0  0.13020162824E+00 -0.71960897101E-01 -0.13815194997E-01  0.89259268108E+00  0.88000000000E+00 0. -1.
        -11    1    4    4    0    0 -0.44840250790E-02  0.74647355120E-02 -0.65154671911E-03  0.87472504995E-02  0.51100000000E-03 0. -1.
         11    1    4    4    0    0 -0.10761152544E+00  0.50319297646E-01  0.10559748234E-01  0.11926458622E+00  0.51100000000E-03 0.  1.
</event>
<event>
 8    1  0.1145101E+005  0.1043930E+01  0.7957747E-01            NaN
         13   -1    0    0    0    0  0.00000000000E+00  0.00000000000E+00  0.74505805969E-08  0.10566000000E+00  0.10566000000E+00 0. -1.
     999900   -1    0    0    0    0 -0.00000000000E+00 -0.00000000000E+00 -0.74505805969E-08  0.93827000000E+00  0.93827000000E+00 0.  1.
     999902    2    1    2    0    0  0.78472228672E-03 -0.57506120285E-03  0.23492294067E-01  0.10204175700E+01  0.10201466477E+01 0.  0.
     999903    2    3    3    0    0  0.69828632328E-01 -0.50211834284E-01  0.99392020500E-01  0.13306665900E+00  0.20753211906E-01 0.  0.
         14    1    1    2    0    0 -0.78472228672E-03  0.57506120285E-03 -0.23492294067E-01  0.23512430010E-01  0.00000000000E+00 0.  1.
     999901    1    3    3    0    0 -0.69043910041E-01  0.49636773081E-01 -0.75899726434E-01  0.88735091099E+00  0.88000000000E+00 0.  1.
        -11    1    4    4    0    0  0.49642614011E-01 -0.44253993453E-01  0.83157183986E-01  0.10648090642E+00  0.51100000000E-03 0. -1.
         11    1    4    4    0    0  0.20186018316E-01 -0.59578408311E-02  0.16234836514E-01  0.26585752584E-01  0.51100000000E-03 0.  1.
</event>
<event>
 8    1  0.1145101E+005  0.1043930E+01  0.7957747E-01            NaN
         13   -1    0    0    0    0  0.00000000000E+00  0.00000000000E+00  0.74505805969E-08  0.10566000000E+00  0.10566000000E+00 0.  1.
     999900   -1    0    0    0    0 -0.00000000000E+00 -0.00000000000E+00 -0.74505805969E-08  0.93827000000E+00  0.93827000000E+00 0. -1.
     999902    2    1    2    0    0  0.14684634934E-01 -0.12891229002E-01 -0.16153530546E-01  0.10185773110E+01  0.10182617442E+01 0.  0.
     999903    2    3    3    0    0  0.12851036684E+00 -0.15714843495E-01  0.31614397554E-02  0.13103162877E+00  0.19935454490E-01 0.  0.
         14    1    1    2    0    0 -0.14684634934E-01  0.12891229002E-01  0.16153530546E-01  0.25352688959E-01  0.00000000000E+00 0.  1.
     999901    1    3    3    0    0 -0.11382573190E+00  0.28236144930E-02 -0.19314970302E-01  0.88754568227E+00  0.88000000000E+00 0. -1.
        -11    1    4    4    0    0  0.79096639360E-01 -0.13897949363E-04  0.23970215312E-03  0.79098654409E-01  0.51100000000E-03 0. -1.
         11    1    4    4    0    0  0.49413727478E-01 -0.15700945546E-01  0.29217376023E-02  0.51932974360E-01  0.51100000000E-03 0.  1.
</event>
<event>
 8    1  0.1145101E+005  0.1043930E+01  0.7957747E-01            NaN
         13   -1    0    0    0    0  0.00000000000E+00  0.00000000000E+00  0.74505805969E-08  0.10566000000E+00  0.10566000000E+00 0. -1.
     999900   -1    0    0    0    0 -0.00000000000E+00 -0.00000000000E+00 -0.74505805969E-08  0.93827000000E+00  0.93827000000E+00 0. -1.
     999902    2    1    2    0    0 -0.70695315135E-02  0.12977023055E-01  0.18545577361E-01  0.10202167159E+01  0.10199410902E+01 0.  0.
     999903    2    3    3    0    0 -0.69134234959E-01  0.78813422146E-01 -0.74953133910E-01  0.13065026652E+00  0.21457444024E-01 0.  0.
         14    1    1    2    0    0  0.70695315135E-02 -0.12977023055E-01 -0.18545577361E-01  0.23713284101E-01  0.00000000000E+00 0.  1.
     999901    1    3    3    0    0  0.62064703445E-01 -0.65836399091E-01  0.93498711271E-01  0.88956644938E+00  0.88000000000E+00 0.  1.
        -11    1    4    4    0    0 -0.29287323323E-01  0.47581273809E-01 -0.45642927772E-01  0.72147507935E-01  0.51100000000E-03 0.  1.
         11    1    4    4    0    0 -0.39846911636E-01  0.31232148337E-01 -0.29310206138E-01  0.58502758580E-01  0.51100000000E-03 0. -1.
</event>
<event>
 8    1  0.1145101E+005  0.1043930E+01  0.7957747E-01            NaN
         13   -1    0    0    0    0  0.00000000000E+00  0.00000000000E+00  0.74505805969E-08  0.10566000000E+00  0.10566000000E+00 0.  1.
     999900   -1    0    0    0    0 -0.00000000000E+00 -0.00000000000E+00 -0.74505805969E-08  0.93827000000E+00  0.93827000000E+00 0.  1.
     999902    2    1    2    0    0  0.15791029182E-01  0.19188438919E-01  0.18467906843E-03  0.10190787043E+01  0.10187756469E+01 0.  0.
     999903    2    3    3    0    0  0.85157977129E-01 -0.26221465207E-01  0.93008227801E-01  0.13032111979E+00  0.19839796304E-01 0.  0.
         14    1    1    2    0    0 -0.15791029182E-01 -0.19188438919E-01 -0.18467906843E-03  0.24851295684E-01  0.00000000000E+00 0.  1.
     999901    1    3    3    0    0 -0.69366947946E-01  0.45409904127E-01 -0.92823548733E-01  0.88875758453E+00  0.88000000000E+00 0.  1.
        -11    1    4    4    0    0  0.19310466778E-01 -0.90486771901E-02  0.11830726147E-01  0.24392619544E-01  0.51100000000E-03 0.  1.
         11    1    4    4    0    0  0.65847510351E-01 -0.17172788017E-01  0.81177501654E-01  0.10592850024E+00  0.51100000000E-03 0. -1.
</event>
<event>
 8    1  0.1145101E+005  0.1043930E+01  0.7957747E-01            NaN
         13   -1    0    0    0    0  0.00000000000E+00  0.00000000000E+00  0.74505805969E-08  0.10566000000E+00  0.10566000000E+00 0. -1.
     999900   -1    0    0    0    0 -0.00000000000E+00 -0.00000000000E+00 -0.74505805969E-08  0.93827000000E+00  0.93827000000E+00 0. -1.
     999902    2    1    2    0    0 -0.58455752451E-02  0.21537427217E-01  0.85441290586E-02  0.10200336894E+01  0.10197537417E+01 0.  0.
     999903    2    3    3    0    0  0.81247411564E-01  0.12791958107E-01  0.99892818642E-01  0.13098574089E+00  0.20344852479E-01 0.  0.
         14    1    1    2    0    0  0.58455752451E-02 -0.21537427217E-01 -0.85441290586E-02  0.23896310645E-01  0.00000000000E+00 0.  1.
     999901    1    3    3    0    0 -0.87092986809E-01  0.87454691100E-02 -0.91348689583E-01  0.88904794846E+00  0.88000000000E+00 0. -1.
        -11    1    4    4    0    0  0.40552844233E-01  0.36873514984E-02  0.64539630946E-01  0.76313529732E-01  0.51100000000E-03 0.  1.
         11    1    4    4    0    0  0.40694567331E-01  0.91046066082E-02  0.35353187696E-01  0.54672211159E-01  0.51100000000E-03 0. -1.
</event>
<event>
 8    1  0.1145101E+005  0.1043930E+01  0.7957747E-01            NaN
         13   -1    0    0    0    0  0.00000000000E+00  0.00000000000E+00  0.74505805969E-08  0.10566000000E+00  0.10566000000E+00 0. -1.
     999900   -1    0    0    0    0 -0.00000000000E+00 -0.00000000000E+00 -0.74505805969E-08  0.93827000000E+00  0.93827000000E+00 0. -1.
     999902    2    1    2    0    0 -0.15191874330E-01 -0.17509816882E-01  0.83208903526E-02  0.10193002629E+01  0.10190026506E+01 0.  0.
     999903    2    3    3    0    0  0.97269705024E-01  0.76863917748E-01 -0.16513894849E-01  0.12679212559E+00  0.20834515174E-01 0.  0.
         14    1    1    2    0    0  0.15191874330E-01  0.17509816882E-01 -0.83208903526E-02  0.24629737090E-01  0.00000000000E+00 0.  1.
     999901    1    3    3    0    0 -0.11246157935E+00 -0.94373734630E-01  0.24834785202E-01  0.89250813732E+00  0.88000000000E+00 0. -1.
        -11    1    4    4    0    0  0.20850601726E-01  0.28302489721E-01 -0.39015592526E-02  0.35373179138E-01  0.51100000000E-03 0.  1.
         11    1    4    4    0    0  0.76419103298E-01  0.48561428028E-01 -0.12612335597E-01  0.91418946456E-01  0.51100000000E-03 0. -1.
</event>
<event>
 8    1  0.1145101E+005  0.1043930E+01  0.7957747E-01            NaN
         13   -1    0    0    0    0  0.00000000000E+00  0.00000000000E+00  0.74505805969E-08  0.10566000000E+00  0.10566000000E+00 0.  1.
     999900   -1    0    0    0    0 -0.00000000000E+00 -0.00000000000E+00 -0.74505805969E-08  0.93827000000E+00  0.93827000000E+00 0. -1.
     999902    2    1    2    0    0 -0.39365397703E-02  0.22612008197E-01 -0.10862545385E-02  0.10209522018E+01  0.10206935971E+01 0.  0.
     999903    2    3    3    0    0 -0.68662699957E-01 -0.32966497137E-01 -0.10445119140E+00  0.13080459820E+00  0.19960842301E-01 0.  0.
         14    1    1    2    0    0  0.39365397703E-02 -0.22612008197E-01  0.10862545385E-02  0.22977798175E-01  0.00000000000E+00 0. -1.
     999901    1    3    3    0    0  0.64726160187E-01  0.55578505334E-01  0.10336493687E+00  0.89014760363E+00  0.88000000000E+00 0.  1.
        -11    1    4    4    0    0 -0.18563939683E-01 -0.17845507780E-02 -0.35048398874E-01  0.39704607575E-01  0.51100000000E-03 0. -1.
         11    1    4    4    0    0 -0.50098760274E-01 -0.31181946359E-01 -0.69402792529E-01  0.91099990624E-01  0.51100000000E-03 0.  1.
</event>
<event>
 8    1  0.1145101E+005  0.1043930E+01  0.7957747E-01            NaN
         13   -1    0    0    0    0  0.00000000000E+00  0.00000000000E+00  0.74505805969E-08  0.10566000000E+00  0.10566000000E+00 0.  1.
     999900   -1    0    0    0    0 -0.00000000000E+00 -0.00000000000E+00 -0.74505805969E-08  0.93827000000E+00  0.93827000000E+00 0. -1.
     999902    2    1    2    0    0 -0.16339708603E-02 -0.20799576277E-01 -0.11904493758E-01  0.10199089841E+01  0.10196260720E+01 0.  0.
     999903    2    3    3    0    0 -0.51654814925E-01 -0.47792912043E-01 -0.11054559731E+00  0.13257545472E+00  0.20088299201E-01 0.  0.
         14    1    1    2    0    0  0.16339708603E-02  0.20799576277E-01  0.11904493758E-01  0.24021015918E-01  0.00000000000E+00 0.  1.
     999901    1    3    3    0    0  0.50020844065E-01  0.26993335766E-01  0.98641103547E-01  0.88733352936E+00  0.88000000000E+00 0.  1.
        -11    1    4    4    0    0 -0.34268159260E-01 -0.22829076206E-01 -0.49673374133E-01  0.64522698938E-01  0.51100000000E-03 0.  1.
         11    1    4    4    0    0 -0.17386655665E-01 -0.24963835837E-01 -0.60872223172E-01  0.68052755784E-01  0.51100000000E-03 0. -1.
</event>
<event>
 8    1  0.1145101E+005  0.1043930E+01  0.7957747E-01            NaN
         13   -1    0    0    0    0  0.00000000000E+00  0.00000000000E+00  0.74505805969E-08  0.10566000000E+00  0.10566000000E+00 0.  1.
     999900   -1    0    0    0    0 -0.00000000000E+00 -0.00000000000E+00 -0.74505805969E-08  0.93827000000E+00  0.93827000000E+00 0.  1.
     999902    2    1    2    0    0 -0.18085124467E-01 -0.13475863598E-01 -0.93514132123E-02  0.10195144403E+01  0.10192220437E+01 0.  0.
     999903    2    3    3    0    0  0.43797065481E-01  0.10843627702E+00  0.46228254601E-01  0.12722464716E+00  0.19298968921E-01 0.  0.
         14    1    1    2    0    0  0.18085124467E-01  0.13475863598E-01  0.93514132123E-02  0.24415559706E-01  0.00000000000E+00 0.  1.
     999901    1    3    3    0    0 -0.61882189948E-01 -0.12191214062E+00 -0.55579667813E-01  0.89228979314E+00  0.88000000000E+00 0. -1.
        -11    1    4    4    0    0  0.19363130281E-01  0.66448754463E-01  0.20160987108E-01  0.72090875332E-01  0.51100000000E-03 0. -1.
         11    1    4    4    0    0  0.24433935200E-01  0.41987522559E-01  0.26067267493E-01  0.55133771824E-01  0.51100000000E-03 0.  1.
</event>
<event>
 8    1  0.1145101E+005  0.1043930E+01  0.7957747E-01            NaN
         13   -1    0    0    0    0  0.00000000000E+00  0.00000000000E+00  0.74505805969E-08  0.10566000000E+00  0.10566000000E+00 0.  1.
     999900   -1    0    0    0    0 -0.00000000000E+00 -0.00000000000E+00 -0.74505805969E-08  0.93827000000E+00  0.93827000000E+00 0.  1.
     999902    2    1    2    0    0  0.16174688930E-01 -0.19274859113E-01 -0.50780388034E-02  0.10182604220E+01  0.10179368152E+01 0.  0.
     999903    2    3    3    0    0  0.30071329210E-01  0.82225834807E-01  0.90221224131E-01  0.12720629516E+00  0.19395862790E-01 0.  0.
         14    1    1    2    0    0 -0.16174688930E-01  0.19274859113E-01  0.50780388034E-02  0.25669577985E-01  0.00000000000E+00 0.  1.
     999901    1    3    3    0    0 -0.13896640280E-01 -0.10150069392E+00 -0.95299262934E-01  0.89105412686E+00  0.88000000000E+00 0.  1.
        -11    1    4    4    0    0  0.10984233993E-01  0.32458344992E-01  0.49131286612E-01  0.59902771231E-01  0.51100000000E-03 0.  1.
         11    1    4    4    0    0  0.19087095217E-01  0.49767489816E-01  0.41089937519E-01  0.67303523924E-01  0.51100000000E-03 0. -1.
</event>
<event>
 8    1  0.1145101E+005  0.1043930E+01  0.7957747E-01            NaN
         13   -1    0    0    0    0  0.00000000000E+00  0.00000000000E+00  0.74505805969E-08  0.10566000000E+00  0.10566000000E+00 0. -1.
     999900   -1    0    0    0    0 -0.00000000000E+00 -0.00000000000E+00 -0.74505805969E-08  0.93827000000E+00  0.93827000000E+00 0. -1.
     999902    2    1    2    0    0  0.11041139670E-01 -0.20283715059E-02  0.20611006037E-01  0.10204601337E+01  0.10201902027E+01 0.  0.
     999903    2    3    3    0    0  0.84531220132E-01 -0.99044384485E-01  0.60325284844E-02  0.13196397120E+00  0.20561639516E-01 0.  0.
         14    1    1    2    0    0 -0.11041139670E-01  0.20283715059E-02 -0.20611006037E-01  0.23469866340E-01  0.00000000000E+00 0.  1.
     999901    1    3    3    0    0 -0.73490080461E-01  0.97016012979E-01  0.14578477552E-01  0.88849616246E+00  0.88000000000E+00 0.  1.
        -11    1    4    4    0    0  0.20203782087E-01 -0.25481173152E-01 -0.73092667611E-02  0.33334209117E-01  0.51100000000E-03 0.  1.
         11    1    4    4    0    0  0.64327438044E-01 -0.73563211333E-01  0.13341795245E-01  0.98629762082E-01  0.51100000000E-03 0. -1.
</event>
<event>
 8    1  0.1145101E+005  0.1043930E+01  0.7957747E-01            NaN
         13   -1    0    0    0    0  0.00000000000E+00  0.00000000000E+00  0.74505805969E-08  0.10566000000E+00  0.10566000000E+00 0.  1.
     999900   -1    0    0    0    0 -0.00000000000E+00 -0.00000000000E+00 -0.74505805969E-08  0.93827000000E+00  0.93827000000E+00 0. -1.
     999902    2    1    2    0    0 -0.16896234804E-01 -0.13962350817E-02  0.16756634550E-01  0.10200926968E+01  0.10198141463E+01 0.  0.
     999903    2    3    3    0    0 -0.12199296307E+00 -0.48118086454E-01  0.95660009440E-02  0.13257933976E+00  0.16974677444E-01 0.  0.
         14    1    1    2    0    0  0.16896234804E-01  0.13962350817E-02 -0.16756634550E-01  0.23837303212E-01  0.00000000000E+00 0.  1.
     999901    1    3    3    0    0  0.10509672827E+00  0.46721851372E-01  0.71906336062E-02  0.88751335703E+00  0.88000000000E+00 0. -1.
        -11    1    4    4    0    0 -0.10787548174E+00 -0.45489767014E-01  0.39213963038E-02  0.11714126914E+00  0.51100000000E-03 0. -1.
         11    1    4    4    0    0 -0.14117481328E-01 -0.26283194401E-02  0.56446046402E-02  0.15438070627E-01  0.51100000000E-03 0.  1.
</event>
<event>
 8    1  0.1145101E+005  0.1043930E+01  0.7957747E-01            NaN
         13   -1    0    0    0    0  0.00000000000E+00  0.00000000000E+00  0.74505805969E-08  0.10566000000E+00  0.10566000000E+00 0. -1.
     999900   -1    0    0    0    0 -0.00000000000E+00 -0.00000000000E+00 -0.74505805969E-08  0.93827000000E+00  0.93827000000E+00 0.  1.
     999902    2    1    2    0    0  0.21847491685E-01 -0.34841703461E-02  0.75090483622E-02  0.10205668208E+01  0.10202993666E+01 0.  0.
     999903    2    3    3    0    0  0.33140799474E-01 -0.10309529152E+00  0.73665838143E-01  0.13240769366E+00  0.19447105377E-01 0.  0.
         14    1    1    2    0    0 -0.21847491685E-01  0.34841703461E-02 -0.75090483622E-02  0.23363179220E-01  0.00000000000E+00 0.  1.
     999901    1    3    3    0    0 -0.11293307789E-01  0.99611121169E-01 -0.66156789780E-01  0.88815912712E+00  0.88000000000E+00 0.  1.
        -11    1    4    4    0    0  0.78694423615E-02 -0.90316235594E-02  0.39346590949E-02  0.12619073278E-01  0.51100000000E-03 0.  1.
         11    1    4    4    0    0  0.25271357112E-01 -0.94063667956E-01  0.69731179048E-01  0.11978862038E+00  0.51100000000E-03 0. -1.
</event>
<event>
 8    1  0.1145101E+005  0.1043930E+01  0.7957747E-01            NaN
         13   -1    0    0    0    0  0.00000000000E+00  0.00000000000E+00  0.74505805969E-08  0.10566000000E+00  0.10566000000E+00 0. -1.
     999900   -1    0    0    0    0 -0.00000000000E+00 -0.00000000000E+00 -0.74505805969E-08  0.93827000000E+00  0.93827000000E+00 0. -1.
     999902    2    1    2    0    0 -0.20353202202E-01  0.10355699458E-01 -0.76104112670E-02  0.10198590276E+01  0.10195749235E+01 0.  0.
     999903    2    3    3    0    0 -0.71863058124E-02 -0.12402663242E+00  0.28312319020E-01  0.12883578392E+00  0.19047920316E-01 0.  0.
         14    1    1    2    0    0  0.20353202202E-01 -0.10355699458E-01  0.76104112670E-02  0.24070972369E-01  0.00000000000E+00 0. -1.
     999901    1    3    3    0    0 -0.13166896389E-01  0.13438233188E+00 -0.35922730287E-01  0.89102324371E+00  0.88000000000E+00 0.  1.
        -11    1    4    4    0    0  0.47312013227E-03 -0.36512099155E-01  0.16925451737E-01  0.40250332481E-01  0.51100000000E-03 0. -1.
         11    1    4    4    0    0 -0.76594259447E-02 -0.87514533269E-01  0.11386867283E-01  0.88585451439E-01  0.51100000000E-03 0.  1.
</event>
<event>
 8    1  0.1145101E+005  0.1043930E+01  0.7957747E-01            NaN
         13   -1    0    0    0    0  0.00000000000E+00  0.00000000000E+00  0.74505805969E-08  0.10566000000E+00  0.10566000000E+00 0. -1.
     999900   -1    0    0    0    0 -0.00000000000E+00 -0.00000000000E+00 -0.74505805969E-08  0.93827000000E+00  0.93827000000E+00 0. -1.
     999902    2    1    2    0    0  0.82482088704E-02  0.10841912222E-01 -0.19116118653E-01  0.10204564830E+01  0.10201864671E+01 0.  0.
     999903    2    3    3    0    0 -0.15490594305E-01 -0.11604614182E+00 -0.53884191133E-01  0.13035933775E+00  0.19580228354E-01 0.  0.
         14    1    1    2    0    0 -0.82482088704E-02 -0.10841912222E-01  0.19116118653E-01  0.23473517047E-01  0.00000000000E+00 0. -1.
     999901    1    3    3    0    0  0.23738803175E-01  0.12688805404E+00  0.34768072480E-01  0.89009714520E+00  0.88000000000E+00 0.  1.
        -11    1    4    4    0    0 -0.62054598043E-02 -0.14875652305E-01 -0.19072227007E-02  0.16238576979E-01  0.51100000000E-03 0.  1.
         11    1    4    4    0    0 -0.92851345008E-02 -0.10117048951E+00 -0.51976968432E-01  0.11412076077E+00  0.51100000000E-03 0. -1.
</event>
<event>
 8    1  0.1145101E+005  0.1043930E+01  0.7957747E-01            NaN
         13   -1    0    0    0    0  0.00000000000E+00  0.00000000000E+00  0.74505805969E-08  0.10566000000E+00  0.10566000000E+00 0.  1.
     999900   -1    0    0    0    0 -0.00000000000E+00 -0.00000000000E+00 -0.74505805969E-08  0.93827000000E+00  0.93827000000E+00 0.  1.
     999902    2    1    2    0    0 -0.22971342194E-01  0.17835149350E-02  0.59670416284E-02  0.10201293892E+01  0.10198517057E+01 0.  0.
     999903    2    3    3    0    0 -0.94032251308E-02  0.12741972381E+00 -0.18837871550E-01  0.13075666955E+00  0.20450784025E-01 0.  0.
         14    1    1    2    0    0  0.22971342194E-01 -0.17835149350E-02 -0.59670416284E-02  0.23800610781E-01  0.00000000000E+00 0. -1.
     999901    1    3    3    0    0 -0.13568117064E-01 -0.12563620888E+00  0.24804913178E-01  0.88937271967E+00  0.88000000000E+00 0.  1.
        -11    1    4    4    0    0 -0.13699595674E-01  0.84349695276E-01 -0.62889622501E-02  0.85687584760E-01  0.51100000000E-03 0. -1.
         11    1    4    4    0    0  0.42963705428E-02  0.43070028535E-01 -0.12548909299E-01  0.45069084786E-01  0.51100000000E-03 0.  1.
</event>
<event>
 8    1  0.1145101E+005  0.1043930E+01  0.7957747E-01            NaN
         13   -1    0    0    0    0  0.00000000000E+00  0.00000000000E+00  0.74505805969E-08  0.10566000000E+00  0.10566000000E+00 0.  1.
     999900   -1    0    0    0    0 -0.00000000000E+00 -0.00000000000E+00 -0.74505805969E-08  0.93827000000E+00  0.93827000000E+00 0.  1.
     999902    2    1    2    0    0  0.25568297389E-01 -0.10818113285E-01 -0.32676311482E-02  0.10159756297E+01  0.10155909774E+01 0.  0.
     999903    2    3    3    0    0  0.10650323801E+00  0.69095068145E-01  0.56614931644E-02  0.12861081720E+00  0.19789432696E-01 0.  0.
         14    1    1    2    0    0 -0.25568297389E-01  0.10818113285E-01  0.32676311482E-02  0.27954370315E-01  0.00000000000E+00 0.  1.
     999901    1    3    3    0    0 -0.80934940623E-01 -0.79913181430E-01 -0.89291243126E-02  0.88736481249E+00  0.88000000000E+00 0.  1.
        -11    1    4    4    0    0  0.76524312137E-01  0.52064406296E-01  0.12677263551E-01  0.93421875828E-01  0.51100000000E-03 0. -1.
         11    1    4    4    0    0  0.29978925874E-01  0.17030661849E-01 -0.70157703870E-02  0.35188941370E-01  0.51100000000E-03 0.  1.
</event>
<event>
 8    1  0.1145101E+005  0.1043930E+01  0.7957747E-01            NaN
         13   -1    0    0    0    0  0.00000000000E+00  0.00000000000E+00  0.74505805969E-08  0.10566000000E+00  0.10566000000E+00 0.  1.
     999900   -1    0    0    0    0 -0.00000000000E+00 -0.00000000000E+00 -0.74505805969E-08  0.93827000000E+00  0.93827000000E+00 0. -1.
     999902    2    1    2    0    0  0.18005875875E-03  0.21560994342E-01  0.98901647204E-02  0.10202081903E+01  0.10199323641E+01 0.  0.
     999903    2    3    3    0    0 -0.10031118725E+00  0.17171805926E-01 -0.78101983520E-01  0.13011809728E+00  0.21762219641E-01 0.  0.
         14    1    1    2    0    0 -0.18005875875E-03 -0.21560994342E-01 -0.98901647204E-02  0.23721809720E-01  0.00000000000E+00 0.  1.
     999901    1    3    3    0    0  0.10049124601E+00  0.43891884165E-02  0.87992148240E-01  0.89009009300E+00  0.88000000000E+00 0.  1.
        -11    1    4    4    0    0 -0.53431521878E-01  0.18862548423E-01 -0.36398158357E-01  0.67348424747E-01  0.51100000000E-03 0. -1.
         11    1    4    4    0    0 -0.46879665376E-01 -0.16907424973E-02 -0.41703825164E-01  0.62769672536E-01  0.51100000000E-03 0.  1.
</event>
<event>
 8    1  0.1145101E+005  0.1043930E+01  0.7957747E-01            NaN
         13   -1    0    0    0    0  0.00000000000E+00  0.00000000000E+00  0.74505805969E-08  0.10566000000E+00  0.10566000000E+00 0. -1.
     999900   -1    0    0    0    0 -0.00000000000E+00 -0.00000000000E+00 -0.74505805969E-08  0.93827000000E+00  0.93827000000E+00 0.  1.
     999902    2    1    2    0    0 -0.10655294925E-02  0.10797278494E-01 -0.20791037286E-01  0.10204782664E+01  0.10202087573E+01 0.  0.
     999903    2    3    3    0    0 -0.66187505108E-01  0.61316034431E-01  0.90361719579E-01  0.12966518179E+00  0.22525032578E-01 0.  0.
         14    1    1    2    0    0  0.10655294925E-02 -0.10797278494E-01  0.20791037286E-01  0.23451733569E-01  0.00000000000E+00 0. -1.
     999901    1    3    3    0    0  0.65121975616E-01 -0.50518755937E-01 -0.11115275686E+00  0.89081308464E+00  0.88000000000E+00 0.  1.
        -11    1    4    4    0    0 -0.25159359329E-01  0.27663030438E-01  0.52580489132E-01  0.64522907352E-01  0.51100000000E-03 0.  1.
         11    1    4    4    0    0 -0.41028145779E-01  0.33653003993E-01  0.37781230447E-01  0.65142274438E-01  0.51100000000E-03 0. -1.
</event>
<event>
 8    1  0.1145101E+005  0.1043930E+01  0.7957747E-01            NaN
         13   -1    0    0    0    0  0.00000000000E+00  0.00000000000E+00  0.74505805969E-08  0.10566000000E+00  0.10566000000E+00 0. -1.
     999900   -1    0    0    0    0 -0.00000000000E+00 -0.00000000000E+00 -0.74505805969E-08  0.93827000000E+00  0.93827000000E+00 0. -1.
     999902    2    1    2    0    0 -0.46292442555E-02 -0.20178780679E-01  0.12439037297E-01  0.10197775107E+01  0.10194914558E+01 0.  0.
     999903    2    3    3    0    0  0.21007169495E-01 -0.12934450339E+00  0.51755718719E-02  0.13263201039E+00  0.19828310776E-01 0.  0.
         14    1    1    2    0    0  0.46292442555E-02  0.20178780679E-01 -0.12439037297E-01  0.24152489332E-01  0.00000000000E+00 0. -1.
     999901    1    3    3    0    0 -0.25636413750E-01  0.10916572272E+00  0.72634654256E-02  0.88714550027E+00  0.88000000000E+00 0. -1.
        -11    1    4    4    0    0 -0.27627081464E-02 -0.39299888431E-01  0.14223874450E-02  0.39425855654E-01  0.51100000000E-03 0. -1.
         11    1    4    4    0    0  0.23769877641E-01 -0.90044614964E-01  0.37531844269E-02  0.93206154740E-01  0.51100000000E-03 0.  1.
</event>
<event>
 8    1  0.1145101E+005  0.1043930E+01  0.7957747E-01            NaN
         13   -1    0    0    0    0  0.00000000000E+00  0.00000000000E+00  0.74505805969E-08  0.10566000000E+00  0.10566000000E+00 0.  1.
     999900   -1    0    0    0    0 -0.00000000000E+00 -0.00000000000E+00 -0.74505805969E-08  0.93827000000E+00  0.93827000000E+00 0. -1.
     999902    2    1    2    0    0 -0.14673814480E-01  0.22583570028E-01  0.77150006829E-02  0.10159146524E+01  0.10155282966E+01 0.  0.
     999903    2    3    3    0    0 -0.64924226578E-01  0.83197636853E-01  0.73115992729E-01  0.12998211614E+00  0.20307637694E-01 0.  0.
         14    1    1    2    0    0  0.14673814480E-01 -0.22583570028E-01 -0.77150006829E-02  0.28015347617E-01  0.00000000000E+00 0. -1.
     999901    1    3    3    0    0  0.50250412098E-01 -0.60614066825E-01 -0.65400992046E-01  0.88593253624E+00  0.88000000000E+00 0. -1.
        -11    1    4    4    0    0 -0.10463953621E-01  0.23535452415E-01  0.10696829209E-01  0.27894356452E-01  0.51100000000E-03 0.  1.
         11    1    4    4    0    0 -0.54460272958E-01  0.59662184438E-01  0.62419163520E-01  0.10208775969E+00  0.51100000000E-03 0. -1.
</event>
<event>
 8    1  0.1145101E+005  0.1043930E+01  0.7957747E-01            NaN
         13   -1    0    0    0    0  0.00000000000E+00  0.00000000000E+00  0.74505805969E-08  0.10566000000E+00  0.10566000000E+00 0.  1.
     999900   -1    0    0    0    0 -0.00000000000E+00 -0.00000000000E+00 -0.74505805969E-08  0.93827000000E+00  0.93827000000E+00 0. -1.
     999902    2    1    2    0    0  0.14470192254E-01 -0.10574218627E-01 -0.16241359608E-01  0.10197435921E+01  0.10194567236E+01 0.  0.
     999903    2    3    3    0    0  0.56803185185E-01  0.95567370952E-01  0.62198286845E-01  0.12889517772E+00  0.19637100494E-01 0.  0.
         14    1    1    2    0    0 -0.14470192254E-01  0.10574218627E-01  0.16241359608E-01  0.24186407864E-01  0.00000000000E+00 0.  1.
     999901    1    3    3    0    0 -0.42332992931E-01 -0.10614158958E+00 -0.78439646453E-01  0.89084841441E+00  0.88000000000E+00 0. -1.
        -11    1    4    4    0    0  0.27925093857E-01  0.31970289172E-01  0.30002027646E-01  0.51983584337E-01  0.51100000000E-03 0. -1.
         11    1    4    4    0    0  0.28878091328E-01  0.63597081779E-01  0.32196259200E-01  0.76911593385E-01  0.51100000000E-03 0.  1.
</event>
<event>
 8    1  0.1145101E+005  0.1043930E+01  0.7957747E-01            NaN
         13   -1    0    0    0    0  0.00000000000E+00  0.00000000000E+00  0.74505805969E-08  0.10566000000E+00  0.10566000000E+00 0.  1.
     999900   -1    0    0    0    0 -0.00000000000E+00 -0.00000000000E+00 -0.74505805969E-08  0.93827000000E+00  0.93827000000E+00 0.  1.
     999902    2    1    2    0    0 -0.98127388894E-02 -0.38643387339E-02 -0.21868862951E-01  0.10196509941E+01  0.10193618983E+01 0.  0.
     999903    2    3    3    0    0  0.94293243247E-01  0.60521941757E-01 -0.63314895485E-01  0.13021216981E+00  0.19806867990E-01 0.  0.
         14    1    1    2    0    0  0.98127388894E-02  0.38643387339E-02  0.21868862951E-01  0.24279005852E-01  0.00000000000E+00 0.  1.
     999901    1    3    3    0    0 -0.10410598214E+00 -0.64386280491E-01  0.41446032533E-01  0.88943882434E+00  0.88000000000E+00 0.  1.
        -11    1    4    4    0    0  0.33323038422E-01  0.18937058067E-01 -0.11441652003E-01  0.40002619657E-01  0.51100000000E-03 0. -1.
         11    1    4    4    0    0  0.60970204826E-01  0.41584883690E-01 -0.51873243481E-01  0.90209550150E-01  0.51100000000E-03 0.  1.
</event>
<event>
 8    1  0.1145101E+005  0.1043930E+01  0.7957747E-01            NaN
         13   -1    0    0    0    0  0.00000000000E+00  0.00000000000E+00  0.74505805969E-08  0.10566000000E+00  0.10566000000E+00 0.  1.
     999900   -1    0    0    0    0 -0.00000000000E+00 -0.00000000000E+00 -0.74505805969E-08  0.93827000000E+00  0.93827000000E+00 0.  1.
     999902    2    1    2    0    0  0.22046868552E-01  0.72075609258E-02 -0.38515432554E-02  0.10204172857E+01  0.10201463568E+01 0.  0.
     999903    2    3    3    0    0  0.13087692449E+00 -0.11868044755E-01 -0.12066696669E-01  0.13347007841E+00  0.19975905815E-01 0.  0.
         14    1    1    2    0    0 -0.22046868552E-01 -0.72075609258E-02  0.38515432554E-02  0.23512714282E-01  0.00000000000E+00 0. -1.
     999901    1    3    3    0    0 -0.10883005593E+00  0.19075605680E-01  0.82151534135E-02  0.88694720731E+00  0.88000000000E+00 0. -1.
        -11    1    4    4    0    0  0.73745858113E-01 -0.16152172452E-01 -0.98264833272E-02  0.76132549933E-01  0.51100000000E-03 0. -1.
         11    1    4    4    0    0  0.57131066373E-01  0.42841276975E-02 -0.22402133417E-02  0.57337528477E-01  0.51100000000E-03 0.  1.
</event>
<event>
 8    1  0.1145101E+005  0.1043930E+01  0.7957747E-01            NaN
         13   -1    0    0    0    0  0.00000000000E+00  0.00000000000E+00  0.74505805969E-08  0.10566000000E+00  0.10566000000E+00 0.  1.
     999900   -1    0    0    0    0 -0.00000000000E+00 -0.00000000000E+00 -0.74505805969E-08  0.93827000000E+00  0.93827000000E+00 0.  1.
     999902    2    1    2    0    0  0.11410052121E-01  0.20980893565E-01  0.93039341260E-03  0.10200291043E+01  0.10197490479E+01 0.  0.
     999903    2    3    3    0    0  0.94761061285E-01  0.90954011998E-01 -0.10173288880E-01  0.13325578500E+00  0.20032907798E-01 0.  0.
         14    1    1    2    0    0 -0.11410052121E-01 -0.20980893565E-01 -0.93039341260E-03  0.23900895718E-01  0.00000000000E+00 0.  1.
     999901    1    3    3    0    0 -0.83351009164E-01 -0.69973118433E-01  0.11103682292E-01  0.88677331928E+00  0.88000000000E+00 0.  1.
        -11    1    4    4    0    0  0.13630135428E-01  0.14096428787E-01  0.55820798030E-02  0.20393887130E-01  0.51100000000E-03 0. -1.
         11    1    4    4    0    0  0.81130925857E-01  0.76857583211E-01 -0.15755368683E-01  0.11286189787E+00  0.51100000000E-03 0.  1.
</event>
<event>
 8    1  0.2004972E+005  0.1043930E+01  0.7957747E-01            NaN
         13   -1    0    0    0    0  0.00000000000E+00  0.00000000000E+00  0.74505805969E-08  0.10566000000E+00  0.10566000000E+00 0. -1.
     999900   -1    0    0    0    0 -0.00000000000E+00 -0.00000000000E+00 -0.74505805969E-08  0.93827000000E+00  0.93827000000E+00 0.  1.
     999902    2    1    2    0    0  0.46870792612E-02  0.21925627884E-01 -0.87844971328E-02  0.10198495253E+01  0.10195651941E+01 0.  0.
     999903    2    3    3    0    0 -0.29088401114E-01  0.10629523289E-01 -0.12607186780E+00  0.13135376712E+00  0.20014355882E-01 0.  0.
         14    1    1    2    0    0 -0.46870792612E-02 -0.21925627884E-01  0.87844971328E-02  0.24080474663E-01  0.00000000000E+00 0. -1.
     999901    1    3    3    0    0  0.33775480375E-01  0.11296104595E-01  0.11728737067E+00  0.88849575822E+00  0.88000000000E+00 0. -1.
        -11    1    4    4    0    0 -0.29950734315E-02 -0.40819833433E-03 -0.51317309792E-01  0.51408797847E-01  0.51100000000E-03 0. -1.
         11    1    4    4    0    0 -0.26093327682E-01  0.11037721623E-01 -0.74754558006E-01  0.79944969272E-01  0.51100000000E-03 0.  1.
</event>
<event>
 8    1  0.1145101E+005  0.1043930E+01  0.7957747E-01            NaN
         13   -1    0    0    0    0  0.00000000000E+00  0.00000000000E+00  0.74505805969E-08  0.10566000000E+00  0.10566000000E+00 0. -1.
     999900   -1    0    0    0    0 -0.00000000000E+00 -0.00000000000E+00 -0.74505805969E-08  0.93827000000E+00  0.93827000000E+00 0. -1.
     999902    2    1    2    0    0  0.14600038944E-01 -0.16870077673E-01 -0.61286708553E-02  0.10207929893E+01  0.10205307471E+01 0.  0.
     999903    2    3    3    0    0  0.79264374230E-01 -0.81254139219E-01  0.66664763023E-01  0.13308489107E+00  0.19553041713E-01 0.  0.
         14    1    1    2    0    0 -0.14600038944E-01  0.16870077673E-01  0.61286708553E-02  0.23137010704E-01  0.00000000000E+00 0. -1.
     999901    1    3    3    0    0 -0.64664335286E-01  0.64384061546E-01 -0.72793433878E-01  0.88770809823E+00  0.88000000000E+00 0. -1.
        -11    1    4    4    0    0  0.60293004153E-01 -0.68110031187E-01  0.45255149938E-01  0.10159976582E+00  0.51100000000E-03 0.  1.
         11    1    4    4    0    0  0.18971370076E-01 -0.13144108032E-01  0.21409613084E-01  0.31485125249E-01  0.51100000000E-03 0. -1.
</event>
<event>
 8    1  0.1145101E+005  0.1043930E+01  0.7957747E-01            NaN
         13   -1    0    0    0    0  0.00000000000E+00  0.00000000000E+00  0.74505805969E-08  0.10566000000E+00  0.10566000000E+00 0.  1.
     999900   -1    0    0    0    0 -0.00000000000E+00 -0.00000000000E+00 -0.74505805969E-08  0.93827000000E+00  0.93827000000E+00 0.  1.
     999902    2    1    2    0    0  0.14455451002E-02 -0.22805528419E-01 -0.66614077844E-02  0.10201275615E+01  0.10198498348E+01 0.  0.
     999903    2    3    3    0    0 -0.16488012202E-01  0.19351342840E-01  0.12490520864E+00  0.12916819716E+00  0.20899353958E-01 0.  0.
         14    1    1    2    0    0 -0.14455451002E-02  0.22805528419E-01  0.66614077844E-02  0.23802438547E-01  0.00000000000E+00 0. -1.
     999901    1    3    3    0    0  0.17933557302E-01 -0.42156871258E-01 -0.13156661642E+00  0.89095936430E+00  0.88000000000E+00 0.  1.
        -11    1    4    4    0    0 -0.18966391664E-01  0.10293533659E-01  0.64024333842E-01  0.67565207710E-01  0.51100000000E-03 0. -1.
         11    1    4    4    0    0  0.24783794628E-02  0.90578091809E-02  0.60880874795E-01  0.61602989446E-01  0.51100000000E-03 0.  1.
</event>
<event>
 8    1  0.1145101E+005  0.1043930E+01  0.7957747E-01            NaN
         13   -1    0    0    0    0  0.00000000000E+00  0.00000000000E+00  0.74505805969E-08  0.10566000000E+00  0.10566000000E+00 0. -1.
     999900   -1    0    0    0    0 -0.00000000000E+00 -0.00000000000E+00 -0.74505805969E-08  0.93827000000E+00  0.93827000000E+00 0.  1.
     999902    2    1    2    0    0 -0.18976332505E-01  0.39875790242E-02  0.11991898932E-01  0.10211307101E+01  0.10208761528E+01 0.  0.
     999903    2    3    3    0    0  0.17724956035E-01 -0.12410882149E+00  0.29291526716E-01  0.13093132255E+00  0.23829478543E-01 0.  0.
         14    1    1    2    0    0  0.18976332505E-01 -0.39875790242E-02 -0.11991898932E-01  0.22799289941E-01  0.00000000000E+00 0.  1.
     999901    1    3    3    0    0 -0.36701288540E-01  0.12809640052E+00 -0.17299627784E-01  0.89019938751E+00  0.88000000000E+00 0. -1.
        -11    1    4    4    0    0  0.17290841216E-01 -0.50105540338E-01  0.18495796444E-01  0.56141731088E-01  0.51100000000E-03 0. -1.
         11    1    4    4    0    0  0.43411481938E-03 -0.74003281155E-01  0.10795730273E-01  0.74789591459E-01  0.51100000000E-03 0.  1.
</event>
<event>
 8    1  0.1145101E+005  0.1043930E+01  0.7957747E-01            NaN
         13   -1    0    0    0    0  0.00000000000E+00  0.00000000000E+00  0.74505805969E-08  0.10566000000E+00  0.10566000000E+00 0. -1.
     999900   -1    0    0    0    0 -0.00000000000E+00 -0.00000000000E+00 -0.74505805969E-08  0.93827000000E+00  0.93827000000E+00 0.  1.
     999902    2    1    2    0    0  0.17373914535E-01 -0.55150304515E-02 -0.15925768086E-01  0.10197246585E+01  0.10194373353E+01 0.  0.
     999903    2    3    3    0    0 -0.10079534133E+00  0.70725833408E-02  0.74371590693E-01  0.12715755513E+00  0.20692705347E-01 0.  0.
         14    1    1    2    0    0 -0.17373914535E-01  0.55150304515E-02  0.15925768086E-01  0.24205341483E-01  0.00000000000E+00 0. -1.
     999901    1    3    3    0    0  0.11816925587E+00 -0.12587613792E-01 -0.90297358779E-01  0.89256710339E+00  0.88000000000E+00 0.  1.
        -11    1    4    4    0    0 -0.35001410696E-01  0.99966366053E-02  0.18736747422E-01  0.40943355006E-01  0.51100000000E-03 0. -1.
         11    1    4    4    0    0 -0.65793930634E-01 -0.29240532646E-02  0.55634843271E-01  0.86214200121E-01  0.51100000000E-03 0.  1.
</event>
<event>
 8    1  0.1145101E+005  0.1043930E+01  0.7957747E-01            NaN
         13   -1    0    0    0    0  0.00000000000E+00  0.00000000000E+00  0.74505805969E-08  0.10566000000E+00  0.10566000000E+00 0.  1.
     999900   -1    0    0    0    0 -0.00000000000E+00 -0.00000000000E+00 -0.74505805969E-08  0.93827000000E+00  0.93827000000E+00 0. -1.
     999902    2    1    2    0    0  0.75203476482E-02  0.19438506344E-01  0.70699487263E-02  0.10219210170E+01  0.10216839872E+01 0.  0.
     999903    2    3    3    0    0 -0.26786637692E-01 -0.67987067531E-01  0.10672153610E+00  0.13133096592E+00  0.22772154767E-01 0.  0.
         14    1    1    2    0    0 -0.75203476482E-02 -0.19438506344E-01 -0.70699487263E-02  0.22008982999E-01  0.00000000000E+00 0. -1.
     999901    1    3    3    0    0  0.34306985340E-01  0.87425573875E-01 -0.99651587374E-01  0.89059005108E+00  0.88000000000E+00 0. -1.
        -11    1    4    4    0    0 -0.42403536450E-02 -0.38125150958E-01  0.63212086840E-01  0.73942793958E-01  0.51100000000E-03 0. -1.
         11    1    4    4    0    0 -0.22546284047E-01 -0.29861916573E-01  0.43509449260E-01  0.57388171967E-01  0.51100000000E-03 0.  1.
</event>
<event>
 8    1  0.1145101E+005  0.1043930E+01  0.7957747E-01            NaN
         13   -1    0    0    0    0  0.00000000000E+00  0.00000000000E+00  0.74505805969E-08  0.10566000000E+00  0.10566000000E+00 0.  1.
     999900   -1    0    0    0    0 -0.00000000000E+00 -0.00000000000E+00 -0.74505805969E-08  0.93827000000E+00  0.93827000000E+00 0.  1.
     999902    2    1    2    0    0  0.17017035303E-01 -0.10748182012E-02 -0.15656685978E-01  0.10207812087E+01  0.10205186963E+01 0.  0.
     999903    2    3    3    0    0  0.88690284287E-01 -0.93276759643E-01 -0.22948334017E-01  0.13303607589E+00  0.24605914693E-01 0.  0.
         14    1    1    2    0    0 -0.17017035303E-01  0.10748182012E-02  0.15656685978E-01  0.23148791339E-01  0.00000000000E+00 0.  1.
     999901    1    3    3    0    0 -0.71673248984E-01  0.92201941442E-01  0.72916480384E-02  0.88774513277E+00  0.88000000000E+00 0.  1.
        -11    1    4    4    0    0  0.42751312918E-01 -0.42037252246E-01 -0.22993204583E-01  0.64216461368E-01  0.51100000000E-03 0. -1.
         11    1    4    4    0    0  0.45938971369E-01 -0.51239507397E-01  0.44870566266E-04  0.68819614523E-01  0.51100000000E-03 0.  1.
</event>
<event>
 8    1  0.1145101E+005  0.1043930E+01  0.7957747E-01            NaN
         13   -1    0    0    0    0  0.00000000000E+00  0.00000000000E+00  0.74505805969E-08  0.10566000000E+00  0.10566000000E+00 0.  1.
     999900   -1    0    0    0    0 -0.00000000000E+00 -0.00000000000E+00 -0.74505805969E-08  0.93827000000E+00  0.93827000000E+00 0. -1.
     999902    2    1    2    0    0 -0.10938007589E-01 -0.84134452389E-02 -0.21589227660E-01  0.10183073377E+01  0.10179849278E+01 0.  0.
     999903    2    3    3    0    0  0.57866177145E-01  0.11139954593E+00 -0.10930161385E-01  0.12746347690E+00  0.19212397652E-01 0.  0.
         14    1    1    2    0    0  0.10938007589E-01  0.84134452389E-02  0.21589227660E-01  0.25622662269E-01  0.00000000000E+00 0.  1.
     999901    1    3    3    0    0 -0.68804184734E-01 -0.11981299117E+00 -0.10659066275E-01  0.89084386083E+00  0.88000000000E+00 0.  1.
        -11    1    4    4    0    0  0.20506036861E-01  0.50830483341E-01 -0.12738923357E-01  0.56274122594E-01  0.51100000000E-03 0. -1.
         11    1    4    4    0    0  0.37360140284E-01  0.60569062592E-01  0.18087619723E-02  0.71189354304E-01  0.51100000000E-03 0.  1.
</event>
<event>
 8    1  0.1145101E+005  0.1043930E+01  0.7957747E-01            NaN
         13   -1    0    0    0    0  0.00000000000E+00  0.00000000000E+00  0.74505805969E-08  0.10566000000E+00  0.10566000000E+00 0. -1.
     999900   -1    0    0    0    0 -0.00000000000E+00 -0.00000000000E+00 -0.74505805969E-08  0.93827000000E+00  0.93827000000E+00 0.  1.
     999902    2    1    2    0    0  0.17803311926E-02 -0.97646401400E-03 -0.23261274638E-01  0.10205802685E+01  0.10203131258E+01 0.  0.
     999903    2    3    3    0    0 -0.55537360801E-01  0.33108444936E-01  0.10812693475E+00  0.12833032576E+00  0.24426848351E-01 0.  0.
         14    1    1    2    0    0 -0.17803311926E-02  0.97646401400E-03  0.23261274638E-01  0.23349731453E-01  0.00000000000E+00 0. -1.
     999901    1    3    3    0    0  0.57317691993E-01 -0.34084908950E-01 -0.13138820939E+00  0.89224994279E+00  0.88000000000E+00 0.  1.
        -11    1    4    4    0    0 -0.46688019759E-01  0.21844355004E-01  0.65459188727E-01  0.83319346759E-01  0.51100000000E-03 0. -1.
         11    1    4    4    0    0 -0.88493410416E-02  0.11264089932E-01  0.42667746026E-01  0.45010979003E-01  0.51100000000E-03 0.  1.
</event>
<event>
 8    1  0.1145101E+005  0.1043930E+01  0.7957747E-01            NaN
         13   -1    0    0    0    0  0.00000000000E+00  0.00000000000E+00  0.74505805969E-08  0.10566000000E+00  0.10566000000E+00 0.  1.
     999900   -1    0    0    0    0 -0.00000000000E+00 -0.00000000000E+00 -0.74505805969E-08  0.93827000000E+00  0.93827000000E+00 0.  1.
     999902    2    1    2    0    0  0.39390638599E-02  0.18633666499E-01  0.13202354849E-01  0.10207560507E+01  0.10204929609E+01 0.  0.
     999903    2    3    3    0    0 -0.95451795582E-01  0.27538538861E-01  0.84954462217E-01  0.13221443403E+00  0.19848917174E-01 0.  0.
         14    1    1    2    0    0 -0.39390638599E-02 -0.18633666499E-01 -0.13202354849E-01  0.23173949272E-01  0.00000000000E+00 0. -1.
     999901    1    3    3    0    0  0.99390859442E-01 -0.89048723618E-02 -0.71752107368E-01  0.88854161670E+00  0.88000000000E+00 0.  1.
        -11    1    4    4    0    0 -0.28341831863E-01  0.17390546251E-02  0.32823290955E-01  0.43404070022E-01  0.51100000000E-03 0.  1.
         11    1    4    4    0    0 -0.67109963718E-01  0.25799484236E-01  0.52131171262E-01  0.88810364008E-01  0.51100000000E-03 0. -1.
</event>
<event>
 8    1  0.1145101E+005  0.1043930E+01  0.7957747E-01            NaN
         13   -1    0    0    0    0  0.00000000000E+00  0.00000000000E+00  0.74505805969E-08  0.10566000000E+00  0.10566000000E+00 0.  1.
     999900   -1    0    0    0    0 -0.00000000000E+00 -0.00000000000E+00 -0.74505805969E-08  0.93827000000E+00  0.93827000000E+00 0.  1.
     999902    2    1    2    0    0  0.11493477529E-01 -0.14419258349E-01 -0.12531462963E-01  0.10216353235E+01  0.10213920313E+01 0.  0.
     999903    2    3    3    0    0  0.50852959392E-01 -0.23549113378E-01  0.11689838278E+00  0.13125079530E+00  0.20517191549E-01 0.  0.
         14    1    1    2    0    0 -0.11493477529E-01  0.14419258349E-01  0.12531462963E-01  0.22294676518E-01  0.00000000000E+00 0.  1.
     999901    1    3    3    0    0 -0.39359481863E-01  0.91298550291E-02 -0.12942984574E+00  0.89038452819E+00  0.88000000000E+00 0.  1.
        -11    1    4    4    0    0  0.16192608702E-01 -0.13098416416E-01  0.62711686401E-01  0.66081660251E-01  0.51100000000E-03 0. -1.
         11    1    4    4    0    0  0.34660350690E-01 -0.10450696962E-01  0.54186696380E-01  0.65169135045E-01  0.51100000000E-03 0.  1.
</event>
<event>
 7    1  0.1145101E+005  0.1043930E+01  0.7957747E-01            NaN
         13   -1    0    0    0    0  0.00000000000E+00  0.00000000000E+00  0.74505805969E-08  0.10566000000E+00  0.10566000000E+00 0.  1.
     999900   -1    0    0    0    0 -0.00000000000E+00 -0.00000000000E+00 -0.74505805969E-08  0.93827000000E+00  0.93827000000E+00 0. -1.
     999903    2    1    2    0    0 -0.67132991498E-01  0.27808626922E-01 -0.51489229970E-02  0.75644435962E-01  0.20381634018E-01 0.  0.
         14    1    1    2    0    0  0.21829872921E-01 -0.81689583825E-01  0.12296280621E-01  0.85445479543E-01  0.00000000000E+00 0. -1.
     999901    1    1    2    0    0  0.45303118577E-01  0.53880956903E-01 -0.71473576236E-02  0.88284008449E+00  0.88000000000E+00 0. -1.
        -11    1    3    3    0    0 -0.43532294144E-01  0.22900046792E-01  0.50816817108E-02  0.49452577147E-01  0.51100000000E-03 0.  1.
         11    1    3    3    0    0 -0.23600697353E-01  0.49085801308E-02 -0.10230604708E-01  0.26191858814E-01  0.51100000000E-03 0. -1.
</event>
<event>
 8    1  0.1145101E+005  0.1043930E+01  0.7957747E-01            NaN
         13   -1    0    0    0    0  0.00000000000E+00  0.00000000000E+00  0.74505805969E-08  0.10566000000E+00  0.10566000000E+00 0.  1.
     999900   -1    0    0    0    0 -0.00000000000E+00 -0.00000000000E+00 -0.74505805969E-08  0.93827000000E+00  0.93827000000E+00 0.  1.
     999902    2    1    2    0    0  0.21722595040E-02  0.16608309194E-01 -0.16712405365E-01  0.10202686573E+01  0.10199942519E+01 0.  0.
     999903    2    3    3    0    0  0.87334830365E-01  0.66863861077E-01 -0.72092774808E-01  0.13300022593E+00  0.19837928448E-01 0.  0.
         14    1    1    2    0    0 -0.21722595040E-02 -0.16608309194E-01  0.16712405365E-01  0.23661342708E-01  0.00000000000E+00 0.  1.
     999901    1    3    3    0    0 -0.85162570861E-01 -0.50255551883E-01  0.55380369443E-01  0.88726843136E+00  0.88000000000E+00 0.  1.
        -11    1    4    4    0    0  0.41507932857E-01  0.29205760264E-01 -0.21828298567E-01  0.55250526351E-01  0.51100000000E-03 0.  1.
         11    1    4    4    0    0  0.45826897508E-01  0.37658100813E-01 -0.50264476241E-01  0.77749699580E-01  0.51100000000E-03 0. -1.
</event>
<event>
 8    1  0.1145101E+005  0.1043930E+01  0.7957747E-01            NaN
         13   -1    0    0    0    0  0.00000000000E+00  0.00000000000E+00  0.74505805969E-08  0.10566000000E+00  0.10566000000E+00 0. -1.
     999900   -1    0    0    0    0 -0.00000000000E+00 -0.00000000000E+00 -0.74505805969E-08  0.93827000000E+00  0.93827000000E+00 0.  1.
     999902    2    1    2    0    0 -0.17882563781E-01  0.11294049200E-01 -0.10453213992E-01  0.10203373885E+01  0.10200645936E+01 0.  0.
     999903    2    3    3    0    0  0.94594929677E-01  0.76809084185E-02  0.83797192511E-01  0.12817855710E+00  0.20014393624E-01 0.  0.
         14    1    1    2    0    0  0.17882563781E-01 -0.11294049200E-01  0.10453213992E-01  0.23592611502E-01  0.00000000000E+00 0. -1.
     999901    1    3    3    0    0 -0.11247749346E+00  0.36131407811E-02 -0.94250406502E-01  0.89215883140E+00  0.88000000000E+00 0.  1.
        -11    1    4    4    0    0  0.46194842109E-01  0.13752917762E-01  0.40718436102E-01  0.63098005864E-01  0.51100000000E-03 0.  1.
         11    1    4    4    0    0  0.48400087568E-01 -0.60720093439E-02  0.43078756409E-01  0.65080551233E-01  0.51100000000E-03 0. -1.
</event>
<event>
 8    1  0.1145101E+005  0.1043930E+01  0.7957747E-01            NaN
         13   -1    0    0    0    0  0.00000000000E+00  0.00000000000E+00  0.74505805969E-08  0.10566000000E+00  0.10566000000E+00 0.  1.
     999900   -1    0    0    0    0 -0.00000000000E+00 -0.00000000000E+00 -0.74505805969E-08  0.93827000000E+00  0.93827000000E+00 0.  1.
     999902    2    1    2    0    0 -0.13989055413E-01 -0.53169331131E-02  0.17023481411E-01  0.10212636732E+01  0.10210121096E+01 0.  0.
     999903    2    3    3    0    0 -0.15515916846E-01 -0.12848331859E+00  0.23836948090E-01  0.13265874802E+00  0.16776069272E-01 0.  0.
         14    1    1    2    0    0  0.13989055413E-01  0.53169331131E-02 -0.17023481411E-01  0.22666326752E-01  0.00000000000E+00 0. -1.
     999901    1    3    3    0    0  0.15268614334E-02  0.12316638548E+00 -0.68134666785E-02  0.88860492523E+00  0.88000000000E+00 0. -1.
        -11    1    4    4    0    0 -0.11623254999E-01 -0.34364072637E-01  0.76254231651E-02  0.37072870733E-01  0.51100000000E-03 0. -1.
         11    1    4    4    0    0 -0.38926618465E-02 -0.94119245951E-01  0.16211524924E-01  0.95585877284E-01  0.51100000000E-03 0.  1.
</event>
<event>
 8    1  0.1145101E+005  0.1043930E+01  0.7957747E-01            NaN
         13   -1    0    0    0    0  0.00000000000E+00  0.00000000000E+00  0.74505805969E-08  0.10566000000E+00  0.10566000000E+00 0.  1.
     999900   -1    0    0    0    0 -0.00000000000E+00 -0.00000000000E+00 -0.74505805969E-08  0.93827000000E+00  0.93827000000E+00 0. -1.
     999902    2    1    2    0    0  0.20913659816E-02 -0.25602557678E-01 -0.92929215708E-02  0.10166129145E+01  0.10162458338E+01 0.  0.
     999903    2    3    3    0    0 -0.89516487576E-04 -0.65675900997E-01  0.10798689442E+00  0.12792557667E+00  0.19759853640E-01 0.  0.
         14    1    1    2    0    0 -0.20913659816E-02  0.25602557678E-01  0.92929215708E-02  0.27317085545E-01  0.00000000000E+00 0.  1.
     999901    1    3    3    0    0  0.21808824692E-02  0.40073343319E-01 -0.11727981599E+00  0.88868733778E+00  0.88000000000E+00 0. -1.
        -11    1    4    4    0    0 -0.81685397021E-02 -0.13586814120E-01  0.24147435819E-01  0.28890938656E-01  0.51100000000E-03 0.  1.
         11    1    4    4    0    0  0.80790232145E-02 -0.52089086877E-01  0.83839458601E-01  0.99034638018E-01  0.51100000000E-03 0. -1.
</event>
<event>
 8    1  0.1145101E+005  0.1043930E+01  0.7957747E-01            NaN
         13   -1    0    0    0    0  0.00000000000E+00  0.00000000000E+00  0.74505805969E-08  0.10566000000E+00  0.10566000000E+00 0.  1.
     999900   -1    0    0    0    0 -0.00000000000E+00 -0.00000000000E+00 -0.74505805969E-08  0.93827000000E+00  0.93827000000E+00 0.  1.
     999902    2    1    2    0    0  0.31507860806E-02  0.22518647914E-01  0.46691341762E-02  0.10207175514E+01  0.10204535766E+01 0.  0.
     999903    2    3    3    0    0 -0.16696689603E-01  0.10013656177E+00  0.85031380305E-01  0.13343149072E+00  0.16355935713E-01 0.  0.
         14    1    1    2    0    0 -0.31507860806E-02 -0.22518647914E-01 -0.46691341762E-02  0.23212448616E-01  0.00000000000E+00 0. -1.
     999901    1    3    3    0    0  0.19847475684E-01 -0.77617913854E-01 -0.80362246129E-01  0.88728606066E+00  0.88000000000E+00 0.  1.
        -11    1    4    4    0    0 -0.67486158516E-02  0.43665688191E-01  0.47626622740E-01  0.64967626213E-01  0.51100000000E-03 0. -1.
         11    1    4    4    0    0 -0.99480737515E-02  0.56470873577E-01  0.37404757565E-01  0.68463864509E-01  0.51100000000E-03 0.  1.
</event>
<event>
 8    1  0.1145101E+005  0.1043930E+01  0.7957747E-01            NaN
         13   -1    0    0    0    0  0.00000000000E+00  0.00000000000E+00  0.74505805969E-08  0.10566000000E+00  0.10566000000E+00 0. -1.
     999900   -1    0    0    0    0 -0.00000000000E+00 -0.00000000000E+00 -0.74505805969E-08  0.93827000000E+00  0.93827000000E+00 0.  1.
     999902    2    1    2    0    0  0.56661142285E-02 -0.21440271570E-01 -0.11023200347E-01  0.10191650845E+01  0.10188641560E+01 0.  0.
     999903    2    3    3    0    0  0.74705786867E-01 -0.59369196929E-01 -0.89081140676E-01  0.13220503924E+00  0.20906138850E-01 0.  0.
         14    1    1    2    0    0 -0.56661142285E-02  0.21440271570E-01  0.11023200347E-01  0.24764915532E-01  0.00000000000E+00 0. -1.
     999901    1    3    3    0    0 -0.69039672639E-01  0.37928925359E-01  0.78057940329E-01  0.88696004522E+00  0.88000000000E+00 0. -1.
        -11    1    4    4    0    0  0.54984568728E-01 -0.47698221156E-01 -0.78186418430E-01  0.10682602795E+00  0.51100000000E-03 0. -1.
         11    1    4    4    0    0  0.19721218139E-01 -0.11670975773E-01 -0.10894722246E-01  0.25379011293E-01  0.51100000000E-03 0.  1.
</event>
<event>
 8    1  0.1145101E+005  0.1043930E+01  0.7957747E-01            NaN
         13   -1    0    0    0    0  0.00000000000E+00  0.00000000000E+00  0.74505805969E-08  0.10566000000E+00  0.10566000000E+00 0.  1.
     999900   -1    0    0    0    0 -0.00000000000E+00 -0.00000000000E+00 -0.74505805969E-08  0.93827000000E+00  0.93827000000E+00 0.  1.
     999902    2    1    2    0    0  0.22611751042E-01  0.84007475593E-04 -0.12458139149E-02  0.10212837996E+01  0.10210326874E+01 0.  0.
     999903    2    3    3    0    0  0.37170776187E-01  0.12463748733E+00  0.13493067958E-01  0.13227155599E+00  0.19938199314E-01 0.  0.
         14    1    1    2    0    0 -0.22611751042E-01 -0.84007475593E-04  0.12458139149E-02  0.22646200448E-01  0.00000000000E+00 0. -1.
     999901    1    3    3    0    0 -0.14559025144E-01 -0.12455347985E+00 -0.14738881873E-01  0.88901224356E+00  0.88000000000E+00 0. -1.
        -11    1    4    4    0    0  0.18177291095E-01  0.39671851368E-01 -0.26586829395E-02  0.43721841435E-01  0.51100000000E-03 0. -1.
         11    1    4    4    0    0  0.18993485092E-01  0.84965635962E-01  0.16151750898E-01  0.88549714558E-01  0.51100000000E-03 0.  1.
</event>
<event>
 8    1  0.1145101E+005  0.1043930E+01  0.7957747E-01            NaN
         13   -1    0    0    0    0  0.00000000000E+00  0.00000000000E+00  0.74505805969E-08  0.10566000000E+00  0.10566000000E+00 0.  1.
     999900   -1    0    0    0    0 -0.00000000000E+00 -0.00000000000E+00 -0.74505805969E-08  0.93827000000E+00  0.93827000000E+00 0. -1.
     999902    2    1    2    0    0  0.21496312065E-01 -0.32290973397E-02  0.10293889856E-01  0.10198783333E+01  0.10195946901E+01 0.  0.
     999903    2    3    3    0    0 -0.96878199104E-01 -0.39649924635E-01 -0.69919853929E-01  0.12759292704E+00  0.20824674603E-01 0.  0.
         14    1    1    2    0    0 -0.21496312065E-01  0.32290973397E-02 -0.10293889856E-01  0.24051666686E-01  0.00000000000E+00 0. -1.
     999901    1    3    3    0    0  0.11837451117E+00  0.36420827295E-01  0.80213743785E-01  0.89228540627E+00  0.88000000000E+00 0.  1.
        -11    1    4    4    0    0 -0.27470773215E-01 -0.21681853216E-01 -0.24410256313E-01  0.42671628445E-01  0.51100000000E-03 0.  1.
         11    1    4    4    0    0 -0.69407425889E-01 -0.17968071419E-01 -0.45509597616E-01  0.84921298596E-01  0.51100000000E-03 0. -1.
</event>
<event>
 8    1  0.1145101E+005  0.1043930E+01  0.7957747E-01            NaN
         13   -1    0    0    0    0  0.00000000000E+00  0.00000000000E+00  0.74505805969E-08  0.10566000000E+00  0.10566000000E+00 0.  1.
     999900   -1    0    0    0    0 -0.00000000000E+00 -0.00000000000E+00 -0.74505805969E-08  0.93827000000E+00  0.93827000000E+00 0.  1.
     999902    2    1    2    0    0  0.17505823267E-02  0.19808335616E-01  0.19796383708E-01  0.10158705719E+01  0.10154829823E+01 0.  0.
     999903    2    3    3    0    0  0.21808481620E-01 -0.12019480312E+00  0.13819902553E-01  0.12455754241E+00  0.20029755282E-01 0.  0.
         14    1    1    2    0    0 -0.17505823267E-02 -0.19808335616E-01 -0.19796383708E-01  0.28059428117E-01  0.00000000000E+00 0. -1.
     999901    1    3    3    0    0 -0.20057899293E-01  0.14000313874E+00  0.59764811548E-02  0.89131302947E+00  0.88000000000E+00 0. -1.
        -11    1    4    4    0    0  0.35035834585E-02 -0.19965538060E-02 -0.49840275645E-03  0.40952228827E-02  0.51100000000E-03 0. -1.
         11    1    4    4    0    0  0.18304898161E-01 -0.11819824932E+00  0.14318305309E-01  0.12046231953E+00  0.51100000000E-03 0.  1.
</event>
<event>
 8    1  0.1145101E+005  0.1043930E+01  0.7957747E-01            NaN
         13   -1    0    0    0    0  0.00000000000E+00  0.00000000000E+00  0.74505805969E-08  0.10566000000E+00  0.10566000000E+00 0. -1.
     999900   -1    0    0    0    0 -0.00000000000E+00 -0.00000000000E+00 -0.74505805969E-08  0.93827000000E+00  0.93827000000E+00 0. -1.
     999902    2    1    2    0    0  0.20948078573E-01  0.94905279322E-02  0.80419991949E-02  0.10195667928E+01  0.10192756639E+01 0.  0.
     999903    2    3    3    0    0  0.92875543137E-01  0.24907236243E-01  0.89480564465E-01  0.13275030950E+00  0.19225928466E-01 0.  0.
         14    1    1    2    0    0 -0.20948078573E-01 -0.94905279322E-02 -0.80419991949E-02  0.24363207248E-01  0.00000000000E+00 0.  1.
     999901    1    3    3    0    0 -0.71927464564E-01 -0.15416708311E-01 -0.81438565270E-01  0.88681648325E+00  0.88000000000E+00 0. -1.
        -11    1    4    4    0    0  0.37997603594E-01  0.58076982914E-02  0.24540092578E-01  0.45607285636E-01  0.51100000000E-03 0. -1.
         11    1    4    4    0    0  0.54877939543E-01  0.19099537952E-01  0.64940471887E-01  0.87143023865E-01  0.51100000000E-03 0.  1.
</event>
<event>
 8    1  0.1145101E+005  0.1043930E+01  0.7957747E-01            NaN
         13   -1    0    0    0    0  0.00000000000E+00  0.00000000000E+00  0.74505805969E-08  0.10566000000E+00  0.10566000000E+00 0. -1.
     999900   -1    0    0    0    0 -0.00000000000E+00 -0.00000000000E+00 -0.74505805969E-08  0.93827000000E+00  0.93827000000E+00 0. -1.
     999902    2    1    2    0    0  0.23117852690E-01 -0.38123466641E-03  0.76518233943E-02  0.10195757221E+01  0.10192848091E+01 0.  0.
     999903    2    3    3    0    0 -0.11612073461E+00  0.40779937339E-01 -0.27150188987E-01  0.12699922318E+00  0.15641024028E-01 0.  0.
         14    1    1    2    0    0 -0.23117852690E-01  0.38123466641E-03 -0.76518233943E-02  0.24354277943E-01  0.00000000000E+00 0.  1.
     999901    1    3    3    0    0  0.13923858730E+00 -0.41161172006E-01  0.34802012382E-01  0.89257649887E+00  0.88000000000E+00 0.  1.
        -11    1    4    4    0    0 -0.63550072482E-01  0.14101579321E-01 -0.13421185773E-01  0.66466951189E-01  0.51100000000E-03 0. -1.
         11    1    4    4    0    0 -0.52570662124E-01  0.26678358018E-01 -0.13729003215E-01  0.60532271996E-01  0.51100000000E-03 0.  1.
</event>
<event>
 8    1  0.1145101E+005  0.1043930E+01  0.7957747E-01            NaN
         13   -1    0    0    0    0  0.00000000000E+00  0.00000000000E+00  0.74505805969E-08  0.10566000000E+00  0.10566000000E+00 0.  1.
     999900   -1    0    0    0    0 -0.00000000000E+00 -0.00000000000E+00 -0.74505805969E-08  0.93827000000E+00  0.93827000000E+00 0. -1.
     999902    2    1    2    0    0 -0.11787165675E-01 -0.15104425671E-01  0.71341292757E-02  0.10234855203E+01  0.10232813071E+01 0.  0.
     999903    2    3    3    0    0 -0.90661587799E-01 -0.84744268685E-03  0.98256420085E-01  0.13515691674E+00  0.19819848464E-01 0.  0.
         14    1    1    2    0    0  0.11787165675E-01  0.15104425671E-01 -0.71341292757E-02  0.20444479696E-01  0.00000000000E+00 0. -1.
     999901    1    3    3    0    0  0.78874422123E-01 -0.14256982985E-01 -0.91122290810E-01  0.88832860356E+00  0.88000000000E+00 0. -1.
        -11    1    4    4    0    0 -0.25013406134E-01 -0.48664479930E-02  0.39223813980E-01  0.46777361049E-01  0.51100000000E-03 0.  1.
         11    1    4    4    0    0 -0.65648181664E-01  0.40190053061E-02  0.59032606105E-01  0.88379555690E-01  0.51100000000E-03 0. -1.
</event>
<event>
 8    1  0.1145101E+005  0.1043930E+01  0.7957747E-01            NaN
         13   -1    0    0    0    0  0.00000000000E+00  0.00000000000E+00  0.74505805969E-08  0.10566000000E+00  0.10566000000E+00 0.  1.
     999900   -1    0    0    0    0 -0.00000000000E+00 -0.00000000000E+00 -0.74505805969E-08  0.93827000000E+00  0.93827000000E+00 0.  1.
     999902    2    1    2    0    0 -0.20437513844E-01 -0.16092915677E-02 -0.98952968813E-02  0.10211660221E+01  0.10209122616E+01 0.  0.
     999903    2    3    3    0    0  0.45194172596E-01 -0.15912618017E-01  0.11841452359E+00  0.12932774443E+00  0.20197560042E-01 0.  0.
         14    1    1    2    0    0  0.20437513844E-01  0.16092915677E-02  0.98952968813E-02  0.22763977944E-01  0.00000000000E+00 0. -1.
     999901    1    3    3    0    0 -0.65631686440E-01  0.14303326450E-01 -0.12830982048E+00  0.89183827763E+00  0.88000000000E+00 0.  1.
        -11    1    4    4    0    0  0.60039353829E-02 -0.74045624562E-02  0.41508734156E-01  0.42592380979E-01  0.51100000000E-03 0.  1.
         11    1    4    4    0    0  0.39190237213E-01 -0.85080555612E-02  0.76905789439E-01  0.86735363448E-01  0.51100000000E-03 0. -1.
</event>
<event>
 8    1  0.1145101E+005  0.1043930E+01  0.7957747E-01            NaN
         13   -1    0    0    0    0  0.00000000000E+00  0.00000000000E+00  0.74505805969E-08  0.10566000000E+00  0.10566000000E+00 0. -1.
     999900   -1    0    0    0    0 -0.00000000000E+00 -0.00000000000E+00 -0.74505805969E-08  0.93827000000E+00  0.93827000000E+00 0. -1.
     999902    2    1    2    0    0  0.19643149440E-01  0.12918275343E-01  0.49804107775E-02  0.10198979454E+01  0.10196147701E+01 0.  0.
     999903    2    3    3    0    0 -0.56640941979E-01 -0.59268108881E-01  0.97340714902E-01  0.12885329866E+00  0.20175548552E-01 0.  0.
         14    1    1    2    0    0 -0.19643149440E-01 -0.12918275343E-01 -0.49804107775E-02  0.24032054620E-01  0.00000000000E+00 0.  1.
     999901    1    3    3    0    0  0.76284091419E-01  0.72186384224E-01 -0.92360304124E-01  0.89104464672E+00  0.88000000000E+00 0. -1.
        -11    1    4    4    0    0 -0.26844887639E-01 -0.14485104081E-01  0.31867387923E-01  0.44116411534E-01  0.51100000000E-03 0. -1.
         11    1    4    4    0    0 -0.29796054339E-01 -0.44783004800E-01  0.65473326979E-01  0.84736887126E-01  0.51100000000E-03 0.  1.
</event>
<event>
 8    1  0.1145101E+005  0.1043930E+01  0.7957747E-01            NaN
         13   -1    0    0    0    0  0.00000000000E+00  0.00000000000E+00  0.74505805969E-08  0.10566000000E+00  0.10566000000E+00 0. -1.
     999900   -1    0    0    0    0 -0.00000000000E+00 -0.00000000000E+00 -0.74505805969E-08  0.93827000000E+00  0.93827000000E+00 0. -1.
     999902    2    1    2    0    0  0.21717245766E-01 -0.96097186204E-02 -0.44921344462E-02  0.10197605001E+01  0.10194740373E+01 0.  0.
     999903    2    3    3    0    0  0.12520686656E+00 -0.23101074133E-01  0.32290746228E-01  0.13283034576E+00  0.19768394059E-01 0.  0.
         14    1    1    2    0    0 -0.21717245766E-01  0.96097186204E-02  0.44921344462E-02  0.24169499943E-01  0.00000000000E+00 0. -1.
     999901    1    3    3    0    0 -0.10348962079E+00  0.13491355513E-01 -0.36782880675E-01  0.88693015429E+00  0.88000000000E+00 0. -1.
        -11    1    4    4    0    0  0.96456949713E-01 -0.18925002364E-01  0.33221059459E-01  0.10375933103E+00  0.51100000000E-03 0.  1.
         11    1    4    4    0    0  0.28749916847E-01 -0.41760717694E-02 -0.93031323037E-03  0.29071014737E-01  0.51100000000E-03 0. -1.
</event>
<event>
 8    1  0.1145101E+005  0.1043930E+01  0.7957747E-01            NaN
         13   -1    0    0    0    0  0.00000000000E+00  0.00000000000E+00  0.74505805969E-08  0.10566000000E+00  0.10566000000E+00 0.  1.
     999900   -1    0    0    0    0 -0.00000000000E+00 -0.00000000000E+00 -0.74505805969E-08  0.93827000000E+00  0.93827000000E+00 0.  1.
     999902    2    1    2    0    0  0.14584765938E-01 -0.61079268401E-02  0.18969402625E-01  0.10192346481E+01  0.10189354286E+01 0.  0.
     999903    2    3    3    0    0  0.11020054134E+00  0.24111734248E-01 -0.61307067410E-01  0.12990910815E+00  0.19806181521E-01 0.  0.
         14    1    1    2    0    0 -0.14584765938E-01  0.61079268401E-02 -0.18969402625E-01  0.24695351864E-01  0.00000000000E+00 0. -1.
     999901    1    3    3    0    0 -0.95615775404E-01 -0.30219661088E-01  0.80276470035E-01  0.88932553998E+00  0.88000000000E+00 0. -1.
        -11    1    4    4    0    0  0.93968448740E-01  0.13236437098E-01 -0.48861890989E-01  0.10673808195E+00  0.51100000000E-03 0. -1.
         11    1    4    4    0    0  0.16232092602E-01  0.10875297151E-01 -0.12445176421E-01  0.23171026208E-01  0.51100000000E-03 0.  1.
</event>
<event>
 8    1  0.1145101E+005  0.1043930E+01  0.7957747E-01            NaN
         13   -1    0    0    0    0  0.00000000000E+00  0.00000000000E+00  0.74505805969E-08  0.10566000000E+00  0.10566000000E+00 0. -1.
     999900   -1    0    0    0    0 -0.00000000000E+00 -0.00000000000E+00 -0.74505805969E-08  0.93827000000E+00  0.93827000000E+00 0. -1.
     999902    2    1    2    0    0  0.21141331683E-01 -0.12340210941E-01  0.28057706787E-02  0.10192904168E+01  0.10189925636E+01 0.  0.
     999903    2    3    3    0    0  0.72731870983E-01  0.66624444859E-01  0.83321538355E-01  0.13059486181E+00  0.19590749527E-01 0.  0.
         14    1    1    2    0    0 -0.21141331683E-01  0.12340210941E-01 -0.28057706787E-02  0.24639583205E-01  0.00000000000E+00 0.  1.
     999901    1    3    3    0    0 -0.51590539300E-01 -0.78964655800E-01 -0.80515767676E-01  0.88869555499E+00  0.88000000000E+00 0.  1.
        -11    1    4    4    0    0  0.26972190264E-01  0.24056522688E-01  0.18708150742E-01  0.40699770966E-01  0.51100000000E-03 0. -1.
         11    1    4    4    0    0  0.45759680719E-01  0.42567922171E-01  0.64613387614E-01  0.89895090841E-01  0.51100000000E-03 0.  1.
</event>
<event>
 8    1  0.1145101E+005  0.1043930E+01  0.7957747E-01            NaN
         13   -1    0    0    0    0  0.00000000000E+00  0.00000000000E+00  0.74505805969E-08  0.10566000000E+00  0.10566000000E+00 0. -1.
     999900   -1    0    0    0    0 -0.00000000000E+00 -0.00000000000E+00 -0.74505805969E-08  0.93827000000E+00  0.93827000000E+00 0. -1.
     999902    2    1    2    0    0 -0.10447202143E-01  0.45603651899E-03  0.21418012165E-01  0.10200955030E+01  0.10198170189E+01 0.  0.
     999903    2    3    3    0    0  0.44183248267E-01  0.63515957268E-01  0.10524340067E+00  0.13218349415E+00  0.20245159543E-01 0.  0.
         14    1    1    2    0    0  0.10447202143E-01 -0.45603651899E-03 -0.21418012165E-01  0.23834496995E-01  0.00000000000E+00 0.  1.
     999901    1    3    3    0    0 -0.54630450410E-01 -0.63059920749E-01 -0.83825388506E-01  0.88791200886E+00  0.88000000000E+00 0.  1.
        -11    1    4    4    0    0  0.31785803452E-01  0.57375090377E-01  0.92281737980E-01  0.11321845513E+00  0.51100000000E-03 0. -1.
         11    1    4    4    0    0  0.12397444815E-01  0.61408668913E-02  0.12961662691E-01  0.18965039015E-01  0.51100000000E-03 0.  1.
</event>
<event>
 8    1  0.1145101E+005  0.1043930E+01  0.7957747E-01            NaN
         13   -1    0    0    0    0  0.00000000000E+00  0.00000000000E+00  0.74505805969E-08  0.10566000000E+00  0.10566000000E+00 0.  1.
     999900   -1    0    0    0    0 -0.00000000000E+00 -0.00000000000E+00 -0.74505805969E-08  0.93827000000E+00  0.93827000000E+00 0.  1.
     999902    2    1    2    0    0  0.27423669373E-02  0.93435526138E-02  0.24163833609E-01  0.10178778714E+01  0.10175444205E+01 0.  0.
     999903    2    3    3    0    0  0.97026161349E-01 -0.33339754877E-02  0.85112268634E-01  0.13065475098E+00  0.20034328117E-01 0.  0.
         14    1    1    2    0    0 -0.27423669373E-02 -0.93435526138E-02 -0.24163833609E-01  0.26052128638E-01  0.00000000000E+00 0. -1.
     999901    1    3    3    0    0 -0.94283794412E-01  0.12677528101E-01 -0.60948435025E-01  0.88722312038E+00  0.88000000000E+00 0.  1.
        -11    1    4    4    0    0  0.72895404941E-01 -0.42151453599E-02  0.51879764311E-01  0.89572755779E-01  0.51100000000E-03 0.  1.
         11    1    4    4    0    0  0.24130756408E-01  0.88116987226E-03  0.33232504323E-01  0.41081995202E-01  0.51100000000E-03 0. -1.
</event>
<event>
 8    1  0.1145101E+005  0.1043930E+01  0.7957747E-01            NaN
         13   -1    0    0    0    0  0.00000000000E+00  0.00000000000E+00  0.74505805969E-08  0.10566000000E+00  0.10566000000E+00 0.  1.
     999900   -1    0    0    0    0 -0.00000000000E+00 -0.00000000000E+00 -0.74505805969E-08  0.93827000000E+00  0.93827000000E+00 0.  1.
     999902    2    1    2    0    0 -0.12173397419E-01 -0.14251557576E-01  0.15049099690E-01  0.10198930722E+01  0.10196097806E+01 0.  0.
     999903    2    3    3    0    0  0.11704804291E+00  0.47724813901E-01 -0.42194345920E-02  0.12809122889E+00  0.20289334113E-01 0.  0.
         14    1    1    2    0    0  0.12173397419E-01  0.14251557576E-01 -0.15049099690E-01  0.24036927831E-01  0.00000000000E+00 0. -1.
     999901    1    3    3    0    0 -0.12922144033E+00 -0.61976371478E-01  0.19268534282E-01  0.89180184328E+00  0.88000000000E+00 0.  1.
        -11    1    4    4    0    0  0.58019258132E-01  0.26092119396E-01 -0.12004686150E-01  0.64741073665E-01  0.51100000000E-03 0. -1.
         11    1    4    4    0    0  0.59028784780E-01  0.21632694505E-01  0.77852515577E-02  0.63350155225E-01  0.51100000000E-03 0.  1.
</event>
<event>
 8    1  0.1145101E+005  0.1043930E+01  0.7957747E-01            NaN
         13   -1    0    0    0    0  0.00000000000E+00  0.00000000000E+00  0.74505805969E-08  0.10566000000E+00  0.10566000000E+00 0. -1.
     999900   -1    0    0    0    0 -0.00000000000E+00 -0.00000000000E+00 -0.74505805969E-08  0.93827000000E+00  0.93827000000E+00 0. -1.
     999902    2    1    2    0    0  0.16055448724E-01 -0.12081723399E-01 -0.11483709557E-01  0.10207865115E+01  0.10205241208E+01 0.  0.
     999903    2    3    3    0    0 -0.34123412565E-01  0.86853363751E-01  0.85919856573E-01  0.12848974234E+00  0.20481163364E-01 0.  0.
         14    1    1    2    0    0 -0.16055448724E-01  0.12081723399E-01  0.11483709557E-01  0.23143488484E-01  0.00000000000E+00 0. -1.
     999901    1    3    3    0    0  0.50178861289E-01 -0.98935087150E-01 -0.97403566131E-01  0.89229676918E+00  0.88000000000E+00 0. -1.
        -11    1    4    4    0    0 -0.19113955154E-01  0.23611919519E-01  0.30819422772E-01  0.43277753708E-01  0.51100000000E-03 0.  1.
         11    1    4    4    0    0 -0.15009457411E-01  0.63241444231E-01  0.55100433802E-01  0.85211988630E-01  0.51100000000E-03 0. -1.
</event>
<event>
 8    1  0.1145101E+005  0.1043930E+01  0.7957747E-01            NaN
         13   -1    0    0    0    0  0.00000000000E+00  0.00000000000E+00  0.74505805969E-08  0.10566000000E+00  0.10566000000E+00 0.  1.
     999900   -1    0    0    0    0 -0.00000000000E+00 -0.00000000000E+00 -0.74505805969E-08  0.93827000000E+00  0.93827000000E+00 0. -1.
     999902    2    1    2    0    0 -0.21716416025E-01 -0.92667892009E-02  0.28510267699E-02  0.10201475598E+01  0.10198703052E+01 0.  0.
     999903    2    3    3    0    0 -0.41243410544E-01  0.70873376507E-01  0.10011252220E+00  0.13095492143E+00  0.20065391496E-01 0.  0.
         14    1    1    2    0    0  0.21716416025E-01  0.92667892009E-02 -0.28510267699E-02  0.23782440175E-01  0.00000000000E+00 0.  1.
     999901    1    3    3    0    0  0.19526994519E-01 -0.80140165708E-01 -0.97261495429E-01  0.88919263839E+00  0.88000000000E+00 0. -1.
        -11    1    4    4    0    0 -0.28778045330E-01  0.63552867742E-01  0.86072724962E-01  0.11079674181E+00  0.51100000000E-03 0.  1.
         11    1    4    4    0    0 -0.12465365213E-01  0.73205087652E-02  0.14039797238E-01  0.20158179629E-01  0.51100000000E-03 0. -1.
</event>
<event>
 8    1  0.1145101E+005  0.1043930E+01  0.7957747E-01            NaN
         13   -1    0    0    0    0  0.00000000000E+00  0.00000000000E+00  0.74505805969E-08  0.10566000000E+00  0.10566000000E+00 0.  1.
     999900   -1    0    0    0    0 -0.00000000000E+00 -0.00000000000E+00 -0.74505805969E-08  0.93827000000E+00  0.93827000000E+00 0. -1.
     999902    2    1    2    0    0 -0.20498094962E-01 -0.10644119754E-01  0.51135823338E-02  0.10202737554E+01  0.10199994697E+01 0.  0.
     999903    2    3    3    0    0  0.11798739658E+00  0.26893293972E-01  0.36829837869E-01  0.12808923996E+00  0.20152950719E-01 0.  0.
         14    1    1    2    0    0  0.20498094962E-01  0.10644119754E-01 -0.51135823338E-02  0.23656244560E-01  0.00000000000E+00 0.  1.
     999901    1    3    3    0    0 -0.13848549155E+00 -0.37537413726E-01 -0.31716255535E-01  0.89218451548E+00  0.88000000000E+00 0. -1.
        -11    1    4    4    0    0  0.21861634566E-01 -0.28119893102E-02  0.75168103188E-02  0.23293816951E-01  0.51100000000E-03 0. -1.
         11    1    4    4    0    0  0.96125762018E-01  0.29705283282E-01  0.29313027550E-01  0.10479542301E+00  0.51100000000E-03 0.  1.
</event>
<event>
 8    1  0.1145101E+005  0.1043930E+01  0.7957747E-01            NaN
         13   -1    0    0    0    0  0.00000000000E+00  0.00000000000E+00  0.74505805969E-08  0.10566000000E+00  0.10566000000E+00 0.  1.
     999900   -1    0    0    0    0 -0.00000000000E+00 -0.00000000000E+00 -0.74505805969E-08  0.93827000000E+00  0.93827000000E+00 0. -1.
     999902    2    1    2    0    0  0.73754149435E-02 -0.30622059860E-01  0.42828430079E-02  0.10121424232E+01  0.10116431361E+01 0.  0.
     999903    2    3    3    0    0 -0.11664373711E+00 -0.20747561438E-01 -0.25481160301E-01  0.12289321644E+00  0.20426218573E-01 0.  0.
         14    1    1    2    0    0 -0.73754149435E-02  0.30622059860E-01 -0.42828430079E-02  0.31787576817E-01  0.00000000000E+00 0. -1.
     999901    1    3    3    0    0  0.12401915205E+00 -0.98744984222E-02  0.29764003309E-01  0.88924920674E+00  0.88000000000E+00 0. -1.
        -11    1    4    4    0    0 -0.74723910804E-01 -0.10781470198E-01 -0.25844630615E-01  0.79800432318E-01  0.51100000000E-03 0.  1.
         11    1    4    4    0    0 -0.41919826304E-01 -0.99660912396E-02  0.36347031402E-03  0.43092784125E-01  0.51100000000E-03 0. -1.
</event>
<event>
 8    1  0.1145101E+005  0.1043930E+01  0.7957747E-01            NaN
         13   -1    0    0    0    0  0.00000000000E+00  0.00000000000E+00  0.74505805969E-08  0.10566000000E+00  0.10566000000E+00 0. -1.
     999900   -1    0    0    0    0 -0.00000000000E+00 -0.00000000000E+00 -0.74505805969E-08  0.93827000000E+00  0.93827000000E+00 0. -1.
     999902    2    1    2    0    0  0.38004917001E-03 -0.86754046411E-02 -0.21145015087E-01  0.10210713311E+01  0.10208154311E+01 0.  0.
     999903    2    3    3    0    0  0.25064207449E-01 -0.12791045281E+00  0.69945272488E-02  0.13224168583E+00  0.21204754829E-01 0.  0.
         14    1    1    2    0    0 -0.38004917001E-03  0.86754046411E-02  0.21145015087E-01  0.22858668948E-01  0.00000000000E+00 0. -1.
     999901    1    3    3    0    0 -0.24684158279E-01  0.11923504817E+00 -0.28139542336E-01  0.88882964522E+00  0.88000000000E+00 0.  1.
        -11    1    4    4    0    0  0.22171185726E-01 -0.63346023906E-01 -0.96032249773E-03  0.67122749955E-01  0.51100000000E-03 0. -1.
         11    1    4    4    0    0  0.28930217227E-02 -0.64564428902E-01  0.79548497465E-02  0.65118935876E-01  0.51100000000E-03 0.  1.
</event>
<event>
 8    1  0.1145101E+005  0.1043930E+01  0.7957747E-01            NaN
         13   -1    0    0    0    0  0.00000000000E+00  0.00000000000E+00  0.74505805969E-08  0.10566000000E+00  0.10566000000E+00 0. -1.
     999900   -1    0    0    0    0 -0.00000000000E+00 -0.00000000000E+00 -0.74505805969E-08  0.93827000000E+00  0.93827000000E+00 0.  1.
     999902    2    1    2    0    0 -0.63980412536E-02  0.67565369363E-02  0.21035572963E-01  0.10209282380E+01  0.10206690875E+01 0.  0.
     999903    2    3    3    0    0  0.45373922141E-01  0.75332904680E-01  0.98257659353E-01  0.13337750426E+00  0.20028771402E-01 0.  0.
         14    1    1    2    0    0  0.63980412536E-02 -0.67565369363E-02 -0.21035572963E-01  0.23001761957E-01  0.00000000000E+00 0.  1.
     999901    1    3    3    0    0 -0.51771963395E-01 -0.68576367744E-01 -0.77222086390E-01  0.88755073378E+00  0.88000000000E+00 0.  1.
        -11    1    4    4    0    0  0.16847804575E-01  0.16401975700E-01  0.16977182059E-01  0.29006191710E-01  0.51100000000E-03 0.  1.
         11    1    4    4    0    0  0.28526117566E-01  0.58930928981E-01  0.81280477294E-01  0.10437131255E+00  0.51100000000E-03 0. -1.
</event>
<event>
 8    1  0.1145101E+005  0.1043930E+01  0.7957747E-01            NaN
         13   -1    0    0    0    0  0.00000000000E+00  0.00000000000E+00  0.74505805969E-08  0.10566000000E+00  0.10566000000E+00 0. -1.
     999900   -1    0    0    0    0 -0.00000000000E+00 -0.00000000000E+00 -0.74505805969E-08  0.93827000000E+00  0.93827000000E+00 0.  1.
     999902    2    1    2    0    0 -0.40551050408E-02  0.31203696631E-02  0.13164137446E-01  0.10298064346E+01  0.10297095793E+01 0.  0.
     999903    2    3    3    0    0  0.30455121837E-01 -0.78646014600E-01 -0.10660632346E+00  0.13726979077E+00  0.19114842292E-01 0.  0.
         14    1    1    2    0    0  0.40551050408E-02 -0.31203696631E-02 -0.13164137446E-01  0.14123565358E-01  0.00000000000E+00 0.  1.
     999901    1    3    3    0    0 -0.34510226878E-01  0.81766384263E-01  0.11977046091E+00  0.89253664388E+00  0.88000000000E+00 0. -1.
        -11    1    4    4    0    0  0.23576068149E-01 -0.45122173191E-01 -0.75226408456E-01  0.90835649131E-01  0.51100000000E-03 0. -1.
         11    1    4    4    0    0  0.68790536882E-02 -0.33523841410E-01 -0.31379915008E-01  0.46434141635E-01  0.51100000000E-03 0.  1.
</event>
<event>
 8    1  0.1145101E+005  0.1043930E+01  0.7957747E-01            NaN
         13   -1    0    0    0    0  0.00000000000E+00  0.00000000000E+00  0.74505805969E-08  0.10566000000E+00  0.10566000000E+00 0.  1.
     999900   -1    0    0    0    0 -0.00000000000E+00 -0.00000000000E+00 -0.74505805969E-08  0.93827000000E+00  0.93827000000E+00 0. -1.
     999902    2    1    2    0    0 -0.24020368463E-01 -0.70048137497E-03  0.94028918359E-03  0.10198810308E+01  0.10195974520E+01 0.  0.
     999903    2    3    3    0    0 -0.70132116672E-01  0.95115834789E-01 -0.56117082887E-01  0.13164536193E+00  0.14691443406E-01 0.  0.
         14    1    1    2    0    0  0.24020368463E-01  0.70048137497E-03 -0.94028918359E-03  0.24048969188E-01  0.00000000000E+00 0. -1.
     999901    1    3    3    0    0  0.46111748209E-01 -0.95816316164E-01  0.57057372070E-01  0.88823566888E+00  0.88000000000E+00 0.  1.
        -11    1    4    4    0    0 -0.22536217892E-03  0.18881710890E-02 -0.29863637820E-02  0.35770753153E-02  0.51100000000E-03 0.  1.
         11    1    4    4    0    0 -0.69906754493E-01  0.93227663700E-01 -0.53130719105E-01  0.12806828661E+00  0.51100000000E-03 0. -1.
</event>
<event>
 8    1  0.1145101E+005  0.1043930E+01  0.7957747E-01            NaN
         13   -1    0    0    0    0  0.00000000000E+00  0.00000000000E+00  0.74505805969E-08  0.10566000000E+00  0.10566000000E+00 0.  1.
     999900   -1    0    0    0    0 -0.00000000000E+00 -0.00000000000E+00 -0.74505805969E-08  0.93827000000E+00  0.93827000000E+00 0.  1.
     999902    2    1    2    0    0 -0.10724904710E-02  0.14139996104E-01 -0.18948574210E-01  0.10202627612E+01  0.10199882175E+01 0.  0.
     999903    2    3    3    0    0  0.28556820634E-01  0.12230753172E+00 -0.38471971595E-01  0.13293008694E+00  0.20388504010E-01 0.  0.
         14    1    1    2    0    0  0.10724904710E-02 -0.14139996104E-01  0.18948574210E-01  0.23667238753E-01  0.00000000000E+00 0.  1.
     999901    1    3    3    0    0 -0.29629311105E-01 -0.10816753562E+00  0.19523397386E-01  0.88733267430E+00  0.88000000000E+00 0. -1.
        -11    1    4    4    0    0  0.52603784213E-02  0.63484467400E-01 -0.15000128763E-01  0.65446269306E-01  0.51100000000E-03 0.  1.
         11    1    4    4    0    0  0.23296442212E-01  0.58823064323E-01 -0.23471842832E-01  0.67483817639E-01  0.51100000000E-03 0. -1.
</event>
<event>
 8    1  0.1145101E+005  0.1043930E+01  0.7957747E-01            NaN
         13   -1    0    0    0    0  0.00000000000E+00  0.00000000000E+00  0.74505805969E-08  0.10566000000E+00  0.10566000000E+00 0. -1.
     999900   -1    0    0    0    0 -0.00000000000E+00 -0.00000000000E+00 -0.74505805969E-08  0.93827000000E+00  0.93827000000E+00 0.  1.
     999902    2    1    2    0    0  0.17784164978E-01  0.94564931563E-02 -0.10976915043E-01  0.10209910713E+01  0.10207333507E+01 0.  0.
     999903    2    3    3    0    0 -0.23975091782E-01  0.17195556094E-01 -0.12740425892E+00  0.13230718203E+00  0.20071199517E-01 0.  0.
         14    1    1    2    0    0 -0.17784164978E-01 -0.94564931563E-02  0.10976915043E-01  0.22938928716E-01  0.00000000000E+00 0. -1.
     999901    1    3    3    0    0  0.41759256760E-01 -0.77390629380E-02  0.11642734388E+00  0.88868388926E+00  0.88000000000E+00 0. -1.
        -11    1    4    4    0    0 -0.20002636181E-01  0.51779875793E-02 -0.10004576586E+00  0.10215837409E+00  0.51100000000E-03 0.  1.
         11    1    4    4    0    0 -0.39724556006E-02  0.12017568515E-01 -0.27358493064E-01  0.30148807941E-01  0.51100000000E-03 0. -1.
</event>
<event>
 8    1  0.1145101E+005  0.1043930E+01  0.7957747E-01            NaN
         13   -1    0    0    0    0  0.00000000000E+00  0.00000000000E+00  0.74505805969E-08  0.10566000000E+00  0.10566000000E+00 0. -1.
     999900   -1    0    0    0    0 -0.00000000000E+00 -0.00000000000E+00 -0.74505805969E-08  0.93827000000E+00  0.93827000000E+00 0. -1.
     999902    2    1    2    0    0  0.56495648389E-02 -0.22682090952E-01 -0.23081088884E-02  0.10204412325E+01  0.10201708615E+01 0.  0.
     999903    2    3    3    0    0 -0.96276982246E-01 -0.88091951687E-01 -0.65200217781E-02  0.13213654878E+00  0.19700446108E-01 0.  0.
         14    1    1    2    0    0 -0.56495648389E-02  0.22682090952E-01  0.23081088884E-02  0.23488767517E-01  0.00000000000E+00 0.  1.
     999901    1    3    3    0    0  0.10192654708E+00  0.65409860735E-01  0.42119128897E-02  0.88830468370E+00  0.88000000000E+00 0. -1.
        -11    1    4    4    0    0 -0.23342779918E-01 -0.33450656101E-01 -0.35777480168E-03  0.40794863546E-01  0.51100000000E-03 0. -1.
         11    1    4    4    0    0 -0.72934202327E-01 -0.54641295586E-01 -0.61622469764E-02  0.91341685233E-01  0.51100000000E-03 0.  1.
</event>
<event>
 8    1  0.1145101E+005  0.1043930E+01  0.7957747E-01            NaN
         13   -1    0    0    0    0  0.00000000000E+00  0.00000000000E+00  0.74505805969E-08  0.10566000000E+00  0.10566000000E+00 0.  1.
     999900   -1    0    0    0    0 -0.00000000000E+00 -0.00000000000E+00 -0.74505805969E-08  0.93827000000E+00  0.93827000000E+00 0. -1.
     999902    2    1    2    0    0 -0.46770840633E-02 -0.11300023822E-01 -0.20459305696E-01  0.10200941270E+01  0.10198156103E+01 0.  0.
     999903    2    3    3    0    0 -0.85930033238E-01  0.31446963272E-01  0.88233863268E-01  0.12866631069E+00  0.19922920664E-01 0.  0.
         14    1    1    2    0    0  0.46770840633E-02  0.11300023822E-01  0.20459305696E-01  0.23835873034E-01  0.00000000000E+00 0.  1.
     999901    1    3    3    0    0  0.81252949174E-01 -0.42746987094E-01 -0.10869316896E+00  0.89142781628E+00  0.88000000000E+00 0. -1.
        -11    1    4    4    0    0 -0.20298100096E-01  0.16299043079E-01  0.28924877779E-01  0.38917622593E-01  0.51100000000E-03 0. -1.
         11    1    4    4    0    0 -0.65631933141E-01  0.15147920193E-01  0.59308985489E-01  0.89748688095E-01  0.51100000000E-03 0.  1.
</event>
<event>
 8    1  0.1145101E+005  0.1043930E+01  0.7957747E-01            NaN
         13   -1    0    0    0    0  0.00000000000E+00  0.00000000000E+00  0.74505805969E-08  0.10566000000E+00  0.10566000000E+00 0. -1.
     999900   -1    0    0    0    0 -0.00000000000E+00 -0.00000000000E+00 -0.74505805969E-08  0.93827000000E+00  0.93827000000E+00 0.  1.
     999902    2    1    2    0    0  0.14800506378E-01 -0.76769366060E-02  0.18402369506E-01  0.10190978123E+01  0.10187952264E+01 0.  0.
     999903    2    3    3    0    0 -0.12255710191E+00 -0.30538918773E-01  0.10931773693E-01  0.12811768196E+00  0.18486967473E-01 0.  0.
         14    1    1    2    0    0 -0.14800506378E-01  0.76769366060E-02 -0.18402369506E-01  0.24832187744E-01  0.00000000000E+00 0.  1.
     999901    1    3    3    0    0  0.13735760829E+00  0.22861982167E-01  0.74705958136E-02  0.89098013030E+00  0.88000000000E+00 0.  1.
        -11    1    4    4    0    0 -0.59349003271E-01 -0.20201482320E-01  0.13024557516E-01  0.64033618488E-01  0.51100000000E-03 0.  1.
         11    1    4    4    0    0 -0.63208098637E-01 -0.10337436453E-01 -0.20927838230E-02  0.64084063470E-01  0.51100000000E-03 0. -1.
</event>
<event>
 8    1  0.1145101E+005  0.1043930E+01  0.7957747E-01            NaN
         13   -1    0    0    0    0  0.00000000000E+00  0.00000000000E+00  0.74505805969E-08  0.10566000000E+00  0.10566000000E+00 0.  1.
     999900   -1    0    0    0    0 -0.00000000000E+00 -0.00000000000E+00 -0.74505805969E-08  0.93827000000E+00  0.93827000000E+00 0. -1.
     999902    2    1    2    0    0 -0.18621838591E-01  0.13611112252E-01  0.31554920137E-02  0.10206492702E+01  0.10203837221E+01 0.  0.
     999903    2    3    3    0    0  0.45036367156E-01 -0.11705968845E+00 -0.18921743729E-01  0.12845275058E+00  0.20268984182E-01 0.  0.
         14    1    1    2    0    0  0.18621838591E-01 -0.13611112252E-01 -0.31554920137E-02  0.23280729780E-01  0.00000000000E+00 0. -1.
     999901    1    3    3    0    0 -0.63658205746E-01  0.13067080070E+00  0.22077235742E-01  0.89219651964E+00  0.88000000000E+00 0.  1.
        -11    1    4    4    0    0  0.42916280289E-01 -0.11137094336E+00 -0.13178616162E-01  0.12008010319E+00  0.51100000000E-03 0. -1.
         11    1    4    4    0    0  0.21200868669E-02 -0.56887450949E-02 -0.57431275662E-02  0.83726473902E-02  0.51100000000E-03 0.  1.
</event>
<event>
 8    1  0.1145101E+005  0.1043930E+01  0.7957747E-01            NaN
         13   -1    0    0    0    0  0.00000000000E+00  0.00000000000E+00  0.74505805969E-08  0.10566000000E+00  0.10566000000E+00 0.  1.
     999900   -1    0    0    0    0 -0.00000000000E+00 -0.00000000000E+00 -0.74505805969E-08  0.93827000000E+00  0.93827000000E+00 0. -1.
     999902    2    1    2    0    0  0.14540294214E-01 -0.32432470464E-02  0.21250643435E-01  0.10179775694E+01  0.10176466986E+01 0.  0.
     999903    2    3    3    0    0  0.60634389788E-01 -0.63631929850E-01  0.95789689360E-01  0.13156483934E+00  0.20201253466E-01 0.  0.
         14    1    1    2    0    0 -0.14540294214E-01  0.32432470464E-02 -0.21250643435E-01  0.25952430592E-01  0.00000000000E+00 0. -1.
     999901    1    3    3    0    0 -0.46094095574E-01  0.60388682804E-01 -0.74539045925E-01  0.88641273007E+00  0.88000000000E+00 0. -1.
        -11    1    4    4    0    0  0.34313635554E-01 -0.21940158588E-01  0.39604070927E-01  0.56811439858E-01  0.51100000000E-03 0.  1.
         11    1    4    4    0    0  0.26320754234E-01 -0.41691771263E-01  0.56185618433E-01  0.74753399483E-01  0.51100000000E-03 0. -1.
</event>
<event>
 8    1  0.1145101E+005  0.1043930E+01  0.7957747E-01            NaN
         13   -1    0    0    0    0  0.00000000000E+00  0.00000000000E+00  0.74505805969E-08  0.10566000000E+00  0.10566000000E+00 0.  1.
     999900   -1    0    0    0    0 -0.00000000000E+00 -0.00000000000E+00 -0.74505805969E-08  0.93827000000E+00  0.93827000000E+00 0.  1.
     999902    2    1    2    0    0  0.10811371701E-01  0.19466653117E-01  0.73860390471E-02  0.10204696097E+01  0.10201998992E+01 0.  0.
     999903    2    3    3    0    0 -0.34414379624E-01  0.41117672066E-01  0.11901437734E+00  0.13200181559E+00  0.19622559054E-01 0.  0.
         14    1    1    2    0    0 -0.10811371701E-01 -0.19466653117E-01 -0.73860390471E-02  0.23460390330E-01  0.00000000000E+00 0. -1.
     999901    1    3    3    0    0  0.45225751324E-01 -0.21651018949E-01 -0.11162833830E+00  0.88846779408E+00  0.88000000000E+00 0.  1.
        -11    1    4    4    0    0 -0.12873679469E-01  0.12956688131E-01  0.63943410016E-01  0.66502843517E-01  0.51100000000E-03 0.  1.
         11    1    4    4    0    0 -0.21540700155E-01  0.28160983934E-01  0.55070967328E-01  0.65498972074E-01  0.51100000000E-03 0. -1.
</event>
<event>
 8    1  0.1145101E+005  0.1043930E+01  0.7957747E-01            NaN
         13   -1    0    0    0    0  0.00000000000E+00  0.00000000000E+00  0.74505805969E-08  0.10566000000E+00  0.10566000000E+00 0. -1.
     999900   -1    0    0    0    0 -0.00000000000E+00 -0.00000000000E+00 -0.74505805969E-08  0.93827000000E+00  0.93827000000E+00 0. -1.
     999902    2    1    2    0    0  0.62516077046E-02 -0.89648579126E-02 -0.20922325952E-01  0.10203250217E+01  0.10200519374E+01 0.  0.
     999903    2    3    3    0    0 -0.74172021780E-01 -0.10637177468E+00 -0.73597562818E-02  0.13120185201E+00  0.18528807189E-01 0.  0.
         14    1    1    2    0    0 -0.62516077046E-02  0.89648579126E-02  0.20922325952E-01  0.23604978278E-01  0.00000000000E+00 0.  1.
     999901    1    3    3    0    0  0.80423629485E-01  0.97406916768E-01 -0.13562569670E-01  0.88912316971E+00  0.88000000000E+00 0. -1.
        -11    1    4    4    0    0 -0.28299527693E-01 -0.27537887275E-01 -0.62723104566E-02  0.39985015978E-01  0.51100000000E-03 0. -1.
         11    1    4    4    0    0 -0.45872494087E-01 -0.78833887405E-01 -0.10874458253E-02  0.91216836037E-01  0.51100000000E-03 0.  1.
</event>
<event>
 8    1  0.1377628E+005  0.1043930E+01  0.7957747E-01            NaN
         13   -1    0    0    0    0  0.00000000000E+00  0.00000000000E+00  0.74505805969E-08  0.10566000000E+00  0.10566000000E+00 0.  1.
     999900   -1    0    0    0    0 -0.00000000000E+00 -0.00000000000E+00 -0.74505805969E-08  0.93827000000E+00  0.93827000000E+00 0.  1.
     999902    2    1    2    0    0 -0.20885092101E-01  0.13498385185E-01  0.88792812827E-04  0.10190623230E+01  0.10187588610E+01 0.  0.
     999903    2    3    3    0    0 -0.15665770884E-01 -0.44063893456E-01 -0.11884134561E+00  0.12918309802E+00  0.19441304075E-01 0.  0.
         14    1    1    2    0    0  0.20885092101E-01 -0.13498385185E-01 -0.88792812827E-04  0.24867676989E-01  0.00000000000E+00 0.  1.
     999901    1    3    3    0    0 -0.52193212170E-02  0.57562278641E-01  0.11893013843E+00  0.88987922499E+00  0.88000000000E+00 0. -1.
        -11    1    4    4    0    0 -0.11671139141E-01 -0.14284300301E-01 -0.64481941944E-01  0.67070400936E-01  0.51100000000E-03 0. -1.
         11    1    4    4    0    0 -0.39946317437E-02 -0.29779593155E-01 -0.54359403670E-01  0.62112697088E-01  0.51100000000E-03 0.  1.
</event>
<event>
 8    1  0.1145101E+005  0.1043930E+01  0.7957747E-01            NaN
         13   -1    0    0    0    0  0.00000000000E+00  0.00000000000E+00  0.74505805969E-08  0.10566000000E+00  0.10566000000E+00 0.  1.
     999900   -1    0    0    0    0 -0.00000000000E+00 -0.00000000000E+00 -0.74505805969E-08  0.93827000000E+00  0.93827000000E+00 0.  1.
     999902    2    1    2    0    0 -0.19338301460E-01  0.11300845710E-01 -0.63673666906E-02  0.10206443311E+01  0.10203786690E+01 0.  0.
     999903    2    3    3    0    0 -0.75197170002E-01  0.35677601804E-01 -0.10219921272E+00  0.13334608241E+00  0.20223574546E-01 0.  0.
         14    1    1    2    0    0  0.19338301460E-01 -0.11300845710E-01  0.63673666906E-02  0.23285668890E-01  0.00000000000E+00 0.  1.
     999901    1    3    3    0    0  0.55858868542E-01 -0.24376756095E-01  0.95831846026E-01  0.88729824870E+00  0.88000000000E+00 0. -1.
        -11    1    4    4    0    0 -0.16760991316E-01  0.91710354869E-02 -0.11713039428E-01  0.22416403267E-01  0.51100000000E-03 0.  1.
         11    1    4    4    0    0 -0.58436178686E-01  0.26506566317E-01 -0.90486173289E-01  0.11092967914E+00  0.51100000000E-03 0. -1.
</event>
<event>
 8    1  0.1145101E+005  0.1043930E+01  0.7957747E-01            NaN
         13   -1    0    0    0    0  0.00000000000E+00  0.00000000000E+00  0.74505805969E-08  0.10566000000E+00  0.10566000000E+00 0.  1.
     999900   -1    0    0    0    0 -0.00000000000E+00 -0.00000000000E+00 -0.74505805969E-08  0.93827000000E+00  0.93827000000E+00 0. -1.
     999902    2    1    2    0    0  0.91065712740E-02  0.73166266637E-02  0.20178750498E-01  0.10206138117E+01  0.10203474447E+01 0.  0.
     999903    2    3    3    0    0  0.63055361909E-01  0.34354468330E-01  0.11129990073E+00  0.13385308808E+00  0.19307333490E-01 0.  0.
         14    1    1    2    0    0 -0.91065712740E-02 -0.73166266637E-02 -0.20178750498E-01  0.23316188320E-01  0.00000000000E+00 0. -1.
     999901    1    3    3    0    0 -0.53948790635E-01 -0.27037841667E-01 -0.91121150236E-01  0.88676072360E+00  0.88000000000E+00 0. -1.
        -11    1    4    4    0    0  0.39697599468E-01  0.27954990977E-01  0.60515534361E-01  0.77587189304E-01  0.51100000000E-03 0. -1.
         11    1    4    4    0    0  0.23357762441E-01  0.63994773530E-02  0.50784366372E-01  0.56265898780E-01  0.51100000000E-03 0.  1.
</event>
<event>
 8    1  0.1145101E+005  0.1043930E+01  0.7957747E-01            NaN
         13   -1    0    0    0    0  0.00000000000E+00  0.00000000000E+00  0.74505805969E-08  0.10566000000E+00  0.10566000000E+00 0. -1.
     999900   -1    0    0    0    0 -0.00000000000E+00 -0.00000000000E+00 -0.74505805969E-08  0.93827000000E+00  0.93827000000E+00 0.  1.
     999902    2    1    2    0    0  0.15320123550E-01  0.10773882805E-01  0.11453543819E-01  0.10219762668E+01  0.10217404384E+01 0.  0.
     999903    2    3    3    0    0  0.81801333066E-01 -0.92077632261E-01 -0.42766526689E-01  0.13184256816E+00  0.19589245013E-01 0.  0.
         14    1    1    2    0    0 -0.15320123550E-01 -0.10773882805E-01 -0.11453543819E-01  0.21953733220E-01  0.00000000000E+00 0.  1.
     999901    1    3    3    0    0 -0.66481209516E-01  0.10285151507E+00  0.54220070509E-01  0.89013369862E+00  0.88000000000E+00 0.  1.
        -11    1    4    4    0    0  0.49263170051E-01 -0.58435038649E-01 -0.36225086040E-01  0.84581508883E-01  0.51100000000E-03 0.  1.
         11    1    4    4    0    0  0.32538163014E-01 -0.33642593612E-01 -0.65414406496E-02  0.47261059278E-01  0.51100000000E-03 0. -1.
</event>
<event>
 7    1  0.1145101E+005  0.1043930E+01  0.7957747E-01            NaN
         13   -1    0    0    0    0  0.00000000000E+00  0.00000000000E+00  0.74505805969E-08  0.10566000000E+00  0.10566000000E+00 0.  1.
     999900   -1    0    0    0    0 -0.00000000000E+00 -0.00000000000E+00 -0.74505805969E-08  0.93827000000E+00  0.93827000000E+00 0.  1.
     999903    2    1    2    0    0  0.48769095972E-01  0.73794178137E-01 -0.70983588332E-01  0.11536684066E+00  0.21138416744E-01 0.  0.
         14    1    1    2    0    0 -0.15803235990E-01  0.22028808696E-01  0.31930253218E-01  0.41887369825E-01  0.00000000000E+00 0.  1.
     999901    1    1    2    0    0 -0.32965859981E-01 -0.95822986833E-01  0.39053335114E-01  0.88667578952E+00  0.88000000000E+00 0.  1.
        -11    1    3    3    0    0  0.43248712658E-01  0.61480550066E-01 -0.49543931830E-01  0.90028725889E-01  0.51100000000E-03 0. -1.
         11    1    3    3    0    0  0.55203833138E-02  0.12313628070E-01 -0.21439656502E-01  0.25338114770E-01  0.51100000000E-03 0.  1.
</event>
<event>
 8    1  0.1145101E+005  0.1043930E+01  0.7957747E-01            NaN
         13   -1    0    0    0    0  0.00000000000E+00  0.00000000000E+00  0.74505805969E-08  0.10566000000E+00  0.10566000000E+00 0. -1.
     999900   -1    0    0    0    0 -0.00000000000E+00 -0.00000000000E+00 -0.74505805969E-08  0.93827000000E+00  0.93827000000E+00 0. -1.
     999902    2    1    2    0    0 -0.10228469288E-02 -0.23371611701E-01  0.10620573464E-02  0.10205119212E+01  0.10202431940E+01 0.  0.
     999903    2    3    3    0    0 -0.12521599166E+00  0.23370367014E-01 -0.19183225185E-01  0.13033293849E+00  0.19835828816E-01 0.  0.
         14    1    1    2    0    0  0.10228469288E-02  0.23371611701E-01 -0.10620573464E-02  0.23418078810E-01  0.00000000000E+00 0.  1.
     999901    1    3    3    0    0  0.12419314473E+00 -0.46741978715E-01  0.20245282532E-01  0.89017898270E+00  0.88000000000E+00 0.  1.
        -11    1    4    4    0    0 -0.83945734145E-01  0.13235100358E-01 -0.21855033732E-01  0.87749403320E-01  0.51100000000E-03 0.  1.
         11    1    4    4    0    0 -0.41270257518E-01  0.10135266656E-01  0.26718085464E-02  0.42583535172E-01  0.51100000000E-03 0. -1.
</event>
<event>
 8    1  0.1145101E+005  0.1043930E+01  0.7957747E-01            NaN
         13   -1    0    0    0    0  0.00000000000E+00  0.00000000000E+00  0.74505805969E-08  0.10566000000E+00  0.10566000000E+00 0.  1.
     999900   -1    0    0    0    0 -0.00000000000E+00 -0.00000000000E+00 -0.74505805969E-08  0.93827000000E+00  0.93827000000E+00 0.  1.
     999902    2    1    2    0    0  0.93757602273E-02  0.16973183727E-01 -0.13296456049E-01  0.10204185222E+01  0.10201476221E+01 0.  0.
     999903    2    3    3    0    0  0.25822828851E-01  0.10670994283E+00 -0.73669667252E-01  0.13364452807E+00  0.19488704987E-01 0.  0.
         14    1    1    2    0    0 -0.93757602273E-02 -0.16973183727E-01  0.13296456049E-01  0.23511477817E-01  0.00000000000E+00 0. -1.
     999901    1    3    3    0    0 -0.16447068624E-01 -0.89736759102E-01  0.60373211203E-01  0.88677399411E+00  0.88000000000E+00 0. -1.
        -11    1    4    4    0    0 -0.23237583637E-02  0.13507186315E-01 -0.54342933474E-02  0.14752511660E-01  0.51100000000E-03 0. -1.
         11    1    4    4    0    0  0.28146587215E-01  0.93202756514E-01 -0.68235373904E-01  0.11889201641E+00  0.51100000000E-03 0.  1.
</event>
<event>
 8    1  0.1145101E+005  0.1043930E+01  0.7957747E-01            NaN
         13   -1    0    0    0    0  0.00000000000E+00  0.00000000000E+00  0.74505805969E-08  0.10566000000E+00  0.10566000000E+00 0.  1.
     999900   -1    0    0    0    0 -0.00000000000E+00 -0.00000000000E+00 -0.74505805969E-08  0.93827000000E+00  0.93827000000E+00 0. -1.
     999902    2    1    2    0    0 -0.13217266658E-01  0.18074334852E-01  0.71909526598E-02  0.10204121872E+01  0.10201411394E+01 0.  0.
     999903    2    3    3    0    0 -0.10856270047E-01  0.13083802290E+00  0.11243467863E-01  0.13320440629E+00  0.19507727969E-01 0.  0.
         14    1    1    2    0    0  0.13217266658E-01 -0.18074334852E-01 -0.71909526598E-02  0.23517812789E-01  0.00000000000E+00 0. -1.
     999901    1    3    3    0    0 -0.23609966112E-02 -0.11276368805E+00 -0.40525152028E-02  0.88720778092E+00  0.88000000000E+00 0. -1.
        -11    1    4    4    0    0 -0.72802870933E-03  0.63475697876E-01 -0.32236944440E-02  0.63563728442E-01  0.51100000000E-03 0.  1.
         11    1    4    4    0    0 -0.10128241337E-01  0.67362325021E-01  0.14467162307E-01  0.69640677848E-01  0.51100000000E-03 0. -1.
</event>
<event>
 8    1  0.1145101E+005  0.1043930E+01  0.7957747E-01            NaN
         13   -1    0    0    0    0  0.00000000000E+00  0.00000000000E+00  0.74505805969E-08  0.10566000000E+00  0.10566000000E+00 0. -1.
     999900   -1    0    0    0    0 -0.00000000000E+00 -0.00000000000E+00 -0.74505805969E-08  0.93827000000E+00  0.93827000000E+00 0.  1.
     999902    2    1    2    0    0 -0.94874196690E-02  0.14467951408E-01  0.16153806887E-01  0.10202598030E+01  0.10199851898E+01 0.  0.
     999903    2    3    3    0    0 -0.11883368838E+00 -0.24727885084E-01  0.47763883308E-01  0.13206381278E+00  0.20653045875E-01 0.  0.
         14    1    1    2    0    0  0.94874196690E-02 -0.14467951408E-01 -0.16153806887E-01  0.23670197018E-01  0.00000000000E+00 0.  1.
     999901    1    3    3    0    0  0.10934626871E+00  0.39195836492E-01 -0.31610076421E-01  0.88819599020E+00  0.88000000000E+00 0. -1.
        -11    1    4    4    0    0 -0.10857938627E+00 -0.28347286478E-01  0.42901817368E-01  0.12014107886E+00  0.51100000000E-03 0. -1.
         11    1    4    4    0    0 -0.10254302102E-01  0.36194013933E-02  0.48620659402E-02  0.11922733926E-01  0.51100000000E-03 0.  1.
</event>
<event>
 8    1  0.1145101E+005  0.1043930E+01  0.7957747E-01            NaN
         13   -1    0    0    0    0  0.00000000000E+00  0.00000000000E+00  0.74505805969E-08  0.10566000000E+00  0.10566000000E+00 0.  1.
     999900   -1    0    0    0    0 -0.00000000000E+00 -0.00000000000E+00 -0.74505805969E-08  0.93827000000E+00  0.93827000000E+00 0.  1.
     999902    2    1    2    0    0 -0.75656751859E-04  0.18737245507E-01  0.15185907930E-01  0.10198115031E+01  0.10195262625E+01 0.  0.
     999903    2    3    3    0    0 -0.93403776711E-01  0.84842661216E-01  0.33623328374E-01  0.13221925300E+00  0.20708934951E-01 0.  0.
         14    1    1    2    0    0  0.75656751859E-04 -0.18737245507E-01 -0.15185907930E-01  0.24118496902E-01  0.00000000000E+00 0. -1.
     999901    1    3    3    0    0  0.93328119959E-01 -0.66105415710E-01 -0.18437420444E-01  0.88759225010E+00  0.88000000000E+00 0. -1.
        -11    1    4    4    0    0 -0.69298778562E-01  0.72725035629E-01  0.21995523113E-01  0.10283635386E+00  0.51100000000E-03 0.  1.
         11    1    4    4    0    0 -0.24104998149E-01  0.12117625588E-01  0.11627805261E-01  0.29382899139E-01  0.51100000000E-03 0. -1.
</event>
<event>
 8    1  0.1145101E+005  0.1043930E+01  0.7957747E-01            NaN
         13   -1    0    0    0    0  0.00000000000E+00  0.00000000000E+00  0.74505805969E-08  0.10566000000E+00  0.10566000000E+00 0.  1.
     999900   -1    0    0    0    0 -0.00000000000E+00 -0.00000000000E+00 -0.74505805969E-08  0.93827000000E+00  0.93827000000E+00 0. -1.
     999902    2    1    2    0    0  0.11434195528E-01  0.19249054245E-01 -0.92545371717E-02  0.10197037049E+01  0.10194158780E+01 0.  0.
     999903    2    3    3    0    0  0.11206090355E+00  0.73985497698E-02 -0.66633138357E-01  0.13203345491E+00  0.19505728498E-01 0.  0.
         14    1    1    2    0    0 -0.11434195528E-01 -0.19249054245E-01  0.92545371717E-02  0.24226295115E-01  0.00000000000E+00 0.  1.
     999901    1    3    3    0    0 -0.10062670802E+00  0.11850504476E-01  0.57378601185E-01  0.88767024998E+00  0.88000000000E+00 0. -1.
        -11    1    4    4    0    0  0.37569354751E-01 -0.30805147891E-02 -0.30933516049E-01  0.48765659269E-01  0.51100000000E-03 0. -1.
         11    1    4    4    0    0  0.74491548799E-01  0.10479064559E-01 -0.35699622308E-01  0.83267795638E-01  0.51100000000E-03 0.  1.
</event>
<event>
 8    1  0.1145101E+005  0.1043930E+01  0.7957747E-01            NaN
         13   -1    0    0    0    0  0.00000000000E+00  0.00000000000E+00  0.74505805969E-08  0.10566000000E+00  0.10566000000E+00 0.  1.
     999900   -1    0    0    0    0 -0.00000000000E+00 -0.00000000000E+00 -0.74505805969E-08  0.93827000000E+00  0.93827000000E+00 0.  1.
     999902    2    1    2    0    0 -0.23793105136E-01 -0.14846728768E-02  0.42643621767E-02  0.10197122195E+01  0.10194245974E+01 0.  0.
     999903    2    3    3    0    0  0.40540142393E-01  0.13240269719E-01 -0.12010684233E+00  0.12851987937E+00  0.16519622644E-01 0.  0.
         14    1    1    2    0    0  0.23793105136E-01  0.14846728768E-02 -0.42643621767E-02  0.24217780459E-01  0.00000000000E+00 0. -1.
     999901    1    3    3    0    0 -0.64333247529E-01 -0.14724942596E-01  0.12437120450E+00  0.89119234017E+00  0.88000000000E+00 0. -1.
        -11    1    4    4    0    0  0.73662993640E-02  0.99018666241E-02 -0.30186337069E-01  0.32615723135E-01  0.51100000000E-03 0.  1.
         11    1    4    4    0    0  0.33173843029E-01  0.33384030947E-02 -0.89920505256E-01  0.95904156235E-01  0.51100000000E-03 0. -1.
</event>
<event>
 8    1  0.1145101E+005  0.1043930E+01  0.7957747E-01            NaN
         13   -1    0    0    0    0  0.00000000000E+00  0.00000000000E+00  0.74505805969E-08  0.10566000000E+00  0.10566000000E+00 0. -1.
     999900   -1    0    0    0    0 -0.00000000000E+00 -0.00000000000E+00 -0.74505805969E-08  0.93827000000E+00  0.93827000000E+00 0.  1.
     999902    2    1    2    0    0  0.17604540114E-01  0.13555470667E-01  0.82815865626E-02  0.10202180770E+01  0.10199424833E+01 0.  0.
     999903    2    3    3    0    0  0.36588484753E-01 -0.14156291632E-01  0.12408257570E+00  0.13199614468E+00  0.22076657518E-01 0.  0.
         14    1    1    2    0    0 -0.17604540114E-01 -0.13555470667E-01 -0.82815865626E-02  0.23711923027E-01  0.00000000000E+00 0. -1.
     999901    1    3    3    0    0 -0.18983944639E-01  0.27711762299E-01 -0.11580098914E+00  0.88822193230E+00  0.88000000000E+00 0.  1.
        -11    1    4    4    0    0  0.28037253060E-01 -0.20174630654E-01  0.95781184062E-01  0.10182042832E+00  0.51100000000E-03 0.  1.
         11    1    4    4    0    0  0.85512316936E-02  0.60183390225E-02  0.28301391643E-01  0.30175716362E-01  0.51100000000E-03 0. -1.
</event>
<event>
 8    1  0.1145101E+005  0.1043930E+01  0.7957747E-01            NaN
         13   -1    0    0    0    0  0.00000000000E+00  0.00000000000E+00  0.74505805969E-08  0.10566000000E+00  0.10566000000E+00 0. -1.
     999900   -1    0    0    0    0 -0.00000000000E+00 -0.00000000000E+00 -0.74505805969E-08  0.93827000000E+00  0.93827000000E+00 0.  1.
     999902    2    1    2    0    0 -0.10066894250E-01  0.67380895151E-02 -0.20060176462E-01  0.10204959459E+01  0.10202268477E+01 0.  0.
     999903    2    3    3    0    0 -0.72040855719E-01  0.92420881812E-01  0.55049484878E-01  0.13098834393E+00  0.19899652596E-01 0.  0.
         14    1    1    2    0    0  0.10066894250E-01 -0.67380895151E-02  0.20060176462E-01  0.23434054063E-01  0.00000000000E+00 0. -1.
     999901    1    3    3    0    0  0.61973961469E-01 -0.85682792297E-01 -0.75109661339E-01  0.88950760200E+00  0.88000000000E+00 0.  1.
        -11    1    4    4    0    0 -0.34960552303E-01  0.37585949709E-01  0.33806348793E-01  0.61466040808E-01  0.51100000000E-03 0. -1.
         11    1    4    4    0    0 -0.37080303416E-01  0.54834932103E-01  0.21243136085E-01  0.69522303126E-01  0.51100000000E-03 0.  1.
</event>
<event>
 8    1  0.1145101E+005  0.1043930E+01  0.7957747E-01            NaN
         13   -1    0    0    0    0  0.00000000000E+00  0.00000000000E+00  0.74505805969E-08  0.10566000000E+00  0.10566000000E+00 0.  1.
     999900   -1    0    0    0    0 -0.00000000000E+00 -0.00000000000E+00 -0.74505805969E-08  0.93827000000E+00  0.93827000000E+00 0. -1.
     999902    2    1    2    0    0  0.23425298891E-01  0.12706576682E-01 -0.93579804338E-02  0.10156851152E+01  0.10152923125E+01 0.  0.
     999903    2    3    3    0    0 -0.62701150112E-01  0.10035519108E+00 -0.40389253624E-01  0.12660526236E+00  0.19874658428E-01 0.  0.
         14    1    1    2    0    0 -0.23425298891E-01 -0.12706576682E-01  0.93579804338E-02  0.28244884792E-01  0.00000000000E+00 0. -1.
     999901    1    3    3    0    0  0.86126449003E-01 -0.87648614394E-01  0.31031273190E-01  0.88907985285E+00  0.88000000000E+00 0.  1.
        -11    1    4    4    0    0 -0.56248115770E-01  0.94822378147E-01 -0.41922219266E-01  0.11795281902E+00  0.51100000000E-03 0. -1.
         11    1    4    4    0    0 -0.64530343419E-02  0.55328129298E-02  0.15329656420E-02  0.86524433424E-02  0.51100000000E-03 0.  1.
</event>
<event>
 8    1  0.1145101E+005  0.1043930E+01  0.7957747E-01            NaN
         13   -1    0    0    0    0  0.00000000000E+00  0.00000000000E+00  0.74505805969E-08  0.10566000000E+00  0.10566000000E+00 0.  1.
     999900   -1    0    0    0    0 -0.00000000000E+00 -0.00000000000E+00 -0.74505805969E-08  0.93827000000E+00  0.93827000000E+00 0. -1.
     999902    2    1    2    0    0  0.21024275782E-01 -0.10477281968E-01 -0.37999221646E-02  0.10201343488E+01  0.10198567823E+01 0.  0.
     999903    2    3    3    0    0  0.37307698996E-01  0.11567712829E+00 -0.42061032379E-01  0.13016581131E+00  0.20023625394E-01 0.  0.
         14    1    1    2    0    0 -0.21024275782E-01  0.10477281968E-01  0.37999221646E-02  0.23795651242E-01  0.00000000000E+00 0.  1.
     999901    1    3    3    0    0 -0.16283423214E-01 -0.12615441026E+00  0.38261110215E-01  0.88996853745E+00  0.88000000000E+00 0. -1.
        -11    1    4    4    0    0  0.20691456925E-01  0.73397899356E-01 -0.16451795105E-01  0.78014810791E-01  0.51100000000E-03 0. -1.
         11    1    4    4    0    0  0.16616242071E-01  0.42279228936E-01 -0.25609237274E-01  0.52151000515E-01  0.51100000000E-03 0.  1.
</event>
<event>
 8    1  0.1145101E+005  0.1043930E+01  0.7957747E-01            NaN
         13   -1    0    0    0    0  0.00000000000E+00  0.00000000000E+00  0.74505805969E-08  0.10566000000E+00  0.10566000000E+00 0. -1.
     999900   -1    0    0    0    0 -0.00000000000E+00 -0.00000000000E+00 -0.74505805969E-08  0.93827000000E+00  0.93827000000E+00 0.  1.
     999902    2    1    2    0    0  0.10842601955E-01  0.95070332309E-02 -0.17815029379E-01  0.10210101185E+01  0.10207528305E+01 0.  0.
     999903    2    3    3    0    0 -0.29991153442E-01 -0.10310292422E+00  0.68093746355E-01  0.12874966554E+00  0.20249341170E-01 0.  0.
         14    1    1    2    0    0 -0.10842601955E-01 -0.95070332309E-02  0.17815029379E-01  0.22919881539E-01  0.00000000000E+00 0. -1.
     999901    1    3    3    0    0  0.40833755396E-01  0.11260995745E+00 -0.85908775734E-01  0.89226045292E+00  0.88000000000E+00 0.  1.
        -11    1    4    4    0    0 -0.11727267861E-01 -0.46142897655E-01  0.41990888391E-01  0.63483790406E-01  0.51100000000E-03 0.  1.
         11    1    4    4    0    0 -0.18263885581E-01 -0.56960026560E-01  0.26102857964E-01  0.65265875135E-01  0.51100000000E-03 0. -1.
</event>
<event>
 8    1  0.1145101E+005  0.1043930E+01  0.7957747E-01            NaN
         13   -1    0    0    0    0  0.00000000000E+00  0.00000000000E+00  0.74505805969E-08  0.10566000000E+00  0.10566000000E+00 0.  1.
     999900   -1    0    0    0    0 -0.00000000000E+00 -0.00000000000E+00 -0.74505805969E-08  0.93827000000E+00  0.93827000000E+00 0.  1.
     999902    2    1    2    0    0  0.73260498544E-02 -0.11457440414E-01 -0.18982055546E-01  0.10205791461E+01  0.10203119773E+01 0.  0.
     999903    2    3    3    0    0 -0.12754073463E+00  0.13041365963E-01 -0.11130217081E-01  0.12993281196E+00  0.17942621744E-01 0.  0.
         14    1    1    2    0    0 -0.73260498544E-02  0.11457440414E-01  0.18982055546E-01  0.23350853947E-01  0.00000000000E+00 0.  1.
     999901    1    3    3    0    0  0.13486678448E+00 -0.24498806377E-01 -0.78518384653E-02  0.89064633410E+00  0.88000000000E+00 0.  1.
        -11    1    4    4    0    0 -0.35498718819E-01  0.92902270133E-02 -0.90141704993E-02  0.37788672199E-01  0.51100000000E-03 0.  1.
         11    1    4    4    0    0 -0.92042015809E-01  0.37511389499E-02 -0.21160465813E-02  0.92144139758E-01  0.51100000000E-03 0. -1.
</event>
<event>
 8    1  0.1242218E+005  0.1043930E+01  0.7957747E-01            NaN
         13   -1    0    0    0    0  0.00000000000E+00  0.00000000000E+00  0.74505805969E-08  0.10566000000E+00  0.10566000000E+00 0. -1.
     999900   -1    0    0    0    0 -0.00000000000E+00 -0.00000000000E+00 -0.74505805969E-08  0.93827000000E+00  0.93827000000E+00 0.  1.
     999902    2    1    2    0    0 -0.18828489405E-01  0.13926972603E-01  0.82413754635E-02  0.10191027398E+01  0.10188002755E+01 0.  0.
     999903    2    3    3    0    0 -0.12118097216E+00  0.33513979892E-01  0.36601593705E-01  0.13250024513E+00  0.20214436343E-01 0.  0.
         14    1    1    2    0    0  0.18828489405E-01 -0.13926972603E-01 -0.82413754635E-02  0.24827260193E-01  0.00000000000E+00 0. -1.
     999901    1    3    3    0    0  0.10235248276E+00 -0.19587007289E-01 -0.28360218242E-01  0.88660249467E+00  0.88000000000E+00 0.  1.
        -11    1    4    4    0    0 -0.48789854777E-01  0.37048845398E-02  0.11269107678E-01  0.50213842788E-01  0.51100000000E-03 0.  1.
         11    1    4    4    0    0 -0.72391117385E-01  0.29809095352E-01  0.25332486027E-01  0.82286402347E-01  0.51100000000E-03 0. -1.
</event>
<event>
 8    1  0.1145101E+005  0.1043930E+01  0.7957747E-01            NaN
         13   -1    0    0    0    0  0.00000000000E+00  0.00000000000E+00  0.74505805969E-08  0.10566000000E+00  0.10566000000E+00 0.  1.
     999900   -1    0    0    0    0 -0.00000000000E+00 -0.00000000000E+00 -0.74505805969E-08  0.93827000000E+00  0.93827000000E+00 0.  1.
     999902    2    1    2    0    0  0.73271773931E-02 -0.24258644996E-01 -0.52784411378E-02  0.10180450367E+01  0.10177159060E+01 0.  0.
     999903    2    3    3    0    0 -0.78028308267E-01 -0.29814758994E-01 -0.96463090994E-01  0.12920811704E+00  0.20304502945E-01 0.  0.
         14    1    1    2    0    0 -0.73271773931E-02  0.24258644996E-01  0.52784411378E-02  0.25884963327E-01  0.00000000000E+00 0.  1.
     999901    1    3    3    0    0  0.85355485660E-01  0.55561139984E-02  0.91184649856E-01  0.88883691963E+00  0.88000000000E+00 0. -1.
        -11    1    4    4    0    0 -0.51993939135E-01 -0.12382107425E-01 -0.50176724186E-01  0.73312011717E-01  0.51100000000E-03 0.  1.
         11    1    4    4    0    0 -0.26034369132E-01 -0.17432651570E-01 -0.46286366808E-01  0.55896105322E-01  0.51100000000E-03 0. -1.
</event>
<event>
 8    1  0.1145101E+005  0.1043930E+01  0.7957747E-01            NaN
         13   -1    0    0    0    0  0.00000000000E+00  0.00000000000E+00  0.74505805969E-08  0.10566000000E+00  0.10566000000E+00 0. -1.
     999900   -1    0    0    0    0 -0.00000000000E+00 -0.00000000000E+00 -0.74505805969E-08  0.93827000000E+00  0.93827000000E+00 0.  1.
     999902    2    1    2    0    0  0.79808069080E-02 -0.22704807715E-01  0.12334866359E-02  0.10198318038E+01  0.10195470489E+01 0.  0.
     999903    2    3    3    0    0  0.36144219336E-01  0.77445531205E-01 -0.93964822439E-01  0.12860456774E+00  0.20137827422E-01 0.  0.
         14    1    1    2    0    0 -0.79808069080E-02  0.22704807715E-01 -0.12334866359E-02  0.24098196230E-01  0.00000000000E+00 0.  1.
     999901    1    3    3    0    0 -0.28163412428E-01 -0.10015033892E+00  0.95198309075E-01  0.89122723603E+00  0.88000000000E+00 0. -1.
        -11    1    4    4    0    0  0.22899807073E-01  0.38408221388E-01 -0.35659616182E-01  0.57196695547E-01  0.51100000000E-03 0. -1.
         11    1    4    4    0    0  0.13244412263E-01  0.39037309816E-01 -0.58305206258E-01  0.71407872196E-01  0.51100000000E-03 0.  1.
</event>
<event>
 8    1  0.1145101E+005  0.1043930E+01  0.7957747E-01            NaN
         13   -1    0    0    0    0  0.00000000000E+00  0.00000000000E+00  0.74505805969E-08  0.10566000000E+00  0.10566000000E+00 0.  1.
     999900   -1    0    0    0    0 -0.00000000000E+00 -0.00000000000E+00 -0.74505805969E-08  0.93827000000E+00  0.93827000000E+00 0. -1.
     999902    2    1    2    0    0  0.18490316766E-01  0.13486192403E-01 -0.65571327561E-02  0.10201231693E+01  0.10198453389E+01 0.  0.
     999903    2    3    3    0    0  0.49724952528E-02 -0.80442944347E-01  0.98366021917E-01  0.12882395878E+00  0.20589926741E-01 0.  0.
         14    1    1    2    0    0 -0.18490316766E-01 -0.13486192403E-01  0.65571327561E-02  0.23806830735E-01  0.00000000000E+00 0.  1.
     999901    1    3    3    0    0  0.13517821513E-01  0.93929136749E-01 -0.10492315467E+00  0.89129921049E+00  0.88000000000E+00 0. -1.
        -11    1    4    4    0    0 -0.61469850006E-02 -0.28401927427E-01  0.44113188784E-01  0.52826976554E-01  0.51100000000E-03 0.  1.
         11    1    4    4    0    0  0.11119480253E-01 -0.52041016920E-01  0.54252833133E-01  0.75996982224E-01  0.51100000000E-03 0. -1.
</event>
<event>
 8    1  0.1145101E+005  0.1043930E+01  0.7957747E-01            NaN
         13   -1    0    0    0    0  0.00000000000E+00  0.00000000000E+00  0.74505805969E-08  0.10566000000E+00  0.10566000000E+00 0.  1.
     999900   -1    0    0    0    0 -0.00000000000E+00 -0.00000000000E+00 -0.74505805969E-08  0.93827000000E+00  0.93827000000E+00 0.  1.
     999902    2    1    2    0    0 -0.55607810937E-02  0.72099091650E-02  0.22030059128E-01  0.10200924544E+01  0.10198138982E+01 0.  0.
     999903    2    3    3    0    0  0.56128393905E-01  0.48379203462E-01 -0.10259162057E+00  0.12822305353E+00  0.20619576036E-01 0.  0.
         14    1    1    2    0    0  0.55607810937E-02 -0.72099091650E-02 -0.22030059128E-01  0.23837545631E-01  0.00000000000E+00 0. -1.
     999901    1    3    3    0    0 -0.61689174999E-01 -0.41169294297E-01  0.12462167969E+00  0.89186940084E+00  0.88000000000E+00 0. -1.
        -11    1    4    4    0    0  0.25953302037E-01  0.94111202467E-02 -0.38119712000E-01  0.47069274850E-01  0.51100000000E-03 0.  1.
         11    1    4    4    0    0  0.30175091867E-01  0.38968083215E-01 -0.64471908567E-01  0.81153778679E-01  0.51100000000E-03 0. -1.
</event>
<event>
 8    1  0.1145101E+005  0.1043930E+01  0.7957747E-01            NaN
         13   -1    0    0    0    0  0.00000000000E+00  0.00000000000E+00  0.74505805969E-08  0.10566000000E+00  0.10566000000E+00 0. -1.
     999900   -1    0    0    0    0 -0.00000000000E+00 -0.00000000000E+00 -0.74505805969E-08  0.93827000000E+00  0.93827000000E+00 0.  1.
     999902    2    1    2    0    0  0.18055730067E-01 -0.96446075700E-02  0.11702036571E-01  0.10203510793E+01  0.10200786045E+01 0.  0.
     999903    2    3    3    0    0 -0.79460590706E-01  0.40677308154E-01 -0.89258846498E-01  0.12780705910E+00  0.19971825214E-01 0.  0.
         14    1    1    2    0    0 -0.18055730067E-01  0.96446075700E-02 -0.11702036571E-01  0.23578920741E-01  0.00000000000E+00 0.  1.
     999901    1    3    3    0    0  0.97516320773E-01 -0.50321915724E-01  0.10096088307E+00  0.89254402016E+00  0.88000000000E+00 0. -1.
        -11    1    4    4    0    0 -0.28044772235E-01  0.18982807132E-01 -0.21898766369E-01  0.40332038205E-01  0.51100000000E-03 0. -1.
         11    1    4    4    0    0 -0.51415818471E-01  0.21694501022E-01 -0.67360080129E-01  0.87475020890E-01  0.51100000000E-03 0.  1.
</event>
<event>
 8    1  0.1145101E+005  0.1043930E+01  0.7957747E-01            NaN
         13   -1    0    0    0    0  0.00000000000E+00  0.00000000000E+00  0.74505805969E-08  0.10566000000E+00  0.10566000000E+00 0. -1.
     999900   -1    0    0    0    0 -0.00000000000E+00 -0.00000000000E+00 -0.74505805969E-08  0.93827000000E+00  0.93827000000E+00 0. -1.
     999902    2    1    2    0    0  0.77870597737E-02 -0.12753638230E-02  0.22494974021E-01  0.10200911932E+01  0.10198126072E+01 0.  0.
     999903    2    3    3    0    0 -0.60864812974E-01  0.11260904673E+00  0.12402444043E-01  0.13004366765E+00  0.19292796929E-01 0.  0.
         14    1    1    2    0    0 -0.77870597737E-02  0.12753638230E-02 -0.22494974021E-01  0.23838806787E-01  0.00000000000E+00 0.  1.
     999901    1    3    3    0    0  0.68651872748E-01 -0.11388441056E+00  0.10092529978E-01  0.89004752556E+00  0.88000000000E+00 0.  1.
        -11    1    4    4    0    0 -0.22336598590E-01  0.35260753827E-01  0.12687370155E-01  0.43628830829E-01  0.51100000000E-03 0.  1.
         11    1    4    4    0    0 -0.38528214384E-01  0.77348292906E-01 -0.28492611263E-03  0.86414836822E-01  0.51100000000E-03 0. -1.
</event>
<event>
 8    1  0.1145101E+005  0.1043930E+01  0.7957747E-01            NaN
         13   -1    0    0    0    0  0.00000000000E+00  0.00000000000E+00  0.74505805969E-08  0.10566000000E+00  0.10566000000E+00 0. -1.
     999900   -1    0    0    0    0 -0.00000000000E+00 -0.00000000000E+00 -0.74505805969E-08  0.93827000000E+00  0.93827000000E+00 0. -1.
     999902    2    1    2    0    0 -0.18992651513E-01 -0.73565216100E-02 -0.44291491392E-03  0.10235575825E+01  0.10233548208E+01 0.  0.
     999903    2    3    3    0    0 -0.12301752574E+00  0.40668080994E-01  0.35718795164E-01  0.13539363017E+00  0.16382866458E-01 0.  0.
         14    1    1    2    0    0  0.18992651513E-01  0.73565216100E-02  0.44291491392E-03  0.20372417512E-01  0.00000000000E+00 0.  1.
     999901    1    3    3    0    0  0.10402487423E+00 -0.48024602604E-01 -0.36161710078E-01  0.88816395231E+00  0.88000000000E+00 0. -1.
        -11    1    4    4    0    0 -0.88566633133E-01  0.35438371654E-01  0.21710292539E-01  0.97834168945E-01  0.51100000000E-03 0. -1.
         11    1    4    4    0    0 -0.34450892605E-01  0.52297093409E-02  0.14008502625E-01  0.37559461230E-01  0.51100000000E-03 0.  1.
</event>
<event>
 8    1  0.1145101E+005  0.1043930E+01  0.7957747E-01            NaN
         13   -1    0    0    0    0  0.00000000000E+00  0.00000000000E+00  0.74505805969E-08  0.10566000000E+00  0.10566000000E+00 0. -1.
     999900   -1    0    0    0    0 -0.00000000000E+00 -0.00000000000E+00 -0.74505805969E-08  0.93827000000E+00  0.93827000000E+00 0.  1.
     999902    2    1    2    0    0  0.68174355579E-03 -0.17225152324E-01  0.16812765763E-01  0.10198501383E+01  0.10195658217E+01 0.  0.
     999903    2    3    3    0    0  0.37656764213E-01 -0.56094025102E-01 -0.10898993773E+00  0.12928612509E+00  0.16477987464E-01 0.  0.
         14    1    1    2    0    0 -0.68174355579E-03  0.17225152324E-01 -0.16812765763E-01  0.24079861700E-01  0.00000000000E+00 0.  1.
     999901    1    3    3    0    0 -0.36975020658E-01  0.38868872777E-01  0.12580270349E+00  0.89056401321E+00  0.88000000000E+00 0. -1.
        -11    1    4    4    0    0  0.13206512425E-01 -0.23908166588E-01 -0.58846972452E-01  0.64878653560E-01  0.51100000000E-03 0. -1.
         11    1    4    4    0    0  0.24450251788E-01 -0.32185858513E-01 -0.50142965277E-01  0.64407471527E-01  0.51100000000E-03 0.  1.
</event>
<event>
 8    1  0.1145101E+005  0.1043930E+01  0.7957747E-01            NaN
         13   -1    0    0    0    0  0.00000000000E+00  0.00000000000E+00  0.74505805969E-08  0.10566000000E+00  0.10566000000E+00 0. -1.
     999900   -1    0    0    0    0 -0.00000000000E+00 -0.00000000000E+00 -0.74505805969E-08  0.93827000000E+00  0.93827000000E+00 0.  1.
     999902    2    1    2    0    0  0.26404990305E-01 -0.30738482470E-02 -0.62036199586E-02  0.10166324368E+01  0.10162658877E+01 0.  0.
     999903    2    3    3    0    0  0.65212669898E-01 -0.10610133807E-02  0.10860936760E+00  0.12832387013E+00  0.20425544108E-01 0.  0.
         14    1    1    2    0    0 -0.26404990305E-01  0.30738482470E-02  0.62036199586E-02  0.27297563200E-01  0.00000000000E+00 0.  1.
     999901    1    3    3    0    0 -0.38807679592E-01 -0.20128348663E-02 -0.11481298755E+00  0.88830856667E+00  0.88000000000E+00 0.  1.
        -11    1    4    4    0    0  0.38481038368E-01  0.86847137289E-02  0.70121309885E-01  0.80457900715E-01  0.51100000000E-03 0.  1.
         11    1    4    4    0    0  0.26731631530E-01 -0.97457271095E-02  0.38488057711E-01  0.47865969420E-01  0.51100000000E-03 0. -1.
</event>
<event>
 8    1  0.1145101E+005  0.1043930E+01  0.7957747E-01            NaN
         13   -1    0    0    0    0  0.00000000000E+00  0.00000000000E+00  0.74505805969E-08  0.10566000000E+00  0.10566000000E+00 0.  1.
     999900   -1    0    0    0    0 -0.00000000000E+00 -0.00000000000E+00 -0.74505805969E-08  0.93827000000E+00  0.93827000000E+00 0.  1.
     999902    2    1    2    0    0  0.22751872882E-01 -0.62832130634E-02 -0.40946267720E-02  0.10199739474E+01  0.10196925816E+01 0.  0.
     999903    2    3    3    0    0  0.92941631772E-01  0.78522621908E-01 -0.47032087277E-01  0.13207628587E+00  0.20692486269E-01 0.  0.
         14    1    1    2    0    0 -0.22751872882E-01  0.62832130634E-02  0.40946267720E-02  0.23956052564E-01  0.00000000000E+00 0. -1.
     999901    1    3    3    0    0 -0.70189758890E-01 -0.84805834972E-01  0.42937460505E-01  0.88789766157E+00  0.88000000000E+00 0. -1.
        -11    1    4    4    0    0  0.54992251574E-01  0.48358260159E-01 -0.38888572450E-01  0.82917134821E-01  0.51100000000E-03 0.  1.
         11    1    4    4    0    0  0.37949380198E-01  0.30164361749E-01 -0.81435148268E-02  0.49159151050E-01  0.51100000000E-03 0. -1.
</event>
<event>
 8    1  0.1145101E+005  0.1043930E+01  0.7957747E-01            NaN
         13   -1    0    0    0    0  0.00000000000E+00  0.00000000000E+00  0.74505805969E-08  0.10566000000E+00  0.10566000000E+00 0. -1.
     999900   -1    0    0    0    0 -0.00000000000E+00 -0.00000000000E+00 -0.74505805969E-08  0.93827000000E+00  0.93827000000E+00 0.  1.
     999902    2    1    2    0    0  0.14144644192E-01  0.18060683726E-01 -0.64395451349E-02  0.10201029776E+01  0.10198246702E+01 0.  0.
     999903    2    3    3    0    0  0.12530475332E+00  0.38087440988E-01 -0.76998860023E-02  0.13288303341E+00  0.21134757141E-01 0.  0.
         14    1    1    2    0    0 -0.14144644192E-01 -0.18060683726E-01  0.64395451349E-02  0.23827022422E-01  0.00000000000E+00 0.  1.
     999901    1    3    3    0    0 -0.11116010913E+00 -0.20026757262E-01  0.12603408674E-02  0.88721994417E+00  0.88000000000E+00 0.  1.
        -11    1    4    4    0    0  0.13911604900E-01  0.96811425996E-02 -0.57583694503E-02  0.17907462485E-01  0.51100000000E-03 0.  1.
         11    1    4    4    0    0  0.11139314842E+00  0.28406298388E-01 -0.19415165520E-02  0.11497557093E+00  0.51100000000E-03 0. -1.
</event>
<event>
 8    1  0.1145101E+005  0.1043930E+01  0.7957747E-01            NaN
         13   -1    0    0    0    0  0.00000000000E+00  0.00000000000E+00  0.74505805969E-08  0.10566000000E+00  0.10566000000E+00 0. -1.
     999900   -1    0    0    0    0 -0.00000000000E+00 -0.00000000000E+00 -0.74505805969E-08  0.93827000000E+00  0.93827000000E+00 0.  1.
     999902    2    1    2    0    0  0.60201218071E-02 -0.22473768953E-01  0.41597227326E-02  0.10202949529E+01  0.10200211642E+01 0.  0.
     999903    2    3    3    0    0  0.55968874968E-01 -0.39347708329E-01 -0.11035345332E+00  0.13131077124E+00  0.19592775900E-01 0.  0.
         14    1    1    2    0    0 -0.60201218071E-02  0.22473768953E-01 -0.41597227326E-02  0.23635047086E-01  0.00000000000E+00 0.  1.
     999901    1    3    3    0    0 -0.49948753161E-01  0.16873939376E-01  0.11451317606E+00  0.88898418167E+00  0.88000000000E+00 0. -1.
        -11    1    4    4    0    0  0.39595019879E-01 -0.33796735171E-01 -0.68607592220E-01  0.86123444768E-01  0.51100000000E-03 0. -1.
         11    1    4    4    0    0  0.16373855089E-01 -0.55509731581E-02 -0.41745861105E-01  0.45187326474E-01  0.51100000000E-03 0.  1.
</event>
<event>
 8    1  0.1145101E+005  0.1043930E+01  0.7957747E-01            NaN
         13   -1    0    0    0    0  0.00000000000E+00  0.00000000000E+00  0.74505805969E-08  0.10566000000E+00  0.10566000000E+00 0.  1.
     999900   -1    0    0    0    0 -0.00000000000E+00 -0.00000000000E+00 -0.74505805969E-08  0.93827000000E+00  0.93827000000E+00 0. -1.
     999902    2    1    2    0    0  0.59084876724E-02  0.16192225144E-01  0.15912154951E-01  0.10204716314E+01  0.10202019680E+01 0.  0.
     999903    2    3    3    0    0 -0.12535230903E+00  0.51398786067E-02 -0.24873532819E-01  0.12973316057E+00  0.21734318097E-01 0.  0.
         14    1    1    2    0    0 -0.59084876724E-02 -0.16192225144E-01 -0.15912154951E-01  0.23458368589E-01  0.00000000000E+00 0. -1.
     999901    1    3    3    0    0  0.13126079671E+00  0.11052346537E-01  0.40785687770E-01  0.89073847084E+00  0.88000000000E+00 0.  1.
        -11    1    4    4    0    0 -0.12015133270E-01  0.19204891167E-04 -0.93270120779E-02  0.15219003635E-01  0.51100000000E-03 0. -1.
         11    1    4    4    0    0 -0.11333717576E+00  0.51206737155E-02 -0.15546520741E-01  0.11451415693E+00  0.51100000000E-03 0.  1.
</event>
<event>
 8    1  0.1145101E+005  0.1043930E+01  0.7957747E-01            NaN
         13   -1    0    0    0    0  0.00000000000E+00  0.00000000000E+00  0.74505805969E-08  0.10566000000E+00  0.10566000000E+00 0. -1.
     999900   -1    0    0    0    0 -0.00000000000E+00 -0.00000000000E+00 -0.74505805969E-08  0.93827000000E+00  0.93827000000E+00 0. -1.
     999902    2    1    2    0    0  0.13552270717E-01  0.72031936065E-02  0.14758146108E-01  0.10226379142E+01  0.10224162316E+01 0.  0.
     999903    2    3    3    0    0  0.32011778278E-01  0.26816240295E-01 -0.12299174721E+00  0.13151477003E+00  0.20622806848E-01 0.  0.
         14    1    1    2    0    0 -0.13552270717E-01 -0.72031936065E-02 -0.14758146108E-01  0.21292085766E-01  0.00000000000E+00 0. -1.
     999901    1    3    3    0    0 -0.18459507560E-01 -0.19613046688E-01  0.13774989332E+00  0.89112314420E+00  0.88000000000E+00 0.  1.
        -11    1    4    4    0    0  0.24596553655E-01  0.20172026917E-01 -0.11302659567E+00  0.11741879565E+00  0.51100000000E-03 0.  1.
         11    1    4    4    0    0  0.74152246222E-02  0.66442133779E-02 -0.99651515455E-02  0.14095974387E-01  0.51100000000E-03 0. -1.
</event>
<event>
 8    1  0.1199602E+005  0.1043930E+01  0.7957747E-01            NaN
         13   -1    0    0    0    0  0.00000000000E+00  0.00000000000E+00  0.74505805969E-08  0.10566000000E+00  0.10566000000E+00 0.  1.
     999900   -1    0    0    0    0 -0.00000000000E+00 -0.00000000000E+00 -0.74505805969E-08  0.93827000000E+00  0.93827000000E+00 0. -1.
     999902    2    1    2    0    0 -0.96624159536E-02  0.56158676993E-02 -0.21342884560E-01  0.10198381140E+01  0.10195535100E+01 0.  0.
     999903    2    3    3    0    0  0.30653025645E-01 -0.55197402577E-01  0.10868718782E+00  0.12729600940E+00  0.20124810098E-01 0.  0.
         14    1    1    2    0    0  0.96624159536E-02 -0.56158676993E-02  0.21342884560E-01  0.24091886049E-01  0.00000000000E+00 0.  1.
     999901    1    3    3    0    0 -0.40315441598E-01  0.60813270277E-01 -0.13003007238E+00  0.89254210455E+00  0.88000000000E+00 0. -1.
        -11    1    4    4    0    0  0.18846094664E-01 -0.46772522182E-01  0.72566622351E-01  0.88368659127E-01  0.51100000000E-03 0. -1.
         11    1    4    4    0    0  0.11806930981E-01 -0.84248803955E-02  0.36120565465E-01  0.38927350274E-01  0.51100000000E-03 0.  1.
</event>
<event>
 8    1  0.1145101E+005  0.1043930E+01  0.7957747E-01            NaN
         13   -1    0    0    0    0  0.00000000000E+00  0.00000000000E+00  0.74505805969E-08  0.10566000000E+00  0.10566000000E+00 0.  1.
     999900   -1    0    0    0    0 -0.00000000000E+00 -0.00000000000E+00 -0.74505805969E-08  0.93827000000E+00  0.93827000000E+00 0.  1.
     999902    2    1    2    0    0 -0.75962424546E-02  0.14429521761E-01 -0.17664132818E-01  0.10198897091E+01  0.10196063374E+01 0.  0.
     999903    2    3    3    0    0 -0.10078379521E-01  0.92265741402E-01 -0.93366882364E-01  0.13321302374E+00  0.20341932110E-01 0.  0.
         14    1    1    2    0    0  0.75962424546E-02 -0.14429521761E-01  0.17664132818E-01  0.24040290886E-01  0.00000000000E+00 0.  1.
     999901    1    3    3    0    0  0.24821370664E-02 -0.77836219642E-01  0.75702749547E-01  0.88667668537E+00  0.88000000000E+00 0. -1.
        -11    1    4    4    0    0 -0.13571057819E-01  0.63527881131E-01 -0.54816731040E-01  0.85000590670E-01  0.51100000000E-03 0. -1.
         11    1    4    4    0    0  0.34926782980E-02  0.28737860271E-01 -0.38550151324E-01  0.48212433072E-01  0.51100000000E-03 0.  1.
</event>
<event>
 8    1  0.1145101E+005  0.1043930E+01  0.7957747E-01            NaN
         13   -1    0    0    0    0  0.00000000000E+00  0.00000000000E+00  0.74505805969E-08  0.10566000000E+00  0.10566000000E+00 0.  1.
     999900   -1    0    0    0    0 -0.00000000000E+00 -0.00000000000E+00 -0.74505805969E-08  0.93827000000E+00  0.93827000000E+00 0. -1.
     999902    2    1    2    0    0  0.12862246424E-02 -0.23335446254E-01 -0.68910013726E-03  0.10205489760E+01  0.10202811084E+01 0.  0.
     999903    2    3    3    0    0 -0.61766560566E-01  0.11017764811E+00 -0.88228914424E-02  0.12821072247E+00  0.20147550629E-01 0.  0.
         14    1    1    2    0    0 -0.12862246424E-02  0.23335446254E-01  0.68910013726E-03  0.23381024030E-01  0.00000000000E+00 0.  1.
     999901    1    3    3    0    0  0.63052785208E-01 -0.13351309437E+00  0.81337913052E-02  0.89233825350E+00  0.88000000000E+00 0. -1.
        -11    1    4    4    0    0 -0.39917451845E-01  0.84939801543E-01 -0.72030587401E-03  0.93856021701E-01  0.51100000000E-03 0. -1.
         11    1    4    4    0    0 -0.21849108721E-01  0.25237846569E-01 -0.81025855684E-02  0.34354700774E-01  0.51100000000E-03 0.  1.
</event>
<event>
 8    1  0.1145101E+005  0.1043930E+01  0.7957747E-01            NaN
         13   -1    0    0    0    0  0.00000000000E+00  0.00000000000E+00  0.74505805969E-08  0.10566000000E+00  0.10566000000E+00 0.  1.
     999900   -1    0    0    0    0 -0.00000000000E+00 -0.00000000000E+00 -0.74505805969E-08  0.93827000000E+00  0.93827000000E+00 0. -1.
     999902    2    1    2    0    0  0.13720826071E-01 -0.14568555627E-01 -0.12570239307E-01  0.10202970823E+01  0.10200233436E+01 0.  0.
     999903    2    3    3    0    0 -0.48927495820E-01  0.84823148779E-01  0.79564745706E-01  0.12772082307E+00  0.19829106645E-01 0.  0.
         14    1    1    2    0    0 -0.13720826071E-01  0.14568555627E-01  0.12570239307E-01  0.23632917665E-01  0.00000000000E+00 0.  1.
     999901    1    3    3    0    0  0.62648321890E-01 -0.99391704406E-01 -0.92134985013E-01  0.89257625927E+00  0.88000000000E+00 0.  1.
        -11    1    4    4    0    0 -0.23332910668E-01  0.51671508379E-01  0.55862125516E-01  0.79594017907E-01  0.51100000000E-03 0. -1.
         11    1    4    4    0    0 -0.25594585151E-01  0.33151640400E-01  0.23702620190E-01  0.48126805163E-01  0.51100000000E-03 0.  1.
</event>
<event>
 8    1  0.1145101E+005  0.1043930E+01  0.7957747E-01            NaN
         13   -1    0    0    0    0  0.00000000000E+00  0.00000000000E+00  0.74505805969E-08  0.10566000000E+00  0.10566000000E+00 0. -1.
     999900   -1    0    0    0    0 -0.00000000000E+00 -0.00000000000E+00 -0.74505805969E-08  0.93827000000E+00  0.93827000000E+00 0. -1.
     999902    2    1    2    0    0  0.15279867397E-01  0.16244558134E-01 -0.61315007724E-02  0.10208008989E+01  0.10205388380E+01 0.  0.
     999903    2    3    3    0    0 -0.13172369984E-01  0.89631968414E-01  0.93451880905E-01  0.13169342973E+00  0.20062509731E-01 0.  0.
         14    1    1    2    0    0 -0.15279867397E-01 -0.16244558134E-01  0.61315007724E-02  0.23129101115E-01  0.00000000000E+00 0.  1.
     999901    1    3    3    0    0  0.28452237381E-01 -0.73387410280E-01 -0.99583381678E-01  0.88910746915E+00  0.88000000000E+00 0. -1.
        -11    1    4    4    0    0  0.36084747040E-02  0.25524213717E-01  0.33952067751E-01  0.42632271827E-01  0.51100000000E-03 0. -1.
         11    1    4    4    0    0 -0.16780844688E-01  0.64107754697E-01  0.59499813154E-01  0.89061157904E-01  0.51100000000E-03 0.  1.
</event>
<event>
 7    1  0.1145101E+005  0.1043930E+01  0.7957747E-01            NaN
         13   -1    0    0    0    0  0.00000000000E+00  0.00000000000E+00  0.74505805969E-08  0.10566000000E+00  0.10566000000E+00 0.  1.
     999900   -1    0    0    0    0 -0.00000000000E+00 -0.00000000000E+00 -0.74505805969E-08  0.93827000000E+00  0.93827000000E+00 0. -1.
     999903    2    1    2    0    0 -0.65424551903E-01  0.25613580322E-01 -0.77885961223E-01  0.10554327823E+00  0.11693294434E-01 0.  0.
         14    1    1    2    0    0 -0.36802519566E-01 -0.32839681463E-02 -0.27337562663E-01  0.45962508912E-01  0.00000000000E+00 0.  1.
     999901    1    1    2    0    0  0.10222707147E+00 -0.22329612175E-01  0.10522352389E+00  0.89242421286E+00  0.88000000000E+00 0.  1.
        -11    1    3    3    0    0 -0.28440537945E-01  0.14255660666E-01 -0.42653861336E-01  0.53213730065E-01  0.51100000000E-03 0. -1.
         11    1    3    3    0    0 -0.36984013958E-01  0.11357919656E-01 -0.35232099887E-01  0.52329548162E-01  0.51100000000E-03 0.  1.
</event>
<event>
 8    1  0.1145101E+005  0.1043930E+01  0.7957747E-01            NaN
         13   -1    0    0    0    0  0.00000000000E+00  0.00000000000E+00  0.74505805969E-08  0.10566000000E+00  0.10566000000E+00 0.  1.
     999900   -1    0    0    0    0 -0.00000000000E+00 -0.00000000000E+00 -0.74505805969E-08  0.93827000000E+00  0.93827000000E+00 0.  1.
     999902    2    1    2    0    0 -0.35010068396E-02 -0.23092451460E-01 -0.62379458634E-02  0.10197550061E+01  0.10194684115E+01 0.  0.
     999903    2    3    3    0    0 -0.12892846287E+00  0.69650087796E-03 -0.14474083894E-03  0.13052214110E+00  0.20321779364E-01 0.  0.
         14    1    1    2    0    0  0.35010068396E-02  0.23092451460E-01  0.62379458634E-02  0.24174993938E-01  0.00000000000E+00 0.  1.
     999901    1    3    3    0    0  0.12542745603E+00 -0.23788952338E-01 -0.60932050245E-02  0.88923286496E+00  0.88000000000E+00 0. -1.
        -11    1    4    4    0    0 -0.81677679771E-01  0.56041593031E-02 -0.84051872317E-02  0.82301629799E-01  0.51100000000E-03 0.  1.
         11    1    4    4    0    0 -0.47250783098E-01 -0.49076584252E-02  0.82604463927E-02  0.48220511301E-01  0.51100000000E-03 0. -1.
</event>
<event>
 8    1  0.1145101E+005  0.1043930E+01  0.7957747E-01            NaN
         13   -1    0    0    0    0  0.00000000000E+00  0.00000000000E+00  0.74505805969E-08  0.10566000000E+00  0.10566000000E+00 0. -1.
     999900   -1    0    0    0    0 -0.00000000000E+00 -0.00000000000E+00 -0.74505805969E-08  0.93827000000E+00  0.93827000000E+00 0.  1.
     999902    2    1    2    0    0  0.55296653879E-02  0.56573275484E-02  0.22148111778E-01  0.10204114667E+01  0.10201404021E+01 0.  0.
     999903    2    3    3    0    0 -0.21638862397E-01  0.12036025450E+00 -0.40048633562E-01  0.13037589127E+00  0.20955876166E-01 0.  0.
         14    1    1    2    0    0 -0.55296653879E-02 -0.56573275484E-02 -0.22148111778E-01  0.23518533322E-01  0.00000000000E+00 0.  1.
     999901    1    3    3    0    0  0.27168527785E-01 -0.11470292695E+00  0.62196745340E-01  0.89003557540E+00  0.88000000000E+00 0. -1.
        -11    1    4    4    0    0 -0.18841018533E-01  0.67869184998E-01 -0.14442836027E-01  0.71903177156E-01  0.51100000000E-03 0.  1.
         11    1    4    4    0    0 -0.27978438635E-02  0.52491069504E-01 -0.25605797536E-01  0.58472714119E-01  0.51100000000E-03 0. -1.
</event>
<event>
 8    1  0.1145101E+005  0.1043930E+01  0.7957747E-01            NaN
         13   -1    0    0    0    0  0.00000000000E+00  0.00000000000E+00  0.74505805969E-08  0.10566000000E+00  0.10566000000E+00 0. -1.
     999900   -1    0    0    0    0 -0.00000000000E+00 -0.00000000000E+00 -0.74505805969E-08  0.93827000000E+00  0.93827000000E+00 0.  1.
     999902    2    1    2    0    0  0.16178774838E-02 -0.45139032814E-03  0.28179942819E-01  0.10157000433E+01  0.10153076615E+01 0.  0.
     999903    2    3    3    0    0  0.12325944255E+00  0.19488025371E-01  0.61773435625E-02  0.12683651884E+00  0.21832764979E-01 0.  0.
         14    1    1    2    0    0 -0.16178774838E-02  0.45139032814E-03 -0.28179942819E-01  0.28229956749E-01  0.00000000000E+00 0.  1.
     999901    1    3    3    0    0 -0.12164156507E+00 -0.19939415699E-01  0.22002599256E-01  0.88886352441E+00  0.88000000000E+00 0.  1.
        -11    1    4    4    0    0  0.43701067142E-01  0.82506246456E-02 -0.81580066755E-02  0.45218030368E-01  0.51100000000E-03 0. -1.
         11    1    4    4    0    0  0.79558375413E-01  0.11237400726E-01  0.14335350238E-01  0.81618488474E-01  0.51100000000E-03 0.  1.
</event>
<event>
 8    1  0.1145101E+005  0.1043930E+01  0.7957747E-01            NaN
         13   -1    0    0    0    0  0.00000000000E+00  0.00000000000E+00  0.74505805969E-08  0.10566000000E+00  0.10566000000E+00 0. -1.
     999900   -1    0    0    0    0 -0.00000000000E+00 -0.00000000000E+00 -0.74505805969E-08  0.93827000000E+00  0.93827000000E+00 0. -1.
     999902    2    1    2    0    0  0.20016642931E-01  0.96063409216E-02 -0.82510763636E-02  0.10202439695E+01  0.10199689845E+01 0.  0.
     999903    2    3    3    0    0 -0.12412702255E+00  0.22791798030E-01 -0.11736314470E-01  0.12841248347E+00  0.20616523659E-01 0.  0.
         14    1    1    2    0    0 -0.20016642931E-01 -0.96063409216E-02  0.82510763636E-02  0.23686030509E-01  0.00000000000E+00 0.  1.
     999901    1    3    3    0    0  0.14414366548E+00 -0.13185457109E-01  0.34852381063E-02  0.89183148602E+00  0.88000000000E+00 0.  1.
        -11    1    4    4    0    0 -0.92442637564E-01  0.10708255543E-01 -0.18265294710E-02  0.93080101565E-01  0.51100000000E-03 0.  1.
         11    1    4    4    0    0 -0.31684384989E-01  0.12083542487E-01 -0.99097849989E-02  0.35332381902E-01  0.51100000000E-03 0. -1.
</event>
<event>
 8    1  0.1145101E+005  0.1043930E+01  0.7957747E-01            NaN
         13   -1    0    0    0    0  0.00000000000E+00  0.00000000000E+00  0.74505805969E-08  0.10566000000E+00  0.10566000000E+00 0. -1.
     999900   -1    0    0    0    0 -0.00000000000E+00 -0.00000000000E+00 -0.74505805969E-08  0.93827000000E+00  0.93827000000E+00 0. -1.
     999902    2    1    2    0    0  0.63975231405E-03  0.23565483489E-01  0.53151188387E-02  0.10197640781E+01  0.10194777011E+01 0.  0.
     999903    2    3    3    0    0 -0.57375166990E-01 -0.86174674344E-01  0.73307556188E-01  0.12845515033E+00  0.20217407532E-01 0.  0.
         14    1    1    2    0    0 -0.63975231405E-03 -0.23565483489E-01 -0.53151188387E-02  0.24165921943E-01  0.00000000000E+00 0. -1.
     999901    1    3    3    0    0  0.58014919304E-01  0.10974015783E+00 -0.67992437349E-01  0.89130892772E+00  0.88000000000E+00 0. -1.
        -11    1    4    4    0    0 -0.39023848341E-01 -0.44266240876E-01  0.33816640095E-01  0.68016079635E-01  0.51100000000E-03 0. -1.
         11    1    4    4    0    0 -0.18351318649E-01 -0.41908433468E-01  0.39490916093E-01  0.60439070698E-01  0.51100000000E-03 0.  1.
</event>
<event>
 8    1  0.1145101E+005  0.1043930E+01  0.7957747E-01            NaN
         13   -1    0    0    0    0  0.00000000000E+00  0.00000000000E+00  0.74505805969E-08  0.10566000000E+00  0.10566000000E+00 0. -1.
     999900   -1    0    0    0    0 -0.00000000000E+00 -0.00000000000E+00 -0.74505805969E-08  0.93827000000E+00  0.93827000000E+00 0. -1.
     999902    2    1    2    0    0  0.24352708427E-01  0.47260487959E-03  0.69293104134E-02  0.10186062344E+01  0.10182913962E+01 0.  0.
     999903    2    3    3    0    0  0.25160664148E-01 -0.92878112142E-01 -0.83663247950E-01  0.12904340871E+00  0.19830772503E-01 0.  0.
         14    1    1    2    0    0 -0.24352708427E-01 -0.47260487959E-03 -0.69293104134E-02  0.25323765635E-01  0.00000000000E+00 0. -1.
     999901    1    3    3    0    0 -0.80795572071E-03  0.93350717021E-01  0.90592558363E-01  0.88956282566E+00  0.88000000000E+00 0.  1.
        -11    1    4    4    0    0  0.91188208967E-02 -0.10250276594E-01 -0.15720514347E-01  0.20871433998E-01  0.51100000000E-03 0.  1.
         11    1    4    4    0    0  0.16041843251E-01 -0.82627835548E-01 -0.67942733603E-01  0.10817197471E+00  0.51100000000E-03 0. -1.
</event>
<event>
 8    1  0.1145101E+005  0.1043930E+01  0.7957747E-01            NaN
         13   -1    0    0    0    0  0.00000000000E+00  0.00000000000E+00  0.74505805969E-08  0.10566000000E+00  0.10566000000E+00 0.  1.
     999900   -1    0    0    0    0 -0.00000000000E+00 -0.00000000000E+00 -0.74505805969E-08  0.93827000000E+00  0.93827000000E+00 0.  1.
     999902    2    1    2    0    0  0.57282064757E-02 -0.14894603646E-01  0.18145518614E-01  0.10197655341E+01  0.10194791921E+01 0.  0.
     999903    2    3    3    0    0 -0.44114971180E-01  0.10945039310E+00  0.48488968941E-01  0.12911030025E+00  0.19818433094E-01 0.  0.
         14    1    1    2    0    0 -0.57282064757E-02  0.14894603646E-01 -0.18145518614E-01  0.24164465915E-01  0.00000000000E+00 0. -1.
     999901    1    3    3    0    0  0.49843177656E-01 -0.12434499675E+00 -0.30343450327E-01  0.89065523383E+00  0.88000000000E+00 0. -1.
        -11    1    4    4    0    0 -0.22770799783E-01  0.76372653198E-01  0.26332654659E-01  0.83934267744E-01  0.51100000000E-03 0.  1.
         11    1    4    4    0    0 -0.21344171397E-01  0.33077739902E-01  0.22156314283E-01  0.45176032509E-01  0.51100000000E-03 0. -1.
</event>
<event>
 8    1  0.1145101E+005  0.1043930E+01  0.7957747E-01            NaN
         13   -1    0    0    0    0  0.00000000000E+00  0.00000000000E+00  0.74505805969E-08  0.10566000000E+00  0.10566000000E+00 0.  1.
     999900   -1    0    0    0    0 -0.00000000000E+00 -0.00000000000E+00 -0.74505805969E-08  0.93827000000E+00  0.93827000000E+00 0. -1.
     999902    2    1    2    0    0  0.16807568881E-01  0.18018752396E-03 -0.16327116188E-01  0.10204970838E+01  0.10202280120E+01 0.  0.
     999903    2    3    3    0    0 -0.46114096977E-01  0.11546243117E+00 -0.34513937639E-01  0.13056456263E+00  0.19945179177E-01 0.  0.
         14    1    1    2    0    0 -0.16807568881E-01 -0.18018752396E-03  0.16327116188E-01  0.23432916214E-01  0.00000000000E+00 0. -1.
     999901    1    3    3    0    0  0.62921665858E-01 -0.11528224365E+00  0.18186821451E-01  0.88993252115E+00  0.88000000000E+00 0. -1.
        -11    1    4    4    0    0 -0.19517195737E-01  0.73302262999E-01 -0.24513596010E-01  0.79720262171E-01  0.51100000000E-03 0. -1.
         11    1    4    4    0    0 -0.26596901240E-01  0.42160168170E-01 -0.10000341629E-01  0.50844300461E-01  0.51100000000E-03 0.  1.
</event>
<event>
 8    1  0.1145101E+005  0.1043930E+01  0.7957747E-01            NaN
         13   -1    0    0    0    0  0.00000000000E+00  0.00000000000E+00  0.74505805969E-08  0.10566000000E+00  0.10566000000E+00 0. -1.
     999900   -1    0    0    0    0 -0.00000000000E+00 -0.00000000000E+00 -0.74505805969E-08  0.93827000000E+00  0.93827000000E+00 0.  1.
     999902    2    1    2    0    0 -0.10745669376E-01 -0.10728140316E-01  0.19091378869E-01  0.10195364936E+01  0.10192446314E+01 0.  0.
     999903    2    3    3    0    0 -0.44253380963E-01 -0.97675691362E-01 -0.70428929203E-01  0.13010042010E+00  0.21609785571E-01 0.  0.
         14    1    1    2    0    0  0.10745669376E-01  0.10728140316E-01 -0.19091378869E-01  0.24393506351E-01  0.00000000000E+00 0.  1.
     999901    1    3    3    0    0  0.33507711587E-01  0.86947551047E-01  0.89520308072E-01  0.88943607355E+00  0.88000000000E+00 0. -1.
        -11    1    4    4    0    0 -0.17877226367E-01 -0.64828481346E-01 -0.42492468605E-01  0.79549973132E-01  0.51100000000E-03 0. -1.
         11    1    4    4    0    0 -0.26376154597E-01 -0.32847210016E-01 -0.27936460598E-01  0.50550446970E-01  0.51100000000E-03 0.  1.
</event>
<event>
 8    1  0.1145101E+005  0.1043930E+01  0.7957747E-01            NaN
         13   -1    0    0    0    0  0.00000000000E+00  0.00000000000E+00  0.74505805969E-08  0.10566000000E+00  0.10566000000E+00 0. -1.
     999900   -1    0    0    0    0 -0.00000000000E+00 -0.00000000000E+00 -0.74505805969E-08  0.93827000000E+00  0.93827000000E+00 0.  1.
     999902    2    1    2    0    0  0.20788478167E-01  0.94263333702E-02  0.48173227403E-02  0.10206014085E+01  0.10203347547E+01 0.  0.
     999903    2    3    3    0    0  0.29222842802E-01  0.88979166565E-01 -0.90588140151E-01  0.13183710104E+00  0.20088390941E-01 0.  0.
         14    1    1    2    0    0 -0.20788478167E-01 -0.94263333702E-02 -0.48173227403E-02  0.23328591550E-01  0.00000000000E+00 0. -1.
     999901    1    3    3    0    0 -0.84343646351E-02 -0.79552833195E-01  0.95405462892E-01  0.88876430741E+00  0.88000000000E+00 0. -1.
        -11    1    4    4    0    0  0.21240488738E-01  0.34923697232E-01 -0.33978553980E-01  0.53156619924E-01  0.51100000000E-03 0.  1.
         11    1    4    4    0    0  0.79823540647E-02  0.54055469333E-01 -0.56609586172E-01  0.78680481117E-01  0.51100000000E-03 0. -1.
</event>
<event>
 7    1  0.1145101E+005  0.1043930E+01  0.7957747E-01            NaN
         13   -1    0    0    0    0  0.00000000000E+00  0.00000000000E+00  0.74505805969E-08  0.10566000000E+00  0.10566000000E+00 0. -1.
     999900   -1    0    0    0    0 -0.00000000000E+00 -0.00000000000E+00 -0.74505805969E-08  0.93827000000E+00  0.93827000000E+00 0. -1.
     999902    2    1    2    0    0 -0.76828381901E-02  0.54755014894E-02  0.20712601879E-01  0.10211699693E+01  0.10209162979E+01 0.  0.
         14    1    1    2    0    0  0.76828381901E-02 -0.54755014894E-02 -0.20712601879E-01  0.22760030664E-01  0.00000000000E+00 0.  1.
     999901    1    3    3    0    0  0.67649827012E-01  0.99970654931E-01  0.56356845156E-01  0.89002624958E+00  0.88000000000E+00 0. -1.
        -11    1    3    3    0    0 -0.35064206994E-01 -0.17310379283E-01 -0.12579792387E-01  0.41081140936E-01  0.51100000000E-03 0.  1.
         11    1    3    3    0    0 -0.40268458207E-01 -0.77184774158E-01 -0.23064450890E-01  0.90062578822E-01  0.51100000000E-03 0. -1.
</event>
<event>
 8    1  0.1145101E+005  0.1043930E+01  0.7957747E-01            NaN
         13   -1    0    0    0    0  0.00000000000E+00  0.00000000000E+00  0.74505805969E-08  0.10566000000E+00  0.10566000000E+00 0.  1.
     999900   -1    0    0    0    0 -0.00000000000E+00 -0.00000000000E+00 -0.74505805969E-08  0.93827000000E+00  0.93827000000E+00 0.  1.
     999902    2    1    2    0    0  0.21917798900E-01  0.57934138466E-02  0.79812794492E-02  0.10198955586E+01  0.10196123263E+01 0.  0.
     999903    2    3    3    0    0  0.12282410420E+00 -0.33673420265E-01  0.32527702828E-01  0.13291064307E+00  0.19685725416E-01 0.  0.
         14    1    1    2    0    0 -0.21917798900E-01 -0.57934138466E-02 -0.79812794492E-02  0.24034441417E-01  0.00000000000E+00 0.  1.
     999901    1    3    3    0    0 -0.10090630530E+00  0.39466834112E-01 -0.24546423379E-01  0.88698491551E+00  0.88000000000E+00 0. -1.
        -11    1    4    4    0    0  0.10064064407E-01 -0.33637439249E-04  0.76138130039E-02  0.12630035365E-01  0.51100000000E-03 0.  1.
         11    1    4    4    0    0  0.11276003979E+00 -0.33639782826E-01  0.24913889824E-01  0.12028060771E+00  0.51100000000E-03 0. -1.
</event>
<event>
 8    1  0.1145101E+005  0.1043930E+01  0.7957747E-01            NaN
         13   -1    0    0    0    0  0.00000000000E+00  0.00000000000E+00  0.74505805969E-08  0.10566000000E+00  0.10566000000E+00 0. -1.
     999900   -1    0    0    0    0 -0.00000000000E+00 -0.00000000000E+00 -0.74505805969E-08  0.93827000000E+00  0.93827000000E+00 0.  1.
     999902    2    1    2    0    0  0.61910607244E-02  0.14819294471E-01  0.10370644631E-02  0.10278360190E+01  0.10277100105E+01 0.  0.
     999903    2    3    3    0    0  0.44819913912E-01  0.12091987822E+00 -0.47384707475E-01  0.13930116310E+00  0.23001345705E-01 0.  0.
         14    1    1    2    0    0 -0.61910607244E-02 -0.14819294471E-01 -0.10370644631E-02  0.16093980993E-01  0.00000000000E+00 0.  1.
     999901    1    3    3    0    0 -0.38628853188E-01 -0.10610058375E+00  0.48421771938E-01  0.88853485591E+00  0.88000000000E+00 0. -1.
        -11    1    4    4    0    0  0.43815104578E-01  0.11548717486E+00 -0.49887475013E-01  0.13321438448E+00  0.51100000000E-03 0. -1.
         11    1    4    4    0    0  0.10048093348E-02  0.54327033601E-02  0.25027675385E-02  0.60867786184E-02  0.51100000000E-03 0.  1.
</event>
<event>
 8    1  0.1243585E+005  0.1043930E+01  0.7957747E-01            NaN
         13   -1    0    0    0    0  0.00000000000E+00  0.00000000000E+00  0.74505805969E-08  0.10566000000E+00  0.10566000000E+00 0. -1.
     999900   -1    0    0    0    0 -0.00000000000E+00 -0.00000000000E+00 -0.74505805969E-08  0.93827000000E+00  0.93827000000E+00 0.  1.
     999902    2    1    2    0    0 -0.15590049234E-01 -0.10058093319E-01  0.13742887292E-01  0.10208414351E+01  0.10205803025E+01 0.  0.
     999903    2    3    3    0    0  0.18539432554E-01  0.61986516239E-02 -0.12590739701E+00  0.12902794276E+00  0.20332327685E-01 0.  0.
         14    1    1    2    0    0  0.15590049234E-01  0.10058093319E-01 -0.13742887292E-01  0.23088564864E-01  0.00000000000E+00 0.  1.
     999901    1    3    3    0    0 -0.34129481789E-01 -0.16256744943E-01  0.13965028430E+00  0.89181349238E+00  0.88000000000E+00 0. -1.
        -11    1    4    4    0    0  0.20054847541E-01  0.80652010858E-02 -0.74822974859E-01  0.77884421203E-01  0.51100000000E-03 0. -1.
         11    1    4    4    0    0 -0.15154149866E-02 -0.18665494620E-02 -0.51084422151E-01  0.51143521554E-01  0.51100000000E-03 0.  1.
</event>
<event>
 8    1  0.1145101E+005  0.1043930E+01  0.7957747E-01            NaN
         13   -1    0    0    0    0  0.00000000000E+00  0.00000000000E+00  0.74505805969E-08  0.10566000000E+00  0.10566000000E+00 0.  1.
     999900   -1    0    0    0    0 -0.00000000000E+00 -0.00000000000E+00 -0.74505805969E-08  0.93827000000E+00  0.93827000000E+00 0.  1.
     999902    2    1    2    0    0  0.97606030974E-02  0.12367197814E-01 -0.18071022570E-01  0.10199554549E+01  0.10196736494E+01 0.  0.
     999903    2    3    3    0    0  0.10102993984E+00  0.78822756622E-01  0.22897101647E-01  0.13179734945E+00  0.20644329820E-01 0.  0.
         14    1    1    2    0    0 -0.97606030974E-02 -0.12367197814E-01  0.18071022570E-01  0.23974545071E-01  0.00000000000E+00 0. -1.
     999901    1    3    3    0    0 -0.91269336739E-01 -0.66455558807E-01 -0.40968124218E-01  0.88815810548E+00  0.88000000000E+00 0.  1.
        -11    1    4    4    0    0  0.78221665406E-01  0.64106232778E-01  0.26129283609E-01  0.10445687437E+00  0.51100000000E-03 0.  1.
         11    1    4    4    0    0  0.22808274430E-01  0.14716523844E-01 -0.32321819613E-02  0.27340475083E-01  0.51100000000E-03 0. -1.
</event>
<event>
 8    1  0.1145101E+005  0.1043930E+01  0.7957747E-01            NaN
         13   -1    0    0    0    0  0.00000000000E+00  0.00000000000E+00  0.74505805969E-08  0.10566000000E+00  0.10566000000E+00 0.  1.
     999900   -1    0    0    0    0 -0.00000000000E+00 -0.00000000000E+00 -0.74505805969E-08  0.93827000000E+00  0.93827000000E+00 0.  1.
     999902    2    1    2    0    0  0.41820205404E-02 -0.14924045266E-01 -0.17299711052E-01  0.10207029377E+01  0.10204386265E+01 0.  0.
     999903    2    3    3    0    0  0.50514148899E-01  0.18880066366E-01  0.11542782300E+00  0.12890364275E+00  0.19606903082E-01 0.  0.
         14    1    1    2    0    0 -0.41820205404E-02  0.14924045266E-01  0.17299711052E-01  0.23227062350E-01  0.00000000000E+00 0. -1.
     999901    1    3    3    0    0 -0.46332128358E-01 -0.33804111632E-01 -0.13272753405E+00  0.89179929490E+00  0.88000000000E+00 0.  1.
        -11    1    4    4    0    0  0.71151881112E-02  0.91584087760E-02  0.36559636243E-01  0.38358447263E-01  0.51100000000E-03 0.  1.
         11    1    4    4    0    0  0.43398960788E-01  0.97216575900E-02  0.78868186754E-01  0.90545195492E-01  0.51100000000E-03 0. -1.
</event>
<event>
 8    1  0.1145101E+005  0.1043930E+01  0.7957747E-01            NaN
         13   -1    0    0    0    0  0.00000000000E+00  0.00000000000E+00  0.74505805969E-08  0.10566000000E+00  0.10566000000E+00 0. -1.
     999900   -1    0    0    0    0 -0.00000000000E+00 -0.00000000000E+00 -0.74505805969E-08  0.93827000000E+00  0.93827000000E+00 0. -1.
     999902    2    1    2    0    0  0.13990239925E-01 -0.12561444123E-01 -0.15372053684E-01  0.10196438573E+01  0.10193545895E+01 0.  0.
     999903    2    3    3    0    0  0.71770616030E-01 -0.10564828849E+00  0.26594237068E-01  0.13185733906E+00  0.19144770386E-01 0.  0.
         14    1    1    2    0    0 -0.13990239925E-01  0.12561444123E-01  0.15372053684E-01  0.24286142676E-01  0.00000000000E+00 0. -1.
     999901    1    3    3    0    0 -0.57780376105E-01  0.93086844362E-01 -0.41966290751E-01  0.88778651827E+00  0.88000000000E+00 0. -1.
        -11    1    4    4    0    0  0.54293085049E-01 -0.72090515848E-01  0.10952320352E-01  0.90912023415E-01  0.51100000000E-03 0.  1.
         11    1    4    4    0    0  0.17477530981E-01 -0.33557772637E-01  0.15641916716E-01  0.40945315643E-01  0.51100000000E-03 0. -1.
</event>
<event>
 8    1  0.1145101E+005  0.1043930E+01  0.7957747E-01            NaN
         13   -1    0    0    0    0  0.00000000000E+00  0.00000000000E+00  0.74505805969E-08  0.10566000000E+00  0.10566000000E+00 0.  1.
     999900   -1    0    0    0    0 -0.00000000000E+00 -0.00000000000E+00 -0.74505805969E-08  0.93827000000E+00  0.93827000000E+00 0.  1.
     999902    2    1    2    0    0  0.18778207633E-01 -0.68493245505E-02 -0.14072263536E-01  0.10194848997E+01  0.10191917865E+01 0.  0.
     999903    2    3    3    0    0 -0.84309520084E-01 -0.78630726757E-01 -0.55648269451E-01  0.12959265138E+00  0.20165292772E-01 0.  0.
         14    1    1    2    0    0 -0.18778207633E-01  0.68493245505E-02  0.14072263536E-01  0.24445100321E-01  0.00000000000E+00 0.  1.
     999901    1    3    3    0    0  0.10308772772E+00  0.71781402206E-01  0.41576005916E-01  0.88989224830E+00  0.88000000000E+00 0.  1.
        -11    1    4    4    0    0 -0.74254262855E-02 -0.37729296252E-02 -0.98772367428E-02  0.12930308587E-01  0.51100000000E-03 0.  1.
         11    1    4    4    0    0 -0.76884093799E-01 -0.74857797131E-01 -0.45771032708E-01  0.11666234280E+00  0.51100000000E-03 0. -1.
</event>
<event>
 8    1  0.1145101E+005  0.1043930E+01  0.7957747E-01            NaN
         13   -1    0    0    0    0  0.00000000000E+00  0.00000000000E+00  0.74505805969E-08  0.10566000000E+00  0.10566000000E+00 0.  1.
     999900   -1    0    0    0    0 -0.00000000000E+00 -0.00000000000E+00 -0.74505805969E-08  0.93827000000E+00  0.93827000000E+00 0. -1.
     999902    2    1    2    0    0 -0.67845562361E-02  0.19968544048E-01  0.30876234940E-02  0.10226155360E+01  0.10223933823E+01 0.  0.
     999903    2    3    3    0    0  0.87032060089E-01  0.98974824166E-01  0.13403556606E-01  0.13404929301E+00  0.20468569171E-01 0.  0.
         14    1    1    2    0    0  0.67845562361E-02 -0.19968544048E-01 -0.30876234940E-02  0.21314463952E-01  0.00000000000E+00 0. -1.
     999901    1    3    3    0    0 -0.93816616325E-01 -0.79006280119E-01 -0.10315933112E-01  0.88856624304E+00  0.88000000000E+00 0.  1.
        -11    1    4    4    0    0  0.47754937735E-01  0.54578701886E-01  0.17579931079E-01  0.74623614730E-01  0.51100000000E-03 0.  1.
         11    1    4    4    0    0  0.39277122354E-01  0.44396122280E-01 -0.41763744727E-02  0.59425678277E-01  0.51100000000E-03 0. -1.
</event>
<event>
 8    1  0.1145101E+005  0.1043930E+01  0.7957747E-01            NaN
         13   -1    0    0    0    0  0.00000000000E+00  0.00000000000E+00  0.74505805969E-08  0.10566000000E+00  0.10566000000E+00 0. -1.
     999900   -1    0    0    0    0 -0.00000000000E+00 -0.00000000000E+00 -0.74505805969E-08  0.93827000000E+00  0.93827000000E+00 0.  1.
     999902    2    1    2    0    0 -0.20586302434E-02 -0.23105602518E-01  0.19643774645E-02  0.10206498453E+01  0.10203843104E+01 0.  0.
     999903    2    3    3    0    0  0.60889756161E-01  0.10712838941E+00  0.30174666950E-01  0.12839471782E+00  0.19764584888E-01 0.  0.
         14    1    1    2    0    0  0.20586302434E-02  0.23105602518E-01 -0.19643774645E-02  0.23280154746E-01  0.00000000000E+00 0. -1.
     999901    1    3    3    0    0 -0.62948386404E-01 -0.13023399192E+00 -0.28210289486E-01  0.89225512744E+00  0.88000000000E+00 0.  1.
        -11    1    4    4    0    0  0.15749387575E-01  0.16868120553E-01  0.11393907158E-01  0.25742162716E-01  0.51100000000E-03 0.  1.
         11    1    4    4    0    0  0.45140368586E-01  0.90260268853E-01  0.18780759793E-01  0.10265255510E+00  0.51100000000E-03 0. -1.
</event>
<event>
 8    1  0.1145101E+005  0.1043930E+01  0.7957747E-01            NaN
         13   -1    0    0    0    0  0.00000000000E+00  0.00000000000E+00  0.74505805969E-08  0.10566000000E+00  0.10566000000E+00 0. -1.
     999900   -1    0    0    0    0 -0.00000000000E+00 -0.00000000000E+00 -0.74505805969E-08  0.93827000000E+00  0.93827000000E+00 0. -1.
     999902    2    1    2    0    0 -0.58046460307E-02  0.22366091665E-01 -0.44306257687E-02  0.10204020078E+01  0.10201307226E+01 0.  0.
     999903    2    3    3    0    0 -0.10660749463E+00  0.75062986431E-01 -0.16480740287E-01  0.13299940343E+00  0.20435671434E-01 0.  0.
         14    1    1    2    0    0  0.58046460307E-02 -0.22366091665E-01  0.44306257687E-02  0.23527992192E-01  0.00000000000E+00 0.  1.
     999901    1    3    3    0    0  0.10080284860E+00 -0.52696894766E-01  0.12050114519E-01  0.88740260438E+00  0.88000000000E+00 0. -1.
        -11    1    4    4    0    0 -0.62359946988E-01  0.45025681021E-01 -0.19764626093E-01  0.79416475025E-01  0.51100000000E-03 0. -1.
         11    1    4    4    0    0 -0.44247547646E-01  0.30037305410E-01  0.32838858059E-02  0.53582928401E-01  0.51100000000E-03 0.  1.
</event>
<event>
 8    1  0.1145101E+005  0.1043930E+01  0.7957747E-01            NaN
         13   -1    0    0    0    0  0.00000000000E+00  0.00000000000E+00  0.74505805969E-08  0.10566000000E+00  0.10566000000E+00 0. -1.
     999900   -1    0    0    0    0 -0.00000000000E+00 -0.00000000000E+00 -0.74505805969E-08  0.93827000000E+00  0.93827000000E+00 0. -1.
     999902    2    1    2    0    0  0.83304976768E-02 -0.94304932328E-02 -0.22464619872E-01  0.10181813973E+01  0.10178557694E+01 0.  0.
     999903    2    3    3    0    0 -0.11748461783E-01  0.10399763020E+00 -0.73458147916E-01  0.12921039458E+00  0.18592824733E-01 0.  0.
         14    1    1    2    0    0 -0.83304976768E-02  0.94304932328E-02  0.22464619872E-01  0.25748602684E-01  0.00000000000E+00 0. -1.
     999901    1    3    3    0    0  0.20078959460E-01 -0.11342812343E+00  0.50993528044E-01  0.88897100273E+00  0.88000000000E+00 0.  1.
        -11    1    4    4    0    0 -0.70091833470E-02  0.10831422600E-01 -0.10798616080E-01  0.16832100195E-01  0.51100000000E-03 0. -1.
         11    1    4    4    0    0 -0.47392784357E-02  0.93166207600E-01 -0.62659531836E-01  0.11237829439E+00  0.51100000000E-03 0.  1.
</event>
<event>
 8    1  0.1145101E+005  0.1043930E+01  0.7957747E-01            NaN
         13   -1    0    0    0    0  0.00000000000E+00  0.00000000000E+00  0.74505805969E-08  0.10566000000E+00  0.10566000000E+00 0.  1.
     999900   -1    0    0    0    0 -0.00000000000E+00 -0.00000000000E+00 -0.74505805969E-08  0.93827000000E+00  0.93827000000E+00 0.  1.
     999902    2    1    2    0    0 -0.12882961286E-01  0.15026689559E-01 -0.12338168294E-01  0.10206061391E+01  0.10203395948E+01 0.  0.
     999903    2    3    3    0    0 -0.42090771957E-01  0.85591754214E-01  0.88093429608E-01  0.13160724685E+00  0.21504269592E-01 0.  0.
         14    1    1    2    0    0  0.12882961286E-01 -0.15026689559E-01  0.12338168294E-01  0.23323860903E-01  0.00000000000E+00 0.  1.
     999901    1    3    3    0    0  0.29207810670E-01 -0.70565064655E-01 -0.10043159790E+00  0.88899889224E+00  0.88000000000E+00 0.  1.
        -11    1    4    4    0    0 -0.21605873124E-01  0.27413264552E-01  0.41958241921E-01  0.54580729318E-01  0.51100000000E-03 0. -1.
         11    1    4    4    0    0 -0.20484898833E-01  0.58178489662E-01  0.46135187687E-01  0.77026517534E-01  0.51100000000E-03 0.  1.
</event>
<event>
 8    1  0.1145101E+005  0.1043930E+01  0.7957747E-01            NaN
         13   -1    0    0    0    0  0.00000000000E+00  0.00000000000E+00  0.74505805969E-08  0.10566000000E+00  0.10566000000E+00 0.  1.
     999900   -1    0    0    0    0 -0.00000000000E+00 -0.00000000000E+00 -0.74505805969E-08  0.93827000000E+00  0.93827000000E+00 0.  1.
     999902    2    1    2    0    0 -0.23192047002E-01 -0.24490042505E-02  0.26286725716E-02  0.10204613276E+01  0.10201914244E+01 0.  0.
     999903    2    3    3    0    0 -0.10830327167E+00 -0.69598763398E-01 -0.28295455138E-01  0.13326951495E+00  0.19660730180E-01 0.  0.
         14    1    1    2    0    0  0.23192047002E-01  0.24490042505E-02 -0.26286725716E-02  0.23468672426E-01  0.00000000000E+00 0. -1.
     999901    1    3    3    0    0  0.85111224670E-01  0.67149759147E-01  0.30924127709E-01  0.88719181263E+00  0.88000000000E+00 0. -1.
        -11    1    4    4    0    0 -0.42987047445E-01 -0.27392433228E-01 -0.21098943237E-01  0.55169359004E-01  0.51100000000E-03 0. -1.
         11    1    4    4    0    0 -0.65316224227E-01 -0.42206330170E-01 -0.71965119005E-02  0.78100155942E-01  0.51100000000E-03 0.  1.
</event>
<event>
 8    1  0.1145101E+005  0.1043930E+01  0.7957747E-01            NaN
         13   -1    0    0    0    0  0.00000000000E+00  0.00000000000E+00  0.74505805969E-08  0.10566000000E+00  0.10566000000E+00 0.  1.
     999900   -1    0    0    0    0 -0.00000000000E+00 -0.00000000000E+00 -0.74505805969E-08  0.93827000000E+00  0.93827000000E+00 0. -1.
     999902    2    1    2    0    0 -0.16750575945E-01 -0.12267683159E-01  0.98703831095E-02  0.10209408220E+01  0.10206819581E+01 0.  0.
     999903    2    3    3    0    0  0.16147531902E-01 -0.25987601743E-01  0.12721799430E+00  0.13243590721E+00  0.20463460485E-01 0.  0.
         14    1    1    2    0    0  0.16750575945E-01  0.12267683159E-01 -0.98703831095E-02  0.22989178048E-01  0.00000000000E+00 0. -1.
     999901    1    3    3    0    0 -0.32898107847E-01  0.13719918584E-01 -0.11734761119E+00  0.88850491474E+00  0.88000000000E+00 0. -1.
        -11    1    4    4    0    0  0.59898407238E-02 -0.24145344425E-01  0.10534488991E+00  0.10824362707E+00  0.51100000000E-03 0. -1.
         11    1    4    4    0    0  0.10157691178E-01 -0.18422573188E-02  0.21873104388E-01  0.24192280146E-01  0.51100000000E-03 0.  1.
</event>
<event>
 8    1  0.1145101E+005  0.1043930E+01  0.7957747E-01            NaN
         13   -1    0    0    0    0  0.00000000000E+00  0.00000000000E+00  0.74505805969E-08  0.10566000000E+00  0.10566000000E+00 0. -1.
     999900   -1    0    0    0    0 -0.00000000000E+00 -0.00000000000E+00 -0.74505805969E-08  0.93827000000E+00  0.93827000000E+00 0. -1.
     999902    2    1    2    0    0 -0.83537998084E-02  0.15319179353E-01 -0.16266244002E-01  0.10200751489E+01  0.10197961833E+01 0.  0.
     999903    2    3    3    0    0 -0.79492352228E-01 -0.91337022948E-01 -0.44769164880E-01  0.13032874928E+00  0.17883482357E-01 0.  0.
         14    1    1    2    0    0  0.83537998084E-02 -0.15319179353E-01  0.16266244002E-01  0.23854851104E-01  0.00000000000E+00 0. -1.
     999901    1    3    3    0    0  0.71138552420E-01  0.10665620230E+00  0.28502920878E-01  0.88974639962E+00  0.88000000000E+00 0.  1.
        -11    1    4    4    0    0 -0.25277625765E-01 -0.30514463300E-01 -0.59402500051E-02  0.40070419587E-01  0.51100000000E-03 0.  1.
         11    1    4    4    0    0 -0.54214726464E-01 -0.60822559648E-01 -0.38828914875E-01  0.90258329693E-01  0.51100000000E-03 0. -1.
</event>
<event>
 8    1  0.1145101E+005  0.1043930E+01  0.7957747E-01            NaN
         13   -1    0    0    0    0  0.00000000000E+00  0.00000000000E+00  0.74505805969E-08  0.10566000000E+00  0.10566000000E+00 0.  1.
     999900   -1    0    0    0    0 -0.00000000000E+00 -0.00000000000E+00 -0.74505805969E-08  0.93827000000E+00  0.93827000000E+00 0.  1.
     999902    2    1    2    0    0 -0.54363885397E-03 -0.11099242845E-01 -0.22121622449E-01  0.10191740933E+01  0.10188733864E+01 0.  0.
     999903    2    3    3    0    0  0.25069601472E-01 -0.35306608981E-01 -0.12381858810E+00  0.13261653318E+00  0.19520772439E-01 0.  0.
         14    1    1    2    0    0  0.54363885397E-03  0.11099242845E-01  0.22121622449E-01  0.24755906663E-01  0.00000000000E+00 0.  1.
     999901    1    3    3    0    0 -0.25613240326E-01  0.24207366136E-01  0.10169696565E+00  0.88655756016E+00  0.88000000000E+00 0. -1.
        -11    1    4    4    0    0  0.11866136764E-01 -0.30825655793E-01 -0.77627304760E-01  0.84364007859E-01  0.51100000000E-03 0. -1.
         11    1    4    4    0    0  0.13203464707E-01 -0.44809531881E-02 -0.46191283341E-01  0.48252525317E-01  0.51100000000E-03 0.  1.
</event>
<event>
 8    1  0.1145101E+005  0.1043930E+01  0.7957747E-01            NaN
         13   -1    0    0    0    0  0.00000000000E+00  0.00000000000E+00  0.74505805969E-08  0.10566000000E+00  0.10566000000E+00 0.  1.
     999900   -1    0    0    0    0 -0.00000000000E+00 -0.00000000000E+00 -0.74505805969E-08  0.93827000000E+00  0.93827000000E+00 0.  1.
     999902    2    1    2    0    0  0.21182102353E-02  0.17131489530E-01  0.16659430063E-01  0.10199401822E+01  0.10196580132E+01 0.  0.
     999903    2    3    3    0    0  0.42104786073E-01  0.74949237157E-01 -0.96083741748E-01  0.12996667643E+00  0.16402755624E-01 0.  0.
         14    1    1    2    0    0 -0.21182102353E-02 -0.17131489530E-01 -0.16659430063E-01  0.23989817802E-01  0.00000000000E+00 0. -1.
     999901    1    3    3    0    0 -0.39986575838E-01 -0.57817747627E-01  0.11274317181E+00  0.88997350577E+00  0.88000000000E+00 0. -1.
        -11    1    4    4    0    0  0.19367123895E-01  0.33966454173E-01 -0.31751343062E-01  0.50370769344E-01  0.51100000000E-03 0. -1.
         11    1    4    4    0    0  0.22737662178E-01  0.40982782985E-01 -0.64332398685E-01  0.79595907081E-01  0.51100000000E-03 0.  1.
</event>
<event>
 8    1  0.1145101E+005  0.1043930E+01  0.7957747E-01            NaN
         13   -1    0    0    0    0  0.00000000000E+00  0.00000000000E+00  0.74505805969E-08  0.10566000000E+00  0.10566000000E+00 0.  1.
     999900   -1    0    0    0    0 -0.00000000000E+00 -0.00000000000E+00 -0.74505805969E-08  0.93827000000E+00  0.93827000000E+00 0.  1.
     999902    2    1    2    0    0  0.12598886463E-01  0.19657279375E-01 -0.10167116751E-02  0.10205596283E+01  0.10202920075E+01 0.  0.
     999903    2    3    3    0    0 -0.75495176381E-01 -0.70539578038E-01  0.73570036738E-01  0.12845020670E+00  0.20286733839E-01 0.  0.
         14    1    1    2    0    0 -0.12598886463E-01 -0.19657279375E-01  0.10167116751E-02  0.23370371738E-01  0.00000000000E+00 0. -1.
     999901    1    3    3    0    0  0.88094062844E-01  0.90196857413E-01 -0.74586748413E-01  0.89210942156E+00  0.88000000000E+00 0. -1.
        -11    1    4    4    0    0 -0.47380225546E-01 -0.41855091147E-01  0.32829535989E-01  0.71237447890E-01  0.51100000000E-03 0. -1.
         11    1    4    4    0    0 -0.28114950835E-01 -0.28684486891E-01  0.40740500749E-01  0.57212758813E-01  0.51100000000E-03 0.  1.
</event>
<event>
 8    1  0.1145101E+005  0.1043930E+01  0.7957747E-01            NaN
         13   -1    0    0    0    0  0.00000000000E+00  0.00000000000E+00  0.74505805969E-08  0.10566000000E+00  0.10566000000E+00 0.  1.
     999900   -1    0    0    0    0 -0.00000000000E+00 -0.00000000000E+00 -0.74505805969E-08  0.93827000000E+00  0.93827000000E+00 0. -1.
     999902    2    1    2    0    0 -0.98308484573E-02 -0.76718842291E-02 -0.20638913162E-01  0.10198163498E+01  0.10195312252E+01 0.  0.
     999903    2    3    3    0    0  0.11131866677E+00 -0.15543539035E-01 -0.63227324189E-01  0.13046099859E+00  0.19721319719E-01 0.  0.
         14    1    1    2    0    0  0.98308484573E-02  0.76718842291E-02  0.20638913162E-01  0.24113650190E-01  0.00000000000E+00 0.  1.
     999901    1    3    3    0    0 -0.12114951523E+00  0.78716548056E-02  0.42588411027E-01  0.88935535122E+00  0.88000000000E+00 0. -1.
        -11    1    4    4    0    0  0.74870511425E-01 -0.18048392654E-01 -0.36732206106E-01  0.85327920664E-01  0.51100000000E-03 0.  1.
         11    1    4    4    0    0  0.36448155347E-01  0.25048536197E-02 -0.26495118083E-01  0.45133077926E-01  0.51100000000E-03 0. -1.
</event>
<event>
 8    1  0.1145101E+005  0.1043930E+01  0.7957747E-01            NaN
         13   -1    0    0    0    0  0.00000000000E+00  0.00000000000E+00  0.74505805969E-08  0.10566000000E+00  0.10566000000E+00 0.  1.
     999900   -1    0    0    0    0 -0.00000000000E+00 -0.00000000000E+00 -0.74505805969E-08  0.93827000000E+00  0.93827000000E+00 0.  1.
     999902    2    1    2    0    0 -0.13999896726E-01  0.65307076770E-02 -0.19256665189E-01  0.10192426266E+01  0.10189436027E+01 0.  0.
     999903    2    3    3    0    0 -0.26259501807E-01  0.81349427956E-01 -0.99200631838E-01  0.13237218701E+00  0.19347859634E-01 0.  0.
         14    1    1    2    0    0  0.13999896726E-01 -0.65307076770E-02  0.19256665189E-01  0.24687373398E-01  0.00000000000E+00 0.  1.
     999901    1    3    3    0    0  0.12259605080E-01 -0.74818720279E-01  0.79943966650E-01  0.88687043959E+00  0.88000000000E+00 0. -1.
        -11    1    4    4    0    0  0.48340763274E-03  0.21560438457E-01 -0.18361509089E-01  0.28328295508E-01  0.51100000000E-03 0. -1.
         11    1    4    4    0    0 -0.26742909439E-01  0.59788989499E-01 -0.80839122750E-01  0.10404389150E+00  0.51100000000E-03 0.  1.
</event>
<event>
 7    1  0.1145101E+005  0.1043930E+01  0.7957747E-01            NaN
         13   -1    0    0    0    0  0.00000000000E+00  0.00000000000E+00  0.74505805969E-08  0.10566000000E+00  0.10566000000E+00 0.  1.
     999900   -1    0    0    0    0 -0.00000000000E+00 -0.00000000000E+00 -0.74505805969E-08  0.93827000000E+00  0.93827000000E+00 0.  1.
     999902    2    1    2    0    0 -0.19018705153E-01 -0.12272386041E-01  0.54356771948E-02  0.10206519161E+01  0.10203864290E+01 0.  0.
         14    1    1    2    0    0  0.19018705153E-01  0.12272386041E-01 -0.54356771948E-02  0.23278083929E-01  0.00000000000E+00 0. -1.
     999901    1    3    3    0    0  0.48114442811E-01  0.69866511315E-01 -0.75333472883E-01  0.88728319107E+00  0.88000000000E+00 0.  1.
        -11    1    3    3    0    0 -0.14547738504E-01 -0.15994642227E-01  0.16206987015E-01  0.27025780741E-01  0.51100000000E-03 0.  1.
         11    1    3    3    0    0 -0.52585409459E-01 -0.66144255129E-01  0.64562163063E-01  0.10634294427E+00  0.51100000000E-03 0. -1.
</event>
<event>
 8    1  0.1145101E+005  0.1043930E+01  0.7957747E-01            NaN
         13   -1    0    0    0    0  0.00000000000E+00  0.00000000000E+00  0.74505805969E-08  0.10566000000E+00  0.10566000000E+00 0.  1.
     999900   -1    0    0    0    0 -0.00000000000E+00 -0.00000000000E+00 -0.74505805969E-08  0.93827000000E+00  0.93827000000E+00 0.  1.
     999902    2    1    2    0    0  0.24171255985E-01  0.45672576868E-02 -0.76418394469E-02  0.10181713671E+01  0.10178454822E+01 0.  0.
     999903    2    3    3    0    0  0.98583394042E-01 -0.39752258476E-01 -0.75434621080E-01  0.13132456689E+00  0.16025984417E-01 0.  0.
         14    1    1    2    0    0 -0.24171255985E-01 -0.45672576868E-02  0.76418394469E-02  0.25758632899E-01  0.00000000000E+00 0. -1.
     999901    1    3    3    0    0 -0.74412138057E-01  0.44319516163E-01  0.67792781633E-01  0.88684680021E+00  0.88000000000E+00 0.  1.
        -11    1    4    4    0    0  0.59935208535E-01 -0.31704194314E-01 -0.43667460770E-01  0.80650439617E-01  0.51100000000E-03 0.  1.
         11    1    4    4    0    0  0.38648185507E-01 -0.80480641614E-02 -0.31767160310E-01  0.50674127273E-01  0.51100000000E-03 0. -1.
</event>
<event>
 8    1  0.1145101E+005  0.1043930E+01  0.7957747E-01            NaN
         13   -1    0    0    0    0  0.00000000000E+00  0.00000000000E+00  0.74505805969E-08  0.10566000000E+00  0.10566000000E+00 0.  1.
     999900   -1    0    0    0    0 -0.00000000000E+00 -0.00000000000E+00 -0.74505805969E-08  0.93827000000E+00  0.93827000000E+00 0.  1.
     999902    2    1    2    0    0 -0.15293077226E-01 -0.14104830107E-01  0.11136279617E-01  0.10203325178E+01  0.10200596089E+01 0.  0.
     999903    2    3    3    0    0 -0.18205918907E-01 -0.91265827027E-01  0.93877379600E-01  0.13308486705E+00  0.15417936698E-01 0.  0.
         14    1    1    2    0    0  0.15293077226E-01  0.14104830107E-01 -0.11136279617E-01  0.23597482220E-01  0.00000000000E+00 0. -1.
     999901    1    3    3    0    0  0.29128416809E-02  0.77160996920E-01 -0.82741099983E-01  0.88724765073E+00  0.88000000000E+00 0.  1.
        -11    1    4    4    0    0  0.65285952911E-03 -0.29203816429E-01  0.24756848575E-01  0.38294278841E-01  0.51100000000E-03 0. -1.
         11    1    4    4    0    0 -0.18858778436E-01 -0.62062010598E-01  0.69120531025E-01  0.94790588213E-01  0.51100000000E-03 0.  1.
</event>
<event>
 8    1  0.1145101E+005  0.1043930E+01  0.7957747E-01            NaN
         13   -1    0    0    0    0  0.00000000000E+00  0.00000000000E+00  0.74505805969E-08  0.10566000000E+00  0.10566000000E+00 0.  1.
     999900   -1    0    0    0    0 -0.00000000000E+00 -0.00000000000E+00 -0.74505805969E-08  0.93827000000E+00  0.93827000000E+00 0. -1.
     999902    2    1    2    0    0  0.92457592009E-02  0.76828300995E-02  0.20292488273E-01  0.10203440927E+01  0.10200714546E+01 0.  0.
     999903    2    3    3    0    0 -0.77598056953E-01  0.69400394795E-01  0.78537274199E-01  0.13200667863E+00  0.20488692591E-01 0.  0.
         14    1    1    2    0    0 -0.92457592009E-02 -0.76828300995E-02 -0.20292488273E-01  0.23585907272E-01  0.00000000000E+00 0. -1.
     999901    1    3    3    0    0  0.86843816154E-01 -0.61717564695E-01 -0.58244785926E-01  0.88833741410E+00  0.88000000000E+00 0.  1.
        -11    1    4    4    0    0 -0.49440993690E-01  0.51865967043E-01  0.62831186464E-01  0.95302200960E-01  0.51100000000E-03 0.  1.
         11    1    4    4    0    0 -0.28157063263E-01  0.17534427752E-01  0.15706087735E-01  0.36704477672E-01  0.51100000000E-03 0. -1.
</event>
<event>
 8    1  0.1145101E+005  0.1043930E+01  0.7957747E-01            NaN
         13   -1    0    0    0    0  0.00000000000E+00  0.00000000000E+00  0.74505805969E-08  0.10566000000E+00  0.10566000000E+00 0. -1.
     999900   -1    0    0    0    0 -0.00000000000E+00 -0.00000000000E+00 -0.74505805969E-08  0.93827000000E+00  0.93827000000E+00 0.  1.
     999902    2    1    2    0    0  0.51757163955E-02 -0.23925995717E-01  0.17105009013E-01  0.10140666003E+01  0.10136267790E+01 0.  0.
     999903    2    3    3    0    0 -0.11519275081E+00 -0.45075453297E-01  0.78324235344E-02  0.12557245379E+00  0.20147654026E-01 0.  0.
         14    1    1    2    0    0 -0.51757163955E-02  0.23925995717E-01 -0.17105009013E-01  0.29863399750E-01  0.00000000000E+00 0.  1.
     999901    1    3    3    0    0  0.12036846721E+00  0.21149457580E-01  0.92725854782E-02  0.88849414646E+00  0.88000000000E+00 0.  1.
        -11    1    4    4    0    0 -0.96418735966E-01 -0.44778075513E-01  0.93919679151E-02  0.10672449988E+00  0.51100000000E-03 0. -1.
         11    1    4    4    0    0 -0.18774014846E-01 -0.29737778490E-03 -0.15595443807E-02  0.18847953911E-01  0.51100000000E-03 0.  1.
</event>
<event>
 8    1  0.1145101E+005  0.1043930E+01  0.7957747E-01            NaN
         13   -1    0    0    0    0  0.00000000000E+00  0.00000000000E+00  0.74505805969E-08  0.10566000000E+00  0.10566000000E+00 0.  1.
     999900   -1    0    0    0    0 -0.00000000000E+00 -0.00000000000E+00 -0.74505805969E-08  0.93827000000E+00  0.93827000000E+00 0. -1.
     999902    2    1    2    0    0 -0.29349672323E-02 -0.18014844186E-01 -0.14929566547E-01  0.10203494868E+01  0.10200769749E+01 0.  0.
     999903    2    3    3    0    0  0.75775626272E-01  0.94782701155E-01  0.36290793461E-01  0.12819357611E+00  0.19770313383E-01 0.  0.
         14    1    1    2    0    0  0.29349672323E-02  0.18014844186E-01  0.14929566547E-01  0.23580513162E-01  0.00000000000E+00 0.  1.
     999901    1    3    3    0    0 -0.78710593504E-01 -0.11279754534E+00 -0.51220360008E-01  0.89215591073E+00  0.88000000000E+00 0. -1.
        -11    1    4    4    0    0  0.33274639026E-01  0.56840301633E-01  0.16774700374E-01  0.67968177743E-01  0.51100000000E-03 0. -1.
         11    1    4    4    0    0  0.42500987246E-01  0.37942399522E-01  0.19516093087E-01  0.60225398369E-01  0.51100000000E-03 0.  1.
</event>
<event>
 8    1  0.1145101E+005  0.1043930E+01  0.7957747E-01            NaN
         13   -1    0    0    0    0  0.00000000000E+00  0.00000000000E+00  0.74505805969E-08  0.10566000000E+00  0.10566000000E+00 0. -1.
     999900   -1    0    0    0    0 -0.00000000000E+00 -0.00000000000E+00 -0.74505805969E-08  0.93827000000E+00  0.93827000000E+00 0. -1.
     999902    2    1    2    0    0  0.89231290734E-02 -0.21678400247E-01 -0.17557263037E-02  0.10204213241E+01  0.10201504893E+01 0.  0.
     999903    2    3    3    0    0 -0.11175517345E+00 -0.42521624560E-01  0.48652329769E-01  0.13051196642E+00  0.19209810973E-01 0.  0.
         14    1    1    2    0    0 -0.89231290734E-02  0.21678400247E-01  0.17557263037E-02  0.23508675942E-01  0.00000000000E+00 0. -1.
     999901    1    3    3    0    0  0.12067830252E+00  0.20843224314E-01 -0.50408056072E-01  0.88990935764E+00  0.88000000000E+00 0.  1.
        -11    1    4    4    0    0 -0.63053897864E-01 -0.33770540216E-01  0.31237478168E-01  0.78053088252E-01  0.51100000000E-03 0. -1.
         11    1    4    4    0    0 -0.48701275588E-01 -0.87510843441E-02  0.17414851600E-01  0.52458878165E-01  0.51100000000E-03 0.  1.
</event>
<event>
 8    1  0.1145101E+005  0.1043930E+01  0.7957747E-01            NaN
         13   -1    0    0    0    0  0.00000000000E+00  0.00000000000E+00  0.74505805969E-08  0.10566000000E+00  0.10566000000E+00 0.  1.
     999900   -1    0    0    0    0 -0.00000000000E+00 -0.00000000000E+00 -0.74505805969E-08  0.93827000000E+00  0.93827000000E+00 0. -1.
     999902    2    1    2    0    0 -0.43983496571E-02  0.12922876483E-01  0.19395888411E-01  0.10202119330E+01  0.10199361948E+01 0.  0.
     999903    2    3    3    0    0  0.42397321220E-01 -0.11827734446E+00 -0.17429748273E-01  0.12849479155E+00  0.20495176818E-01 0.  0.
         14    1    1    2    0    0  0.43983496571E-02 -0.12922876483E-01 -0.19395888411E-01  0.23718067028E-01  0.00000000000E+00 0. -1.
     999901    1    3    3    0    0 -0.46795670877E-01  0.13120022094E+00  0.36825636683E-01  0.89171714142E+00  0.88000000000E+00 0.  1.
        -11    1    4    4    0    0  0.22226354840E-02 -0.30116871694E-01 -0.94242301677E-03  0.30217798584E-01  0.51100000000E-03 0. -1.
         11    1    4    4    0    0  0.40174685736E-01 -0.88160472762E-01 -0.16487325256E-01  0.98276992967E-01  0.51100000000E-03 0.  1.
</event>
<event>
 8    1  0.1145101E+005  0.1043930E+01  0.7957747E-01            NaN
         13   -1    0    0    0    0  0.00000000000E+00  0.00000000000E+00  0.74505805969E-08  0.10566000000E+00  0.10566000000E+00 0. -1.
     999900   -1    0    0    0    0 -0.00000000000E+00 -0.00000000000E+00 -0.74505805969E-08  0.93827000000E+00  0.93827000000E+00 0.  1.
     999902    2    1    2    0    0 -0.95787138046E-02  0.16129821197E-01 -0.14508262644E-01  0.10202147607E+01  0.10199390891E+01 0.  0.
     999903    2    3    3    0    0 -0.70331860631E-01 -0.10170421608E+00 -0.35004588073E-01  0.13004853772E+00  0.19924426934E-01 0.  0.
         14    1    1    2    0    0  0.95787138046E-02 -0.16129821197E-01  0.14508262644E-01  0.23715239298E-01  0.00000000000E+00 0.  1.
     999901    1    3    3    0    0  0.60753146826E-01  0.11783403727E+00  0.20496325429E-01  0.89016622299E+00  0.88000000000E+00 0. -1.
        -11    1    4    4    0    0 -0.43597428847E-01 -0.45778866296E-01 -0.16021037164E-01  0.65217905166E-01  0.51100000000E-03 0.  1.
         11    1    4    4    0    0 -0.26734431784E-01 -0.55925349779E-01 -0.18983550909E-01  0.64830632550E-01  0.51100000000E-03 0. -1.
</event>
<event>
 8    1  0.1145101E+005  0.1043930E+01  0.7957747E-01            NaN
         13   -1    0    0    0    0  0.00000000000E+00  0.00000000000E+00  0.74505805969E-08  0.10566000000E+00  0.10566000000E+00 0.  1.
     999900   -1    0    0    0    0 -0.00000000000E+00 -0.00000000000E+00 -0.74505805969E-08  0.93827000000E+00  0.93827000000E+00 0. -1.
     999902    2    1    2    0    0 -0.85517371273E-03 -0.70068462713E-02  0.22988698727E-01  0.10198819754E+01  0.10195984191E+01 0.  0.
     999903    2    3    3    0    0  0.12283025350E+00  0.37128208469E-01  0.12072346188E-02  0.12987050351E+00  0.19977868455E-01 0.  0.
         14    1    1    2    0    0  0.85517371273E-03  0.70068462713E-02 -0.22988698727E-01  0.24048024574E-01  0.00000000000E+00 0. -1.
     999901    1    3    3    0    0 -0.12368542721E+00 -0.44135054740E-01  0.21781464108E-01  0.89001147191E+00  0.88000000000E+00 0.  1.
        -11    1    4    4    0    0  0.62544050287E-01  0.28498143469E-01  0.44910554326E-02  0.68879119531E-01  0.51100000000E-03 0. -1.
         11    1    4    4    0    0  0.60286203213E-01  0.86300649997E-02 -0.32838208138E-02  0.60991383980E-01  0.51100000000E-03 0.  1.
</event>
<event>
 8    1  0.1145101E+005  0.1043930E+01  0.7957747E-01            NaN
         13   -1    0    0    0    0  0.00000000000E+00  0.00000000000E+00  0.74505805969E-08  0.10566000000E+00  0.10566000000E+00 0. -1.
     999900   -1    0    0    0    0 -0.00000000000E+00 -0.00000000000E+00 -0.74505805969E-08  0.93827000000E+00  0.93827000000E+00 0.  1.
     999902    2    1    2    0    0  0.83119244778E-02 -0.14685795313E-01 -0.20796375903E-01  0.10171484780E+01  0.10167958381E+01 0.  0.
     999903    2    3    3    0    0  0.10862673943E+00 -0.58288633671E-01  0.31620745031E-01  0.12882881467E+00  0.19991464099E-01 0.  0.
         14    1    1    2    0    0 -0.83119244778E-02  0.14685795313E-01  0.20796375903E-01  0.26781522048E-01  0.00000000000E+00 0. -1.
     999901    1    3    3    0    0 -0.10031481496E+00  0.43602838358E-01 -0.52417120934E-01  0.88831966329E+00  0.88000000000E+00 0. -1.
        -11    1    4    4    0    0  0.72102795661E-01 -0.37742998653E-01  0.11014078647E-01  0.82127450581E-01  0.51100000000E-03 0. -1.
         11    1    4    4    0    0  0.36523943773E-01 -0.20545635018E-01  0.20606666384E-01  0.46701364086E-01  0.51100000000E-03 0.  1.
</event>
<event>
 8    1  0.1145101E+005  0.1043930E+01  0.7957747E-01            NaN
         13   -1    0    0    0    0  0.00000000000E+00  0.00000000000E+00  0.74505805969E-08  0.10566000000E+00  0.10566000000E+00 0.  1.
     999900   -1    0    0    0    0 -0.00000000000E+00 -0.00000000000E+00 -0.74505805969E-08  0.93827000000E+00  0.93827000000E+00 0. -1.
     999902    2    1    2    0    0 -0.54749673287E-02 -0.14547033091E-01  0.11269370345E-01  0.10247312983E+01  0.10245514353E+01 0.  0.
     999903    2    3    3    0    0  0.25751235060E-01 -0.13183931132E+00  0.13025635044E-01  0.13639823086E+00  0.19750445464E-01 0.  0.
         14    1    1    2    0    0  0.54749673287E-02  0.14547033091E-01 -0.11269370345E-01  0.19198701700E-01  0.00000000000E+00 0. -1.
     999901    1    3    3    0    0 -0.31226202389E-01  0.11729227823E+00 -0.17562646998E-02  0.88833306744E+00  0.88000000000E+00 0. -1.
        -11    1    4    4    0    0  0.20186093937E-01 -0.92033557616E-01  0.17899096342E-01  0.95907731111E-01  0.51100000000E-03 0.  1.
         11    1    4    4    0    0  0.55651411233E-02 -0.39805753704E-01 -0.48734612978E-02  0.40490499746E-01  0.51100000000E-03 0. -1.
</event>
<event>
 8    1  0.1145101E+005  0.1043930E+01  0.7957747E-01            NaN
         13   -1    0    0    0    0  0.00000000000E+00  0.00000000000E+00  0.74505805969E-08  0.10566000000E+00  0.10566000000E+00 0. -1.
     999900   -1    0    0    0    0 -0.00000000000E+00 -0.00000000000E+00 -0.74505805969E-08  0.93827000000E+00  0.93827000000E+00 0.  1.
     999902    2    1    2    0    0 -0.59083312146E-02  0.18454471495E-01  0.12413700438E-01  0.10209174848E+01  0.10206580892E+01 0.  0.
     999903    2    3    3    0    0  0.12218422928E+00  0.25909172810E-01  0.33080606620E-01  0.13137243390E+00  0.23751183843E-01 0.  0.
         14    1    1    2    0    0  0.59083312146E-02 -0.18454471495E-01 -0.12413700438E-01  0.23012515170E-01  0.00000000000E+00 0.  1.
     999901    1    3    3    0    0 -0.12809256049E+00 -0.74547013151E-02 -0.20666906182E-01  0.88954505093E+00  0.88000000000E+00 0.  1.
        -11    1    4    4    0    0  0.55958230021E-01  0.61215513496E-02  0.41687089736E-02  0.56448526584E-01  0.51100000000E-03 0. -1.
         11    1    4    4    0    0  0.66225999257E-01  0.19787621461E-01  0.28911897646E-01  0.74923907314E-01  0.51100000000E-03 0.  1.
</event>
<event>
 8    1  0.1145101E+005  0.1043930E+01  0.7957747E-01            NaN
         13   -1    0    0    0    0  0.00000000000E+00  0.00000000000E+00  0.74505805969E-08  0.10566000000E+00  0.10566000000E+00 0. -1.
     999900   -1    0    0    0    0 -0.00000000000E+00 -0.00000000000E+00 -0.74505805969E-08  0.93827000000E+00  0.93827000000E+00 0.  1.
     999902    2    1    2    0    0  0.74088994140E-02 -0.14264851722E-01 -0.17394229489E-01  0.10202458913E+01  0.10199709514E+01 0.  0.
     999903    2    3    3    0    0  0.38805186902E-01 -0.64193427574E-01 -0.10867760868E+00  0.13356035242E+00  0.20022648063E-01 0.  0.
         14    1    1    2    0    0 -0.74088994140E-02  0.14264851722E-01  0.17394229489E-01  0.23684108695E-01  0.00000000000E+00 0. -1.
     999901    1    3    3    0    0 -0.31396287488E-01  0.49928575853E-01  0.91283379191E-01  0.88668553889E+00  0.88000000000E+00 0. -1.
        -11    1    4    4    0    0  0.50767213080E-02 -0.22644760561E-01 -0.24005606245E-01  0.33392941354E-01  0.51100000000E-03 0. -1.
         11    1    4    4    0    0  0.33728465594E-01 -0.41548667014E-01 -0.84672002435E-01  0.10016741106E+00  0.51100000000E-03 0.  1.
</event>
<event>
 8    1  0.1145101E+005  0.1043930E+01  0.7957747E-01            NaN
         13   -1    0    0    0    0  0.00000000000E+00  0.00000000000E+00  0.74505805969E-08  0.10566000000E+00  0.10566000000E+00 0. -1.
     999900   -1    0    0    0    0 -0.00000000000E+00 -0.00000000000E+00 -0.74505805969E-08  0.93827000000E+00  0.93827000000E+00 0.  1.
     999902    2    1    2    0    0  0.10433190042E-01 -0.17549389051E-01 -0.11423441240E-01  0.10205349680E+01  0.10202667756E+01 0.  0.
     999903    2    3    3    0    0  0.58259247328E-01 -0.15541239894E-01 -0.11691264682E+00  0.13294309285E+00  0.19225735701E-01 0.  0.
         14    1    1    2    0    0 -0.10433190042E-01  0.17549389051E-01  0.11423441240E-01  0.23395031957E-01  0.00000000000E+00 0. -1.
     999901    1    3    3    0    0 -0.47826057286E-01 -0.20081491574E-02  0.10548920558E+00  0.88759187519E+00  0.88000000000E+00 0. -1.
        -11    1    4    4    0    0  0.20363723362E-01 -0.14744582133E-01 -0.41124114465E-01  0.48203089558E-01  0.51100000000E-03 0.  1.
         11    1    4    4    0    0  0.37895523966E-01 -0.79665776071E-03 -0.75788532353E-01  0.84740003289E-01  0.51100000000E-03 0. -1.
</event>
<event>
 8    1  0.1145101E+005  0.1043930E+01  0.7957747E-01            NaN
         13   -1    0    0    0    0  0.00000000000E+00  0.00000000000E+00  0.74505805969E-08  0.10566000000E+00  0.10566000000E+00 0. -1.
     999900   -1    0    0    0    0 -0.00000000000E+00 -0.00000000000E+00 -0.74505805969E-08  0.93827000000E+00  0.93827000000E+00 0.  1.
     999902    2    1    2    0    0  0.48271481118E-02 -0.23402663517E-01 -0.16603444294E-02  0.10199770719E+01  0.10196957804E+01 0.  0.
     999903    2    3    3    0    0  0.63170631928E-01  0.61614687538E-01 -0.92415598021E-01  0.12932089354E+00  0.19908598381E-01 0.  0.
         14    1    1    2    0    0 -0.48271481118E-02  0.23402663517E-01  0.16603444294E-02  0.23952928051E-01  0.00000000000E+00 0.  1.
     999901    1    3    3    0    0 -0.58343483817E-01 -0.85017351056E-01  0.90755253592E-01  0.89065617841E+00  0.88000000000E+00 0. -1.
        -11    1    4    4    0    0  0.31009981611E-01  0.28077801844E-01 -0.57916398475E-01  0.71446149296E-01  0.51100000000E-03 0.  1.
         11    1    4    4    0    0  0.32160650317E-01  0.33536885694E-01 -0.34499199546E-01  0.57874744243E-01  0.51100000000E-03 0. -1.
</event>
<event>
 8    1  0.1145101E+005  0.1043930E+01  0.7957747E-01            NaN
         13   -1    0    0    0    0  0.00000000000E+00  0.00000000000E+00  0.74505805969E-08  0.10566000000E+00  0.10566000000E+00 0. -1.
     999900   -1    0    0    0    0 -0.00000000000E+00 -0.00000000000E+00 -0.74505805969E-08  0.93827000000E+00  0.93827000000E+00 0. -1.
     999902    2    1    2    0    0 -0.22760323111E-01 -0.58324059526E-02  0.32516416358E-02  0.10202103364E+01  0.10199345607E+01 0.  0.
     999903    2    3    3    0    0 -0.11382935674E+00 -0.51511144838E-01  0.41899094661E-01  0.13348955641E+00  0.21293356646E-01 0.  0.
         14    1    1    2    0    0  0.22760323111E-01  0.58324059526E-02 -0.32516416358E-02  0.23719663586E-01  0.00000000000E+00 0.  1.
     999901    1    3    3    0    0  0.91069033630E-01  0.45678738886E-01 -0.38647453026E-01  0.88672078001E+00  0.88000000000E+00 0. -1.
        -11    1    4    4    0    0 -0.58649620500E-01 -0.17769637905E-01  0.13007612316E-01  0.62649797408E-01  0.51100000000E-03 0. -1.
         11    1    4    4    0    0 -0.55179736242E-01 -0.33741506933E-01  0.28891482345E-01  0.70839758998E-01  0.51100000000E-03 0.  1.
</event>
<event>
 8    1  0.1145101E+005  0.1043930E+01  0.7957747E-01            NaN
         13   -1    0    0    0    0  0.00000000000E+00  0.00000000000E+00  0.74505805969E-08  0.10566000000E+00  0.10566000000E+00 0. -1.
     999900   -1    0    0    0    0 -0.00000000000E+00 -0.00000000000E+00 -0.74505805969E-08  0.93827000000E+00  0.93827000000E+00 0.  1.
     999902    2    1    2    0    0 -0.14397135974E-01 -0.17623655155E-01 -0.62666802325E-02  0.10203261438E+01  0.10200530857E+01 0.  0.
     999903    2    3    3    0    0  0.12183796198E+00  0.24345637100E-01  0.25352707582E-01  0.12829407652E+00  0.19478482090E-01 0.  0.
         14    1    1    2    0    0  0.14397135974E-01  0.17623655155E-01  0.62666802325E-02  0.23603856177E-01  0.00000000000E+00 0.  1.
     999901    1    3    3    0    0 -0.13623509795E+00 -0.41969292255E-01 -0.31619387815E-01  0.89203206730E+00  0.88000000000E+00 0.  1.
        -11    1    4    4    0    0  0.89256244711E-01  0.26495966142E-01  0.18864735526E-01  0.94999225308E-01  0.51100000000E-03 0. -1.
         11    1    4    4    0    0  0.32581717266E-01 -0.21503290415E-02  0.64879720559E-02  0.33294851214E-01  0.51100000000E-03 0.  1.
</event>
<event>
 8    1  0.1145101E+005  0.1043930E+01  0.7957747E-01            NaN
         13   -1    0    0    0    0  0.00000000000E+00  0.00000000000E+00  0.74505805969E-08  0.10566000000E+00  0.10566000000E+00 0.  1.
     999900   -1    0    0    0    0 -0.00000000000E+00 -0.00000000000E+00 -0.74505805969E-08  0.93827000000E+00  0.93827000000E+00 0. -1.
     999902    2    1    2    0    0 -0.18806876251E-01  0.77915401863E-02  0.12309489553E-01  0.10201407120E+01  0.10198632957E+01 0.  0.
     999903    2    3    3    0    0 -0.12394265180E+00 -0.35219400789E-01  0.24801175316E-01  0.13275155574E+00  0.20141750847E-01 0.  0.
         14    1    1    2    0    0  0.18806876251E-01 -0.77915401863E-02 -0.12309489553E-01  0.23789288049E-01  0.00000000000E+00 0. -1.
     999901    1    3    3    0    0  0.10513577555E+00  0.43010940975E-01 -0.12491685763E-01  0.88738915621E+00  0.88000000000E+00 0. -1.
        -11    1    4    4    0    0 -0.11432299777E+00 -0.33615584633E-01  0.17247920058E-01  0.12040559462E+00  0.51100000000E-03 0.  1.
         11    1    4    4    0    0 -0.96196540365E-02 -0.16038161560E-02  0.75532552583E-02  0.12345961123E-01  0.51100000000E-03 0. -1.
</event>
<event>
 7    1  0.1145101E+005  0.1043930E+01  0.7957747E-01            NaN
         13   -1    0    0    0    0  0.00000000000E+00  0.00000000000E+00  0.74505805969E-08  0.10566000000E+00  0.10566000000E+00 0. -1.
     999900   -1    0    0    0    0 -0.00000000000E+00 -0.00000000000E+00 -0.74505805969E-08  0.93827000000E+00  0.93827000000E+00 0.  1.
     999903    2    1    2    0    0  0.58913460133E-01 -0.56364778383E-01 -0.46436737586E-01  0.98141567398E-01  0.28768257275E-01 0.  0.
         14    1    1    2    0    0 -0.11760168929E-02  0.41319090278E-01 -0.42510891583E-01  0.59294402268E-01  0.00000000000E+00 0.  1.
     999901    1    1    2    0    0 -0.57737443240E-01  0.15045688105E-01  0.88947629170E-01  0.88649403033E+00  0.88000000000E+00 0. -1.
        -11    1    3    3    0    0  0.19382577918E-01 -0.31355164352E-02 -0.62616870437E-02  0.20615179740E-01  0.51100000000E-03 0. -1.
         11    1    3    3    0    0  0.39530882214E-01 -0.53229261948E-01 -0.40175050543E-01  0.77526387658E-01  0.51100000000E-03 0.  1.
</event>
<event>
 8    1  0.1145101E+005  0.1043930E+01  0.7957747E-01            NaN
         13   -1    0    0    0    0  0.00000000000E+00  0.00000000000E+00  0.74505805969E-08  0.10566000000E+00  0.10566000000E+00 0. -1.
     999900   -1    0    0    0    0 -0.00000000000E+00 -0.00000000000E+00 -0.74505805969E-08  0.93827000000E+00  0.93827000000E+00 0.  1.
     999902    2    1    2    0    0  0.12829702228E-01 -0.87645915232E-02  0.17258283310E-01  0.10207078626E+01  0.10204436648E+01 0.  0.
     999903    2    3    3    0    0 -0.61386492168E-01  0.50946722200E-01  0.10227253256E+00  0.13149421723E+00  0.21614539640E-01 0.  0.
         14    1    1    2    0    0 -0.12829702228E-01  0.87645915232E-02 -0.17258283310E-01  0.23222137427E-01  0.00000000000E+00 0.  1.
     999901    1    3    3    0    0  0.74216194397E-01 -0.59711313724E-01 -0.85014249250E-01  0.88921364535E+00  0.88000000000E+00 0.  1.
        -11    1    4    4    0    0 -0.40098303213E-01  0.27101734877E-01  0.45991397620E-01  0.66767115633E-01  0.51100000000E-03 0.  1.
         11    1    4    4    0    0 -0.21288188956E-01  0.23844987323E-01  0.56281134940E-01  0.64727101593E-01  0.51100000000E-03 0. -1.
</event>
<event>
 8    1  0.1145101E+005  0.1043930E+01  0.7957747E-01            NaN
         13   -1    0    0    0    0  0.00000000000E+00  0.00000000000E+00  0.74505805969E-08  0.10566000000E+00  0.10566000000E+00 0. -1.
     999900   -1    0    0    0    0 -0.00000000000E+00 -0.00000000000E+00 -0.74505805969E-08  0.93827000000E+00  0.93827000000E+00 0.  1.
     999902    2    1    2    0    0 -0.14456436597E-01  0.13106248113E-01  0.11377979709E-01  0.10213419341E+01  0.10210921240E+01 0.  0.
     999903    2    3    3    0    0 -0.82096615524E-01  0.20243202830E-01  0.10219816538E+00  0.13405706663E+00  0.19421394478E-01 0.  0.
         14    1    1    2    0    0  0.14456436597E-01 -0.13106248113E-01 -0.11377979709E-01  0.22588065896E-01  0.00000000000E+00 0.  1.
     999901    1    3    3    0    0  0.67640178927E-01 -0.71369547175E-02 -0.90820185675E-01  0.88728486748E+00  0.88000000000E+00 0. -1.
        -11    1    4    4    0    0 -0.49436791404E-01  0.19921104149E-01  0.71908321787E-01  0.89509298947E-01  0.51100000000E-03 0.  1.
         11    1    4    4    0    0 -0.32659824120E-01  0.32209868153E-03  0.30289843597E-01  0.44547767679E-01  0.51100000000E-03 0. -1.
</event>
<event>
 8    1  0.1145101E+005  0.1043930E+01  0.7957747E-01            NaN
         13   -1    0    0    0    0  0.00000000000E+00  0.00000000000E+00  0.74505805969E-08  0.10566000000E+00  0.10566000000E+00 0.  1.
     999900   -1    0    0    0    0 -0.00000000000E+00 -0.00000000000E+00 -0.74505805969E-08  0.93827000000E+00  0.93827000000E+00 0.  1.
     999902    2    1    2    0    0 -0.15523500095E-01  0.43492429864E-02 -0.17031621885E-01  0.10204785371E+01  0.10202090342E+01 0.  0.
     999903    2    3    3    0    0 -0.81535313690E-01  0.97937847741E-01  0.26695256390E-01  0.13198068881E+00  0.21597131887E-01 0.  0.
         14    1    1    2    0    0  0.15523500095E-01 -0.43492429864E-02  0.17031621885E-01  0.23451462934E-01  0.00000000000E+00 0.  1.
     999901    1    3    3    0    0  0.66011813596E-01 -0.93588604755E-01 -0.43726878275E-01  0.88849784826E+00  0.88000000000E+00 0.  1.
        -11    1    4    4    0    0 -0.39417542482E-01  0.59103056208E-01  0.22563301917E-01  0.74540442867E-01  0.51100000000E-03 0. -1.
         11    1    4    4    0    0 -0.42117771208E-01  0.38834791534E-01  0.41319544732E-02  0.57440245941E-01  0.51100000000E-03 0.  1.
</event>
<event>
 8    1  0.1145101E+005  0.1043930E+01  0.7957747E-01            NaN
         13   -1    0    0    0    0  0.00000000000E+00  0.00000000000E+00  0.74505805969E-08  0.10566000000E+00  0.10566000000E+00 0. -1.
     999900   -1    0    0    0    0 -0.00000000000E+00 -0.00000000000E+00 -0.74505805969E-08  0.93827000000E+00  0.93827000000E+00 0.  1.
     999902    2    1    2    0    0 -0.33537106638E-02 -0.13695044866E-01  0.19454131782E-01  0.10199036629E+01  0.10196206240E+01 0.  0.
     999903    2    3    3    0    0  0.10525100245E+00  0.35110633351E-01  0.65898204483E-01  0.13067139304E+00  0.20540436121E-01 0.  0.
         14    1    1    2    0    0  0.33537106638E-02  0.13695044866E-01 -0.19454131782E-01  0.24026337059E-01  0.00000000000E+00 0.  1.
     999901    1    3    3    0    0 -0.10860471311E+00 -0.48805678217E-01 -0.46444072701E-01  0.88923226990E+00  0.88000000000E+00 0.  1.
        -11    1    4    4    0    0  0.42262187624E-01  0.24751087323E-01  0.27339618984E-01  0.56093000576E-01  0.51100000000E-03 0.  1.
         11    1    4    4    0    0  0.62988814821E-01  0.10359546029E-01  0.38558585499E-01  0.74578392469E-01  0.51100000000E-03 0. -1.
</event>
<event>
 8    1  0.1145101E+005  0.1043930E+01  0.7957747E-01            NaN
         13   -1    0    0    0    0  0.00000000000E+00  0.00000000000E+00  0.74505805969E-08  0.10566000000E+00  0.10566000000E+00 0.  1.
     999900   -1    0    0    0    0 -0.00000000000E+00 -0.00000000000E+00 -0.74505805969E-08  0.93827000000E+00  0.93827000000E+00 0. -1.
     999902    2    1    2    0    0 -0.27790043247E-02 -0.13820457806E-01 -0.18923839272E-01  0.10203325507E+01  0.10200596426E+01 0.  0.
     999903    2    3    3    0    0 -0.46830383142E-01 -0.15866839140E-01 -0.12208319844E+00  0.13320991827E+00  0.19893054426E-01 0.  0.
         14    1    1    2    0    0  0.27790043247E-02  0.13820457806E-01  0.18923839272E-01  0.23597449265E-01  0.00000000000E+00 0.  1.
     999901    1    3    3    0    0  0.44051378818E-01  0.20463813338E-02  0.10315935917E+00  0.88712263247E+00  0.88000000000E+00 0. -1.
        -11    1    4    4    0    0 -0.16374789589E-01 -0.15445950484E-01 -0.44808289034E-01  0.50147333006E-01  0.51100000000E-03 0.  1.
         11    1    4    4    0    0 -0.30455593553E-01 -0.42088865632E-03 -0.77274909404E-01  0.83062585262E-01  0.51100000000E-03 0. -1.
</event>
<event>
 8    1  0.1145101E+005  0.1043930E+01  0.7957747E-01            NaN
         13   -1    0    0    0    0  0.00000000000E+00  0.00000000000E+00  0.74505805969E-08  0.10566000000E+00  0.10566000000E+00 0. -1.
     999900   -1    0    0    0    0 -0.00000000000E+00 -0.00000000000E+00 -0.74505805969E-08  0.93827000000E+00  0.93827000000E+00 0. -1.
     999902    2    1    2    0    0  0.20714829608E-01 -0.10110629364E-01 -0.34400494709E-02  0.10206241438E+01  0.10203580156E+01 0.  0.
     999903    2    3    3    0    0 -0.77758488906E-02 -0.11025192376E+00 -0.69484438899E-01  0.13202870214E+00  0.19686046364E-01 0.  0.
         14    1    1    2    0    0 -0.20714829608E-01  0.10110629364E-01  0.34400494709E-02  0.23305856178E-01  0.00000000000E+00 0.  1.
     999901    1    3    3    0    0  0.28490678499E-01  0.10014129439E+00  0.66044389428E-01  0.88859544168E+00  0.88000000000E+00 0.  1.
        -11    1    4    4    0    0  0.45656757487E-02 -0.30044959133E-01 -0.12483432744E-01  0.32857908917E-01  0.51100000000E-03 0.  1.
         11    1    4    4    0    0 -0.12341524639E-01 -0.80206964623E-01 -0.57001006155E-01  0.99170793222E-01  0.51100000000E-03 0. -1.
</event>
<event>
 8    1  0.1145101E+005  0.1043930E+01  0.7957747E-01            NaN
         13   -1    0    0    0    0  0.00000000000E+00  0.00000000000E+00  0.74505805969E-08  0.10566000000E+00  0.10566000000E+00 0. -1.
     999900   -1    0    0    0    0 -0.00000000000E+00 -0.00000000000E+00 -0.74505805969E-08  0.93827000000E+00  0.93827000000E+00 0. -1.
     999902    2    1    2    0    0  0.70856903216E-02  0.25382549607E-01 -0.10407363421E-02  0.10175564533E+01  0.10172146144E+01 0.  0.
     999903    2    3    3    0    0 -0.45310937911E-01  0.84403187906E-01 -0.85805453763E-01  0.12996764103E+00  0.18762531724E-01 0.  0.
         14    1    1    2    0    0 -0.70856903216E-02 -0.25382549607E-01  0.10407363421E-02  0.26373546671E-01  0.00000000000E+00 0. -1.
     999901    1    3    3    0    0  0.52396628232E-01 -0.59020638299E-01  0.84764717421E-01  0.88758881230E+00  0.88000000000E+00 0.  1.
        -11    1    4    4    0    0 -0.92453112338E-02  0.33168195682E-01 -0.24138862257E-01  0.42054141017E-01  0.51100000000E-03 0. -1.
         11    1    4    4    0    0 -0.36065626677E-01  0.51234992224E-01 -0.61666591506E-01  0.87913500015E-01  0.51100000000E-03 0.  1.
</event>
<event>
 8    1  0.1145101E+005  0.1043930E+01  0.7957747E-01            NaN
         13   -1    0    0    0    0  0.00000000000E+00  0.00000000000E+00  0.74505805969E-08  0.10566000000E+00  0.10566000000E+00 0.  1.
     999900   -1    0    0    0    0 -0.00000000000E+00 -0.00000000000E+00 -0.74505805969E-08  0.93827000000E+00  0.93827000000E+00 0. -1.
     999902    2    1    2    0    0 -0.44163528774E-02  0.15642598106E-01  0.22157966272E-01  0.10164496340E+01  0.10160780914E+01 0.  0.
     999903    2    3    3    0    0  0.47976659793E-01  0.73186543109E-01  0.94291677998E-01  0.13007521773E+00  0.19251279201E-01 0.  0.
         14    1    1    2    0    0  0.44163528774E-02 -0.15642598106E-01 -0.22157966272E-01  0.27480366037E-01  0.00000000000E+00 0. -1.
     999901    1    3    3    0    0 -0.52393012670E-01 -0.57543945004E-01 -0.72133711727E-01  0.88637441623E+00  0.88000000000E+00 0.  1.
        -11    1    4    4    0    0  0.14327236142E-01  0.38581795298E-01  0.39384670359E-01  0.56966990478E-01  0.51100000000E-03 0.  1.
         11    1    4    4    0    0  0.33649423651E-01  0.34604747811E-01  0.54907007639E-01  0.73108227253E-01  0.51100000000E-03 0. -1.
</event>
<event>
 8    1  0.1145101E+005  0.1043930E+01  0.7957747E-01            NaN
         13   -1    0    0    0    0  0.00000000000E+00  0.00000000000E+00  0.74505805969E-08  0.10566000000E+00  0.10566000000E+00 0. -1.
     999900   -1    0    0    0    0 -0.00000000000E+00 -0.00000000000E+00 -0.74505805969E-08  0.93827000000E+00  0.93827000000E+00 0. -1.
     999902    2    1    2    0    0  0.13224521382E-01  0.17806162392E-01 -0.72231862155E-02  0.10206035814E+01  0.10203369780E+01 0.  0.
     999903    2    3    3    0    0  0.77426738794E-01 -0.74216051501E-01  0.70855915122E-01  0.13004961975E+00  0.19733745430E-01 0.  0.
         14    1    1    2    0    0 -0.13224521382E-01 -0.17806162392E-01  0.72231862155E-02  0.23326418586E-01  0.00000000000E+00 0.  1.
     999901    1    3    3    0    0 -0.64202217412E-01  0.92022213893E-01 -0.78079101338E-01  0.89055396166E+00  0.88000000000E+00 0. -1.
        -11    1    4    4    0    0  0.42046515117E-01 -0.32646353971E-01  0.25265842840E-01  0.58926376068E-01  0.51100000000E-03 0.  1.
         11    1    4    4    0    0  0.35380223676E-01 -0.41569697530E-01  0.45590072282E-01  0.71123243682E-01  0.51100000000E-03 0. -1.
</event>
<event>
 8    1  0.1145101E+005  0.1043930E+01  0.7957747E-01            NaN
         13   -1    0    0    0    0  0.00000000000E+00  0.00000000000E+00  0.74505805969E-08  0.10566000000E+00  0.10566000000E+00 0. -1.
     999900   -1    0    0    0    0 -0.00000000000E+00 -0.00000000000E+00 -0.74505805969E-08  0.93827000000E+00  0.93827000000E+00 0. -1.
     999902    2    1    2    0    0 -0.24444864352E-02  0.22593074628E-01 -0.17539119407E-02  0.10211374850E+01  0.10208830807E+01 0.  0.
     999903    2    3    3    0    0 -0.93342713938E-01 -0.69758553114E-01 -0.54319408451E-01  0.13009627248E+00  0.19882756340E-01 0.  0.
         14    1    1    2    0    0  0.24444864352E-02 -0.22593074628E-01  0.17539119407E-02  0.22792515047E-01  0.00000000000E+00 0. -1.
     999901    1    3    3    0    0  0.90898227502E-01  0.92351627742E-01  0.52565496510E-01  0.89104121248E+00  0.88000000000E+00 0. -1.
        -11    1    4    4    0    0 -0.31817194164E-01 -0.17313326293E-01 -0.25355152918E-01  0.44217982906E-01  0.51100000000E-03 0. -1.
         11    1    4    4    0    0 -0.61525519774E-01 -0.52445226821E-01 -0.28964255533E-01  0.85878289570E-01  0.51100000000E-03 0.  1.
</event>
<event>
 8    1  0.1145101E+005  0.1043930E+01  0.7957747E-01            NaN
         13   -1    0    0    0    0  0.00000000000E+00  0.00000000000E+00  0.74505805969E-08  0.10566000000E+00  0.10566000000E+00 0. -1.
     999900   -1    0    0    0    0 -0.00000000000E+00 -0.00000000000E+00 -0.74505805969E-08  0.93827000000E+00  0.93827000000E+00 0.  1.
     999902    2    1    2    0    0 -0.17059873080E-01 -0.78705930450E-03 -0.13467692361E-01  0.10221805754E+01  0.10219491628E+01 0.  0.
     999903    2    3    3    0    0 -0.39993756497E-01 -0.43640268262E-01  0.11570253280E+00  0.13142398264E+00  0.19524690570E-01 0.  0.
         14    1    1    2    0    0  0.17059873080E-01  0.78705930450E-03  0.13467692361E-01  0.21749424576E-01  0.00000000000E+00 0. -1.
     999901    1    3    3    0    0  0.22933883416E-01  0.42853208958E-01 -0.12917022516E+00  0.89075659279E+00  0.88000000000E+00 0.  1.
        -11    1    4    4    0    0 -0.12810367988E-01 -0.81265866058E-02  0.47480708691E-01  0.49848026607E-01  0.51100000000E-03 0.  1.
         11    1    4    4    0    0 -0.27183388509E-01 -0.35513681657E-01  0.68221824113E-01  0.81575956028E-01  0.51100000000E-03 0. -1.
</event>
<event>
 8    1  0.1145101E+005  0.1043930E+01  0.7957747E-01            NaN
         13   -1    0    0    0    0  0.00000000000E+00  0.00000000000E+00  0.74505805969E-08  0.10566000000E+00  0.10566000000E+00 0.  1.
     999900   -1    0    0    0    0 -0.00000000000E+00 -0.00000000000E+00 -0.74505805969E-08  0.93827000000E+00  0.93827000000E+00 0.  1.
     999902    2    1    2    0    0 -0.13231307453E-01  0.22884851001E-02 -0.21590252630E-01  0.10185047435E+01  0.10181873446E+01 0.  0.
     999903    2    3    3    0    0 -0.31543728799E-01  0.39441822963E-01  0.11476964099E+00  0.12703980536E+00  0.20405328455E-01 0.  0.
         14    1    1    2    0    0  0.13231307453E-01 -0.22884851001E-02  0.21590252630E-01  0.25425256529E-01  0.00000000000E+00 0.  1.
     999901    1    3    3    0    0  0.18312421347E-01 -0.37153337863E-01 -0.13635989362E+00  0.89146493811E+00  0.88000000000E+00 0.  1.
        -11    1    4    4    0    0 -0.44555620472E-02  0.20315899663E-01  0.36106761395E-01  0.41671898826E-01  0.51100000000E-03 0. -1.
         11    1    4    4    0    0 -0.27088166752E-01  0.19125923300E-01  0.78662879590E-01  0.85367906537E-01  0.51100000000E-03 0.  1.
</event>
<event>
 8    1  0.1145101E+005  0.1043930E+01  0.7957747E-01            NaN
         13   -1    0    0    0    0  0.00000000000E+00  0.00000000000E+00  0.74505805969E-08  0.10566000000E+00  0.10566000000E+00 0.  1.
     999900   -1    0    0    0    0 -0.00000000000E+00 -0.00000000000E+00 -0.74505805969E-08  0.93827000000E+00  0.93827000000E+00 0.  1.
     999902    2    1    2    0    0 -0.17618484034E-01  0.14128115532E-01  0.77010184681E-02  0.10200695659E+01  0.10197904682E+01 0.  0.
     999903    2    3    3    0    0 -0.91355548752E-01  0.49830991489E-01  0.80805987034E-01  0.13324591577E+00  0.19897299539E-01 0.  0.
         14    1    1    2    0    0  0.17618484034E-01 -0.14128115532E-01 -0.77010184681E-02  0.23860434061E-01  0.00000000000E+00 0.  1.
     999901    1    3    3    0    0  0.73737064718E-01 -0.35702875957E-01 -0.73104968566E-01  0.88682365017E+00  0.88000000000E+00 0. -1.
        -11    1    4    4    0    0 -0.50347822756E-01  0.18853983705E-01  0.33193455783E-01  0.63185778350E-01  0.51100000000E-03 0.  1.
         11    1    4    4    0    0 -0.41007725996E-01  0.30977007784E-01  0.47612531251E-01  0.70060137423E-01  0.51100000000E-03 0. -1.
</event>
<event>
 8    1  0.1145101E+005  0.1043930E+01  0.7957747E-01            NaN
         13   -1    0    0    0    0  0.00000000000E+00  0.00000000000E+00  0.74505805969E-08  0.10566000000E+00  0.10566000000E+00 0.  1.
     999900   -1    0    0    0    0 -0.00000000000E+00 -0.00000000000E+00 -0.74505805969E-08  0.93827000000E+00  0.93827000000E+00 0.  1.
     999902    2    1    2    0    0  0.57271461713E-02  0.10744847499E-01 -0.20290223865E-01  0.10202668401E+01  0.10199923921E+01 0.  0.
     999903    2    3    3    0    0  0.29457742411E-01  0.12104322004E+00 -0.41128255254E-01  0.13281932295E+00  0.20741732375E-01 0.  0.
         14    1    1    2    0    0 -0.57271461713E-02 -0.10744847499E-01  0.20290223865E-01  0.23663159880E-01  0.00000000000E+00 0.  1.
     999901    1    3    3    0    0 -0.23730596240E-01 -0.11029837254E+00  0.20838031390E-01  0.88744751717E+00  0.88000000000E+00 0. -1.
        -11    1    4    4    0    0  0.11676599283E-01  0.87500955283E-01 -0.27114316969E-01  0.92348294256E-01  0.51100000000E-03 0.  1.
         11    1    4    4    0    0  0.17781143128E-01  0.33542264758E-01 -0.14013938286E-01  0.40471028691E-01  0.51100000000E-03 0. -1.
</event>
<event>
 8    1  0.1145101E+005  0.1043930E+01  0.7957747E-01            NaN
         13   -1    0    0    0    0  0.00000000000E+00  0.00000000000E+00  0.74505805969E-08  0.10566000000E+00  0.10566000000E+00 0. -1.
     999900   -1    0    0    0    0 -0.00000000000E+00 -0.00000000000E+00 -0.74505805969E-08  0.93827000000E+00  0.93827000000E+00 0.  1.
     999902    2    1    2    0    0  0.26083661552E-01  0.20778137542E-02  0.59296816518E-02  0.10171002435E+01  0.10167463152E+01 0.  0.
     999903    2    3    3    0    0  0.11736620167E+00 -0.11989305378E-01  0.53125756358E-01  0.13100890766E+00  0.20552838194E-01 0.  0.
         14    1    1    2    0    0 -0.26083661552E-01 -0.20778137542E-02 -0.59296816518E-02  0.26829756511E-01  0.00000000000E+00 0. -1.
     999901    1    3    3    0    0 -0.91282540122E-01  0.14067119132E-01 -0.47196074706E-01  0.88609133583E+00  0.88000000000E+00 0. -1.
        -11    1    4    4    0    0  0.22051158508E-01 -0.99900792973E-02  0.13877085436E-01  0.27908598982E-01  0.51100000000E-03 0.  1.
         11    1    4    4    0    0  0.95315043165E-01 -0.19992260803E-02  0.39248670922E-01  0.10310030867E+00  0.51100000000E-03 0. -1.
</event>
<event>
 8    1  0.1145101E+005  0.1043930E+01  0.7957747E-01            NaN
         13   -1    0    0    0    0  0.00000000000E+00  0.00000000000E+00  0.74505805969E-08  0.10566000000E+00  0.10566000000E+00 0.  1.
     999900   -1    0    0    0    0 -0.00000000000E+00 -0.00000000000E+00 -0.74505805969E-08  0.93827000000E+00  0.93827000000E+00 0. -1.
     999902    2    1    2    0    0 -0.14635011648E-01 -0.12172736915E-01  0.14194036374E-01  0.10201849003E+01  0.10199085258E+01 0.  0.
     999903    2    3    3    0    0  0.21859655914E-01  0.11858408234E+00  0.44651884220E-01  0.12925455118E+00  0.13149870549E-01 0.  0.
         14    1    1    2    0    0  0.14635011648E-01  0.12172736915E-01 -0.14194036374E-01  0.23745099674E-01  0.00000000000E+00 0. -1.
     999901    1    3    3    0    0 -0.36494667562E-01 -0.13075681925E+00 -0.30457847846E-01  0.89093034915E+00  0.88000000000E+00 0. -1.
        -11    1    4    4    0    0  0.22464372870E-01  0.93462731378E-01  0.34090958662E-01  0.10199208199E+00  0.51100000000E-03 0. -1.
         11    1    4    4    0    0 -0.60471695636E-03  0.25121350957E-01  0.10560925558E-01  0.27262469187E-01  0.51100000000E-03 0.  1.
</event>
<event>
 8    1  0.1145101E+005  0.1043930E+01  0.7957747E-01            NaN
         13   -1    0    0    0    0  0.00000000000E+00  0.00000000000E+00  0.74505805969E-08  0.10566000000E+00  0.10566000000E+00 0.  1.
     999900   -1    0    0    0    0 -0.00000000000E+00 -0.00000000000E+00 -0.74505805969E-08  0.93827000000E+00  0.93827000000E+00 0. -1.
     999902    2    1    2    0    0  0.10944766616E-01  0.45794342743E-02 -0.19883339830E-01  0.10207760298E+01  0.10205133985E+01 0.  0.
     999903    2    3    3    0    0 -0.21717835799E-01 -0.10127841898E+00 -0.79111083887E-01  0.13185496671E+00  0.19954601184E-01 0.  0.
         14    1    1    2    0    0 -0.10944766616E-01 -0.45794342743E-02  0.19883339830E-01  0.23153970229E-01  0.00000000000E+00 0.  1.
     999901    1    3    3    0    0  0.32662602416E-01  0.10585785326E+00  0.59227744057E-01  0.88892106306E+00  0.88000000000E+00 0.  1.
        -11    1    4    4    0    0 -0.38379164139E-02 -0.44218895810E-02 -0.61891504577E-03  0.59098973511E-02  0.51100000000E-03 0.  1.
         11    1    4    4    0    0 -0.17879919385E-01 -0.96856529400E-01 -0.78492168841E-01  0.12594506936E+00  0.51100000000E-03 0. -1.
</event>
<event>
 8    1  0.1145101E+005  0.1043930E+01  0.7957747E-01            NaN
         13   -1    0    0    0    0  0.00000000000E+00  0.00000000000E+00  0.74505805969E-08  0.10566000000E+00  0.10566000000E+00 0. -1.
     999900   -1    0    0    0    0 -0.00000000000E+00 -0.00000000000E+00 -0.74505805969E-08  0.93827000000E+00  0.93827000000E+00 0.  1.
     999902    2    1    2    0    0 -0.23102511991E-01 -0.13273462546E-02 -0.52103245225E-02  0.10202100634E+01  0.10199342813E+01 0.  0.
     999903    2    3    3    0    0 -0.71732890006E-01  0.10742552802E+00 -0.19801738217E-01  0.13206311013E+00  0.19044806161E-01 0.  0.
         14    1    1    2    0    0  0.23102511991E-01  0.13273462546E-02  0.52103245225E-02  0.23719936552E-01  0.00000000000E+00 0. -1.
     999901    1    3    3    0    0  0.48630378015E-01 -0.10875287428E+00  0.14591413694E-01  0.88814695332E+00  0.88000000000E+00 0.  1.
        -11    1    4    4    0    0 -0.51143594367E-01  0.60347563027E-01 -0.97687539693E-02  0.79706870991E-01  0.51100000000E-03 0. -1.
         11    1    4    4    0    0 -0.20589295639E-01  0.47077964997E-01 -0.10032984247E-01  0.52356239142E-01  0.51100000000E-03 0.  1.
</event>
<event>
 8    1  0.1145101E+005  0.1043930E+01  0.7957747E-01            NaN
         13   -1    0    0    0    0  0.00000000000E+00  0.00000000000E+00  0.74505805969E-08  0.10566000000E+00  0.10566000000E+00 0.  1.
     999900   -1    0    0    0    0 -0.00000000000E+00 -0.00000000000E+00 -0.74505805969E-08  0.93827000000E+00  0.93827000000E+00 0. -1.
     999902    2    1    2    0    0 -0.92347318413E-02 -0.14530103274E-02  0.21843379828E-01  0.10201702703E+01  0.10198935512E+01 0.  0.
     999903    2    3    3    0    0  0.99759336377E-01 -0.72343604668E-01 -0.32365150171E-01  0.12896673130E+00  0.19984806881E-01 0.  0.
         14    1    1    2    0    0  0.92347318413E-02  0.14530103274E-02 -0.21843379828E-01  0.23759729660E-01  0.00000000000E+00 0. -1.
     999901    1    3    3    0    0 -0.10899406822E+00  0.70890594340E-01  0.54208529999E-01  0.89120353904E+00  0.88000000000E+00 0.  1.
        -11    1    4    4    0    0  0.81014538974E-01 -0.48893955731E-01 -0.21521054431E-01  0.97043244675E-01  0.51100000000E-03 0.  1.
         11    1    4    4    0    0  0.18744797403E-01 -0.23449648937E-01 -0.10844095740E-01  0.31923486626E-01  0.51100000000E-03 0. -1.
</event>
<event>
 8    1  0.1145101E+005  0.1043930E+01  0.7957747E-01            NaN
         13   -1    0    0    0    0  0.00000000000E+00  0.00000000000E+00  0.74505805969E-08  0.10566000000E+00  0.10566000000E+00 0.  1.
     999900   -1    0    0    0    0 -0.00000000000E+00 -0.00000000000E+00 -0.74505805969E-08  0.93827000000E+00  0.93827000000E+00 0.  1.
     999902    2    1    2    0    0 -0.37196082528E-02  0.10539005015E-01 -0.21731504695E-01  0.10194930524E+01  0.10192001371E+01 0.  0.
     999903    2    3    3    0    0  0.69323710339E-01 -0.52871229874E-02  0.10480978513E+00  0.12730557727E+00  0.19694884120E-01 0.  0.
         14    1    1    2    0    0  0.37196082528E-02 -0.10539005015E-01  0.21731504695E-01  0.24436947612E-01  0.00000000000E+00 0.  1.
     999901    1    3    3    0    0 -0.73043318592E-01  0.15826128002E-01 -0.12654128983E+00  0.89218747511E+00  0.88000000000E+00 0.  1.
        -11    1    4    4    0    0  0.57574522507E-01 -0.30442764869E-02  0.71142677343E-01  0.91573112439E-01  0.51100000000E-03 0. -1.
         11    1    4    4    0    0  0.11749187832E-01 -0.22428465005E-02  0.33667107792E-01  0.35732464835E-01  0.51100000000E-03 0.  1.
</event>
<event>
 8    1  0.1145101E+005  0.1043930E+01  0.7957747E-01            NaN
         13   -1    0    0    0    0  0.00000000000E+00  0.00000000000E+00  0.74505805969E-08  0.10566000000E+00  0.10566000000E+00 0.  1.
     999900   -1    0    0    0    0 -0.00000000000E+00 -0.00000000000E+00 -0.74505805969E-08  0.93827000000E+00  0.93827000000E+00 0. -1.
     999902    2    1    2    0    0  0.20259183617E-02  0.14973833278E-01  0.18404363189E-01  0.10201173854E+01  0.10198394185E+01 0.  0.
     999903    2    3    3    0    0 -0.65318180253E-01  0.86234664637E-01 -0.69580205571E-01  0.13031144139E+00  0.20899394586E-01 0.  0.
         14    1    1    2    0    0 -0.20259183617E-02 -0.14973833278E-01 -0.18404363189E-01  0.23812614569E-01  0.00000000000E+00 0. -1.
     999901    1    3    3    0    0  0.67344098615E-01 -0.71260831360E-01  0.87984568760E-01  0.88980594404E+00  0.88000000000E+00 0.  1.
        -11    1    4    4    0    0 -0.32201970425E-01  0.26340761386E-01 -0.23226191077E-01  0.47649970436E-01  0.51100000000E-03 0.  1.
         11    1    4    4    0    0 -0.33116209828E-01  0.59893903252E-01 -0.46354014494E-01  0.82661470957E-01  0.51100000000E-03 0. -1.
</event>
<event>
 8    1  0.1145101E+005  0.1043930E+01  0.7957747E-01            NaN
         13   -1    0    0    0    0  0.00000000000E+00  0.00000000000E+00  0.74505805969E-08  0.10566000000E+00  0.10566000000E+00 0. -1.
     999900   -1    0    0    0    0 -0.00000000000E+00 -0.00000000000E+00 -0.74505805969E-08  0.93827000000E+00  0.93827000000E+00 0.  1.
     999902    2    1    2    0    0 -0.35004883857E-02  0.36447646064E-02  0.24810734570E-01  0.10186098444E+01  0.10182950972E+01 0.  0.
     999903    2    3    3    0    0 -0.10972244785E+00  0.61086541364E-01 -0.21729564574E-01  0.12914446465E+00  0.20869539416E-01 0.  0.
         14    1    1    2    0    0  0.35004883857E-02 -0.36447646064E-02 -0.24810734570E-01  0.25320155566E-01  0.00000000000E+00 0.  1.
     999901    1    3    3    0    0  0.10622195946E+00 -0.57441776758E-01  0.46540299144E-01  0.88946537978E+00  0.88000000000E+00 0. -1.
        -11    1    4    4    0    0 -0.65259638199E-01  0.27170093190E-01 -0.18774340835E-01  0.73142131065E-01  0.51100000000E-03 0. -1.
         11    1    4    4    0    0 -0.44462809650E-01  0.33916448175E-01 -0.29552237389E-02  0.56002333586E-01  0.51100000000E-03 0.  1.
</event>
<event>
 8    1  0.1145101E+005  0.1043930E+01  0.7957747E-01            NaN
         13   -1    0    0    0    0  0.00000000000E+00  0.00000000000E+00  0.74505805969E-08  0.10566000000E+00  0.10566000000E+00 0. -1.
     999900   -1    0    0    0    0 -0.00000000000E+00 -0.00000000000E+00 -0.74505805969E-08  0.93827000000E+00  0.93827000000E+00 0. -1.
     999902    2    1    2    0    0  0.40419698708E-02 -0.15724802251E-01 -0.22552440600E-01  0.10161411623E+01  0.10157611147E+01 0.  0.
     999903    2    3    3    0    0  0.11730924175E+00  0.43202698956E-01  0.11759407444E-02  0.12661040879E+00  0.20022022389E-01 0.  0.
         14    1    1    2    0    0 -0.40419698708E-02  0.15724802251E-01  0.22552440600E-01  0.27788837746E-01  0.00000000000E+00 0. -1.
     999901    1    3    3    0    0 -0.11326727188E+00 -0.58927501206E-01 -0.23728381344E-01  0.88953075346E+00  0.88000000000E+00 0. -1.
        -11    1    4    4    0    0  0.28692246638E-01  0.20043785973E-01  0.90578518395E-03  0.35015424331E-01  0.51100000000E-03 0.  1.
         11    1    4    4    0    0  0.88616995111E-01  0.23158912983E-01  0.27015556047E-03  0.91594984459E-01  0.51100000000E-03 0. -1.
</event>
<event>
 8    1  0.1145101E+005  0.1043930E+01  0.7957747E-01            NaN
         13   -1    0    0    0    0  0.00000000000E+00  0.00000000000E+00  0.74505805969E-08  0.10566000000E+00  0.10566000000E+00 0. -1.
     999900   -1    0    0    0    0 -0.00000000000E+00 -0.00000000000E+00 -0.74505805969E-08  0.93827000000E+00  0.93827000000E+00 0. -1.
     999902    2    1    2    0    0  0.13229181084E-01 -0.15541390785E-01 -0.11259743982E-01  0.10206206050E+01  0.10203543951E+01 0.  0.
     999903    2    3    3    0    0  0.90590501218E-01  0.83048579962E-01  0.38696688095E-01  0.13033952509E+00  0.19678734352E-01 0.  0.
         14    1    1    2    0    0 -0.13229181084E-01  0.15541390785E-01  0.11259743982E-01  0.23309394978E-01  0.00000000000E+00 0. -1.
     999901    1    3    3    0    0 -0.77361320134E-01 -0.98589970747E-01 -0.49956432077E-01  0.89028107994E+00  0.88000000000E+00 0. -1.
        -11    1    4    4    0    0  0.41351895623E-01  0.39387212074E-01  0.78114184489E-02  0.57642095085E-01  0.51100000000E-03 0. -1.
         11    1    4    4    0    0  0.49238605595E-01  0.43661367888E-01  0.30885269646E-01  0.72697430002E-01  0.51100000000E-03 0.  1.
</event>
<event>
 8    1  0.1145101E+005  0.1043930E+01  0.7957747E-01            NaN
         13   -1    0    0    0    0  0.00000000000E+00  0.00000000000E+00  0.74505805969E-08  0.10566000000E+00  0.10566000000E+00 0. -1.
     999900   -1    0    0    0    0 -0.00000000000E+00 -0.00000000000E+00 -0.74505805969E-08  0.93827000000E+00  0.93827000000E+00 0.  1.
     999902    2    1    2    0    0 -0.18769205352E-01  0.27266304794E-02 -0.13558774373E-01  0.10206156708E+01  0.10203493468E+01 0.  0.
     999903    2    3    3    0    0  0.61379900855E-01 -0.11078043574E+00 -0.17981854273E-01  0.12970192810E+00  0.21434689113E-01 0.  0.
         14    1    1    2    0    0  0.18769205352E-01 -0.27266304794E-02  0.13558774373E-01  0.23314329195E-01  0.00000000000E+00 0. -1.
     999901    1    3    3    0    0 -0.80149106207E-01  0.11350706622E+00  0.44230799005E-02  0.89091374271E+00  0.88000000000E+00 0. -1.
        -11    1    4    4    0    0  0.39775462326E-01 -0.89764483615E-01 -0.11357480485E-01  0.98838268934E-01  0.51100000000E-03 0.  1.
         11    1    4    4    0    0  0.21604438530E-01 -0.21015952126E-01 -0.66243737881E-02  0.30863659165E-01  0.51100000000E-03 0. -1.
</event>
<event>
 8    1  0.1145101E+005  0.1043930E+01  0.7957747E-01            NaN
         13   -1    0    0    0    0  0.00000000000E+00  0.00000000000E+00  0.74505805969E-08  0.10566000000E+00  0.10566000000E+00 0.  1.
     999900   -1    0    0    0    0 -0.00000000000E+00 -0.00000000000E+00 -0.74505805969E-08  0.93827000000E+00  0.93827000000E+00 0.  1.
     999902    2    1    2    0    0 -0.24721107181E-01 -0.11011794102E-01 -0.26989034041E-02  0.10167329996E+01  0.10163691828E+01 0.  0.
     999903    2    3    3    0    0  0.22109286848E-01 -0.83748877570E-01  0.91277081205E-01  0.12751128667E+00  0.20613772473E-01 0.  0.
         14    1    1    2    0    0  0.24721107181E-01  0.11011794102E-01  0.26989034041E-02  0.27197000371E-01  0.00000000000E+00 0.  1.
     999901    1    3    3    0    0 -0.46830394029E-01  0.72737083468E-01 -0.93975984609E-01  0.88922171296E+00  0.88000000000E+00 0.  1.
        -11    1    4    4    0    0  0.27621882356E-02 -0.10024260848E-01  0.22726959532E-01  0.24997825904E-01  0.51100000000E-03 0.  1.
         11    1    4    4    0    0  0.19347098612E-01 -0.73724616722E-01  0.68550121673E-01  0.10251346076E+00  0.51100000000E-03 0. -1.
</event>
<event>
 8    1  0.1145101E+005  0.1043930E+01  0.7957747E-01            NaN
         13   -1    0    0    0    0  0.00000000000E+00  0.00000000000E+00  0.74505805969E-08  0.10566000000E+00  0.10566000000E+00 0. -1.
     999900   -1    0    0    0    0 -0.00000000000E+00 -0.00000000000E+00 -0.74505805969E-08  0.93827000000E+00  0.93827000000E+00 0. -1.
     999902    2    1    2    0    0 -0.15255613362E-01 -0.51181779011E-02  0.17457337535E-01  0.10201878830E+01  0.10199115788E+01 0.  0.
     999903    2    3    3    0    0  0.20997880569E-01  0.81974967718E-01 -0.93954388251E-01  0.12816091905E+00  0.20904252666E-01 0.  0.
         14    1    1    2    0    0  0.15255613362E-01  0.51181779011E-02 -0.17457337535E-01  0.23742116963E-01  0.00000000000E+00 0.  1.
     999901    1    3    3    0    0 -0.36253493931E-01 -0.87093145619E-01  0.11141172579E+00  0.89202696399E+00  0.88000000000E+00 0.  1.
        -11    1    4    4    0    0  0.22704755433E-01  0.47714959469E-01 -0.58129969989E-01  0.78559390326E-01  0.51100000000E-03 0.  1.
         11    1    4    4    0    0 -0.17068748649E-02  0.34260008249E-01 -0.35824418262E-01  0.49601528725E-01  0.51100000000E-03 0. -1.
</event>
<event>
 7    1  0.1145101E+005  0.1043930E+01  0.7957747E-01            NaN
         13   -1    0    0    0    0  0.00000000000E+00  0.00000000000E+00  0.74505805969E-08  0.10566000000E+00  0.10566000000E+00 0.  1.
     999900   -1    0    0    0    0 -0.00000000000E+00 -0.00000000000E+00 -0.74505805969E-08  0.93827000000E+00  0.93827000000E+00 0. -1.
     999903    2    1    2    0    0 -0.65159424409E-01  0.67692445021E-01  0.46144604192E-01  0.10663667323E+00  0.20347920752E-01 0.  0.
         14    1    1    2    0    0  0.17164530105E-01 -0.50788527621E-01  0.77962025204E-02  0.54174499585E-01  0.00000000000E+00 0.  1.
     999901    1    1    2    0    0  0.47994894304E-01 -0.16903917400E-01 -0.53940806712E-01  0.88311882719E+00  0.88000000000E+00 0. -1.
        -11    1    3    3    0    0 -0.58962932674E-01  0.49791301672E-01  0.37654319616E-01  0.85871474067E-01  0.51100000000E-03 0.  1.
         11    1    3    3    0    0 -0.61964917346E-02  0.17901143349E-01  0.84902845757E-02  0.20765199161E-01  0.51100000000E-03 0. -1.
</event>
<event>
 7    1  0.1145101E+005  0.1043930E+01  0.7957747E-01            NaN
         13   -1    0    0    0    0  0.00000000000E+00  0.00000000000E+00  0.74505805969E-08  0.10566000000E+00  0.10566000000E+00 0.  1.
     999900   -1    0    0    0    0 -0.00000000000E+00 -0.00000000000E+00 -0.74505805969E-08  0.93827000000E+00  0.93827000000E+00 0. -1.
     999903    2    1    2    0    0 -0.13723865085E-01 -0.62908163504E-01 -0.96456005165E-02  0.67885582499E-01  0.19225847015E-01 0.  0.
         14    1    1    2    0    0 -0.21333231794E-01  0.83539398129E-01 -0.37104368414E-01  0.93865179773E-01  0.00000000000E+00 0.  1.
     999901    1    1    2    0    0  0.35057096879E-01 -0.20631234624E-01  0.46749968930E-01  0.88217923773E+00  0.88000000000E+00 0.  1.
        -11    1    3    3    0    0 -0.86399554260E-02 -0.13274396602E-01 -0.84863809981E-02  0.17976045681E-01  0.51100000000E-03 0. -1.
         11    1    3    3    0    0 -0.50839096594E-02 -0.49633766903E-01 -0.11592195184E-02  0.49909536817E-01  0.51100000000E-03 0.  1.
</event>
<event>
 8    1  0.1145101E+005  0.1043930E+01  0.7957747E-01            NaN
         13   -1    0    0    0    0  0.00000000000E+00  0.00000000000E+00  0.74505805969E-08  0.10566000000E+00  0.10566000000E+00 0.  1.
     999900   -1    0    0    0    0 -0.00000000000E+00 -0.00000000000E+00 -0.74505805969E-08  0.93827000000E+00  0.93827000000E+00 0. -1.
     999902    2    1    2    0    0  0.88446478539E-02 -0.19148317332E-01 -0.10131006170E-01  0.10205307877E+01  0.10202624983E+01 0.  0.
     999903    2    3    3    0    0 -0.96572676171E-01 -0.37466036945E-01  0.76023638932E-01  0.12987318008E+00  0.18906705714E-01 0.  0.
         14    1    1    2    0    0 -0.88446478539E-02  0.19148317332E-01  0.10131006170E-01  0.23399212344E-01  0.00000000000E+00 0.  1.
     999901    1    3    3    0    0  0.10541732402E+00  0.18317719613E-01 -0.86154645102E-01  0.89065760757E+00  0.88000000000E+00 0. -1.
        -11    1    4    4    0    0 -0.61421303520E-01 -0.33056560443E-01  0.47548947433E-01  0.84418459104E-01  0.51100000000E-03 0. -1.
         11    1    4    4    0    0 -0.35151372651E-01 -0.44094765018E-02  0.28474691499E-01  0.45454720978E-01  0.51100000000E-03 0.  1.
</event>
<event>
 8    1  0.1145101E+005  0.1043930E+01  0.7957747E-01            NaN
         13   -1    0    0    0    0  0.00000000000E+00  0.00000000000E+00  0.74505805969E-08  0.10566000000E+00  0.10566000000E+00 0. -1.
     999900   -1    0    0    0    0 -0.00000000000E+00 -0.00000000000E+00 -0.74505805969E-08  0.93827000000E+00  0.93827000000E+00 0. -1.
     999902    2    1    2    0    0  0.22199505440E-01 -0.33410537118E-02 -0.78871415252E-02  0.10201353014E+01  0.10198577574E+01 0.  0.
     999903    2    3    3    0    0 -0.69293236699E-01  0.49045951646E-01 -0.95954152375E-01  0.12947761258E+00  0.18713491820E-01 0.  0.
         14    1    1    2    0    0 -0.22199505440E-01  0.33410537118E-02  0.78871415252E-02  0.23794698635E-01  0.00000000000E+00 0. -1.
     999901    1    3    3    0    0  0.91492742138E-01 -0.52387005358E-01  0.88067010849E-01  0.89065768879E+00  0.88000000000E+00 0.  1.
        -11    1    4    4    0    0 -0.37279697789E-01  0.22054497463E-01 -0.35878545759E-01  0.56246847844E-01  0.51100000000E-03 0. -1.
         11    1    4    4    0    0 -0.32013538910E-01  0.26991454183E-01 -0.60075606615E-01  0.73230764735E-01  0.51100000000E-03 0.  1.
</event>
<event>
 8    1  0.1145101E+005  0.1043930E+01  0.7957747E-01            NaN
         13   -1    0    0    0    0  0.00000000000E+00  0.00000000000E+00  0.74505805969E-08  0.10566000000E+00  0.10566000000E+00 0.  1.
     999900   -1    0    0    0    0 -0.00000000000E+00 -0.00000000000E+00 -0.74505805969E-08  0.93827000000E+00  0.93827000000E+00 0.  1.
     999902    2    1    2    0    0 -0.19166336767E-01  0.11934687099E-01  0.62912612814E-02  0.10204914593E+01  0.10202222568E+01 0.  0.
     999903    2    3    3    0    0 -0.80377684655E-02  0.87674535215E-01 -0.95394334283E-01  0.13133436972E+00  0.19930072972E-01 0.  0.
         14    1    1    2    0    0  0.19166336767E-01 -0.11934687099E-01 -0.62912612814E-02  0.23438540691E-01  0.00000000000E+00 0. -1.
     999901    1    3    3    0    0 -0.11128568302E-01 -0.75739848116E-01  0.10168559556E+00  0.88915708959E+00  0.88000000000E+00 0. -1.
        -11    1    4    4    0    0 -0.89522092044E-02  0.15178352145E-01 -0.21617205028E-01  0.27894248470E-01  0.51100000000E-03 0. -1.
         11    1    4    4    0    0  0.91444073888E-03  0.72496183070E-01 -0.73777129255E-01  0.10344012125E+00  0.51100000000E-03 0.  1.
</event>
<event>
 8    1  0.1145101E+005  0.1043930E+01  0.7957747E-01            NaN
         13   -1    0    0    0    0  0.00000000000E+00  0.00000000000E+00  0.74505805969E-08  0.10566000000E+00  0.10566000000E+00 0. -1.
     999900   -1    0    0    0    0 -0.00000000000E+00 -0.00000000000E+00 -0.74505805969E-08  0.93827000000E+00  0.93827000000E+00 0. -1.
     999902    2    1    2    0    0  0.12811800593E-01 -0.17702801613E-01 -0.93046831171E-02  0.10201790306E+01  0.10199025179E+01 0.  0.
     999903    2    3    3    0    0 -0.10369846468E+00 -0.68270828748E-01  0.33367587401E-01  0.13003708128E+00  0.19544026796E-01 0.  0.
         14    1    1    2    0    0 -0.12811800593E-01  0.17702801613E-01  0.93046831171E-02  0.23750969397E-01  0.00000000000E+00 0. -1.
     999901    1    3    3    0    0  0.11651026527E+00  0.50568027135E-01 -0.42672270518E-01  0.89014194933E+00  0.88000000000E+00 0. -1.
        -11    1    4    4    0    0 -0.43932119738E-01 -0.35378653243E-01  0.67675314136E-02  0.56813210193E-01  0.51100000000E-03 0. -1.
         11    1    4    4    0    0 -0.59766344939E-01 -0.32892175505E-01  0.26600055988E-01  0.73223871083E-01  0.51100000000E-03 0.  1.
</event>
<event>
 8    1  0.1145101E+005  0.1043930E+01  0.7957747E-01            NaN
         13   -1    0    0    0    0  0.00000000000E+00  0.00000000000E+00  0.74505805969E-08  0.10566000000E+00  0.10566000000E+00 0. -1.
     999900   -1    0    0    0    0 -0.00000000000E+00 -0.00000000000E+00 -0.74505805969E-08  0.93827000000E+00  0.93827000000E+00 0. -1.
     999902    2    1    2    0    0  0.80500233705E-02  0.20660362104E-01 -0.10236309749E-01  0.10195079715E+01  0.10192154181E+01 0.  0.
     999903    2    3    3    0    0 -0.36367848151E-01  0.91805214970E-01 -0.85923087773E-01  0.13228588783E+00  0.19130113190E-01 0.  0.
         14    1    1    2    0    0 -0.80500233705E-02 -0.20660362104E-01  0.10236309749E-01  0.24422028495E-01  0.00000000000E+00 0. -1.
     999901    1    3    3    0    0  0.44417871521E-01 -0.71144852865E-01  0.75686778024E-01  0.88722208368E+00  0.88000000000E+00 0.  1.
        -11    1    4    4    0    0 -0.13665701419E-01  0.54188012228E-01 -0.39991971250E-01  0.68721983018E-01  0.51100000000E-03 0.  1.
         11    1    4    4    0    0 -0.22702146731E-01  0.37617202742E-01 -0.45931116523E-01  0.63563904807E-01  0.51100000000E-03 0. -1.
</event>
<event>
 8    1  0.1145101E+005  0.1043930E+01  0.7957747E-01            NaN
         13   -1    0    0    0    0  0.00000000000E+00  0.00000000000E+00  0.74505805969E-08  0.10566000000E+00  0.10566000000E+00 0.  1.
     999900   -1    0    0    0    0 -0.00000000000E+00 -0.00000000000E+00 -0.74505805969E-08  0.93827000000E+00  0.93827000000E+00 0. -1.
     999902    2    1    2    0    0  0.50909231466E-02  0.21582722044E-01 -0.10580191504E-01  0.10193602657E+01  0.10190641194E+01 0.  0.
     999903    2    3    3    0    0 -0.10235310308E+00 -0.64709324877E-01  0.34646151494E-01  0.12748810100E+00  0.19733363830E-01 0.  0.
         14    1    1    2    0    0 -0.50909231466E-02 -0.21582722044E-01  0.10580191504E-01  0.24569734259E-01  0.00000000000E+00 0.  1.
     999901    1    3    3    0    0  0.10744402623E+00  0.86292046920E-01 -0.45226342998E-01  0.89187216474E+00  0.88000000000E+00 0. -1.
        -11    1    4    4    0    0 -0.48955954705E-01 -0.40907490183E-01  0.23379906802E-01  0.67948432044E-01  0.51100000000E-03 0. -1.
         11    1    4    4    0    0 -0.53397148374E-01 -0.23801834694E-01  0.11266244691E-01  0.59539668959E-01  0.51100000000E-03 0.  1.
</event>
<event>
 8    1  0.1145101E+005  0.1043930E+01  0.7957747E-01            NaN
         13   -1    0    0    0    0  0.00000000000E+00  0.00000000000E+00  0.74505805969E-08  0.10566000000E+00  0.10566000000E+00 0.  1.
     999900   -1    0    0    0    0 -0.00000000000E+00 -0.00000000000E+00 -0.74505805969E-08  0.93827000000E+00  0.93827000000E+00 0.  1.
     999902    2    1    2    0    0 -0.22478998721E-01 -0.23208022564E-02  0.72821747117E-02  0.10201871785E+01  0.10199108576E+01 0.  0.
     999903    2    3    3    0    0 -0.22736691568E-02 -0.28627718486E-01  0.12680657728E+00  0.13148790873E+00  0.19607301345E-01 0.  0.
         14    1    1    2    0    0  0.22478998721E-01  0.23208022564E-02 -0.72821747117E-02  0.23742821550E-01  0.00000000000E+00 0. -1.
     999901    1    3    3    0    0 -0.20205329564E-01  0.26306916230E-01 -0.11952440256E+00  0.88869926972E+00  0.88000000000E+00 0.  1.
        -11    1    4    4    0    0 -0.10751898018E-01 -0.14115301712E-01  0.72252422414E-01  0.74401066653E-01  0.51100000000E-03 0.  1.
         11    1    4    4    0    0  0.84782288609E-02 -0.14512416774E-01  0.54554154861E-01  0.57086842082E-01  0.51100000000E-03 0. -1.
</event>
<event>
 8    1  0.1145101E+005  0.1043930E+01  0.7957747E-01            NaN
         13   -1    0    0    0    0  0.00000000000E+00  0.00000000000E+00  0.74505805969E-08  0.10566000000E+00  0.10566000000E+00 0. -1.
     999900   -1    0    0    0    0 -0.00000000000E+00 -0.00000000000E+00 -0.74505805969E-08  0.93827000000E+00  0.93827000000E+00 0.  1.
     999902    2    1    2    0    0  0.23328820359E-02  0.15546002641E-01 -0.16650529655E-01  0.10210310770E+01  0.10207742647E+01 0.  0.
     999903    2    3    3    0    0 -0.11285132819E-01  0.11848547117E+00  0.53912652121E-01  0.13212098755E+00  0.19576010615E-01 0.  0.
         14    1    1    2    0    0 -0.23328820359E-02 -0.15546002641E-01  0.16650529655E-01  0.22898922999E-01  0.00000000000E+00 0.  1.
     999901    1    3    3    0    0  0.13618014855E-01 -0.10293946853E+00 -0.70563181775E-01  0.88891008945E+00  0.88000000000E+00 0.  1.
        -11    1    4    4    0    0 -0.18754771701E-02  0.92947683282E-01  0.46279191367E-01  0.10384995867E+00  0.51100000000E-03 0.  1.
         11    1    4    4    0    0 -0.94096556490E-02  0.25537787886E-01  0.76334607536E-02  0.28271028874E-01  0.51100000000E-03 0. -1.
</event>
<event>
 8    1  0.1145101E+005  0.1043930E+01  0.7957747E-01            NaN
         13   -1    0    0    0    0  0.00000000000E+00  0.00000000000E+00  0.74505805969E-08  0.10566000000E+00  0.10566000000E+00 0.  1.
     999900   -1    0    0    0    0 -0.00000000000E+00 -0.00000000000E+00 -0.74505805969E-08  0.93827000000E+00  0.93827000000E+00 0. -1.
     999902    2    1    2    0    0  0.21418248601E-01  0.93907289242E-02 -0.38494316943E-02  0.10202288336E+01  0.10199534929E+01 0.  0.
     999903    2    3    3    0    0  0.61195843994E-01  0.88912582049E-01  0.73936567219E-01  0.13233433323E+00  0.19884194978E-01 0.  0.
         14    1    1    2    0    0 -0.21418248601E-01 -0.93907289242E-02  0.38494316943E-02  0.23701166369E-01  0.00000000000E+00 0.  1.
     999901    1    3    3    0    0 -0.39777595393E-01 -0.79521853125E-01 -0.77785998913E-01  0.88789450040E+00  0.88000000000E+00 0. -1.
        -11    1    4    4    0    0  0.25632131639E-01  0.48627483131E-01  0.28284353172E-01  0.61821549992E-01  0.51100000000E-03 0. -1.
         11    1    4    4    0    0  0.35563712355E-01  0.40285098918E-01  0.45652214047E-01  0.70512783236E-01  0.51100000000E-03 0.  1.
</event>
<event>
 8    1  0.1145101E+005  0.1043930E+01  0.7957747E-01            NaN
         13   -1    0    0    0    0  0.00000000000E+00  0.00000000000E+00  0.74505805969E-08  0.10566000000E+00  0.10566000000E+00 0.  1.
     999900   -1    0    0    0    0 -0.00000000000E+00 -0.00000000000E+00 -0.74505805969E-08  0.93827000000E+00  0.93827000000E+00 0.  1.
     999902    2    1    2    0    0  0.36079240612E-02  0.22975433424E-01 -0.18027975627E-02  0.10206032399E+01  0.10203366286E+01 0.  0.
     999903    2    3    3    0    0 -0.56845755621E-01 -0.11242636402E+00  0.10882823723E-01  0.12810717879E+00  0.20539867236E-01 0.  0.
         14    1    1    2    0    0 -0.36079240612E-02 -0.22975433424E-01  0.18027975627E-02  0.23326760086E-01  0.00000000000E+00 0.  1.
     999901    1    3    3    0    0  0.60453679683E-01  0.13540179744E+00 -0.12685621286E-01  0.89249606113E+00  0.88000000000E+00 0.  1.
        -11    1    4    4    0    0 -0.46698919451E-01 -0.71599249864E-01  0.95261116312E-02  0.86013077975E-01  0.51100000000E-03 0.  1.
         11    1    4    4    0    0 -0.10146836170E-01 -0.40827114156E-01  0.13567120921E-02  0.42094100813E-01  0.51100000000E-03 0. -1.
</event>
<event>
 8    1  0.1145101E+005  0.1043930E+01  0.7957747E-01            NaN
         13   -1    0    0    0    0  0.00000000000E+00  0.00000000000E+00  0.74505805969E-08  0.10566000000E+00  0.10566000000E+00 0. -1.
     999900   -1    0    0    0    0 -0.00000000000E+00 -0.00000000000E+00 -0.74505805969E-08  0.93827000000E+00  0.93827000000E+00 0. -1.
     999902    2    1    2    0    0  0.18401575821E-01  0.83254509632E-03  0.13681539015E-01  0.10209845073E+01  0.10207266375E+01 0.  0.
     999903    2    3    3    0    0  0.16005697814E-01  0.12754011469E+00  0.21862485602E-01  0.13186838651E+00  0.19713951033E-01 0.  0.
         14    1    1    2    0    0 -0.18401575821E-01 -0.83254509632E-03 -0.13681539015E-01  0.22945492669E-01  0.00000000000E+00 0.  1.
     999901    1    3    3    0    0  0.23958780070E-02 -0.12670756959E+00 -0.81809465872E-02  0.88911612082E+00  0.88000000000E+00 0.  1.
        -11    1    4    4    0    0  0.31771077957E-03  0.52053146404E-01  0.13039112196E-02  0.52072951675E-01  0.51100000000E-03 0.  1.
         11    1    4    4    0    0  0.15687987034E-01  0.75486968286E-01  0.20558574382E-01  0.79795434831E-01  0.51100000000E-03 0. -1.
</event>
<event>
 8    1  0.1145101E+005  0.1043930E+01  0.7957747E-01            NaN
         13   -1    0    0    0    0  0.00000000000E+00  0.00000000000E+00  0.74505805969E-08  0.10566000000E+00  0.10566000000E+00 0. -1.
     999900   -1    0    0    0    0 -0.00000000000E+00 -0.00000000000E+00 -0.74505805969E-08  0.93827000000E+00  0.93827000000E+00 0. -1.
     999902    2    1    2    0    0  0.15767302031E-02 -0.16121197606E-01  0.14995884875E-01  0.10218561319E+01  0.10216176871E+01 0.  0.
     999903    2    3    3    0    0  0.15480899137E-01 -0.13083399277E+00 -0.12616355317E-01  0.13387258074E+00  0.20137118757E-01 0.  0.
         14    1    1    2    0    0 -0.15767302031E-02  0.16121197606E-01 -0.14995884875E-01  0.22073868115E-01  0.00000000000E+00 0.  1.
     999901    1    3    3    0    0 -0.13904168934E-01  0.11471279516E+00  0.27612240192E-01  0.88798355114E+00  0.88000000000E+00 0.  1.
        -11    1    4    4    0    0  0.88509675967E-03 -0.23797307713E-01 -0.99424617748E-02  0.25811023184E-01  0.51100000000E-03 0. -1.
         11    1    4    4    0    0  0.14595802377E-01 -0.10703668506E+00 -0.26738935420E-02  0.10806155756E+00  0.51100000000E-03 0.  1.
</event>
<event>
 8    1  0.1145101E+005  0.1043930E+01  0.7957747E-01            NaN
         13   -1    0    0    0    0  0.00000000000E+00  0.00000000000E+00  0.74505805969E-08  0.10566000000E+00  0.10566000000E+00 0. -1.
     999900   -1    0    0    0    0 -0.00000000000E+00 -0.00000000000E+00 -0.74505805969E-08  0.93827000000E+00  0.93827000000E+00 0.  1.
     999902    2    1    2    0    0  0.89157248166E-03  0.19781098464E-01  0.15809970764E-01  0.10185914536E+01  0.10182762432E+01 0.  0.
     999903    2    3    3    0    0  0.56925831650E-01  0.82082619296E-01  0.84420938894E-01  0.13195241620E+00  0.17505385397E-01 0.  0.
         14    1    1    2    0    0 -0.89157248166E-03 -0.19781098464E-01 -0.15809970764E-01  0.25338546397E-01  0.00000000000E+00 0.  1.
     999901    1    3    3    0    0 -0.56034259169E-01 -0.62301520832E-01 -0.68610968129E-01  0.88663903740E+00  0.88000000000E+00 0. -1.
        -11    1    4    4    0    0  0.32321900833E-01  0.58953641131E-01  0.61649036483E-01  0.91220073977E-01  0.51100000000E-03 0. -1.
         11    1    4    4    0    0  0.24603930817E-01  0.23128978165E-01  0.22771902411E-01  0.40732342224E-01  0.51100000000E-03 0.  1.
</event>
<event>
 8    1  0.1145101E+005  0.1043930E+01  0.7957747E-01            NaN
         13   -1    0    0    0    0  0.00000000000E+00  0.00000000000E+00  0.74505805969E-08  0.10566000000E+00  0.10566000000E+00 0.  1.
     999900   -1    0    0    0    0 -0.00000000000E+00 -0.00000000000E+00 -0.74505805969E-08  0.93827000000E+00  0.93827000000E+00 0.  1.
     999902    2    1    2    0    0 -0.20524253038E-01  0.18925340067E-02  0.12691373566E-01  0.10197246780E+01  0.10194373553E+01 0.  0.
     999903    2    3    3    0    0 -0.12767880933E+00 -0.29692547188E-01 -0.30633428918E-03  0.13256705017E+00  0.19758624433E-01 0.  0.
         14    1    1    2    0    0  0.20524253038E-01 -0.18925340067E-02 -0.12691373566E-01  0.24205321950E-01  0.00000000000E+00 0. -1.
     999901    1    3    3    0    0  0.10715455630E+00  0.31585081195E-01  0.12997707855E-01  0.88715762788E+00  0.88000000000E+00 0. -1.
        -11    1    4    4    0    0 -0.22293887632E-01 -0.39714376347E-02 -0.74715427910E-02  0.23851096732E-01  0.51100000000E-03 0.  1.
         11    1    4    4    0    0 -0.10538492170E+00 -0.25721109553E-01  0.71652085018E-02  0.10871595344E+00  0.51100000000E-03 0. -1.
</event>
<event>
 8    1  0.1145101E+005  0.1043930E+01  0.7957747E-01            NaN
         13   -1    0    0    0    0  0.00000000000E+00  0.00000000000E+00  0.74505805969E-08  0.10566000000E+00  0.10566000000E+00 0. -1.
     999900   -1    0    0    0    0 -0.00000000000E+00 -0.00000000000E+00 -0.74505805969E-08  0.93827000000E+00  0.93827000000E+00 0.  1.
     999902    2    1    2    0    0 -0.13748340964E-01 -0.19763368007E-01 -0.29125730442E-02  0.10196794191E+01  0.10193910079E+01 0.  0.
     999903    2    3    3    0    0 -0.53156111978E-01 -0.52768320154E-01  0.10609527792E+00  0.13146491183E+00  0.20414386906E-01 0.  0.
         14    1    1    2    0    0  0.13748340964E-01  0.19763368007E-01  0.29125730442E-02  0.24250580941E-01  0.00000000000E+00 0.  1.
     999901    1    3    3    0    0  0.39407771014E-01  0.33004952147E-01 -0.10900785096E+00  0.88821450723E+00  0.88000000000E+00 0.  1.
        -11    1    4    4    0    0 -0.40660248380E-01 -0.28023447891E-01  0.60438001937E-01  0.78048591461E-01  0.51100000000E-03 0. -1.
         11    1    4    4    0    0 -0.12495863598E-01 -0.24744872263E-01  0.45657275983E-01  0.53416320367E-01  0.51100000000E-03 0.  1.
</event>
<event>
 8    1  0.1220455E+005  0.1043930E+01  0.7957747E-01            NaN
         13   -1    0    0    0    0  0.00000000000E+00  0.00000000000E+00  0.74505805969E-08  0.10566000000E+00  0.10566000000E+00 0. -1.
     999900   -1    0    0    0    0 -0.00000000000E+00 -0.00000000000E+00 -0.74505805969E-08  0.93827000000E+00  0.93827000000E+00 0.  1.
     999902    2    1    2    0    0  0.82044887630E-02  0.17973382880E-01  0.13123381893E-01  0.10202112462E+01  0.10199354919E+01 0.  0.
     999903    2    3    3    0    0  0.50983469782E-01 -0.99948527869E-01 -0.58240937477E-01  0.12845540278E+00  0.22798273862E-01 0.  0.
         14    1    1    2    0    0 -0.82044887630E-02 -0.17973382880E-01 -0.13123381893E-01  0.23718753768E-01  0.00000000000E+00 0.  1.
     999901    1    3    3    0    0 -0.42778981019E-01  0.11792191075E+00  0.71364319369E-01  0.89175584345E+00  0.88000000000E+00 0. -1.
        -11    1    4    4    0    0  0.17915609730E-01 -0.57446151505E-01 -0.24961074557E-01  0.65148643568E-01  0.51100000000E-03 0.  1.
         11    1    4    4    0    0  0.33067860052E-01 -0.42502376364E-01 -0.33279862920E-01  0.63306759212E-01  0.51100000000E-03 0. -1.
</event>
<event>
 8    1  0.1145101E+005  0.1043930E+01  0.7957747E-01            NaN
         13   -1    0    0    0    0  0.00000000000E+00  0.00000000000E+00  0.74505805969E-08  0.10566000000E+00  0.10566000000E+00 0.  1.
     999900   -1    0    0    0    0 -0.00000000000E+00 -0.00000000000E+00 -0.74505805969E-08  0.93827000000E+00  0.93827000000E+00 0. -1.
     999902    2    1    2    0    0 -0.81981144194E-02  0.11520432650E-01 -0.18555249114E-01  0.10206013327E+01  0.10203346772E+01 0.  0.
     999903    2    3    3    0    0 -0.12994685200E+00 -0.55018483874E-02 -0.90406085125E-02  0.13200522560E+00  0.20668630890E-01 0.  0.
         14    1    1    2    0    0  0.81981144194E-02 -0.11520432650E-01  0.18555249114E-01  0.23328667303E-01  0.00000000000E+00 0.  1.
     999901    1    3    3    0    0  0.12174873758E+00  0.17022281037E-01 -0.95146406014E-02  0.88859610709E+00  0.88000000000E+00 0.  1.
        -11    1    4    4    0    0 -0.67741924016E-01 -0.71100949397E-02  0.47018183749E-02  0.68278034070E-01  0.51100000000E-03 0.  1.
         11    1    4    4    0    0 -0.62204927988E-01  0.16082465523E-02 -0.13742426887E-01  0.63727191534E-01  0.51100000000E-03 0. -1.
</event>
<event>
 8    1  0.1145101E+005  0.1043930E+01  0.7957747E-01            NaN
         13   -1    0    0    0    0  0.00000000000E+00  0.00000000000E+00  0.74505805969E-08  0.10566000000E+00  0.10566000000E+00 0.  1.
     999900   -1    0    0    0    0 -0.00000000000E+00 -0.00000000000E+00 -0.74505805969E-08  0.93827000000E+00  0.93827000000E+00 0. -1.
     999902    2    1    2    0    0 -0.20025796260E-01  0.44771313223E-02  0.12034385422E-01  0.10201412705E+01  0.10198638674E+01 0.  0.
     999903    2    3    3    0    0  0.12569894245E+00 -0.18687500289E-02 -0.56023008910E-02  0.12796022247E+00  0.23210264946E-01 0.  0.
         14    1    1    2    0    0  0.20025796260E-01 -0.44771313223E-02 -0.12034385422E-01  0.23788729542E-01  0.00000000000E+00 0. -1.
     999901    1    3    3    0    0 -0.14572473871E+00  0.63458813512E-02  0.17636686313E-01  0.89218104799E+00  0.88000000000E+00 0. -1.
        -11    1    4    4    0    0  0.10035815566E+00  0.14467005216E-02  0.45091729333E-02  0.10047112079E+00  0.51100000000E-03 0. -1.
         11    1    4    4    0    0  0.25340786789E-01 -0.33154505505E-02 -0.10111473824E-01  0.27489101683E-01  0.51100000000E-03 0.  1.
</event>
<event>
 8    1  0.1179926E+005  0.1043930E+01  0.7957747E-01            NaN
         13   -1    0    0    0    0  0.00000000000E+00  0.00000000000E+00  0.74505805969E-08  0.10566000000E+00  0.10566000000E+00 0.  1.
     999900   -1    0    0    0    0 -0.00000000000E+00 -0.00000000000E+00 -0.74505805969E-08  0.93827000000E+00  0.93827000000E+00 0. -1.
     999902    2    1    2    0    0  0.21363740865E-01  0.36065685724E-02 -0.60741739500E-02  0.10214286145E+01  0.10211807392E+01 0.  0.
     999903    2    3    3    0    0 -0.31384858316E-01 -0.93589458398E-02 -0.12614822497E+00  0.13161498400E+00  0.18344758136E-01 0.  0.
         14    1    1    2    0    0 -0.21363740865E-01 -0.36065685724E-02  0.60741739500E-02  0.22501385509E-01  0.00000000000E+00 0. -1.
     999901    1    3    3    0    0  0.52748599181E-01  0.12965514412E-01  0.12007405102E+00  0.88981363049E+00  0.88000000000E+00 0.  1.
        -11    1    4    4    0    0 -0.10915452246E-01  0.52277959963E-02 -0.48937374082E-01  0.50414329825E-01  0.51100000000E-03 0. -1.
         11    1    4    4    0    0 -0.20469406070E-01 -0.14586741836E-01 -0.77210850890E-01  0.81200654175E-01  0.51100000000E-03 0.  1.
</event>
<event>
 8    1  0.1145101E+005  0.1043930E+01  0.7957747E-01            NaN
         13   -1    0    0    0    0  0.00000000000E+00  0.00000000000E+00  0.74505805969E-08  0.10566000000E+00  0.10566000000E+00 0.  1.
     999900   -1    0    0    0    0 -0.00000000000E+00 -0.00000000000E+00 -0.74505805969E-08  0.93827000000E+00  0.93827000000E+00 0.  1.
     999902    2    1    2    0    0  0.14717609288E-01  0.15838197298E-01  0.95422340452E-02  0.10202971680E+01  0.10200234313E+01 0.  0.
     999903    2    3    3    0    0  0.55078170272E-01 -0.63991223940E-01 -0.96093495346E-01  0.12947697365E+00  0.20046078797E-01 0.  0.
         14    1    1    2    0    0 -0.14717609288E-01 -0.15838197298E-01 -0.95422340452E-02  0.23632831980E-01  0.00000000000E+00 0. -1.
     999901    1    3    3    0    0 -0.40360560985E-01  0.79829421238E-01  0.10563572939E+00  0.89082019437E+00  0.88000000000E+00 0.  1.
        -11    1    4    4    0    0  0.29046322239E-01 -0.20894252626E-01 -0.32294188835E-01  0.48202016368E-01  0.51100000000E-03 0. -1.
         11    1    4    4    0    0  0.26031848033E-01 -0.43096971314E-01 -0.63799306511E-01  0.81274957280E-01  0.51100000000E-03 0.  1.
</event>
<event>
 8    1  0.1145101E+005  0.1043930E+01  0.7957747E-01            NaN
         13   -1    0    0    0    0  0.00000000000E+00  0.00000000000E+00  0.74505805969E-08  0.10566000000E+00  0.10566000000E+00 0. -1.
     999900   -1    0    0    0    0 -0.00000000000E+00 -0.00000000000E+00 -0.74505805969E-08  0.93827000000E+00  0.93827000000E+00 0.  1.
     999902    2    1    2    0    0 -0.21652256441E-01  0.29003173189E-02  0.12128879816E-01  0.10189431680E+01  0.10186367546E+01 0.  0.
     999903    2    3    3    0    0 -0.11543371077E-01  0.26674901726E-01  0.12634991260E+00  0.13118539427E+00  0.20012682430E-01 0.  0.
         14    1    1    2    0    0  0.21652256441E-01 -0.29003173189E-02 -0.12128879816E-01  0.24986832035E-01  0.00000000000E+00 0.  1.
     999901    1    3    3    0    0 -0.10108885365E-01 -0.23774584408E-01 -0.11422103278E+00  0.88775777370E+00  0.88000000000E+00 0.  1.
        -11    1    4    4    0    0  0.61016104252E-03  0.22115975254E-01  0.85635942355E-01  0.88449219340E-01  0.51100000000E-03 0. -1.
         11    1    4    4    0    0 -0.12153532119E-01  0.45589264724E-02  0.40713970244E-01  0.42736174929E-01  0.51100000000E-03 0.  1.
</event>
<event>
 8    1  0.1145101E+005  0.1043930E+01  0.7957747E-01            NaN
         13   -1    0    0    0    0  0.00000000000E+00  0.00000000000E+00  0.74505805969E-08  0.10566000000E+00  0.10566000000E+00 0. -1.
     999900   -1    0    0    0    0 -0.00000000000E+00 -0.00000000000E+00 -0.74505805969E-08  0.93827000000E+00  0.93827000000E+00 0.  1.
     999902    2    1    2    0    0  0.15859916657E-01 -0.84664935316E-03 -0.20086245685E-01  0.10183231447E+01  0.10180011375E+01 0.  0.
     999903    2    3    3    0    0 -0.88608630698E-01 -0.85151338889E-01 -0.30199015008E-01  0.12808540896E+00  0.19790187801E-01 0.  0.
         14    1    1    2    0    0 -0.15859916657E-01  0.84664935316E-03  0.20086245685E-01  0.25606855278E-01  0.00000000000E+00 0. -1.
     999901    1    3    3    0    0  0.10446854736E+00  0.84304689536E-01  0.10112769323E-01  0.89023773576E+00  0.88000000000E+00 0. -1.
        -11    1    4    4    0    0 -0.15371287014E-01 -0.70008496869E-02 -0.80349090166E-02  0.18711206394E-01  0.51100000000E-03 0. -1.
         11    1    4    4    0    0 -0.73237343685E-01 -0.78150489202E-01 -0.22164105992E-01  0.10937420257E+00  0.51100000000E-03 0.  1.
</event>
<event>
 8    1  0.1145101E+005  0.1043930E+01  0.7957747E-01            NaN
         13   -1    0    0    0    0  0.00000000000E+00  0.00000000000E+00  0.74505805969E-08  0.10566000000E+00  0.10566000000E+00 0.  1.
     999900   -1    0    0    0    0 -0.00000000000E+00 -0.00000000000E+00 -0.74505805969E-08  0.93827000000E+00  0.93827000000E+00 0. -1.
     999902    2    1    2    0    0  0.14981598328E-01 -0.17466591743E-01 -0.67546988863E-02  0.10199475883E+01  0.10196655955E+01 0.  0.
     999903    2    3    3    0    0  0.10140790485E+00 -0.66523937408E-01 -0.51468620784E-01  0.13322583685E+00  0.19776432036E-01 0.  0.
         14    1    1    2    0    0 -0.14981598328E-01  0.17466591743E-01  0.67546988863E-02  0.23982411735E-01  0.00000000000E+00 0. -1.
     999901    1    3    3    0    0 -0.86426306523E-01  0.49057345665E-01  0.44713921898E-01  0.88672175142E+00  0.88000000000E+00 0.  1.
        -11    1    4    4    0    0  0.34504515950E-01 -0.25362878350E-01 -0.28282600505E-01  0.51322547009E-01  0.51100000000E-03 0.  1.
         11    1    4    4    0    0  0.66903388901E-01 -0.41161059057E-01 -0.23186020279E-01  0.81903289840E-01  0.51100000000E-03 0. -1.
</event>
<event>
 8    1  0.1145101E+005  0.1043930E+01  0.7957747E-01            NaN
         13   -1    0    0    0    0  0.00000000000E+00  0.00000000000E+00  0.74505805969E-08  0.10566000000E+00  0.10566000000E+00 0.  1.
     999900   -1    0    0    0    0 -0.00000000000E+00 -0.00000000000E+00 -0.74505805969E-08  0.93827000000E+00  0.93827000000E+00 0.  1.
     999902    2    1    2    0    0 -0.73709142106E-03 -0.46647105156E-02  0.22754432139E-01  0.10206906581E+01  0.10204260643E+01 0.  0.
     999903    2    3    3    0    0  0.11598429637E+00 -0.51770304849E-01  0.28515546752E-01  0.13171596231E+00  0.20085737530E-01 0.  0.
         14    1    1    2    0    0  0.73709142106E-03  0.46647105156E-02 -0.22754432139E-01  0.23239341856E-01  0.00000000000E+00 0. -1.
     999901    1    3    3    0    0 -0.11672138779E+00  0.47105594334E-01 -0.57611146136E-02  0.88897469583E+00  0.88000000000E+00 0. -1.
        -11    1    4    4    0    0  0.73735546752E-01 -0.32382324908E-01  0.27880090501E-01  0.85223860442E-01  0.51100000000E-03 0. -1.
         11    1    4    4    0    0  0.42248749621E-01 -0.19387979941E-01  0.63545625078E-03  0.46492101871E-01  0.51100000000E-03 0.  1.
</event>
<event>
 8    1  0.1145101E+005  0.1043930E+01  0.7957747E-01            NaN
         13   -1    0    0    0    0  0.00000000000E+00  0.00000000000E+00  0.74505805969E-08  0.10566000000E+00  0.10566000000E+00 0. -1.
     999900   -1    0    0    0    0 -0.00000000000E+00 -0.00000000000E+00 -0.74505805969E-08  0.93827000000E+00  0.93827000000E+00 0. -1.
     999902    2    1    2    0    0  0.21502209574E-01 -0.44246107913E-04  0.11191602427E-01  0.10196895598E+01  0.10194013927E+01 0.  0.
     999903    2    3    3    0    0  0.85495361209E-01 -0.54004763724E-01  0.83746088929E-01  0.13274479582E+00  0.19539757213E-01 0.  0.
         14    1    1    2    0    0 -0.21502209574E-01  0.44246107913E-04 -0.11191602427E-01  0.24240440161E-01  0.00000000000E+00 0.  1.
     999901    1    3    3    0    0 -0.63993151635E-01  0.53960517616E-01 -0.72554486502E-01  0.88694476402E+00  0.88000000000E+00 0. -1.
        -11    1    4    4    0    0  0.97057059859E-02 -0.76713076990E-02  0.19562265980E-01  0.23151523962E-01  0.51100000000E-03 0. -1.
         11    1    4    4    0    0  0.75789655223E-01 -0.46333456025E-01  0.64183822949E-01  0.10959327185E+00  0.51100000000E-03 0.  1.
</event>
<event>
 8    1  0.1145101E+005  0.1043930E+01  0.7957747E-01            NaN
         13   -1    0    0    0    0  0.00000000000E+00  0.00000000000E+00  0.74505805969E-08  0.10566000000E+00  0.10566000000E+00 0.  1.
     999900   -1    0    0    0    0 -0.00000000000E+00 -0.00000000000E+00 -0.74505805969E-08  0.93827000000E+00  0.93827000000E+00 0. -1.
     999902    2    1    2    0    0  0.13828802110E-01 -0.82279475133E-02 -0.13432283387E-01  0.10229690572E+01  0.10227542866E+01 0.  0.
     999903    2    3    3    0    0 -0.72672710244E-01 -0.82823667372E-01  0.69364697663E-01  0.13173262773E+00  0.20023517053E-01 0.  0.
         14    1    1    2    0    0 -0.13828802110E-01  0.82279475133E-02  0.13432283387E-01  0.20960942848E-01  0.00000000000E+00 0.  1.
     999901    1    3    3    0    0  0.86501512354E-01  0.74595719859E-01 -0.82796981050E-01  0.89123642942E+00  0.88000000000E+00 0. -1.
        -11    1    4    4    0    0 -0.13548519876E-01 -0.27075542311E-01  0.24191034967E-01  0.38757124198E-01  0.51100000000E-03 0. -1.
         11    1    4    4    0    0 -0.59124190368E-01 -0.55748125061E-01  0.45173662696E-01  0.92975503531E-01  0.51100000000E-03 0.  1.
</event>
<event>
 8    1  0.1145101E+005  0.1043930E+01  0.7957747E-01            NaN
         13   -1    0    0    0    0  0.00000000000E+00  0.00000000000E+00  0.74505805969E-08  0.10566000000E+00  0.10566000000E+00 0. -1.
     999900   -1    0    0    0    0 -0.00000000000E+00 -0.00000000000E+00 -0.74505805969E-08  0.93827000000E+00  0.93827000000E+00 0. -1.
     999902    2    1    2    0    0  0.47007155687E-02  0.22133045320E-01 -0.80183300159E-02  0.10199245415E+01  0.10196420001E+01 0.  0.
     999903    2    3    3    0    0 -0.72668303374E-01 -0.87867939908E-01  0.53641985484E-01  0.12757473544E+00  0.19909629283E-01 0.  0.
         14    1    1    2    0    0 -0.47007155687E-02 -0.22133045320E-01  0.80183300159E-02  0.24005458509E-01  0.00000000000E+00 0.  1.
     999901    1    3    3    0    0  0.77369018943E-01  0.11000098523E+00 -0.61660315500E-01  0.89234980605E+00  0.88000000000E+00 0. -1.
        -11    1    4    4    0    0 -0.12238578586E-01 -0.70442354688E-02  0.11469179491E-01  0.18199100482E-01  0.51100000000E-03 0.  1.
         11    1    4    4    0    0 -0.60429724788E-01 -0.80823704439E-01  0.42172805992E-01  0.10937563496E+00  0.51100000000E-03 0. -1.
</event>
<event>
 8    1  0.1145101E+005  0.1043930E+01  0.7957747E-01            NaN
         13   -1    0    0    0    0  0.00000000000E+00  0.00000000000E+00  0.74505805969E-08  0.10566000000E+00  0.10566000000E+00 0. -1.
     999900   -1    0    0    0    0 -0.00000000000E+00 -0.00000000000E+00 -0.74505805969E-08  0.93827000000E+00  0.93827000000E+00 0.  1.
     999902    2    1    2    0    0 -0.16829539786E-01 -0.75720663318E-02 -0.15713079967E-01  0.10196922097E+01  0.10194041063E+01 0.  0.
     999903    2    3    3    0    0 -0.11244848515E+00  0.36786548721E-01 -0.55984656925E-01  0.13248734643E+00  0.20511050069E-01 0.  0.
         14    1    1    2    0    0  0.16829539786E-01  0.75720663318E-02  0.15713079967E-01  0.24237790328E-01  0.00000000000E+00 0. -1.
     999901    1    3    3    0    0  0.95618945364E-01 -0.44358615053E-01  0.40271576958E-01  0.88720486324E+00  0.88000000000E+00 0.  1.
        -11    1    4    4    0    0 -0.76202872204E-01  0.34735227358E-01 -0.37867783246E-01  0.91911065061E-01  0.51100000000E-03 0. -1.
         11    1    4    4    0    0 -0.36245612946E-01  0.20513213627E-02 -0.18116873679E-01  0.40576281373E-01  0.51100000000E-03 0.  1.
</event>
<event>
 8    1  0.1145101E+005  0.1043930E+01  0.7957747E-01            NaN
         13   -1    0    0    0    0  0.00000000000E+00  0.00000000000E+00  0.74505805969E-08  0.10566000000E+00  0.10566000000E+00 0. -1.
     999900   -1    0    0    0    0 -0.00000000000E+00 -0.00000000000E+00 -0.74505805969E-08  0.93827000000E+00  0.93827000000E+00 0. -1.
     999902    2    1    2    0    0 -0.81096031750E-02 -0.21933101119E-01  0.29914315851E-02  0.10203551140E+01  0.10200827336E+01 0.  0.
     999903    2    3    3    0    0 -0.75476253576E-01  0.33181498960E-01 -0.98740530559E-01  0.13022856294E+00  0.20300480366E-01 0.  0.
         14    1    1    2    0    0  0.81096031750E-02  0.21933101119E-01 -0.29914315851E-02  0.23574886029E-01  0.00000000000E+00 0.  1.
     999901    1    3    3    0    0  0.67366650401E-01 -0.55114600079E-01  0.10173196214E+00  0.89012655103E+00  0.88000000000E+00 0.  1.
        -11    1    4    4    0    0 -0.72269090298E-01  0.29156088985E-01 -0.83884330495E-01  0.11449777710E+00  0.51100000000E-03 0.  1.
         11    1    4    4    0    0 -0.32071632779E-02  0.40254099753E-02 -0.14856200065E-01  0.15730785839E-01  0.51100000000E-03 0. -1.
</event>
<event>
 8    1  0.1145101E+005  0.1043930E+01  0.7957747E-01            NaN
         13   -1    0    0    0    0  0.00000000000E+00  0.00000000000E+00  0.74505805969E-08  0.10566000000E+00  0.10566000000E+00 0. -1.
     999900   -1    0    0    0    0 -0.00000000000E+00 -0.00000000000E+00 -0.74505805969E-08  0.93827000000E+00  0.93827000000E+00 0.  1.
     999902    2    1    2    0    0  0.21106765171E-01  0.88255217625E-02 -0.85569774237E-02  0.10195044553E+01  0.10192118166E+01 0.  0.
     999903    2    3    3    0    0  0.61241481235E-01 -0.71389211679E-01  0.87072414038E-01  0.12979091748E+00  0.20423966479E-01 0.  0.
         14    1    1    2    0    0 -0.21106765171E-01 -0.88255217625E-02  0.85569774237E-02  0.24425544682E-01  0.00000000000E+00 0.  1.
     999901    1    3    3    0    0 -0.40134716064E-01  0.80214733442E-01 -0.95629391462E-01  0.88971353783E+00  0.88000000000E+00 0.  1.
        -11    1    4    4    0    0  0.89652138681E-02 -0.20226047406E-01  0.28490837536E-01  0.36075712022E-01  0.51100000000E-03 0. -1.
         11    1    4    4    0    0  0.52276267367E-01 -0.51163164274E-01  0.58581576502E-01  0.93715205462E-01  0.51100000000E-03 0.  1.
</event>
<event>
 8    1  0.1145101E+005  0.1043930E+01  0.7957747E-01            NaN
         13   -1    0    0    0    0  0.00000000000E+00  0.00000000000E+00  0.74505805969E-08  0.10566000000E+00  0.10566000000E+00 0. -1.
     999900   -1    0    0    0    0 -0.00000000000E+00 -0.00000000000E+00 -0.74505805969E-08  0.93827000000E+00  0.93827000000E+00 0. -1.
     999902    2    1    2    0    0  0.80898333672E-02  0.19238343685E-01 -0.11915327420E-01  0.10198980567E+01  0.10196148840E+01 0.  0.
     999903    2    3    3    0    0  0.66517693810E-01 -0.98920721026E-01  0.43133603431E-01  0.12837926035E+00  0.20268549628E-01 0.  0.
         14    1    1    2    0    0 -0.80898333672E-02 -0.19238343685E-01  0.11915327420E-01  0.24031943308E-01  0.00000000000E+00 0.  1.
     999901    1    3    3    0    0 -0.58427860443E-01  0.11815906471E+00 -0.55048930850E-01  0.89151879635E+00  0.88000000000E+00 0. -1.
        -11    1    4    4    0    0  0.43988647692E-01 -0.50567790872E-01  0.30043140794E-01  0.73450350777E-01  0.51100000000E-03 0. -1.
         11    1    4    4    0    0  0.22529046118E-01 -0.48352930154E-01  0.13090462637E-01  0.54928909570E-01  0.51100000000E-03 0.  1.
</event>
<event>
 8    1  0.1145101E+005  0.1043930E+01  0.7957747E-01            NaN
         13   -1    0    0    0    0  0.00000000000E+00  0.00000000000E+00  0.74505805969E-08  0.10566000000E+00  0.10566000000E+00 0.  1.
     999900   -1    0    0    0    0 -0.00000000000E+00 -0.00000000000E+00 -0.74505805969E-08  0.93827000000E+00  0.93827000000E+00 0. -1.
     999902    2    1    2    0    0 -0.14138984000E-01  0.19520833326E-02 -0.17632500478E-01  0.10212446177E+01  0.10209926261E+01 0.  0.
     999903    2    3    3    0    0 -0.69182065442E-01 -0.10899610384E+00  0.17649341960E-01  0.13187177716E+00  0.20306587796E-01 0.  0.
         14    1    1    2    0    0  0.14138984000E-01 -0.19520833326E-02  0.17632500478E-01  0.22685382320E-01  0.00000000000E+00 0.  1.
     999901    1    3    3    0    0  0.55043081442E-01  0.11094818717E+00 -0.35281842438E-01  0.88937284052E+00  0.88000000000E+00 0. -1.
        -11    1    4    4    0    0 -0.31851430369E-01 -0.41071001087E-01 -0.16243351684E-02  0.52002310839E-01  0.51100000000E-03 0. -1.
         11    1    4    4    0    0 -0.37330635073E-01 -0.67925102754E-01  0.19273677128E-01  0.79869466319E-01  0.51100000000E-03 0.  1.
</event>
<event>
 8    1  0.1145101E+005  0.1043930E+01  0.7957747E-01            NaN
         13   -1    0    0    0    0  0.00000000000E+00  0.00000000000E+00  0.74505805969E-08  0.10566000000E+00  0.10566000000E+00 0.  1.
     999900   -1    0    0    0    0 -0.00000000000E+00 -0.00000000000E+00 -0.74505805969E-08  0.93827000000E+00  0.93827000000E+00 0.  1.
     999902    2    1    2    0    0 -0.84367166143E-02 -0.60417833613E-02 -0.20501502437E-01  0.10209519031E+01  0.10206932916E+01 0.  0.
     999903    2    3    3    0    0 -0.78866223846E-01  0.10296661229E+00 -0.49102591919E-02  0.13129678306E+00  0.19817418720E-01 0.  0.
         14    1    1    2    0    0  0.84367166143E-02  0.60417833613E-02  0.20501502437E-01  0.22978096867E-01  0.00000000000E+00 0.  1.
     999901    1    3    3    0    0  0.70429507232E-01 -0.10900839566E+00 -0.15591243246E-01  0.88965512008E+00  0.88000000000E+00 0. -1.
        -11    1    4    4    0    0 -0.78307110277E-01  0.94619610159E-01 -0.47771421075E-02  0.12291442696E+00  0.51100000000E-03 0.  1.
         11    1    4    4    0    0 -0.55911356954E-03  0.83470021347E-02 -0.13311708437E-03  0.83823560994E-02  0.51100000000E-03 0. -1.
</event>
<event>
 8    1  0.1145101E+005  0.1043930E+01  0.7957747E-01            NaN
         13   -1    0    0    0    0  0.00000000000E+00  0.00000000000E+00  0.74505805969E-08  0.10566000000E+00  0.10566000000E+00 0. -1.
     999900   -1    0    0    0    0 -0.00000000000E+00 -0.00000000000E+00 -0.74505805969E-08  0.93827000000E+00  0.93827000000E+00 0.  1.
     999902    2    1    2    0    0  0.64683287436E-02 -0.10623051121E-01  0.24651532594E-01  0.10163186518E+01  0.10159435099E+01 0.  0.
     999903    2    3    3    0    0  0.11762078929E+00 -0.33751331826E-01  0.35552501485E-01  0.12895817374E+00  0.19809788924E-01 0.  0.
         14    1    1    2    0    0 -0.64683287436E-02  0.10623051121E-01 -0.24651532594E-01  0.27611348230E-01  0.00000000000E+00 0.  1.
     999901    1    3    3    0    0 -0.11115246055E+00  0.23128280705E-01 -0.10900968892E-01  0.88736047803E+00  0.88000000000E+00 0.  1.
        -11    1    4    4    0    0  0.15626266247E-01 -0.50394120299E-02 -0.19836902308E-02  0.16546057487E-01  0.51100000000E-03 0. -1.
         11    1    4    4    0    0  0.10199452305E+00 -0.28711919796E-01  0.37536191716E-01  0.11241211625E+00  0.51100000000E-03 0.  1.
</event>
<event>
 8    1  0.1145101E+005  0.1043930E+01  0.7957747E-01            NaN
         13   -1    0    0    0    0  0.00000000000E+00  0.00000000000E+00  0.74505805969E-08  0.10566000000E+00  0.10566000000E+00 0. -1.
     999900   -1    0    0    0    0 -0.00000000000E+00 -0.00000000000E+00 -0.74505805969E-08  0.93827000000E+00  0.93827000000E+00 0. -1.
     999902    2    1    2    0    0  0.12393387863E-01  0.10073738574E-01 -0.18233280084E-01  0.10196910072E+01  0.10194028749E+01 0.  0.
     999903    2    3    3    0    0  0.37118383932E-01 -0.14386175860E-01  0.11991701152E+00  0.12823426905E+00  0.21890674370E-01 0.  0.
         14    1    1    2    0    0 -0.12393387863E-01 -0.10073738574E-01  0.18233280084E-01  0.24238992846E-01  0.00000000000E+00 0. -1.
     999901    1    3    3    0    0 -0.24724996069E-01  0.24459914433E-01 -0.13815029161E+00  0.89145673811E+00  0.88000000000E+00 0. -1.
        -11    1    4    4    0    0  0.28951474327E-01 -0.19449209259E-01  0.81906953366E-01  0.89025107342E-01  0.51100000000E-03 0. -1.
         11    1    4    4    0    0  0.81669096052E-02  0.50630333998E-02  0.38010058155E-01  0.39209161706E-01  0.51100000000E-03 0.  1.
</event>
<event>
 8    1  0.1145101E+005  0.1043930E+01  0.7957747E-01            NaN
         13   -1    0    0    0    0  0.00000000000E+00  0.00000000000E+00  0.74505805969E-08  0.10566000000E+00  0.10566000000E+00 0. -1.
     999900   -1    0    0    0    0 -0.00000000000E+00 -0.00000000000E+00 -0.74505805969E-08  0.93827000000E+00  0.93827000000E+00 0. -1.
     999902    2    1    2    0    0 -0.28545555010E-03  0.14613018004E-01  0.19079281971E-01  0.10198958414E+01  0.10196126159E+01 0.  0.
     999903    2    3    3    0    0 -0.32831283931E-01 -0.11605814540E+00  0.42662415182E-01  0.12933963986E+00  0.19007221040E-01 0.  0.
         14    1    1    2    0    0  0.28545555010E-03 -0.14613018004E-01 -0.19079281971E-01  0.24034158620E-01  0.00000000000E+00 0.  1.
     999901    1    3    3    0    0  0.32545828381E-01  0.13067116341E+00 -0.23583133211E-01  0.89055620152E+00  0.88000000000E+00 0.  1.
        -11    1    4    4    0    0 -0.24579348899E-01 -0.69403136179E-01  0.34297091840E-01  0.81224942804E-01  0.51100000000E-03 0. -1.
         11    1    4    4    0    0 -0.82519350320E-02 -0.46655009223E-01  0.83653233422E-02  0.48114697058E-01  0.51100000000E-03 0.  1.
</event>
<event>
 8    1  0.1145101E+005  0.1043930E+01  0.7957747E-01            NaN
         13   -1    0    0    0    0  0.00000000000E+00  0.00000000000E+00  0.74505805969E-08  0.10566000000E+00  0.10566000000E+00 0.  1.
     999900   -1    0    0    0    0 -0.00000000000E+00 -0.00000000000E+00 -0.74505805969E-08  0.93827000000E+00  0.93827000000E+00 0. -1.
     999902    2    1    2    0    0  0.45540339505E-02  0.21800053778E-01 -0.77457812225E-02  0.10203507995E+01  0.10200783182E+01 0.  0.
     999903    2    3    3    0    0  0.14147055114E-01  0.12276966810E+00  0.44942839053E-01  0.13295969080E+00  0.19644083668E-01 0.  0.
         14    1    1    2    0    0 -0.45540339505E-02 -0.21800053778E-01  0.77457812225E-02  0.23579200510E-01  0.00000000000E+00 0.  1.
     999901    1    3    3    0    0 -0.95930211635E-02 -0.10096961432E+00 -0.52688620276E-01  0.88739110869E+00  0.88000000000E+00 0. -1.
        -11    1    4    4    0    0  0.68294572906E-02  0.71214159563E-01  0.15733316571E-01  0.73252279012E-01  0.51100000000E-03 0.  1.
         11    1    4    4    0    0  0.73175978234E-02  0.51555508534E-01  0.29209522482E-01  0.59707411791E-01  0.51100000000E-03 0. -1.
</event>
<event>
 8    1  0.1145101E+005  0.1043930E+01  0.7957747E-01            NaN
         13   -1    0    0    0    0  0.00000000000E+00  0.00000000000E+00  0.74505805969E-08  0.10566000000E+00  0.10566000000E+00 0.  1.
     999900   -1    0    0    0    0 -0.00000000000E+00 -0.00000000000E+00 -0.74505805969E-08  0.93827000000E+00  0.93827000000E+00 0. -1.
     999902    2    1    2    0    0  0.20022172649E-01 -0.46831288507E-02  0.10273705191E-01  0.10209437408E+01  0.10206849434E+01 0.  0.
     999903    2    3    3    0    0 -0.43131522988E-01 -0.97589121205E-01 -0.71628238413E-01  0.13002969273E+00  0.19828050866E-01 0.  0.
         14    1    1    2    0    0 -0.20022172649E-01  0.46831288507E-02 -0.10273705191E-01  0.22986259194E-01  0.00000000000E+00 0. -1.
     999901    1    3    3    0    0  0.63153695637E-01  0.92905992354E-01  0.81901943604E-01  0.89091404807E+00  0.88000000000E+00 0.  1.
        -11    1    4    4    0    0 -0.29297493669E-01 -0.65829797760E-01 -0.59084885463E-01  0.93183637080E-01  0.51100000000E-03 0.  1.
         11    1    4    4    0    0 -0.13834029320E-01 -0.31759323445E-01 -0.12543352950E-01  0.36846055652E-01  0.51100000000E-03 0. -1.
</event>
<event>
 8    1  0.1145101E+005  0.1043930E+01  0.7957747E-01            NaN
         13   -1    0    0    0    0  0.00000000000E+00  0.00000000000E+00  0.74505805969E-08  0.10566000000E+00  0.10566000000E+00 0. -1.
     999900   -1    0    0    0    0 -0.00000000000E+00 -0.00000000000E+00 -0.74505805969E-08  0.93827000000E+00  0.93827000000E+00 0.  1.
     999902    2    1    2    0    0 -0.12140900034E-01 -0.46427581728E-02 -0.15358220430E-01  0.10238095728E+01  0.10236118452E+01 0.  0.
     999903    2    3    3    0    0  0.10263505265E+00  0.50467001759E-01 -0.66368230037E-01  0.13318472131E+00  0.15892002218E-01 0.  0.
         14    1    1    2    0    0  0.12140900034E-01  0.46427581728E-02  0.15358220430E-01  0.20120427229E-01  0.00000000000E+00 0. -1.
     999901    1    3    3    0    0 -0.11477595268E+00 -0.55109759932E-01  0.51010009607E-01  0.89062485146E+00  0.88000000000E+00 0. -1.
        -11    1    4    4    0    0  0.87594126607E-01  0.48805639568E-01 -0.59025466214E-01  0.11635715815E+00  0.51100000000E-03 0. -1.
         11    1    4    4    0    0  0.15040926041E-01  0.16613621910E-02 -0.73427638231E-02  0.16827563165E-01  0.51100000000E-03 0.  1.
</event>
<event>
 8    1  0.1145101E+005  0.1043930E+01  0.7957747E-01            NaN
         13   -1    0    0    0    0  0.00000000000E+00  0.00000000000E+00  0.74505805969E-08  0.10566000000E+00  0.10566000000E+00 0.  1.
     999900   -1    0    0    0    0 -0.00000000000E+00 -0.00000000000E+00 -0.74505805969E-08  0.93827000000E+00  0.93827000000E+00 0. -1.
     999902    2    1    2    0    0 -0.62816114499E-02  0.20351120568E-01  0.11579318550E-01  0.10196873234E+01  0.10193991025E+01 0.  0.
     999903    2    3    3    0    0  0.75070575681E-01  0.73424504021E-01  0.76887741899E-01  0.13193727268E+00  0.21655713916E-01 0.  0.
         14    1    1    2    0    0  0.62816114499E-02 -0.20351120568E-01 -0.11579318550E-01  0.24242676603E-01  0.00000000000E+00 0. -1.
     999901    1    3    3    0    0 -0.81352187131E-01 -0.53073383452E-01 -0.65308423349E-01  0.88775005071E+00  0.88000000000E+00 0. -1.
        -11    1    4    4    0    0  0.16146863538E-01  0.24672271286E-01  0.12770055741E-01  0.32136857612E-01  0.51100000000E-03 0.  1.
         11    1    4    4    0    0  0.58923712143E-01  0.48752232734E-01  0.64117686158E-01  0.99800415072E-01  0.51100000000E-03 0. -1.
</event>
<event>
 8    1  0.1145101E+005  0.1043930E+01  0.7957747E-01            NaN
         13   -1    0    0    0    0  0.00000000000E+00  0.00000000000E+00  0.74505805969E-08  0.10566000000E+00  0.10566000000E+00 0. -1.
     999900   -1    0    0    0    0 -0.00000000000E+00 -0.00000000000E+00 -0.74505805969E-08  0.93827000000E+00  0.93827000000E+00 0.  1.
     999902    2    1    2    0    0 -0.11567951103E-01 -0.19606498181E-01 -0.52373642509E-02  0.10205705855E+01  0.10203032185E+01 0.  0.
     999903    2    3    3    0    0  0.11156997189E+00  0.38760959656E-01  0.47572834948E-01  0.12851754591E+00  0.17415922627E-01 0.  0.
         14    1    1    2    0    0  0.11567951103E-01  0.19606498181E-01  0.52373642509E-02  0.23359414546E-01  0.00000000000E+00 0. -1.
     999901    1    3    3    0    0 -0.12313792300E+00 -0.58367457836E-01 -0.52810199199E-01  0.89205303954E+00  0.88000000000E+00 0.  1.
        -11    1    4    4    0    0  0.61564288381E-01  0.18849478099E-01  0.16913645154E-01  0.66571742818E-01  0.51100000000E-03 0.  1.
         11    1    4    4    0    0  0.50005683513E-01  0.19911481557E-01  0.30659189794E-01  0.61945803096E-01  0.51100000000E-03 0. -1.
</event>
<event>
 7    1  0.1145101E+005  0.1043930E+01  0.7957747E-01            NaN
         13   -1    0    0    0    0  0.00000000000E+00  0.00000000000E+00  0.74505805969E-08  0.10566000000E+00  0.10566000000E+00 0. -1.
     999900   -1    0    0    0    0 -0.00000000000E+00 -0.00000000000E+00 -0.74505805969E-08  0.93827000000E+00  0.93827000000E+00 0. -1.
     999903    2    1    2    0    0  0.68109859366E-01 -0.34222083219E-02  0.88062548387E-01  0.11326720797E+00  0.20586003046E-01 0.  0.
         14    1    1    2    0    0  0.21214545142E-02 -0.42309804763E-01 -0.74487924741E-02  0.43012842939E-01  0.00000000000E+00 0. -1.
     999901    1    1    2    0    0 -0.70231313880E-01  0.45732013085E-01 -0.80613755913E-01  0.88764994909E+00  0.88000000000E+00 0. -1.
        -11    1    3    3    0    0  0.33548762687E-01 -0.10024335700E-01  0.34343346821E-01  0.49048275973E-01  0.51100000000E-03 0. -1.
         11    1    3    3    0    0  0.34561096679E-01  0.66021273785E-02  0.53719201567E-01  0.64218932002E-01  0.51100000000E-03 0.  1.
</event>
<event>
 8    1  0.1145101E+005  0.1043930E+01  0.7957747E-01            NaN
         13   -1    0    0    0    0  0.00000000000E+00  0.00000000000E+00  0.74505805969E-08  0.10566000000E+00  0.10566000000E+00 0.  1.
     999900   -1    0    0    0    0 -0.00000000000E+00 -0.00000000000E+00 -0.74505805969E-08  0.93827000000E+00  0.93827000000E+00 0.  1.
     999902    2    1    2    0    0  0.10554816636E-01 -0.16665413584E-01  0.12275626908E-01  0.10206957326E+01  0.10204312556E+01 0.  0.
     999903    2    3    3    0    0  0.77413519083E-01 -0.50678412863E-01  0.94415519800E-01  0.13369295236E+00  0.19958974510E-01 0.  0.
         14    1    1    2    0    0 -0.10554816636E-01  0.16665413584E-01 -0.12275626908E-01  0.23234267368E-01  0.00000000000E+00 0.  1.
     999901    1    3    3    0    0 -0.66858702447E-01  0.34012999279E-01 -0.82139892891E-01  0.88700278028E+00  0.88000000000E+00 0.  1.
        -11    1    4    4    0    0  0.68313191164E-01 -0.42765783297E-01  0.71266391624E-01  0.10758607719E+00  0.51100000000E-03 0. -1.
         11    1    4    4    0    0  0.91003279183E-02 -0.79126295661E-02  0.23149128176E-01  0.26106875170E-01  0.51100000000E-03 0.  1.
</event>
<event>
 8    1  0.1145101E+005  0.1043930E+01  0.7957747E-01            NaN
         13   -1    0    0    0    0  0.00000000000E+00  0.00000000000E+00  0.74505805969E-08  0.10566000000E+00  0.10566000000E+00 0. -1.
     999900   -1    0    0    0    0 -0.00000000000E+00 -0.00000000000E+00 -0.74505805969E-08  0.93827000000E+00  0.93827000000E+00 0. -1.
     999902    2    1    2    0    0  0.22709188369E-01  0.17173594996E-01 -0.10484532504E-01  0.10135891855E+01  0.10131349722E+01 0.  0.
     999903    2    3    3    0    0 -0.44735351542E-01 -0.10463309842E+00  0.37046926913E-01  0.12137571546E+00  0.20254691986E-01 0.  0.
         14    1    1    2    0    0 -0.22709188369E-01 -0.17173594996E-01  0.10484532504E-01  0.30340814480E-01  0.00000000000E+00 0. -1.
     999901    1    3    3    0    0  0.67444539911E-01  0.12180669341E+00 -0.47531459416E-01  0.89221347006E+00  0.88000000000E+00 0. -1.
        -11    1    4    4    0    0 -0.34404541410E-01 -0.55071293055E-01  0.21858362557E-01  0.68516924355E-01  0.51100000000E-03 0. -1.
         11    1    4    4    0    0 -0.10330810131E-01 -0.49561805363E-01  0.15188564355E-01  0.52858791104E-01  0.51100000000E-03 0.  1.
</event>
<event>
 8    1  0.1145101E+005  0.1043930E+01  0.7957747E-01            NaN
         13   -1    0    0    0    0  0.00000000000E+00  0.00000000000E+00  0.74505805969E-08  0.10566000000E+00  0.10566000000E+00 0. -1.
     999900   -1    0    0    0    0 -0.00000000000E+00 -0.00000000000E+00 -0.74505805969E-08  0.93827000000E+00  0.93827000000E+00 0. -1.
     999902    2    1    2    0    0  0.14818627474E-01 -0.12207398135E-01 -0.13369641072E-01  0.10205342826E+01  0.10202660743E+01 0.  0.
     999903    2    3    3    0    0 -0.91368079198E-01  0.81582632307E-01 -0.35122990346E-01  0.12893717928E+00  0.19680446088E-01 0.  0.
         14    1    1    2    0    0 -0.14818627474E-01  0.12207398135E-01  0.13369641072E-01  0.23395717382E-01  0.00000000000E+00 0.  1.
     999901    1    3    3    0    0  0.10618670667E+00 -0.93790030442E-01  0.21753349274E-01  0.89159710334E+00  0.88000000000E+00 0.  1.
        -11    1    4    4    0    0 -0.18237135945E-01  0.19555060076E-01  0.19603209741E-03  0.26744963108E-01  0.51100000000E-03 0. -1.
         11    1    4    4    0    0 -0.73130943253E-01  0.62027572231E-01 -0.35319022443E-01  0.10219221617E+00  0.51100000000E-03 0.  1.
</event>
<event>
 8    1  0.1145101E+005  0.1043930E+01  0.7957747E-01            NaN
         13   -1    0    0    0    0  0.00000000000E+00  0.00000000000E+00  0.74505805969E-08  0.10566000000E+00  0.10566000000E+00 0. -1.
     999900   -1    0    0    0    0 -0.00000000000E+00 -0.00000000000E+00 -0.74505805969E-08  0.93827000000E+00  0.93827000000E+00 0. -1.
     999902    2    1    2    0    0 -0.31893297467E-02  0.22375982936E-01 -0.72772435890E-02  0.10201852172E+01  0.10199088502E+01 0.  0.
     999903    2    3    3    0    0  0.10285042977E+00 -0.72850836960E-01 -0.53602159107E-02  0.12871662390E+00  0.25569161172E-01 0.  0.
         14    1    1    2    0    0  0.31893297467E-02 -0.22375982936E-01  0.72772435890E-02  0.23744782813E-01  0.00000000000E+00 0. -1.
     999901    1    3    3    0    0 -0.10603975952E+00  0.95226819895E-01 -0.19170276783E-02  0.89146859329E+00  0.88000000000E+00 0.  1.
        -11    1    4    4    0    0  0.31853882167E-01 -0.24570074474E-01 -0.13586464379E-01  0.42464237943E-01  0.51100000000E-03 0. -1.
         11    1    4    4    0    0  0.70996547605E-01 -0.48280762486E-01  0.82262484680E-02  0.86252385955E-01  0.51100000000E-03 0.  1.
</event>
<event>
 8    1  0.1145101E+005  0.1043930E+01  0.7957747E-01            NaN
         13   -1    0    0    0    0  0.00000000000E+00  0.00000000000E+00  0.74505805969E-08  0.10566000000E+00  0.10566000000E+00 0.  1.
     999900   -1    0    0    0    0 -0.00000000000E+00 -0.00000000000E+00 -0.74505805969E-08  0.93827000000E+00  0.93827000000E+00 0. -1.
     999902    2    1    2    0    0  0.13521081218E-02 -0.22088616333E-01 -0.42448041455E-02  0.10213966130E+01  0.10211480243E+01 0.  0.
     999903    2    3    3    0    0  0.11538290786E+00  0.41518069478E-01 -0.38399992005E-01  0.13110710355E+00  0.26029746367E-01 0.  0.
         14    1    1    2    0    0 -0.13521081218E-02  0.22088616333E-01  0.42448041455E-02  0.22533387009E-01  0.00000000000E+00 0.  1.
     999901    1    3    3    0    0 -0.11403079973E+00 -0.63606685811E-01  0.34155187860E-01  0.89028950944E+00  0.88000000000E+00 0. -1.
        -11    1    4    4    0    0  0.23124776021E-01  0.27897413242E-02  0.15921507679E-02  0.23352387196E-01  0.51100000000E-03 0.  1.
         11    1    4    4    0    0  0.92258131835E-01  0.38728328154E-01 -0.39992142773E-01  0.10775471635E+00  0.51100000000E-03 0. -1.
</event>
<event>
 8    1  0.1145101E+005  0.1043930E+01  0.7957747E-01            NaN
         13   -1    0    0    0    0  0.00000000000E+00  0.00000000000E+00  0.74505805969E-08  0.10566000000E+00  0.10566000000E+00 0.  1.
     999900   -1    0    0    0    0 -0.00000000000E+00 -0.00000000000E+00 -0.74505805969E-08  0.93827000000E+00  0.93827000000E+00 0.  1.
     999902    2    1    2    0    0  0.71527697094E-03  0.10551078093E-01 -0.19614294156E-01  0.10216464319E+01  0.10214033848E+01 0.  0.
     999903    2    3    3    0    0 -0.12620474203E+00  0.29693296127E-01  0.11669285362E-01  0.13178476962E+00  0.20535932775E-01 0.  0.
         14    1    1    2    0    0 -0.71527697094E-03 -0.10551078093E-01  0.19614294156E-01  0.22283568056E-01  0.00000000000E+00 0.  1.
     999901    1    3    3    0    0  0.12692001900E+00 -0.19142218034E-01 -0.31283579518E-01  0.88986166233E+00  0.88000000000E+00 0. -1.
        -11    1    4    4    0    0 -0.20486794866E-01  0.62651470156E-02 -0.55591257483E-02  0.22138785673E-01  0.51100000000E-03 0. -1.
         11    1    4    4    0    0 -0.10571794717E+00  0.23428149111E-01  0.17228411110E-01  0.10964598394E+00  0.51100000000E-03 0.  1.
</event>
<event>
 8    1  0.1145101E+005  0.1043930E+01  0.7957747E-01            NaN
         13   -1    0    0    0    0  0.00000000000E+00  0.00000000000E+00  0.74505805969E-08  0.10566000000E+00  0.10566000000E+00 0. -1.
     999900   -1    0    0    0    0 -0.00000000000E+00 -0.00000000000E+00 -0.74505805969E-08  0.93827000000E+00  0.93827000000E+00 0. -1.
     999902    2    1    2    0    0 -0.71552398184E-02  0.20436432840E-01 -0.97823830372E-02  0.10201699440E+01  0.10198932171E+01 0.  0.
     999903    2    3    3    0    0 -0.12939384452E+00  0.78255067599E-02 -0.10961287772E-01  0.13163029841E+00  0.20059413615E-01 0.  0.
         14    1    1    2    0    0  0.71552398184E-02 -0.20436432840E-01  0.97823830372E-02  0.23760056018E-01  0.00000000000E+00 0.  1.
     999901    1    3    3    0    0  0.12223860470E+00  0.12610926080E-01  0.11789047350E-02  0.88853964557E+00  0.88000000000E+00 0. -1.
        -11    1    4    4    0    0 -0.54594770065E-01  0.95063689012E-02  0.30813442299E-02  0.55504195980E-01  0.51100000000E-03 0. -1.
         11    1    4    4    0    0 -0.74799074454E-01 -0.16808621413E-02 -0.14042632002E-01  0.76126102430E-01  0.51100000000E-03 0.  1.
</event>
<event>
 8    1  0.1145101E+005  0.1043930E+01  0.7957747E-01            NaN
         13   -1    0    0    0    0  0.00000000000E+00  0.00000000000E+00  0.74505805969E-08  0.10566000000E+00  0.10566000000E+00 0. -1.
     999900   -1    0    0    0    0 -0.00000000000E+00 -0.00000000000E+00 -0.74505805969E-08  0.93827000000E+00  0.93827000000E+00 0. -1.
     999902    2    1    2    0    0  0.63984089657E-02  0.15785342191E-01  0.17715601811E-01  0.10193544184E+01  0.10190581294E+01 0.  0.
     999903    2    3    3    0    0  0.15781984906E-01  0.46132843021E-01 -0.11701870206E+00  0.12853324947E+00  0.21215780330E-01 0.  0.
         14    1    1    2    0    0 -0.63984089657E-02 -0.15785342191E-01 -0.17715601811E-01  0.24575581639E-01  0.00000000000E+00 0.  1.
     999901    1    3    3    0    0 -0.93835759398E-02 -0.30347500829E-01  0.13473430387E+00  0.89082116889E+00  0.88000000000E+00 0.  1.
        -11    1    4    4    0    0  0.18149991995E-02  0.19507952222E-01 -0.25251265610E-01  0.31964698621E-01  0.51100000000E-03 0.  1.
         11    1    4    4    0    0  0.13966985706E-01  0.26624890798E-01 -0.91767436449E-01  0.96568550850E-01  0.51100000000E-03 0. -1.
</event>
<event>
 8    1  0.1145101E+005  0.1043930E+01  0.7957747E-01            NaN
         13   -1    0    0    0    0  0.00000000000E+00  0.00000000000E+00  0.74505805969E-08  0.10566000000E+00  0.10566000000E+00 0.  1.
     999900   -1    0    0    0    0 -0.00000000000E+00 -0.00000000000E+00 -0.74505805969E-08  0.93827000000E+00  0.93827000000E+00 0.  1.
     999902    2    1    2    0    0  0.11978495387E-01 -0.15239406604E-01 -0.13283677785E-01  0.10204314902E+01  0.10201608924E+01 0.  0.
     999903    2    3    3    0    0 -0.15986742203E-01  0.12498642157E+00  0.37745954616E-02  0.12872732288E+00  0.26063280318E-01 0.  0.
         14    1    1    2    0    0 -0.11978495387E-01  0.15239406604E-01  0.13283677785E-01  0.23498509759E-01  0.00000000000E+00 0.  1.
     999901    1    3    3    0    0  0.27965237590E-01 -0.14022582818E+00 -0.17058273246E-01  0.89170416736E+00  0.88000000000E+00 0.  1.
        -11    1    4    4    0    0 -0.10688689298E-01  0.15464447028E-01  0.31905253470E-02  0.19074532072E-01  0.51100000000E-03 0.  1.
         11    1    4    4    0    0 -0.52980529046E-02  0.10952197455E+00  0.58407011462E-03  0.10965279081E+00  0.51100000000E-03 0. -1.
</event>
<event>
 8    1  0.1145101E+005  0.1043930E+01  0.7957747E-01            NaN
         13   -1    0    0    0    0  0.00000000000E+00  0.00000000000E+00  0.74505805969E-08  0.10566000000E+00  0.10566000000E+00 0. -1.
     999900   -1    0    0    0    0 -0.00000000000E+00 -0.00000000000E+00 -0.74505805969E-08  0.93827000000E+00  0.93827000000E+00 0. -1.
     999902    2    1    2    0    0  0.68913642133E-02  0.97153943823E-02  0.23488712192E-01  0.10175937248E+01  0.10172528641E+01 0.  0.
     999903    2    3    3    0    0 -0.99396378071E-01 -0.74743937763E-01 -0.11726788220E-01  0.12648733702E+00  0.19880459225E-01 0.  0.
         14    1    1    2    0    0 -0.68913642133E-02 -0.97153943823E-02 -0.23488712192E-01  0.26336275157E-01  0.00000000000E+00 0.  1.
     999901    1    3    3    0    0  0.10628774228E+00  0.84459332146E-01  0.35215500411E-01  0.89110638782E+00  0.88000000000E+00 0.  1.
        -11    1    4    4    0    0 -0.34755109259E-01 -0.36583137819E-01 -0.97407368167E-02  0.51394422528E-01  0.51100000000E-03 0.  1.
         11    1    4    4    0    0 -0.64641268812E-01 -0.38160799945E-01 -0.19860514033E-02  0.75092914494E-01  0.51100000000E-03 0. -1.
</event>
<event>
 8    1  0.1145101E+005  0.1043930E+01  0.7957747E-01            NaN
         13   -1    0    0    0    0  0.00000000000E+00  0.00000000000E+00  0.74505805969E-08  0.10566000000E+00  0.10566000000E+00 0. -1.
     999900   -1    0    0    0    0 -0.00000000000E+00 -0.00000000000E+00 -0.74505805969E-08  0.93827000000E+00  0.93827000000E+00 0. -1.
     999902    2    1    2    0    0  0.25946656956E-02 -0.16517898653E-01 -0.17316937002E-01  0.10198582412E+01  0.10195741182E+01 0.  0.
     999903    2    3    3    0    0  0.63555290150E-01 -0.11418284334E+00 -0.54598732423E-02  0.13227994653E+00  0.19778205682E-01 0.  0.
         14    1    1    2    0    0 -0.25946656956E-02  0.16517898653E-01  0.17316937002E-01  0.24071758829E-01  0.00000000000E+00 0.  1.
     999901    1    3    3    0    0 -0.60960624455E-01  0.97664944684E-01 -0.11857063760E-01  0.88757829464E+00  0.88000000000E+00 0.  1.
        -11    1    4    4    0    0  0.39310241829E-01 -0.61669821431E-01 -0.11839754563E-01  0.74087130442E-01  0.51100000000E-03 0.  1.
         11    1    4    4    0    0  0.24245048322E-01 -0.52513021906E-01  0.63798813212E-02  0.58192816090E-01  0.51100000000E-03 0. -1.
</event>
<event>
 8    1  0.1145101E+005  0.1043930E+01  0.7957747E-01            NaN
         13   -1    0    0    0    0  0.00000000000E+00  0.00000000000E+00  0.74505805969E-08  0.10566000000E+00  0.10566000000E+00 0. -1.
     999900   -1    0    0    0    0 -0.00000000000E+00 -0.00000000000E+00 -0.74505805969E-08  0.93827000000E+00  0.93827000000E+00 0. -1.
     999902    2    1    2    0    0 -0.70910704164E-02 -0.20814014306E-01 -0.94457521350E-02  0.10199982490E+01  0.10197174605E+01 0.  0.
     999903    2    3    3    0    0  0.87212486404E-02 -0.34997727953E-01 -0.12549496468E+00  0.13212515737E+00  0.20178451596E-01 0.  0.
         14    1    1    2    0    0  0.70910704164E-02  0.20814014306E-01  0.94457521350E-02  0.23931750972E-01  0.00000000000E+00 0. -1.
     999901    1    3    3    0    0 -0.15812319057E-01  0.14183713647E-01  0.11604921255E+00  0.88787309166E+00  0.88000000000E+00 0.  1.
        -11    1    4    4    0    0  0.12591156770E-01 -0.28047570018E-01 -0.75869908772E-01  0.81863957825E-01  0.51100000000E-03 0. -1.
         11    1    4    4    0    0 -0.38699081293E-02 -0.69501579350E-02 -0.49625055909E-01  0.50261199541E-01  0.51100000000E-03 0.  1.
</event>
<event>
 8    1  0.1145101E+005  0.1043930E+01  0.7957747E-01            NaN
         13   -1    0    0    0    0  0.00000000000E+00  0.00000000000E+00  0.74505805969E-08  0.10566000000E+00  0.10566000000E+00 0.  1.
     999900   -1    0    0    0    0 -0.00000000000E+00 -0.00000000000E+00 -0.74505805969E-08  0.93827000000E+00  0.93827000000E+00 0.  1.
     999902    2    1    2    0    0  0.45620485837E-02  0.10364797048E-01 -0.18302395630E-01  0.10224074771E+01  0.10221809186E+01 0.  0.
     999903    2    3    3    0    0 -0.10360892285E+00 -0.76904767021E-01  0.94994748623E-02  0.13106585918E+00  0.20949160745E-01 0.  0.
         14    1    1    2    0    0 -0.45620485837E-02 -0.10364797048E-01  0.18302395630E-01  0.21522522875E-01  0.00000000000E+00 0.  1.
     999901    1    3    3    0    0  0.10817097143E+00  0.87269564068E-01 -0.27801870493E-01  0.89134161794E+00  0.88000000000E+00 0. -1.
        -11    1    4    4    0    0 -0.88024455113E-01 -0.60674996313E-01  0.14834876076E-01  0.10793560369E+00  0.51100000000E-03 0. -1.
         11    1    4    4    0    0 -0.15584467737E-01 -0.16229770707E-01 -0.53354012132E-02  0.23130255488E-01  0.51100000000E-03 0.  1.
</event>
<event>
 8    1  0.1145101E+005  0.1043930E+01  0.7957747E-01            NaN
         13   -1    0    0    0    0  0.00000000000E+00  0.00000000000E+00  0.74505805969E-08  0.10566000000E+00  0.10566000000E+00 0.  1.
     999900   -1    0    0    0    0 -0.00000000000E+00 -0.00000000000E+00 -0.74505805969E-08  0.93827000000E+00  0.93827000000E+00 0. -1.
     999902    2    1    2    0    0 -0.46942762909E-02  0.21586416439E-01  0.16515109677E-01  0.10163481499E+01  0.10159738203E+01 0.  0.
     999903    2    3    3    0    0  0.20971003595E-01  0.11728405628E+00 -0.44357081409E-01  0.12869834935E+00  0.20009537842E-01 0.  0.
         14    1    1    2    0    0  0.46942762909E-02 -0.21586416439E-01 -0.16515109677E-01  0.27581850051E-01  0.00000000000E+00 0. -1.
     999901    1    3    3    0    0 -0.25665279886E-01 -0.95697639840E-01  0.60872191086E-01  0.88764980060E+00  0.88000000000E+00 0.  1.
        -11    1    4    4    0    0  0.13102905002E-01  0.10049644045E+00 -0.31499937235E-01  0.10613071106E+00  0.51100000000E-03 0.  1.
         11    1    4    4    0    0  0.78680985931E-02  0.16787615826E-01 -0.12857144174E-01  0.22567638288E-01  0.51100000000E-03 0. -1.
</event>
<event>
 8    1  0.1145101E+005  0.1043930E+01  0.7957747E-01            NaN
         13   -1    0    0    0    0  0.00000000000E+00  0.00000000000E+00  0.74505805969E-08  0.10566000000E+00  0.10566000000E+00 0.  1.
     999900   -1    0    0    0    0 -0.00000000000E+00 -0.00000000000E+00 -0.74505805969E-08  0.93827000000E+00  0.93827000000E+00 0. -1.
     999902    2    1    2    0    0 -0.69612693762E-02 -0.96015228188E-02  0.20456100608E-01  0.10202846926E+01  0.10200106633E+01 0.  0.
     999903    2    3    3    0    0 -0.12239699477E+00  0.42042028957E-01 -0.22943721284E-02  0.13095345666E+00  0.19874283429E-01 0.  0.
         14    1    1    2    0    0  0.69612693762E-02  0.96015228188E-02 -0.20456100608E-01  0.23645307438E-01  0.00000000000E+00 0. -1.
     999901    1    3    3    0    0  0.11543572539E+00 -0.51643551776E-01  0.22750472736E-01  0.88933123590E+00  0.88000000000E+00 0.  1.
        -11    1    4    4    0    0 -0.34138946251E-01  0.59027999959E-02  0.62169085895E-02  0.35202581899E-01  0.51100000000E-03 0. -1.
         11    1    4    4    0    0 -0.88258048515E-01  0.36139228961E-01 -0.85112807179E-02  0.95750874764E-01  0.51100000000E-03 0.  1.
</event>
<event>
 8    1  0.1145101E+005  0.1043930E+01  0.7957747E-01            NaN
         13   -1    0    0    0    0  0.00000000000E+00  0.00000000000E+00  0.74505805969E-08  0.10566000000E+00  0.10566000000E+00 0.  1.
     999900   -1    0    0    0    0 -0.00000000000E+00 -0.00000000000E+00 -0.74505805969E-08  0.93827000000E+00  0.93827000000E+00 0.  1.
     999902    2    1    2    0    0  0.33607622401E-02  0.24155291448E-01  0.21415381552E-02  0.10194481902E+01  0.10191541853E+01 0.  0.
     999903    2    3    3    0    0  0.91506266390E-01  0.65505213570E-01  0.65538612228E-01  0.13181164575E+00  0.20363459146E-01 0.  0.
         14    1    1    2    0    0 -0.33607622401E-02 -0.24155291448E-01 -0.21415381552E-02  0.24481809848E-01  0.00000000000E+00 0. -1.
     999901    1    3    3    0    0 -0.88145504150E-01 -0.41349922122E-01 -0.63397074073E-01  0.88763654440E+00  0.88000000000E+00 0.  1.
        -11    1    4    4    0    0  0.78823696368E-01  0.50348640092E-01  0.60553790388E-01  0.11142344152E+00  0.51100000000E-03 0. -1.
         11    1    4    4    0    0  0.12682570022E-01  0.15156573478E-01  0.49848218404E-02  0.20388204230E-01  0.51100000000E-03 0.  1.
</event>
<event>
 8    1  0.1145101E+005  0.1043930E+01  0.7957747E-01            NaN
         13   -1    0    0    0    0  0.00000000000E+00  0.00000000000E+00  0.74505805969E-08  0.10566000000E+00  0.10566000000E+00 0.  1.
     999900   -1    0    0    0    0 -0.00000000000E+00 -0.00000000000E+00 -0.74505805969E-08  0.93827000000E+00  0.93827000000E+00 0.  1.
     999902    2    1    2    0    0 -0.77173854126E-02  0.12081077589E-01  0.19890179638E-01  0.10194120531E+01  0.10191171691E+01 0.  0.
     999903    2    3    3    0    0  0.95372264579E-01  0.35484548008E-01  0.81475726889E-01  0.13094822268E+00  0.12414546016E-01 0.  0.
         14    1    1    2    0    0  0.77173854126E-02 -0.12081077589E-01 -0.19890179638E-01  0.24517946883E-01  0.00000000000E+00 0. -1.
     999901    1    3    3    0    0 -0.10308964999E+00 -0.23403470419E-01 -0.61585547251E-01  0.88846383044E+00  0.88000000000E+00 0.  1.
        -11    1    4    4    0    0  0.68598040467E-01  0.31188684252E-01  0.58377591071E-01  0.95323813612E-01  0.51100000000E-03 0.  1.
         11    1    4    4    0    0  0.26774224112E-01  0.42958637568E-02  0.23098135818E-01  0.35624409069E-01  0.51100000000E-03 0. -1.
</event>
<event>
 8    1  0.1145101E+005  0.1043930E+01  0.7957747E-01            NaN
         13   -1    0    0    0    0  0.00000000000E+00  0.00000000000E+00  0.74505805969E-08  0.10566000000E+00  0.10566000000E+00 0. -1.
     999900   -1    0    0    0    0 -0.00000000000E+00 -0.00000000000E+00 -0.74505805969E-08  0.93827000000E+00  0.93827000000E+00 0.  1.
     999902    2    1    2    0    0 -0.45347300897E-02  0.11344027802E-01 -0.20472431905E-01  0.10200894628E+01  0.10198108359E+01 0.  0.
     999903    2    3    3    0    0  0.12337718856E+00  0.28341312853E-01  0.21453658743E-01  0.12969170695E+00  0.18289852544E-01 0.  0.
         14    1    1    2    0    0  0.45347300897E-02 -0.11344027802E-01  0.20472431905E-01  0.23840537156E-01  0.00000000000E+00 0. -1.
     999901    1    3    3    0    0 -0.12791191865E+00 -0.16997285051E-01 -0.41926090648E-01  0.89039775590E+00  0.88000000000E+00 0.  1.
        -11    1    4    4    0    0  0.60768467508E-01  0.17545690460E-01  0.21504824181E-02  0.63289363977E-01  0.51100000000E-03 0. -1.
         11    1    4    4    0    0  0.62608721051E-01  0.10795622393E-01  0.19303176325E-01  0.66402342969E-01  0.51100000000E-03 0.  1.
</event>
<event>
 8    1  0.1145101E+005  0.1043930E+01  0.7957747E-01            NaN
         13   -1    0    0    0    0  0.00000000000E+00  0.00000000000E+00  0.74505805969E-08  0.10566000000E+00  0.10566000000E+00 0.  1.
     999900   -1    0    0    0    0 -0.00000000000E+00 -0.00000000000E+00 -0.74505805969E-08  0.93827000000E+00  0.93827000000E+00 0. -1.
     999902    2    1    2    0    0 -0.26291391957E-01  0.14386456443E-01 -0.93683516294E-02  0.10125297861E+01  0.10120427829E+01 0.  0.
     999903    2    3    3    0    0  0.80167050685E-01 -0.77780688758E-01 -0.35327812093E-01  0.12095697571E+00  0.30098905388E-01 0.  0.
         14    1    1    2    0    0  0.26291391957E-01 -0.14386456443E-01  0.93683516294E-02  0.31400213889E-01  0.00000000000E+00 0. -1.
     999901    1    3    3    0    0 -0.10645844264E+00  0.92167145202E-01  0.25959460464E-01  0.89157281040E+00  0.88000000000E+00 0. -1.
        -11    1    4    4    0    0  0.19893447877E-01 -0.67352183392E-02  0.80913458038E-03  0.21024467991E-01  0.51100000000E-03 0. -1.
         11    1    4    4    0    0  0.60273602808E-01 -0.71045470419E-01 -0.36136946674E-01  0.99932507716E-01  0.51100000000E-03 0.  1.
</event>
<event>
 8    1  0.1145101E+005  0.1043930E+01  0.7957747E-01            NaN
         13   -1    0    0    0    0  0.00000000000E+00  0.00000000000E+00  0.74505805969E-08  0.10566000000E+00  0.10566000000E+00 0. -1.
     999900   -1    0    0    0    0 -0.00000000000E+00 -0.00000000000E+00 -0.74505805969E-08  0.93827000000E+00  0.93827000000E+00 0.  1.
     999902    2    1    2    0    0 -0.27649416368E-01 -0.35872331740E-02 -0.19828258748E-01  0.10097171616E+01  0.10091373683E+01 0.  0.
     999903    2    3    3    0    0  0.26726620558E-01 -0.11168861604E-01  0.11286602210E+00  0.11807709595E+00  0.19089419244E-01 0.  0.
         14    1    1    2    0    0  0.27649416368E-01  0.35872331740E-02  0.19828258748E-01  0.34212838414E-01  0.00000000000E+00 0.  1.
     999901    1    3    3    0    0 -0.54376036927E-01  0.75816284299E-02 -0.13269428085E+00  0.89164006564E+00  0.88000000000E+00 0.  1.
        -11    1    4    4    0    0  0.94128145079E-02 -0.84452111074E-02  0.20735666935E-01  0.24293037518E-01  0.51100000000E-03 0.  1.
         11    1    4    4    0    0  0.17313806050E-01 -0.27236504966E-02  0.92130355164E-01  0.93784058431E-01  0.51100000000E-03 0. -1.
</event>
<event>
 8    1  0.1145101E+005  0.1043930E+01  0.7957747E-01            NaN
         13   -1    0    0    0    0  0.00000000000E+00  0.00000000000E+00  0.74505805969E-08  0.10566000000E+00  0.10566000000E+00 0. -1.
     999900   -1    0    0    0    0 -0.00000000000E+00 -0.00000000000E+00 -0.74505805969E-08  0.93827000000E+00  0.93827000000E+00 0.  1.
     999902    2    1    2    0    0 -0.15804040170E-01  0.10147611247E-01 -0.14662421303E-01  0.10201029503E+01  0.10198246422E+01 0.  0.
     999903    2    3    3    0    0 -0.49640320355E-02 -0.12757308171E+00  0.96395753846E-03  0.12918843207E+00  0.19727873094E-01 0.  0.
         14    1    1    2    0    0  0.15804040170E-01 -0.10147611247E-01  0.14662421303E-01  0.23827049716E-01  0.00000000000E+00 0. -1.
     999901    1    3    3    0    0 -0.10840008134E-01  0.13772069295E+00 -0.15626378841E-01  0.89091451821E+00  0.88000000000E+00 0.  1.
        -11    1    4    4    0    0 -0.37097388829E-02 -0.23307522200E-01  0.73346498179E-02  0.24719647300E-01  0.51100000000E-03 0. -1.
         11    1    4    4    0    0 -0.12542931526E-02 -0.10426555951E+00 -0.63706922794E-02  0.10446878477E+00  0.51100000000E-03 0.  1.
</event>
<event>
 8    1  0.1145101E+005  0.1043930E+01  0.7957747E-01            NaN
         13   -1    0    0    0    0  0.00000000000E+00  0.00000000000E+00  0.74505805969E-08  0.10566000000E+00  0.10566000000E+00 0.  1.
     999900   -1    0    0    0    0 -0.00000000000E+00 -0.00000000000E+00 -0.74505805969E-08  0.93827000000E+00  0.93827000000E+00 0. -1.
     999902    2    1    2    0    0  0.65491472119E-02 -0.22504091272E-01  0.17701784971E-02  0.10204255539E+01  0.10201548177E+01 0.  0.
     999903    2    3    3    0    0  0.38974532578E-01 -0.12389295816E+00  0.25406790151E-01  0.13369572058E+00  0.18988455509E-01 0.  0.
         14    1    1    2    0    0 -0.65491472119E-02  0.22504091272E-01 -0.17701784971E-02  0.23504446071E-01  0.00000000000E+00 0. -1.
     999901    1    3    3    0    0 -0.32425385366E-01  0.10138886689E+00 -0.23636611654E-01  0.88672983335E+00  0.88000000000E+00 0. -1.
        -11    1    4    4    0    0  0.30048736671E-01 -0.67145319233E-01  0.10186296155E-01  0.74266023327E-01  0.51100000000E-03 0.  1.
         11    1    4    4    0    0  0.89257959075E-02 -0.56747638931E-01  0.15220493995E-01  0.59429697250E-01  0.51100000000E-03 0. -1.
</event>
<event>
 8    1  0.1145101E+005  0.1043930E+01  0.7957747E-01            NaN
         13   -1    0    0    0    0  0.00000000000E+00  0.00000000000E+00  0.74505805969E-08  0.10566000000E+00  0.10566000000E+00 0.  1.
     999900   -1    0    0    0    0 -0.00000000000E+00 -0.00000000000E+00 -0.74505805969E-08  0.93827000000E+00  0.93827000000E+00 0. -1.
     999902    2    1    2    0    0 -0.62238638890E-04 -0.17968883359E-01  0.16206734603E-01  0.10197320065E+01  0.10194448598E+01 0.  0.
     999903    2    3    3    0    0 -0.45004530329E-01 -0.11503723759E+00 -0.41633858827E-01  0.13136968784E+00  0.16298555123E-01 0.  0.
         14    1    1    2    0    0  0.62238638890E-04  0.17968883359E-01 -0.16206734603E-01  0.24197993497E-01  0.00000000000E+00 0.  1.
     999901    1    3    3    0    0  0.44942291690E-01  0.97068354232E-01  0.57840593431E-01  0.88836231867E+00  0.88000000000E+00 0.  1.
        -11    1    4    4    0    0 -0.11630887716E-01 -0.47063595606E-01 -0.11216474674E-01  0.49762737119E-01  0.51100000000E-03 0.  1.
         11    1    4    4    0    0 -0.33373642613E-01 -0.67973641984E-01 -0.30417384153E-01  0.81606950719E-01  0.51100000000E-03 0. -1.
</event>
<event>
 8    1  0.1145101E+005  0.1043930E+01  0.7957747E-01            NaN
         13   -1    0    0    0    0  0.00000000000E+00  0.00000000000E+00  0.74505805969E-08  0.10566000000E+00  0.10566000000E+00 0. -1.
     999900   -1    0    0    0    0 -0.00000000000E+00 -0.00000000000E+00 -0.74505805969E-08  0.93827000000E+00  0.93827000000E+00 0.  1.
     999902    2    1    2    0    0  0.10040191194E-01 -0.17992118722E-01 -0.11686111648E-01  0.10202427253E+01  0.10199677111E+01 0.  0.
     999903    2    3    3    0    0 -0.41582611719E-01  0.10243322705E+00  0.60331223978E-01  0.12763213034E+00  0.20698417936E-01 0.  0.
         14    1    1    2    0    0 -0.10040191194E-01  0.17992118722E-01  0.11686111648E-01  0.23687274659E-01  0.00000000000E+00 0. -1.
     999901    1    3    3    0    0  0.51622802913E-01 -0.12042534578E+00 -0.72017335626E-01  0.89261059501E+00  0.88000000000E+00 0.  1.
        -11    1    4    4    0    0 -0.31499992542E-01  0.62882095623E-01  0.47398014696E-01  0.84812973054E-01  0.51100000000E-03 0. -1.
         11    1    4    4    0    0 -0.10082619177E-01  0.39551131431E-01  0.12933209282E-01  0.42819157282E-01  0.51100000000E-03 0.  1.
</event>
<event>
 8    1  0.1145101E+005  0.1043930E+01  0.7957747E-01            NaN
         13   -1    0    0    0    0  0.00000000000E+00  0.00000000000E+00  0.74505805969E-08  0.10566000000E+00  0.10566000000E+00 0. -1.
     999900   -1    0    0    0    0 -0.00000000000E+00 -0.00000000000E+00 -0.74505805969E-08  0.93827000000E+00  0.93827000000E+00 0. -1.
     999902    2    1    2    0    0  0.83634299938E-02  0.14264590387E-02 -0.21018283712E-01  0.10212639462E+01  0.10210123886E+01 0.  0.
     999903    2    3    3    0    0  0.97146695790E-01  0.66654035278E-01 -0.59635956309E-01  0.13355429226E+00  0.20001519285E-01 0.  0.
         14    1    1    2    0    0 -0.83634299938E-02 -0.14264590387E-02  0.21018283712E-01  0.22666053844E-01  0.00000000000E+00 0. -1.
     999901    1    3    3    0    0 -0.88783265796E-01 -0.65227576240E-01  0.38617672597E-01  0.88770965390E+00  0.88000000000E+00 0.  1.
        -11    1    4    4    0    0  0.61679759390E-01  0.40821994547E-01 -0.26508369545E-01  0.78573422569E-01  0.51100000000E-03 0. -1.
         11    1    4    4    0    0  0.35466936400E-01  0.25832040731E-01 -0.33127586764E-01  0.54980869689E-01  0.51100000000E-03 0.  1.
</event>
<event>
 8    1  0.1145101E+005  0.1043930E+01  0.7957747E-01            NaN
         13   -1    0    0    0    0  0.00000000000E+00  0.00000000000E+00  0.74505805969E-08  0.10566000000E+00  0.10566000000E+00 0. -1.
     999900   -1    0    0    0    0 -0.00000000000E+00 -0.00000000000E+00 -0.74505805969E-08  0.93827000000E+00  0.93827000000E+00 0. -1.
     999902    2    1    2    0    0  0.95377492269E-02 -0.67323420467E-02  0.18938802166E-01  0.10216820491E+01  0.10214397869E+01 0.  0.
     999903    2    3    3    0    0 -0.10395790531E+00 -0.73273901100E-01 -0.23774087358E-01  0.13087711337E+00  0.19679962266E-01 0.  0.
         14    1    1    2    0    0 -0.95377492269E-02  0.67323420467E-02 -0.18938802166E-01  0.22247950854E-01  0.00000000000E+00 0. -1.
     999901    1    3    3    0    0  0.11349565453E+00  0.66541559053E-01  0.42712889523E-01  0.89080493578E+00  0.88000000000E+00 0. -1.
        -11    1    4    4    0    0 -0.69166686626E-01 -0.38270645557E-01 -0.18928339885E-01  0.81284783459E-01  0.51100000000E-03 0.  1.
         11    1    4    4    0    0 -0.34791218681E-01 -0.35003255543E-01 -0.48457474726E-02  0.49592329906E-01  0.51100000000E-03 0. -1.
</event>
<event>
 8    1  0.1145101E+005  0.1043930E+01  0.7957747E-01            NaN
         13   -1    0    0    0    0  0.00000000000E+00  0.00000000000E+00  0.74505805969E-08  0.10566000000E+00  0.10566000000E+00 0.  1.
     999900   -1    0    0    0    0 -0.00000000000E+00 -0.00000000000E+00 -0.74505805969E-08  0.93827000000E+00  0.93827000000E+00 0.  1.
     999902    2    1    2    0    0  0.20860146573E-01  0.96590082164E-02  0.56570719865E-02  0.10202562885E+01  0.10199815927E+01 0.  0.
     999903    2    3    3    0    0 -0.22759026167E-01  0.10049815246E+00 -0.77661805276E-01  0.13059544428E+00  0.20148502386E-01 0.  0.
         14    1    1    2    0    0 -0.20860146573E-01 -0.96590082164E-02 -0.56570719865E-02  0.23673711543E-01  0.00000000000E+00 0.  1.
     999901    1    3    3    0    0  0.43619172740E-01 -0.90839144240E-01  0.83318877262E-01  0.88966084418E+00  0.88000000000E+00 0. -1.
        -11    1    4    4    0    0 -0.17840565892E-01  0.43099496498E-01 -0.27138162165E-01  0.53968447786E-01  0.51100000000E-03 0.  1.
         11    1    4    4    0    0 -0.49184602753E-02  0.57398655958E-01 -0.50523643111E-01  0.76626996492E-01  0.51100000000E-03 0. -1.
</event>
<event>
 8    1  0.1145101E+005  0.1043930E+01  0.7957747E-01            NaN
         13   -1    0    0    0    0  0.00000000000E+00  0.00000000000E+00  0.74505805969E-08  0.10566000000E+00  0.10566000000E+00 0.  1.
     999900   -1    0    0    0    0 -0.00000000000E+00 -0.00000000000E+00 -0.74505805969E-08  0.93827000000E+00  0.93827000000E+00 0. -1.
     999902    2    1    2    0    0  0.95686190566E-02  0.12897420116E-01  0.17624919050E-01  0.10200859297E+01  0.10198072192E+01 0.  0.
     999903    2    3    3    0    0  0.22659116643E-01  0.11981104550E+00 -0.44486505035E-01  0.13134540885E+00  0.20110820628E-01 0.  0.
         14    1    1    2    0    0 -0.95686190566E-02 -0.12897420116E-01 -0.17624919050E-01  0.23844070287E-01  0.00000000000E+00 0. -1.
     999901    1    3    3    0    0 -0.13090497586E-01 -0.10691362538E+00  0.62111424085E-01  0.88874052086E+00  0.88000000000E+00 0. -1.
        -11    1    4    4    0    0  0.10745654055E-01  0.83946208247E-01 -0.38881594994E-01  0.93136859032E-01  0.51100000000E-03 0. -1.
         11    1    4    4    0    0  0.11913462588E-01  0.35864837250E-01 -0.56049100403E-02  0.38208549820E-01  0.51100000000E-03 0.  1.
</event>
<event>
 8    1  0.1145101E+005  0.1043930E+01  0.7957747E-01            NaN
         13   -1    0    0    0    0  0.00000000000E+00  0.00000000000E+00  0.74505805969E-08  0.10566000000E+00  0.10566000000E+00 0.  1.
     999900   -1    0    0    0    0 -0.00000000000E+00 -0.00000000000E+00 -0.74505805969E-08  0.93827000000E+00  0.93827000000E+00 0.  1.
     999902    2    1    2    0    0 -0.17582668626E-01 -0.12120292281E-01  0.11751154633E-01  0.10195549850E+01  0.10192635705E+01 0.  0.
     999903    2    3    3    0    0  0.97642753936E-01  0.77952356899E-01 -0.12960076288E-01  0.12714217410E+00  0.19659387427E-01 0.  0.
         14    1    1    2    0    0  0.17582668626E-01  0.12120292281E-01 -0.11751154633E-01  0.24375014999E-01  0.00000000000E+00 0. -1.
     999901    1    3    3    0    0 -0.11522542256E+00 -0.90072649180E-01  0.24711230921E-01  0.89241281091E+00  0.88000000000E+00 0.  1.
        -11    1    4    4    0    0  0.72797189149E-01  0.62877024685E-01 -0.17352527599E-01  0.97746213821E-01  0.51100000000E-03 0.  1.
         11    1    4    4    0    0  0.24845564787E-01  0.15075332214E-01  0.43924513109E-02  0.29395960275E-01  0.51100000000E-03 0. -1.
</event>
<event>
 8    1  0.1145101E+005  0.1043930E+01  0.7957747E-01            NaN
         13   -1    0    0    0    0  0.00000000000E+00  0.00000000000E+00  0.74505805969E-08  0.10566000000E+00  0.10566000000E+00 0.  1.
     999900   -1    0    0    0    0 -0.00000000000E+00 -0.00000000000E+00 -0.74505805969E-08  0.93827000000E+00  0.93827000000E+00 0.  1.
     999902    2    1    2    0    0 -0.18580835552E-01 -0.50763229495E-02  0.14515633628E-01  0.10198111251E+01  0.10195258755E+01 0.  0.
     999903    2    3    3    0    0  0.11248661325E+00 -0.57375399814E-01  0.13990482421E-01  0.12856809131E+00  0.19719174424E-01 0.  0.
         14    1    1    2    0    0  0.18580835552E-01  0.50763229495E-02 -0.14515633628E-01  0.24118874852E-01  0.00000000000E+00 0. -1.
     999901    1    3    3    0    0 -0.13106744881E+00  0.52299076865E-01  0.52515120701E-03  0.89124303384E+00  0.88000000000E+00 0.  1.
        -11    1    4    4    0    0  0.24207332094E-01 -0.12024517192E-01  0.11251656916E-01  0.29282159162E-01  0.51100000000E-03 0. -1.
         11    1    4    4    0    0  0.88279281160E-01 -0.45350882622E-01  0.27388255049E-02  0.99285932150E-01  0.51100000000E-03 0.  1.
</event>
<event>
 8    1  0.1145101E+005  0.1043930E+01  0.7957747E-01            NaN
         13   -1    0    0    0    0  0.00000000000E+00  0.00000000000E+00  0.74505805969E-08  0.10566000000E+00  0.10566000000E+00 0.  1.
     999900   -1    0    0    0    0 -0.00000000000E+00 -0.00000000000E+00 -0.74505805969E-08  0.93827000000E+00  0.93827000000E+00 0. -1.
     999902    2    1    2    0    0 -0.16056794322E-01  0.16128532112E-01 -0.61476875940E-02  0.10203557714E+01  0.10200834064E+01 0.  0.
     999903    2    3    3    0    0 -0.38512300297E-02  0.10914326303E+00 -0.72769087445E-01  0.13286541826E+00  0.20755612373E-01 0.  0.
         14    1    1    2    0    0  0.16056794322E-01 -0.16128532112E-01  0.61476875940E-02  0.23574228614E-01  0.00000000000E+00 0.  1.
     999901    1    3    3    0    0 -0.12205564292E-01 -0.93014730919E-01  0.66621399851E-01  0.88749035312E+00  0.88000000000E+00 0. -1.
        -11    1    4    4    0    0  0.24610585144E-02  0.17765918627E-01 -0.41494695298E-02  0.18416402799E-01  0.51100000000E-03 0. -1.
         11    1    4    4    0    0 -0.63122885441E-02  0.91377344404E-01 -0.68619617916E-01  0.11444901546E+00  0.51100000000E-03 0.  1.
</event>
<event>
 8    1  0.1145101E+005  0.1043930E+01  0.7957747E-01            NaN
         13   -1    0    0    0    0  0.00000000000E+00  0.00000000000E+00  0.74505805969E-08  0.10566000000E+00  0.10566000000E+00 0.  1.
     999900   -1    0    0    0    0 -0.00000000000E+00 -0.00000000000E+00 -0.74505805969E-08  0.93827000000E+00  0.93827000000E+00 0.  1.
     999902    2    1    2    0    0  0.17420618969E-01 -0.59219505429E-02  0.33116034812E-01  0.10060457127E+01  0.10053321624E+01 0.  0.
     999903    2    3    3    0    0  0.94225843946E-01  0.50093549936E-01  0.51504022307E-01  0.12073509095E+00  0.23160838937E-01 0.  0.
         14    1    1    2    0    0 -0.17420618969E-01  0.59219505429E-02 -0.33116034812E-01  0.37884287312E-01  0.00000000000E+00 0. -1.
     999901    1    3    3    0    0 -0.76805224977E-01 -0.56015500479E-01 -0.18387987495E-01  0.88531062174E+00  0.88000000000E+00 0.  1.
        -11    1    4    4    0    0  0.54187327268E-01  0.19616240818E-01  0.18381636559E-01  0.60491396279E-01  0.51100000000E-03 0.  1.
         11    1    4    4    0    0  0.40038516678E-01  0.30477309118E-01  0.33122385748E-01  0.60243694670E-01  0.51100000000E-03 0. -1.
</event>
<event>
 8    1  0.1145101E+005  0.1043930E+01  0.7957747E-01            NaN
         13   -1    0    0    0    0  0.00000000000E+00  0.00000000000E+00  0.74505805969E-08  0.10566000000E+00  0.10566000000E+00 0. -1.
     999900   -1    0    0    0    0 -0.00000000000E+00 -0.00000000000E+00 -0.74505805969E-08  0.93827000000E+00  0.93827000000E+00 0. -1.
     999902    2    1    2    0    0 -0.22656015369E-01  0.69287252774E-02  0.17835014201E-03  0.10202375102E+01  0.10199623733E+01 0.  0.
     999903    2    3    3    0    0  0.65316973759E-01  0.39745023056E-01 -0.10257378053E+00  0.12929746920E+00  0.18721142353E-01 0.  0.
         14    1    1    2    0    0  0.22656015369E-01 -0.69287252774E-02 -0.17835014201E-03  0.23692489847E-01  0.00000000000E+00 0.  1.
     999901    1    3    3    0    0 -0.87972989129E-01 -0.32816297779E-01  0.10275213067E+00  0.89094004095E+00  0.88000000000E+00 0.  1.
        -11    1    4    4    0    0  0.53629069837E-01  0.37913746096E-01 -0.77638474278E-01  0.10169327944E+00  0.51100000000E-03 0. -1.
         11    1    4    4    0    0  0.11687903922E-01  0.18312769604E-02 -0.24935306249E-01  0.27604189757E-01  0.51100000000E-03 0.  1.
</event>
<event>
 8    1  0.1145101E+005  0.1043930E+01  0.7957747E-01            NaN
         13   -1    0    0    0    0  0.00000000000E+00  0.00000000000E+00  0.74505805969E-08  0.10566000000E+00  0.10566000000E+00 0.  1.
     999900   -1    0    0    0    0 -0.00000000000E+00 -0.00000000000E+00 -0.74505805969E-08  0.93827000000E+00  0.93827000000E+00 0.  1.
     999902    2    1    2    0    0  0.18509459543E-01  0.14654233638E-01 -0.40826759006E-02  0.10199713920E+01  0.10196899654E+01 0.  0.
     999903    2    3    3    0    0  0.75247711421E-02  0.12958682128E+00 -0.15701636241E-01  0.13235370213E+00  0.20532770350E-01 0.  0.
         14    1    1    2    0    0 -0.18509459543E-01 -0.14654233638E-01  0.40826759006E-02  0.23958608027E-01  0.00000000000E+00 0.  1.
     999901    1    3    3    0    0  0.10984688401E-01 -0.11493258764E+00  0.11618960340E-01  0.88761768984E+00  0.88000000000E+00 0.  1.
        -11    1    4    4    0    0  0.64131306704E-02  0.77205834442E-01 -0.19279971958E-01  0.79836379907E-01  0.51100000000E-03 0.  1.
         11    1    4    4    0    0  0.11116404717E-02  0.52380986833E-01  0.35783357168E-02  0.52517322225E-01  0.51100000000E-03 0. -1.
</event>
<event>
 8    1  0.1145101E+005  0.1043930E+01  0.7957747E-01            NaN
         13   -1    0    0    0    0  0.00000000000E+00  0.00000000000E+00  0.74505805969E-08  0.10566000000E+00  0.10566000000E+00 0.  1.
     999900   -1    0    0    0    0 -0.00000000000E+00 -0.00000000000E+00 -0.74505805969E-08  0.93827000000E+00  0.93827000000E+00 0. -1.
     999902    2    1    2    0    0  0.15454918416E-01 -0.14339109876E-01 -0.57556474424E-02  0.10220761204E+01  0.10218424555E+01 0.  0.
     999903    2    3    3    0    0 -0.49173720259E-01 -0.10804667737E+00 -0.58529915428E-01  0.13317618651E+00  0.14765039759E-01 0.  0.
         14    1    1    2    0    0 -0.15454918416E-01  0.14339109876E-01  0.57556474424E-02  0.21853879582E-01  0.00000000000E+00 0. -1.
     999901    1    3    3    0    0  0.64628638675E-01  0.93707567490E-01  0.52774267986E-01  0.88889993391E+00  0.88000000000E+00 0.  1.
        -11    1    4    4    0    0 -0.16351835642E-01 -0.21200857615E-01 -0.12684949939E-01  0.29631536721E-01  0.51100000000E-03 0.  1.
         11    1    4    4    0    0 -0.32821884617E-01 -0.86845819752E-01 -0.45844965489E-01  0.10354464979E+00  0.51100000000E-03 0. -1.
</event>
<event>
 8    1  0.1145101E+005  0.1043930E+01  0.7957747E-01            NaN
         13   -1    0    0    0    0  0.00000000000E+00  0.00000000000E+00  0.74505805969E-08  0.10566000000E+00  0.10566000000E+00 0.  1.
     999900   -1    0    0    0    0 -0.00000000000E+00 -0.00000000000E+00 -0.74505805969E-08  0.93827000000E+00  0.93827000000E+00 0.  1.
     999902    2    1    2    0    0 -0.10215026406E-01 -0.58570829364E-02 -0.21361174002E-01  0.10195383633E+01  0.10192465464E+01 0.  0.
     999903    2    3    3    0    0 -0.93111832863E-01 -0.81406239055E-01  0.34399678467E-01  0.13066895324E+00  0.24377208342E-01 0.  0.
         14    1    1    2    0    0  0.10215026406E-01  0.58570829364E-02  0.21361174002E-01  0.24391636676E-01  0.00000000000E+00 0.  1.
     999901    1    3    3    0    0  0.82896806457E-01  0.75549156119E-01 -0.55760852469E-01  0.88886941008E+00  0.88000000000E+00 0.  1.
        -11    1    4    4    0    0 -0.77146369669E-01 -0.58587998951E-01  0.34446896937E-01  0.10281520220E+00  0.51100000000E-03 0. -1.
         11    1    4    4    0    0 -0.15965463195E-01 -0.22818240104E-01 -0.47218469403E-04  0.27853751041E-01  0.51100000000E-03 0.  1.
</event>
<event>
 8    1  0.1145101E+005  0.1043930E+01  0.7957747E-01            NaN
         13   -1    0    0    0    0  0.00000000000E+00  0.00000000000E+00  0.74505805969E-08  0.10566000000E+00  0.10566000000E+00 0. -1.
     999900   -1    0    0    0    0 -0.00000000000E+00 -0.00000000000E+00 -0.74505805969E-08  0.93827000000E+00  0.93827000000E+00 0. -1.
     999902    2    1    2    0    0  0.23725227973E-02 -0.17020650785E-01 -0.16763234014E-01  0.10199229712E+01  0.10196403924E+01 0.  0.
     999903    2    3    3    0    0  0.96512336203E-01 -0.87029599972E-01 -0.12680831442E-01  0.13212782396E+00  0.20203367748E-01 0.  0.
         14    1    1    2    0    0 -0.23725227973E-02  0.17020650785E-01  0.16763234014E-01  0.24007028808E-01  0.00000000000E+00 0. -1.
     999901    1    3    3    0    0 -0.94139813405E-01  0.70008949187E-01 -0.40824025720E-02  0.88779514723E+00  0.88000000000E+00 0. -1.
        -11    1    4    4    0    0  0.28840499090E-01 -0.24470312533E-01 -0.12907365949E-01  0.39967884607E-01  0.51100000000E-03 0. -1.
         11    1    4    4    0    0  0.67671837113E-01 -0.62559287439E-01  0.22653450679E-03  0.92159939355E-01  0.51100000000E-03 0.  1.
</event>
<event>
 8    1  0.1145101E+005  0.1043930E+01  0.7957747E-01            NaN
         13   -1    0    0    0    0  0.00000000000E+00  0.00000000000E+00  0.74505805969E-08  0.10566000000E+00  0.10566000000E+00 0.  1.
     999900   -1    0    0    0    0 -0.00000000000E+00 -0.00000000000E+00 -0.74505805969E-08  0.93827000000E+00  0.93827000000E+00 0.  1.
     999902    2    1    2    0    0  0.18604293161E-01 -0.22783642548E-02  0.12653774974E-01  0.10213152108E+01  0.10210648026E+01 0.  0.
     999903    2    3    3    0    0 -0.12359112237E+00  0.27747484735E-01  0.16371190249E-01  0.12938757533E+00  0.20698800485E-01 0.  0.
         14    1    1    2    0    0 -0.18604293161E-01  0.22783642548E-02 -0.12653774974E-01  0.22614789161E-01  0.00000000000E+00 0.  1.
     999901    1    3    3    0    0  0.14219541553E+00 -0.30025848989E-01 -0.37174152749E-02  0.89192763551E+00  0.88000000000E+00 0.  1.
        -11    1    4    4    0    0 -0.87752782239E-01  0.10050494743E-01  0.12887777778E-01  0.89263201670E-01  0.51100000000E-03 0. -1.
         11    1    4    4    0    0 -0.35838340133E-01  0.17696989992E-01  0.34834124711E-02  0.40124373661E-01  0.51100000000E-03 0.  1.
</event>
<event>
 8    1  0.1145101E+005  0.1043930E+01  0.7957747E-01            NaN
         13   -1    0    0    0    0  0.00000000000E+00  0.00000000000E+00  0.74505805969E-08  0.10566000000E+00  0.10566000000E+00 0. -1.
     999900   -1    0    0    0    0 -0.00000000000E+00 -0.00000000000E+00 -0.74505805969E-08  0.93827000000E+00  0.93827000000E+00 0.  1.
     999902    2    1    2    0    0 -0.12293357776E-01 -0.12902143832E-01  0.17269749967E-01  0.10191139523E+01  0.10188117645E+01 0.  0.
     999903    2    3    3    0    0  0.42060673327E-01 -0.12115342128E+00  0.15508258184E-01  0.13081456433E+00  0.20608067345E-01 0.  0.
         14    1    1    2    0    0  0.12293357776E-01  0.12902143832E-01 -0.17269749967E-01  0.24816047727E-01  0.00000000000E+00 0.  1.
     999901    1    3    3    0    0 -0.54354031103E-01  0.10825127745E+00  0.17614917836E-02  0.88829938794E+00  0.88000000000E+00 0. -1.
        -11    1    4    4    0    0  0.38002165183E-02 -0.37657302945E-01  0.12870376416E-02  0.37873892031E-01  0.51100000000E-03 0. -1.
         11    1    4    4    0    0  0.38260456809E-01 -0.83496118337E-01  0.14221220542E-01  0.92940672298E-01  0.51100000000E-03 0.  1.
</event>
<event>
 8    1  0.1145101E+005  0.1043930E+01  0.7957747E-01            NaN
         13   -1    0    0    0    0  0.00000000000E+00  0.00000000000E+00  0.74505805969E-08  0.10566000000E+00  0.10566000000E+00 0. -1.
     999900   -1    0    0    0    0 -0.00000000000E+00 -0.00000000000E+00 -0.74505805969E-08  0.93827000000E+00  0.93827000000E+00 0.  1.
     999902    2    1    2    0    0  0.14416620891E-01 -0.15859635076E-01  0.10328359715E-01  0.10201383629E+01  0.10198608912E+01 0.  0.
     999903    2    3    3    0    0 -0.71154777858E-01 -0.45191841377E-01 -0.95675714138E-01  0.12917275956E+00  0.20650777184E-01 0.  0.
         14    1    1    2    0    0 -0.14416620891E-01  0.15859635076E-01 -0.10328359715E-01  0.23791637125E-01  0.00000000000E+00 0.  1.
     999901    1    3    3    0    0  0.85571398750E-01  0.29332206301E-01  0.10600407385E+00  0.89096560331E+00  0.88000000000E+00 0. -1.
        -11    1    4    4    0    0 -0.67667671803E-01 -0.39942188060E-01 -0.79386789531E-01  0.11169966727E+00  0.51100000000E-03 0. -1.
         11    1    4    4    0    0 -0.34871060556E-02 -0.52496533171E-02 -0.16288924607E-01  0.17473092298E-01  0.51100000000E-03 0.  1.
</event>
<event>
 8    1  0.1145101E+005  0.1043930E+01  0.7957747E-01            NaN
         13   -1    0    0    0    0  0.00000000000E+00  0.00000000000E+00  0.74505805969E-08  0.10566000000E+00  0.10566000000E+00 0.  1.
     999900   -1    0    0    0    0 -0.00000000000E+00 -0.00000000000E+00 -0.74505805969E-08  0.93827000000E+00  0.93827000000E+00 0. -1.
     999902    2    1    2    0    0 -0.75010187584E-02  0.16432952359E-01 -0.14016845155E-01  0.10210656357E+01  0.10208096068E+01 0.  0.
     999903    2    3    3    0    0  0.11851385429E+00 -0.13291129125E-01  0.46644281621E-01  0.12952593299E+00  0.19470247505E-01 0.  0.
         14    1    1    2    0    0  0.75010187584E-02 -0.16432952359E-01  0.14016845155E-01  0.22864364276E-01  0.00000000000E+00 0.  1.
     999901    1    3    3    0    0 -0.12601487305E+00  0.29724081484E-01 -0.60661126775E-01  0.89153970273E+00  0.88000000000E+00 0. -1.
        -11    1    4    4    0    0  0.81795658879E-01 -0.47881644153E-02  0.40266592607E-01  0.91296856085E-01  0.51100000000E-03 0. -1.
         11    1    4    4    0    0  0.36718195408E-01 -0.85029647102E-02  0.63776890133E-02  0.38229076906E-01  0.51100000000E-03 0.  1.
</event>
<event>
 8    1  0.1145101E+005  0.1043930E+01  0.7957747E-01            NaN
         13   -1    0    0    0    0  0.00000000000E+00  0.00000000000E+00  0.74505805969E-08  0.10566000000E+00  0.10566000000E+00 0.  1.
     999900   -1    0    0    0    0 -0.00000000000E+00 -0.00000000000E+00 -0.74505805969E-08  0.93827000000E+00  0.93827000000E+00 0.  1.
     999902    2    1    2    0    0  0.18322404684E-01 -0.26860843330E-02  0.16251405322E-01  0.10192919453E+01  0.10189941296E+01 0.  0.
     999903    2    3    3    0    0  0.68400040927E-01 -0.40158625593E-01  0.10484530509E+00  0.13263483006E+00  0.17555037373E-01 0.  0.
         14    1    1    2    0    0 -0.18322404684E-01  0.26860843330E-02 -0.16251405322E-01  0.24638054659E-01  0.00000000000E+00 0. -1.
     999901    1    3    3    0    0 -0.50077636243E-01  0.37472541260E-01 -0.88593899769E-01  0.88665711528E+00  0.88000000000E+00 0.  1.
        -11    1    4    4    0    0  0.23699619065E-01 -0.48341309101E-02  0.33777771471E-01  0.41548041254E-01  0.51100000000E-03 0.  1.
         11    1    4    4    0    0  0.44700421862E-01 -0.35324494683E-01  0.71067533620E-01  0.91086788807E-01  0.51100000000E-03 0. -1.
</event>
<event>
 8    1  0.1145101E+005  0.1043930E+01  0.7957747E-01            NaN
         13   -1    0    0    0    0  0.00000000000E+00  0.00000000000E+00  0.74505805969E-08  0.10566000000E+00  0.10566000000E+00 0. -1.
     999900   -1    0    0    0    0 -0.00000000000E+00 -0.00000000000E+00 -0.74505805969E-08  0.93827000000E+00  0.93827000000E+00 0.  1.
     999902    2    1    2    0    0 -0.18166342253E-01  0.12679774015E-01  0.74195934474E-02  0.10205667163E+01  0.10202992597E+01 0.  0.
     999903    2    3    3    0    0 -0.37071676223E-01 -0.93021039637E-01 -0.79733894760E-01  0.12976606283E+00  0.21319336177E-01 0.  0.
         14    1    1    2    0    0  0.18166342253E-01 -0.12679774015E-01 -0.74195934474E-02  0.23363283734E-01  0.00000000000E+00 0.  1.
     999901    1    3    3    0    0  0.18905333969E-01  0.10570081365E+00  0.87153488207E-01  0.89080065344E+00  0.88000000000E+00 0. -1.
        -11    1    4    4    0    0 -0.76545551616E-02 -0.20670256361E-01 -0.72481172524E-02  0.23208792244E-01  0.51100000000E-03 0.  1.
         11    1    4    4    0    0 -0.29417121061E-01 -0.72350783276E-01 -0.72485777508E-01  0.10655727058E+00  0.51100000000E-03 0. -1.
</event>
<event>
 8    1  0.1145101E+005  0.1043930E+01  0.7957747E-01            NaN
         13   -1    0    0    0    0  0.00000000000E+00  0.00000000000E+00  0.74505805969E-08  0.10566000000E+00  0.10566000000E+00 0.  1.
     999900   -1    0    0    0    0 -0.00000000000E+00 -0.00000000000E+00 -0.74505805969E-08  0.93827000000E+00  0.93827000000E+00 0. -1.
     999902    2    1    2    0    0  0.14947967239E-01 -0.13490754067E-01 -0.66273890894E-02  0.10227317818E+01  0.10225120699E+01 0.  0.
     999903    2    3    3    0    0  0.24990002608E-01 -0.81083537827E-01 -0.10305196787E+00  0.13483126579E+00  0.18992677936E-01 0.  0.
         14    1    1    2    0    0 -0.14947967239E-01  0.13490754067E-01  0.66273890894E-02  0.21198218228E-01  0.00000000000E+00 0.  1.
     999901    1    3    3    0    0 -0.10042035369E-01  0.67592783759E-01  0.96424578782E-01  0.88790051598E+00  0.88000000000E+00 0.  1.
        -11    1    4    4    0    0  0.18396208471E-01 -0.28461287551E-01 -0.38852848199E-01  0.51558416475E-01  0.51100000000E-03 0.  1.
         11    1    4    4    0    0  0.65937941370E-02 -0.52622250276E-01 -0.64199119672E-01  0.83272849314E-01  0.51100000000E-03 0. -1.
</event>
<event>
 8    1  0.1145101E+005  0.1043930E+01  0.7957747E-01            NaN
         13   -1    0    0    0    0  0.00000000000E+00  0.00000000000E+00  0.74505805969E-08  0.10566000000E+00  0.10566000000E+00 0. -1.
     999900   -1    0    0    0    0 -0.00000000000E+00 -0.00000000000E+00 -0.74505805969E-08  0.93827000000E+00  0.93827000000E+00 0. -1.
     999902    2    1    2    0    0 -0.34912295777E-02 -0.23569922532E-01  0.85583497786E-03  0.10200875508E+01  0.10198088786E+01 0.  0.
     999903    2    3    3    0    0 -0.47824820502E-01  0.68953632464E-01 -0.95674227287E-01  0.12888379828E+00  0.20387712152E-01 0.  0.
         14    1    1    2    0    0  0.34912295777E-02  0.23569922532E-01 -0.85583497786E-03  0.23842449237E-01  0.00000000000E+00 0. -1.
     999901    1    3    3    0    0  0.44333590925E-01 -0.92523554996E-01  0.96530062265E-01  0.89120375248E+00  0.88000000000E+00 0.  1.
        -11    1    4    4    0    0 -0.13480328085E-01  0.91597337823E-02 -0.27142983387E-01  0.31664216971E-01  0.51100000000E-03 0. -1.
         11    1    4    4    0    0 -0.34344492417E-01  0.59793898682E-01 -0.68531243900E-01  0.97219581312E-01  0.51100000000E-03 0.  1.
</event>
<event>
 8    1  0.1145101E+005  0.1043930E+01  0.7957747E-01            NaN
         13   -1    0    0    0    0  0.00000000000E+00  0.00000000000E+00  0.74505805969E-08  0.10566000000E+00  0.10566000000E+00 0. -1.
     999900   -1    0    0    0    0 -0.00000000000E+00 -0.00000000000E+00 -0.74505805969E-08  0.93827000000E+00  0.93827000000E+00 0. -1.
     999902    2    1    2    0    0  0.34374160584E-04  0.15186298694E-01  0.17824895922E-01  0.10205130881E+01  0.10202443880E+01 0.  0.
     999903    2    3    3    0    0 -0.27071330445E-01  0.12821928013E+00  0.59528947344E-02  0.13279009156E+00  0.20608996395E-01 0.  0.
         14    1    1    2    0    0 -0.34374160584E-04 -0.15186298694E-01 -0.17824895922E-01  0.23416911928E-01  0.00000000000E+00 0.  1.
     999901    1    3    3    0    0  0.27105704606E-01 -0.11303298144E+00  0.11872001188E-01  0.88772299651E+00  0.88000000000E+00 0. -1.
        -11    1    4    4    0    0 -0.46238075245E-02  0.19506274085E-01  0.84343071929E-02  0.21754838163E-01  0.51100000000E-03 0.  1.
         11    1    4    4    0    0 -0.22447522920E-01  0.10871300605E+00 -0.24814124585E-02  0.11103525340E+00  0.51100000000E-03 0. -1.
</event>
<event>
 8    1  0.1145101E+005  0.1043930E+01  0.7957747E-01            NaN
         13   -1    0    0    0    0  0.00000000000E+00  0.00000000000E+00  0.74505805969E-08  0.10566000000E+00  0.10566000000E+00 0.  1.
     999900   -1    0    0    0    0 -0.00000000000E+00 -0.00000000000E+00 -0.74505805969E-08  0.93827000000E+00  0.93827000000E+00 0. -1.
     999902    2    1    2    0    0  0.19329187655E-01  0.91063396477E-02 -0.23908594350E-02  0.10224297878E+01  0.10222037037E+01 0.  0.
     999903    2    3    3    0    0  0.54427867848E-01 -0.80144239658E-01  0.88273934318E-01  0.13258840410E+00  0.20047580243E-01 0.  0.
         14    1    1    2    0    0 -0.19329187655E-01 -0.91063396477E-02  0.23908594350E-02  0.21500212232E-01  0.00000000000E+00 0. -1.
     999901    1    3    3    0    0 -0.35098680192E-01  0.89250579306E-01 -0.90664793753E-01  0.88984138367E+00  0.88000000000E+00 0. -1.
        -11    1    4    4    0    0  0.58298639824E-02 -0.19412946072E-02  0.21988102319E-02  0.65461306312E-02  0.51100000000E-03 0.  1.
         11    1    4    4    0    0  0.48598003865E-01 -0.78202945051E-01  0.86075124086E-01  0.12604227347E+00  0.51100000000E-03 0. -1.
</event>
<event>
 8    1  0.1145101E+005  0.1043930E+01  0.7957747E-01            NaN
         13   -1    0    0    0    0  0.00000000000E+00  0.00000000000E+00  0.74505805969E-08  0.10566000000E+00  0.10566000000E+00 0.  1.
     999900   -1    0    0    0    0 -0.00000000000E+00 -0.00000000000E+00 -0.74505805969E-08  0.93827000000E+00  0.93827000000E+00 0.  1.
     999902    2    1    2    0    0 -0.10549625530E-02  0.23346848963E-01  0.16794338500E-02  0.10204990632E+01  0.10202300374E+01 0.  0.
     999903    2    3    3    0    0 -0.65241830994E-01 -0.63695039971E-01  0.89667195703E-01  0.12952314277E+00  0.20554413116E-01 0.  0.
         14    1    1    2    0    0  0.10549625530E-02 -0.23346848963E-01 -0.16794338500E-02  0.23430936826E-01  0.00000000000E+00 0. -1.
     999901    1    3    3    0    0  0.64186868441E-01  0.87041888934E-01 -0.87987761853E-01  0.89097592041E+00  0.88000000000E+00 0.  1.
        -11    1    4    4    0    0 -0.36211123646E-01 -0.40392948614E-01  0.39763939161E-01  0.67262677259E-01  0.51100000000E-03 0. -1.
         11    1    4    4    0    0 -0.29030707348E-01 -0.23302091357E-01  0.49903256542E-01  0.62260465508E-01  0.51100000000E-03 0.  1.
</event>
<event>
 8    1  0.1145101E+005  0.1043930E+01  0.7957747E-01            NaN
         13   -1    0    0    0    0  0.00000000000E+00  0.00000000000E+00  0.74505805969E-08  0.10566000000E+00  0.10566000000E+00 0.  1.
     999900   -1    0    0    0    0 -0.00000000000E+00 -0.00000000000E+00 -0.74505805969E-08  0.93827000000E+00  0.93827000000E+00 0.  1.
     999902    2    1    2    0    0  0.87369035106E-02  0.13657010127E-01  0.89382965313E-02  0.10254167465E+01  0.10252496104E+01 0.  0.
     999903    2    3    3    0    0  0.20865362752E-01  0.10295776616E+00  0.86398258807E-01  0.13742926335E+00  0.19659051993E-01 0.  0.
         14    1    1    2    0    0 -0.87369035106E-02 -0.13657010127E-01 -0.89382965313E-02  0.18513253454E-01  0.00000000000E+00 0.  1.
     999901    1    3    3    0    0 -0.12128459241E-01 -0.89300756034E-01 -0.77459962276E-01  0.88798748319E+00  0.88000000000E+00 0.  1.
        -11    1    4    4    0    0  0.64833413512E-02  0.75598366791E-01  0.58897323024E-01  0.96053644162E-01  0.51100000000E-03 0.  1.
         11    1    4    4    0    0  0.14382021401E-01  0.27359399370E-01  0.27500935783E-01  0.41375619191E-01  0.51100000000E-03 0. -1.
</event>
<event>
 8    1  0.1145101E+005  0.1043930E+01  0.7957747E-01            NaN
         13   -1    0    0    0    0  0.00000000000E+00  0.00000000000E+00  0.74505805969E-08  0.10566000000E+00  0.10566000000E+00 0. -1.
     999900   -1    0    0    0    0 -0.00000000000E+00 -0.00000000000E+00 -0.74505805969E-08  0.93827000000E+00  0.93827000000E+00 0.  1.
     999902    2    1    2    0    0 -0.21912373705E-01 -0.77538887569E-02  0.73765733566E-02  0.10195437591E+01  0.10192520728E+01 0.  0.
     999903    2    3    3    0    0  0.55917695048E-01  0.96112212861E-01 -0.59628620629E-01  0.12750374725E+00  0.18365377314E-01 0.  0.
         14    1    1    2    0    0  0.21912373705E-01  0.77538887569E-02 -0.73765733566E-02  0.24386240931E-01  0.00000000000E+00 0.  1.
     999901    1    3    3    0    0 -0.77830068753E-01 -0.10386610162E+00  0.67005193986E-01  0.89204001182E+00  0.88000000000E+00 0.  1.
        -11    1    4    4    0    0  0.42121872296E-01  0.55436071755E-01 -0.39734867426E-01  0.80165647179E-01  0.51100000000E-03 0. -1.
         11    1    4    4    0    0  0.13795822752E-01  0.40676141106E-01 -0.19893753203E-01  0.47338100070E-01  0.51100000000E-03 0.  1.
</event>
<event>
 8    1  0.1145101E+005  0.1043930E+01  0.7957747E-01            NaN
         13   -1    0    0    0    0  0.00000000000E+00  0.00000000000E+00  0.74505805969E-08  0.10566000000E+00  0.10566000000E+00 0.  1.
     999900   -1    0    0    0    0 -0.00000000000E+00 -0.00000000000E+00 -0.74505805969E-08  0.93827000000E+00  0.93827000000E+00 0.  1.
     999902    2    1    2    0    0  0.14982725180E-01  0.18199942810E-01  0.57263004987E-02  0.10196707649E+01  0.10193821453E+01 0.  0.
     999903    2    3    3    0    0 -0.40492923983E-01  0.11368041770E+00 -0.47113558447E-01  0.13119672504E+00  0.20735935244E-01 0.  0.
         14    1    1    2    0    0 -0.14982725180E-01 -0.18199942810E-01 -0.57263004987E-02  0.24259235139E-01  0.00000000000E+00 0. -1.
     999901    1    3    3    0    0  0.55475649163E-01 -0.95480474894E-01  0.52839858946E-01  0.88847403982E+00  0.88000000000E+00 0. -1.
        -11    1    4    4    0    0 -0.34008026147E-01  0.72277334179E-01 -0.37261797062E-01  0.88143414500E-01  0.51100000000E-03 0. -1.
         11    1    4    4    0    0 -0.64848978359E-02  0.41403083526E-01 -0.98517613853E-02  0.43053310544E-01  0.51100000000E-03 0.  1.
</event>
<event>
 8    1  0.1145101E+005  0.1043930E+01  0.7957747E-01            NaN
         13   -1    0    0    0    0  0.00000000000E+00  0.00000000000E+00  0.74505805969E-08  0.10566000000E+00  0.10566000000E+00 0.  1.
     999900   -1    0    0    0    0 -0.00000000000E+00 -0.00000000000E+00 -0.74505805969E-08  0.93827000000E+00  0.93827000000E+00 0. -1.
     999902    2    1    2    0    0  0.81186404722E-02  0.96582339730E-02 -0.19661481726E-01  0.10205683290E+01  0.10203009098E+01 0.  0.
     999903    2    3    3    0    0  0.97608793567E-01 -0.80309629987E-01 -0.30971673677E-01  0.13139420408E+00  0.18112952427E-01 0.  0.
         14    1    1    2    0    0 -0.81186404722E-02 -0.96582339730E-02  0.19661481726E-01  0.23361670964E-01  0.00000000000E+00 0.  1.
     999901    1    3    3    0    0 -0.89490153094E-01  0.89967863960E-01  0.11310191951E-01  0.88917412495E+00  0.88000000000E+00 0. -1.
        -11    1    4    4    0    0  0.43878608058E-01 -0.25719093133E-01 -0.85086732335E-02  0.51569978068E-01  0.51100000000E-03 0.  1.
         11    1    4    4    0    0  0.53730185509E-01 -0.54590536854E-01 -0.22463000443E-01  0.79824226014E-01  0.51100000000E-03 0. -1.
</event>
<event>
 8    1  0.1145101E+005  0.1043930E+01  0.7957747E-01            NaN
         13   -1    0    0    0    0  0.00000000000E+00  0.00000000000E+00  0.74505805969E-08  0.10566000000E+00  0.10566000000E+00 0.  1.
     999900   -1    0    0    0    0 -0.00000000000E+00 -0.00000000000E+00 -0.74505805969E-08  0.93827000000E+00  0.93827000000E+00 0. -1.
     999902    2    1    2    0    0  0.15970206129E-01  0.13086140737E-02 -0.21464359668E-03  0.10279048315E+01  0.10277799067E+01 0.  0.
     999903    2    3    3    0    0 -0.40882181304E-01 -0.71959736750E-01  0.10683163707E+00  0.13658033871E+00  0.19789739259E-01 0.  0.
         14    1    1    2    0    0 -0.15970206129E-01 -0.13086140737E-02  0.21464359668E-03  0.16025168532E-01  0.00000000000E+00 0. -1.
     999901    1    3    3    0    0  0.56852387434E-01  0.73268350824E-01 -0.10704628067E+00  0.89132449276E+00  0.88000000000E+00 0. -1.
        -11    1    4    4    0    0 -0.15182013493E-01 -0.23779922003E-01  0.22398497507E-01  0.36026823836E-01  0.51100000000E-03 0. -1.
         11    1    4    4    0    0 -0.25700167812E-01 -0.48179814747E-01  0.84433139568E-01  0.10055351487E+00  0.51100000000E-03 0.  1.
</event>
<event>
 8    1  0.1145101E+005  0.1043930E+01  0.7957747E-01            NaN
         13   -1    0    0    0    0  0.00000000000E+00  0.00000000000E+00  0.74505805969E-08  0.10566000000E+00  0.10566000000E+00 0.  1.
     999900   -1    0    0    0    0 -0.00000000000E+00 -0.00000000000E+00 -0.74505805969E-08  0.93827000000E+00  0.93827000000E+00 0. -1.
     999902    2    1    2    0    0 -0.18132254139E-01  0.14415749571E-01  0.15979862357E-02  0.10207104816E+01  0.10204463441E+01 0.  0.
     999903    2    3    3    0    0  0.15676702847E-02 -0.12016375385E+00 -0.42961404361E-01  0.12914709681E+00  0.19786485831E-01 0.  0.
         14    1    1    2    0    0  0.18132254139E-01 -0.14415749571E-01 -0.15979862357E-02  0.23219518425E-01  0.00000000000E+00 0. -1.
     999901    1    3    3    0    0 -0.19699924424E-01  0.13457950342E+00  0.44559390597E-01  0.89156338476E+00  0.88000000000E+00 0.  1.
        -11    1    4    4    0    0  0.61198885470E-02 -0.54800553379E-01 -0.10942642547E-01  0.56218824546E-01  0.51100000000E-03 0.  1.
         11    1    4    4    0    0 -0.45522182623E-02 -0.65363200467E-01 -0.32018761814E-01  0.72928272265E-01  0.51100000000E-03 0. -1.
</event>
<event>
 8    1  0.1145101E+005  0.1043930E+01  0.7957747E-01            NaN
         13   -1    0    0    0    0  0.00000000000E+00  0.00000000000E+00  0.74505805969E-08  0.10566000000E+00  0.10566000000E+00 0.  1.
     999900   -1    0    0    0    0 -0.00000000000E+00 -0.00000000000E+00 -0.74505805969E-08  0.93827000000E+00  0.93827000000E+00 0.  1.
     999902    2    1    2    0    0 -0.64655746290E-02 -0.20018392591E-01  0.12032836306E-01  0.10196951316E+01  0.10194070985E+01 0.  0.
     999903    2    3    3    0    0 -0.73559037196E-01 -0.89011138123E-01 -0.59851511718E-01  0.13153473440E+00  0.19628250931E-01 0.  0.
         14    1    1    2    0    0  0.64655746290E-02  0.20018392591E-01 -0.12032836306E-01  0.24234868409E-01  0.00000000000E+00 0.  1.
     999901    1    3    3    0    0  0.67093462567E-01  0.68992745532E-01  0.71884348025E-01  0.88816039720E+00  0.88000000000E+00 0. -1.
        -11    1    4    4    0    0 -0.66009243337E-01 -0.73565319762E-01 -0.44174174268E-01  0.10826215992E+00  0.51100000000E-03 0. -1.
         11    1    4    4    0    0 -0.75497938586E-02 -0.15445818361E-01 -0.15677337451E-01  0.23272574475E-01  0.51100000000E-03 0.  1.
</event>
<event>
 8    1  0.1145101E+005  0.1043930E+01  0.7957747E-01            NaN
         13   -1    0    0    0    0  0.00000000000E+00  0.00000000000E+00  0.74505805969E-08  0.10566000000E+00  0.10566000000E+00 0. -1.
     999900   -1    0    0    0    0 -0.00000000000E+00 -0.00000000000E+00 -0.74505805969E-08  0.93827000000E+00  0.93827000000E+00 0.  1.
     999902    2    1    2    0    0  0.12570078951E-01  0.10574286353E-01 -0.17013178610E-01  0.10202810959E+01  0.10200069824E+01 0.  0.
     999903    2    3    3    0    0  0.84374563856E-01 -0.97479388143E-01  0.55174384842E-02  0.13048386661E+00  0.19346813143E-01 0.  0.
         14    1    1    2    0    0 -0.12570078951E-01 -0.10574286353E-01  0.17013178610E-01  0.23648904058E-01  0.00000000000E+00 0. -1.
     999901    1    3    3    0    0 -0.71804484905E-01  0.10805367450E+00 -0.22530617095E-01  0.88979722933E+00  0.88000000000E+00 0. -1.
        -11    1    4    4    0    0  0.18855400120E-01 -0.31038344201E-01 -0.46549548234E-02  0.36617409109E-01  0.51100000000E-03 0. -1.
         11    1    4    4    0    0  0.65519163736E-01 -0.66441043942E-01  0.10172393308E-01  0.93866457499E-01  0.51100000000E-03 0.  1.
</event>
<event>
 8    1  0.1145101E+005  0.1043930E+01  0.7957747E-01            NaN
         13   -1    0    0    0    0  0.00000000000E+00  0.00000000000E+00  0.74505805969E-08  0.10566000000E+00  0.10566000000E+00 0. -1.
     999900   -1    0    0    0    0 -0.00000000000E+00 -0.00000000000E+00 -0.74505805969E-08  0.93827000000E+00  0.93827000000E+00 0. -1.
     999902    2    1    2    0    0  0.81575441837E-02 -0.13495172401E-01 -0.17634503250E-01  0.10202732692E+01  0.10199989721E+01 0.  0.
     999903    2    3    3    0    0 -0.11339729475E+00 -0.40925338076E-01  0.42490063106E-01  0.12946298847E+00  0.20528764384E-01 0.  0.
         14    1    1    2    0    0 -0.81575441837E-02  0.13495172401E-01  0.17634503250E-01  0.23656730757E-01  0.00000000000E+00 0. -1.
     999901    1    3    3    0    0  0.12155483893E+00  0.27430165675E-01 -0.60124566356E-01  0.89081028078E+00  0.88000000000E+00 0. -1.
        -11    1    4    4    0    0 -0.10967449778E+00 -0.35926560667E-01  0.43064768623E-01  0.12318298844E+00  0.51100000000E-03 0.  1.
         11    1    4    4    0    0 -0.37227969705E-02 -0.49987774087E-02 -0.57470551722E-03  0.62800000237E-02  0.51100000000E-03 0. -1.
</event>
<event>
 8    1  0.1145101E+005  0.1043930E+01  0.7957747E-01            NaN
         13   -1    0    0    0    0  0.00000000000E+00  0.00000000000E+00  0.74505805969E-08  0.10566000000E+00  0.10566000000E+00 0. -1.
     999900   -1    0    0    0    0 -0.00000000000E+00 -0.00000000000E+00 -0.74505805969E-08  0.93827000000E+00  0.93827000000E+00 0.  1.
     999902    2    1    2    0    0 -0.13410403009E-01 -0.17844966878E-01  0.10774921659E-01  0.10191432961E+01  0.10188418314E+01 0.  0.
     999903    2    3    3    0    0  0.72426915422E-01 -0.31337297551E-01  0.10166727664E+00  0.13020487959E+00  0.19732998587E-01 0.  0.
         14    1    1    2    0    0  0.13410403009E-01  0.17844966878E-01 -0.10774921659E-01  0.24786703865E-01  0.00000000000E+00 0.  1.
     999901    1    3    3    0    0 -0.85837318431E-01  0.13492330673E-01 -0.90892354980E-01  0.88893841655E+00  0.88000000000E+00 0.  1.
        -11    1    4    4    0    0  0.46596910851E-01 -0.27354998957E-01  0.78348944400E-01  0.95175555047E-01  0.51100000000E-03 0.  1.
         11    1    4    4    0    0  0.25830004571E-01 -0.39822985939E-02  0.23318332240E-01  0.35029324539E-01  0.51100000000E-03 0. -1.
</event>
<event>
 8    1  0.1145101E+005  0.1043930E+01  0.7957747E-01            NaN
         13   -1    0    0    0    0  0.00000000000E+00  0.00000000000E+00  0.74505805969E-08  0.10566000000E+00  0.10566000000E+00 0. -1.
     999900   -1    0    0    0    0 -0.00000000000E+00 -0.00000000000E+00 -0.74505805969E-08  0.93827000000E+00  0.93827000000E+00 0.  1.
     999902    2    1    2    0    0  0.30017565750E-01  0.13285369317E-01 -0.38923757355E-02  0.10108738980E+01  0.10103332776E+01 0.  0.
     999903    2    3    3    0    0  0.28608437328E-01  0.80022741608E-01  0.87499151827E-01  0.12362631483E+00  0.20131624074E-01 0.  0.
         14    1    1    2    0    0 -0.30017565750E-01 -0.13285369317E-01  0.38923757355E-02  0.33056102013E-01  0.00000000000E+00 0. -1.
     999901    1    3    3    0    0  0.14091284215E-02 -0.66737372291E-01 -0.91391527562E-01  0.88724758315E+00  0.88000000000E+00 0.  1.
        -11    1    4    4    0    0  0.16303288248E-01  0.36108803571E-01  0.27366824217E-01  0.48154408851E-01  0.51100000000E-03 0.  1.
         11    1    4    4    0    0  0.12305149081E-01  0.43913938037E-01  0.60132327609E-01  0.75471905982E-01  0.51100000000E-03 0. -1.
</event>
<event>
 8    1  0.1145101E+005  0.1043930E+01  0.7957747E-01            NaN
         13   -1    0    0    0    0  0.00000000000E+00  0.00000000000E+00  0.74505805969E-08  0.10566000000E+00  0.10566000000E+00 0. -1.
     999900   -1    0    0    0    0 -0.00000000000E+00 -0.00000000000E+00 -0.74505805969E-08  0.93827000000E+00  0.93827000000E+00 0. -1.
     999902    2    1    2    0    0 -0.10537927444E-01 -0.11352690427E-01  0.19108106418E-01  0.10193322110E+01  0.10190353797E+01 0.  0.
     999903    2    3    3    0    0  0.74825146782E-01  0.99575022059E-01  0.24505810123E-01  0.12825368073E+00  0.18288911421E-01 0.  0.
         14    1    1    2    0    0  0.10537927444E-01  0.11352690427E-01 -0.19108106418E-01  0.24597789040E-01  0.00000000000E+00 0.  1.
     999901    1    3    3    0    0 -0.85363074227E-01 -0.11092771249E+00 -0.53977037051E-02  0.89107853023E+00  0.88000000000E+00 0.  1.
        -11    1    4    4    0    0  0.51233991583E-01  0.53225293869E-01  0.14120686017E-01  0.75216412408E-01  0.51100000000E-03 0.  1.
         11    1    4    4    0    0  0.23591155199E-01  0.46349728190E-01  0.10385124107E-01  0.53037268318E-01  0.51100000000E-03 0. -1.
</event>
<event>
 8    1  0.1145101E+005  0.1043930E+01  0.7957747E-01            NaN
         13   -1    0    0    0    0  0.00000000000E+00  0.00000000000E+00  0.74505805969E-08  0.10566000000E+00  0.10566000000E+00 0. -1.
     999900   -1    0    0    0    0 -0.00000000000E+00 -0.00000000000E+00 -0.74505805969E-08  0.93827000000E+00  0.93827000000E+00 0.  1.
     999902    2    1    2    0    0  0.17291071008E-01 -0.10027289385E-01 -0.17289221565E-01  0.10175018928E+01  0.10171586194E+01 0.  0.
     999903    2    3    3    0    0  0.37341193908E-01 -0.59700645965E-01  0.10587989453E+00  0.12731085657E+00  0.62426151059E-02 0.  0.
         14    1    1    2    0    0 -0.17291071008E-01  0.10027289385E-01  0.17289221565E-01  0.26428107222E-01  0.00000000000E+00 0. -1.
     999901    1    3    3    0    0 -0.20050122900E-01  0.49673356579E-01 -0.12316911610E+00  0.89019103621E+00  0.88000000000E+00 0.  1.
        -11    1    4    4    0    0  0.21023228179E-01 -0.35450974631E-01  0.56712566104E-01  0.70109371702E-01  0.51100000000E-03 0. -1.
         11    1    4    4    0    0  0.16317965728E-01 -0.24249671333E-01  0.49167328430E-01  0.57201484869E-01  0.51100000000E-03 0.  1.
</event>
<event>
 8    1  0.1145101E+005  0.1043930E+01  0.7957747E-01            NaN
         13   -1    0    0    0    0  0.00000000000E+00  0.00000000000E+00  0.74505805969E-08  0.10566000000E+00  0.10566000000E+00 0.  1.
     999900   -1    0    0    0    0 -0.00000000000E+00 -0.00000000000E+00 -0.74505805969E-08  0.93827000000E+00  0.93827000000E+00 0.  1.
     999902    2    1    2    0    0 -0.80633308385E-02 -0.22872071690E-01 -0.29200479600E-03  0.10196764593E+01  0.10193879769E+01 0.  0.
     999903    2    3    3    0    0  0.66969567886E-01 -0.32621121663E-02 -0.10925743219E+00  0.12957087529E+00  0.18864274056E-01 0.  0.
         14    1    1    2    0    0  0.80633308385E-02  0.22872071690E-01  0.29200479600E-03  0.24253540657E-01  0.00000000000E+00 0.  1.
     999901    1    3    3    0    0 -0.75032898725E-01 -0.19609959523E-01  0.10896542739E+00  0.89010558406E+00  0.88000000000E+00 0.  1.
        -11    1    4    4    0    0  0.48630517659E-01 -0.58514596858E-02 -0.92113827675E-01  0.10432825695E+00  0.51100000000E-03 0.  1.
         11    1    4    4    0    0  0.18339050227E-01  0.25893475195E-02 -0.17143604512E-01  0.25242618336E-01  0.51100000000E-03 0. -1.
</event>
<event>
 8    1  0.1145101E+005  0.1043930E+01  0.7957747E-01            NaN
         13   -1    0    0    0    0  0.00000000000E+00  0.00000000000E+00  0.74505805969E-08  0.10566000000E+00  0.10566000000E+00 0. -1.
     999900   -1    0    0    0    0 -0.00000000000E+00 -0.00000000000E+00 -0.74505805969E-08  0.93827000000E+00  0.93827000000E+00 0. -1.
     999902    2    1    2    0    0  0.63349843745E-04  0.10842224809E-01  0.20121943481E-01  0.10210728247E+01  0.10208169586E+01 0.  0.
     999903    2    3    3    0    0  0.46421311441E-01 -0.11414495304E+00 -0.33774427849E-01  0.12940266482E+00  0.20501932216E-01 0.  0.
         14    1    1    2    0    0 -0.63349843745E-04 -0.10842224809E-01 -0.20121943481E-01  0.22857175273E-01  0.00000000000E+00 0.  1.
     999901    1    3    3    0    0 -0.46357961597E-01  0.12498717785E+00  0.53896371330E-01  0.89167015991E+00  0.88000000000E+00 0.  1.
        -11    1    4    4    0    0  0.19470120507E-01 -0.74287477071E-01 -0.20404859808E-01  0.79462785421E-01  0.51100000000E-03 0. -1.
         11    1    4    4    0    0  0.26951190934E-01 -0.39857475971E-01 -0.13369568041E-01  0.49939879397E-01  0.51100000000E-03 0.  1.
</event>
<event>
 8    1  0.1145101E+005  0.1043930E+01  0.7957747E-01            NaN
         13   -1    0    0    0    0  0.00000000000E+00  0.00000000000E+00  0.74505805969E-08  0.10566000000E+00  0.10566000000E+00 0.  1.
     999900   -1    0    0    0    0 -0.00000000000E+00 -0.00000000000E+00 -0.74505805969E-08  0.93827000000E+00  0.93827000000E+00 0. -1.
     999902    2    1    2    0    0  0.59246127969E-02 -0.21842143002E-01 -0.47961156780E-02  0.10207959780E+01  0.10205338043E+01 0.  0.
     999903    2    3    3    0    0  0.54929737165E-01  0.67770348098E-01 -0.93774495457E-01  0.13043141625E+00  0.24669865024E-01 0.  0.
         14    1    1    2    0    0 -0.59246127969E-02  0.21842143002E-01  0.47961156780E-02  0.23134021987E-01  0.00000000000E+00 0.  1.
     999901    1    3    3    0    0 -0.49005124368E-01 -0.89612491100E-01  0.88978379779E-01  0.89036456176E+00  0.88000000000E+00 0.  1.
        -11    1    4    4    0    0  0.17153495523E-01  0.40498743927E-01 -0.42837192030E-01  0.61397693852E-01  0.51100000000E-03 0. -1.
         11    1    4    4    0    0  0.37776241642E-01  0.27271604171E-01 -0.50937303427E-01  0.69033722398E-01  0.51100000000E-03 0.  1.
</event>
<event>
 8    1  0.1145101E+005  0.1043930E+01  0.7957747E-01            NaN
         13   -1    0    0    0    0  0.00000000000E+00  0.00000000000E+00  0.74505805969E-08  0.10566000000E+00  0.10566000000E+00 0.  1.
     999900   -1    0    0    0    0 -0.00000000000E+00 -0.00000000000E+00 -0.74505805969E-08  0.93827000000E+00  0.93827000000E+00 0.  1.
     999902    2    1    2    0    0  0.19195213135E-01  0.27175506960E-02  0.12537799226E-01  0.10208423908E+01  0.10205812800E+01 0.  0.
     999903    2    3    3    0    0 -0.12451745908E+00  0.19428362171E-01 -0.15434012334E-01  0.12858962077E+00  0.20372112331E-01 0.  0.
         14    1    1    2    0    0 -0.19195213135E-01 -0.27175506960E-02 -0.12537799226E-01  0.23087609199E-01  0.00000000000E+00 0. -1.
     999901    1    3    3    0    0  0.14371267222E+00 -0.16710811475E-01  0.27971811560E-01  0.89225277003E+00  0.88000000000E+00 0. -1.
        -11    1    4    4    0    0 -0.93231423143E-01  0.56818499088E-02 -0.13280462856E-01  0.94345182677E-01  0.51100000000E-03 0.  1.
         11    1    4    4    0    0 -0.31286035942E-01  0.13746512262E-01 -0.21535494775E-02  0.34244438098E-01  0.51100000000E-03 0. -1.
</event>
<event>
 8    1  0.1145101E+005  0.1043930E+01  0.7957747E-01            NaN
         13   -1    0    0    0    0  0.00000000000E+00  0.00000000000E+00  0.74505805969E-08  0.10566000000E+00  0.10566000000E+00 0.  1.
     999900   -1    0    0    0    0 -0.00000000000E+00 -0.00000000000E+00 -0.74505805969E-08  0.93827000000E+00  0.93827000000E+00 0.  1.
     999902    2    1    2    0    0  0.33215973093E-02  0.52409975365E-03  0.23322181946E-01  0.10203666416E+01  0.10200945306E+01 0.  0.
     999903    2    3    3    0    0  0.72760092438E-02  0.12686795749E+00  0.26472188745E-01  0.13132877383E+00  0.19951218255E-01 0.  0.
         14    1    1    2    0    0 -0.33215973093E-02 -0.52409975365E-03 -0.23322181946E-01  0.23563358419E-01  0.00000000000E+00 0. -1.
     999901    1    3    3    0    0 -0.39544119345E-02 -0.12634385773E+00 -0.31500067987E-02  0.88903786776E+00  0.88000000000E+00 0.  1.
        -11    1    4    4    0    0  0.96336024032E-02  0.53767980027E-01  0.38132921057E-02  0.54759513230E-01  0.51100000000E-03 0.  1.
         11    1    4    4    0    0 -0.23575931593E-02  0.73099977460E-01  0.22658896639E-01  0.76569260595E-01  0.51100000000E-03 0. -1.
</event>
<event>
 8    1  0.1145101E+005  0.1043930E+01  0.7957747E-01            NaN
         13   -1    0    0    0    0  0.00000000000E+00  0.00000000000E+00  0.74505805969E-08  0.10566000000E+00  0.10566000000E+00 0.  1.
     999900   -1    0    0    0    0 -0.00000000000E+00 -0.00000000000E+00 -0.74505805969E-08  0.93827000000E+00  0.93827000000E+00 0. -1.
     999902    2    1    2    0    0  0.46060026634E-02  0.25719529215E-02 -0.23059545309E-01  0.10202747082E+01  0.10200004447E+01 0.  0.
     999903    2    3    3    0    0  0.43505471028E-01 -0.12001504511E+00 -0.24879574409E-01  0.13092435355E+00  0.15028508493E-01 0.  0.
         14    1    1    2    0    0 -0.46060026634E-02 -0.25719529215E-02  0.23059545309E-01  0.23655291844E-01  0.00000000000E+00 0.  1.
     999901    1    3    3    0    0 -0.38899468365E-01  0.12258699804E+00  0.18200290998E-02  0.88935035460E+00  0.88000000000E+00 0. -1.
        -11    1    4    4    0    0  0.96380697331E-02 -0.30177239891E-01  0.23145563680E-03  0.31683953168E-01  0.51100000000E-03 0.  1.
         11    1    4    4    0    0  0.33867401295E-01 -0.89837805223E-01 -0.25111030046E-01  0.99240400385E-01  0.51100000000E-03 0. -1.
</event>
<event>
 8    1  0.1145101E+005  0.1043930E+01  0.7957747E-01            NaN
         13   -1    0    0    0    0  0.00000000000E+00  0.00000000000E+00  0.74505805969E-08  0.10566000000E+00  0.10566000000E+00 0.  1.
     999900   -1    0    0    0    0 -0.00000000000E+00 -0.00000000000E+00 -0.74505805969E-08  0.93827000000E+00  0.93827000000E+00 0.  1.
     999902    2    1    2    0    0  0.18848161046E-01 -0.14313352922E-01 -0.22516574001E-02  0.10201561655E+01  0.10198791138E+01 0.  0.
     999903    2    3    3    0    0 -0.69356469319E-01 -0.82173423013E-01  0.70779453591E-01  0.13014572223E+00  0.19115090295E-01 0.  0.
         14    1    1    2    0    0 -0.18848161046E-01  0.14313352922E-01  0.22516574001E-02  0.23773834519E-01  0.00000000000E+00 0. -1.
     999901    1    3    3    0    0  0.88204630365E-01  0.67860070091E-01 -0.73031110992E-01  0.89001044326E+00  0.88000000000E+00 0.  1.
        -11    1    4    4    0    0 -0.58383421227E-01 -0.64980196309E-01  0.48429399971E-01  0.99883520608E-01  0.51100000000E-03 0.  1.
         11    1    4    4    0    0 -0.10973048092E-01 -0.17193226704E-01  0.22350053621E-01  0.30262201618E-01  0.51100000000E-03 0. -1.
</event>
<event>
 8    1  0.1145101E+005  0.1043930E+01  0.7957747E-01            NaN
         13   -1    0    0    0    0  0.00000000000E+00  0.00000000000E+00  0.74505805969E-08  0.10566000000E+00  0.10566000000E+00 0.  1.
     999900   -1    0    0    0    0 -0.00000000000E+00 -0.00000000000E+00 -0.74505805969E-08  0.93827000000E+00  0.93827000000E+00 0.  1.
     999902    2    1    2    0    0  0.17399540289E-01 -0.73027116210E-03 -0.25741427050E-01  0.10128510945E+01  0.10123741607E+01 0.  0.
     999903    2    3    3    0    0 -0.94020177332E-01  0.50769885236E-01 -0.59065840788E-01  0.12370704764E+00  0.19932011814E-01 0.  0.
         14    1    1    2    0    0 -0.17399540289E-01  0.73027116210E-03  0.25741427050E-01  0.31078905463E-01  0.00000000000E+00 0.  1.
     999901    1    3    3    0    0  0.11141971762E+00 -0.51500156398E-01  0.33324413738E-01  0.88914404690E+00  0.88000000000E+00 0.  1.
        -11    1    4    4    0    0 -0.74561088470E-01  0.32219161769E-01 -0.49742322329E-01  0.95246994969E-01  0.51100000000E-03 0. -1.
         11    1    4    4    0    0 -0.19459088862E-01  0.18550723467E-01 -0.93235184591E-02  0.28460052669E-01  0.51100000000E-03 0.  1.
</event>
<event>
 8    1  0.1145101E+005  0.1043930E+01  0.7957747E-01            NaN
         13   -1    0    0    0    0  0.00000000000E+00  0.00000000000E+00  0.74505805969E-08  0.10566000000E+00  0.10566000000E+00 0. -1.
     999900   -1    0    0    0    0 -0.00000000000E+00 -0.00000000000E+00 -0.74505805969E-08  0.93827000000E+00  0.93827000000E+00 0.  1.
     999902    2    1    2    0    0 -0.51644189588E-02 -0.25371261638E-01  0.12453781229E-01  0.10151990270E+01  0.10147923904E+01 0.  0.
     999903    2    3    3    0    0  0.44635436693E-02  0.83315927872E-01 -0.88294207967E-01  0.12275532565E+00  0.17650375497E-01 0.  0.
         14    1    1    2    0    0  0.51644189588E-02  0.25371261638E-01 -0.12453781229E-01  0.28730972959E-01  0.00000000000E+00 0. -1.
     999901    1    3    3    0    0 -0.96279626281E-02 -0.10868718951E+00  0.10074798920E+00  0.89244370139E+00  0.88000000000E+00 0.  1.
        -11    1    4    4    0    0 -0.31502489566E-02  0.45518258725E-01 -0.38004645302E-01  0.59383921489E-01  0.51100000000E-03 0.  1.
         11    1    4    4    0    0  0.76137926259E-02  0.37797669147E-01 -0.50289562664E-01  0.63371404159E-01  0.51100000000E-03 0. -1.
</event>
<event>
 8    1  0.1145101E+005  0.1043930E+01  0.7957747E-01            NaN
         13   -1    0    0    0    0  0.00000000000E+00  0.00000000000E+00  0.74505805969E-08  0.10566000000E+00  0.10566000000E+00 0. -1.
     999900   -1    0    0    0    0 -0.00000000000E+00 -0.00000000000E+00 -0.74505805969E-08  0.93827000000E+00  0.93827000000E+00 0. -1.
     999902    2    1    2    0    0 -0.22722276458E-01 -0.65265909456E-02 -0.11840001542E-02  0.10202593411E+01  0.10199847170E+01 0.  0.
     999903    2    3    3    0    0  0.17164299531E-01 -0.10558105733E+00 -0.72779405021E-01  0.13091765858E+00  0.20015461183E-01 0.  0.
         14    1    1    2    0    0  0.22722276458E-01  0.65265909456E-02  0.11840001542E-02  0.23670658909E-01  0.00000000000E+00 0.  1.
     999901    1    3    3    0    0 -0.39886575989E-01  0.99054466389E-01  0.71595404867E-01  0.88934168251E+00  0.88000000000E+00 0.  1.
        -11    1    4    4    0    0  0.16534820800E-01 -0.86930106605E-01 -0.68129521791E-01  0.11167872042E+00  0.51100000000E-03 0. -1.
         11    1    4    4    0    0  0.62947873079E-03 -0.18650950730E-01 -0.46498832293E-02  0.19238938163E-01  0.51100000000E-03 0.  1.
</event>
<event>
 8    1  0.1145101E+005  0.1043930E+01  0.7957747E-01            NaN
         13   -1    0    0    0    0  0.00000000000E+00  0.00000000000E+00  0.74505805969E-08  0.10566000000E+00  0.10566000000E+00 0.  1.
     999900   -1    0    0    0    0 -0.00000000000E+00 -0.00000000000E+00 -0.74505805969E-08  0.93827000000E+00  0.93827000000E+00 0. -1.
     999902    2    1    2    0    0  0.19648957697E-01  0.10482253799E-01  0.77874784299E-02  0.10203375435E+01  0.10200647522E+01 0.  0.
     999903    2    3    3    0    0 -0.94483172519E-01 -0.28433452795E-01  0.80617150983E-01  0.12913344983E+00  0.20995040039E-01 0.  0.
         14    1    1    2    0    0 -0.19648957697E-01 -0.10482253799E-01 -0.77874784299E-02  0.23592456498E-01  0.00000000000E+00 0. -1.
     999901    1    3    3    0    0  0.11413213022E+00  0.38915706594E-01 -0.72829672554E-01  0.89120409367E+00  0.88000000000E+00 0. -1.
        -11    1    4    4    0    0 -0.24437832550E-01  0.19525279942E-02  0.19183433638E-01  0.31133346632E-01  0.51100000000E-03 0. -1.
         11    1    4    4    0    0 -0.70045339968E-01 -0.30385980789E-01  0.61433717345E-01  0.98000103202E-01  0.51100000000E-03 0.  1.
</event>
<event>
 8    1  0.1145101E+005  0.1043930E+01  0.7957747E-01            NaN
         13   -1    0    0    0    0  0.00000000000E+00  0.00000000000E+00  0.74505805969E-08  0.10566000000E+00  0.10566000000E+00 0. -1.
     999900   -1    0    0    0    0 -0.00000000000E+00 -0.00000000000E+00 -0.74505805969E-08  0.93827000000E+00  0.93827000000E+00 0. -1.
     999902    2    1    2    0    0  0.40128724689E-02 -0.21063713145E-01  0.10042773977E-01  0.10202521524E+01  0.10199773596E+01 0.  0.
     999903    2    3    3    0    0  0.12842787382E-01  0.59858750251E-01 -0.11099016992E+00  0.12824577016E+00  0.19497501819E-01 0.  0.
         14    1    1    2    0    0 -0.40128724689E-02  0.21063713145E-01 -0.10042773977E-01  0.23677847580E-01  0.00000000000E+00 0. -1.
     999901    1    3    3    0    0 -0.88299149133E-02 -0.80922463396E-01  0.12103294389E+00  0.89200638226E+00  0.88000000000E+00 0.  1.
        -11    1    4    4    0    0  0.22352484031E-02  0.26880926041E-01 -0.31126330559E-01  0.41190898209E-01  0.51100000000E-03 0.  1.
         11    1    4    4    0    0  0.10607538979E-01  0.32977824210E-01 -0.79863839358E-01  0.87054871953E-01  0.51100000000E-03 0. -1.
</event>
<event>
 7    1  0.1145101E+005  0.1043930E+01  0.7957747E-01            NaN
         13   -1    0    0    0    0  0.00000000000E+00  0.00000000000E+00  0.74505805969E-08  0.10566000000E+00  0.10566000000E+00 0.  1.
     999900   -1    0    0    0    0 -0.00000000000E+00 -0.00000000000E+00 -0.74505805969E-08  0.93827000000E+00  0.93827000000E+00 0. -1.
     999903    2    1    2    0    0 -0.10533391678E+00  0.30286790603E-01 -0.18098194218E-01  0.11270764801E+00  0.19051130616E-01 0.  0.
         14    1    1    2    0    0  0.38219322657E-01  0.18183485097E-02  0.29008213214E-01  0.48015616725E-01  0.00000000000E+00 0.  1.
     999901    1    1    2    0    0  0.67114594119E-01 -0.32105139113E-01 -0.10910018996E-01  0.88320673526E+00  0.88000000000E+00 0. -1.
        -11    1    3    3    0    0 -0.77943571216E-01  0.13475482950E-01 -0.12603069266E-01  0.80099234769E-01  0.51100000000E-03 0.  1.
         11    1    3    3    0    0 -0.27390345559E-01  0.16811307653E-01 -0.54951249521E-02  0.32608413241E-01  0.51100000000E-03 0. -1.
</event>
<event>
 8    1  0.1145101E+005  0.1043930E+01  0.7957747E-01            NaN
         13   -1    0    0    0    0  0.00000000000E+00  0.00000000000E+00  0.74505805969E-08  0.10566000000E+00  0.10566000000E+00 0.  1.
     999900   -1    0    0    0    0 -0.00000000000E+00 -0.00000000000E+00 -0.74505805969E-08  0.93827000000E+00  0.93827000000E+00 0.  1.
     999902    2    1    2    0    0 -0.35564448580E-02  0.10048930345E-01  0.23149302984E-01  0.10184443270E+01  0.10181253988E+01 0.  0.
     999903    2    3    3    0    0  0.14149403503E-01  0.46787169865E-01 -0.11613053374E+00  0.12655752461E+00  0.11885339094E-01 0.  0.
         14    1    1    2    0    0  0.35564448580E-02 -0.10048930345E-01 -0.23149302984E-01  0.25485673029E-01  0.00000000000E+00 0. -1.
     999901    1    3    3    0    0 -0.17705848361E-01 -0.36738239520E-01  0.13927983672E+00  0.89188680236E+00  0.88000000000E+00 0. -1.
        -11    1    4    4    0    0  0.10902401653E-01  0.18427379172E-01 -0.42644664656E-01  0.47720637145E-01  0.51100000000E-03 0. -1.
         11    1    4    4    0    0  0.32470018498E-02  0.28359790693E-01 -0.73485869083E-01  0.78836887464E-01  0.51100000000E-03 0.  1.
</event>
<event>
 8    1  0.1145101E+005  0.1043930E+01  0.7957747E-01            NaN
         13   -1    0    0    0    0  0.00000000000E+00  0.00000000000E+00  0.74505805969E-08  0.10566000000E+00  0.10566000000E+00 0.  1.
     999900   -1    0    0    0    0 -0.00000000000E+00 -0.00000000000E+00 -0.74505805969E-08  0.93827000000E+00  0.93827000000E+00 0. -1.
     999902    2    1    2    0    0  0.22986643249E-01  0.89084492149E-04  0.71690072371E-02  0.10198512050E+01  0.10195669139E+01 0.  0.
     999903    2    3    3    0    0  0.10743744253E+00 -0.23178604068E-01  0.73107081790E-01  0.13304730757E+00  0.16639978945E-01 0.  0.
         14    1    1    2    0    0 -0.22986643249E-01 -0.89084492149E-04 -0.71690072371E-02  0.24078795000E-01  0.00000000000E+00 0.  1.
     999901    1    3    3    0    0 -0.84450799278E-01  0.23267688560E-01 -0.65938074553E-01  0.88680389743E+00  0.88000000000E+00 0. -1.
        -11    1    4    4    0    0  0.39844849452E-01 -0.22395927941E-02  0.32430641291E-01  0.51426018894E-01  0.51100000000E-03 0. -1.
         11    1    4    4    0    0  0.67592593074E-01 -0.20939011274E-01  0.40676440499E-01  0.81621288671E-01  0.51100000000E-03 0.  1.
</event>
<event>
 8    1  0.1145101E+005  0.1043930E+01  0.7957747E-01            NaN
         13   -1    0    0    0    0  0.00000000000E+00  0.00000000000E+00  0.74505805969E-08  0.10566000000E+00  0.10566000000E+00 0.  1.
     999900   -1    0    0    0    0 -0.00000000000E+00 -0.00000000000E+00 -0.74505805969E-08  0.93827000000E+00  0.93827000000E+00 0. -1.
     999902    2    1    2    0    0  0.23167973321E-01  0.62250881384E-02  0.19512713789E-02  0.10198610538E+01  0.10195769980E+01 0.  0.
     999903    2    3    3    0    0  0.93642266472E-01 -0.22284525259E-01 -0.88298089013E-01  0.13198472735E+00  0.18919344472E-01 0.  0.
         14    1    1    2    0    0 -0.23167973321E-01 -0.62250881384E-02 -0.19512713789E-02  0.24068946178E-01  0.00000000000E+00 0. -1.
     999901    1    3    3    0    0 -0.70474293151E-01  0.28509613397E-01  0.90249360391E-01  0.88787632647E+00  0.88000000000E+00 0. -1.
        -11    1    4    4    0    0  0.11264452195E-01  0.18305697169E-02 -0.16557785871E-01  0.20116169186E-01  0.51100000000E-03 0. -1.
         11    1    4    4    0    0  0.82377814277E-01 -0.24115094976E-01 -0.71740303141E-01  0.11186855817E+00  0.51100000000E-03 0.  1.
</event>
<event>
 8    1  0.1145101E+005  0.1043930E+01  0.7957747E-01            NaN
         13   -1    0    0    0    0  0.00000000000E+00  0.00000000000E+00  0.74505805969E-08  0.10566000000E+00  0.10566000000E+00 0.  1.
     999900   -1    0    0    0    0 -0.00000000000E+00 -0.00000000000E+00 -0.74505805969E-08  0.93827000000E+00  0.93827000000E+00 0.  1.
     999902    2    1    2    0    0 -0.14393446022E-01 -0.14947685212E-01 -0.99324949453E-02  0.10209243694E+01  0.10206651307E+01 0.  0.
     999903    2    3    3    0    0 -0.10906287299E+00 -0.67742185967E-01 -0.32617665849E-01  0.13398346008E+00  0.20098294128E-01 0.  0.
         14    1    1    2    0    0  0.14393446022E-01  0.14947685212E-01  0.99324949453E-02  0.23005630559E-01  0.00000000000E+00 0.  1.
     999901    1    3    3    0    0  0.94669426965E-01  0.52794500755E-01  0.22685170904E-01  0.88694090936E+00  0.88000000000E+00 0. -1.
        -11    1    4    4    0    0 -0.17840132228E-01 -0.17863702741E-01 -0.83915815494E-03  0.25265539791E-01  0.51100000000E-03 0. -1.
         11    1    4    4    0    0 -0.91222740759E-01 -0.49878483226E-01 -0.31778507694E-01  0.10871792029E+00  0.51100000000E-03 0.  1.
</event>
<event>
 8    1  0.1145101E+005  0.1043930E+01  0.7957747E-01            NaN
         13   -1    0    0    0    0  0.00000000000E+00  0.00000000000E+00  0.74505805969E-08  0.10566000000E+00  0.10566000000E+00 0. -1.
     999900   -1    0    0    0    0 -0.00000000000E+00 -0.00000000000E+00 -0.74505805969E-08  0.93827000000E+00  0.93827000000E+00 0. -1.
     999902    2    1    2    0    0 -0.66463303770E-02  0.20903880881E-01  0.86669124264E-02  0.10203448073E+01  0.10200721859E+01 0.  0.
     999903    2    3    3    0    0 -0.84234033962E-01  0.88899683019E-01  0.49004895211E-01  0.13340037065E+00  0.19891028566E-01 0.  0.
         14    1    1    2    0    0  0.66463303770E-02 -0.20903880881E-01 -0.86669124264E-02  0.23585192693E-01  0.00000000000E+00 0.  1.
     999901    1    3    3    0    0  0.77587703585E-01 -0.67995802138E-01 -0.40337982784E-01  0.88694443665E+00  0.88000000000E+00 0. -1.
        -11    1    4    4    0    0 -0.46837265125E-01  0.49096854798E-01  0.37698269928E-01  0.77625068322E-01  0.51100000000E-03 0.  1.
         11    1    4    4    0    0 -0.37396768838E-01  0.39802828221E-01  0.11306625282E-01  0.55775302331E-01  0.51100000000E-03 0. -1.
</event>
<event>
 8    1  0.1145101E+005  0.1043930E+01  0.7957747E-01            NaN
         13   -1    0    0    0    0  0.00000000000E+00  0.00000000000E+00  0.74505805969E-08  0.10566000000E+00  0.10566000000E+00 0. -1.
     999900   -1    0    0    0    0 -0.00000000000E+00 -0.00000000000E+00 -0.74505805969E-08  0.93827000000E+00  0.93827000000E+00 0.  1.
     999902    2    1    2    0    0 -0.12008640389E-01 -0.20626222769E-01 -0.62324519228E-02  0.10192623701E+01  0.10189638301E+01 0.  0.
     999903    2    3    3    0    0 -0.69851389332E-01 -0.24940545039E-01 -0.10718431457E+00  0.13159369564E+00  0.18088008865E-01 0.  0.
         14    1    1    2    0    0  0.12008640389E-01  0.20626222769E-01  0.62324519228E-02  0.24667629937E-01  0.00000000000E+00 0. -1.
     999901    1    3    3    0    0  0.57842748943E-01  0.43143222693E-02  0.10095186264E+00  0.88766867442E+00  0.88000000000E+00 0.  1.
        -11    1    4    4    0    0 -0.36752365111E-01 -0.21730152918E-01 -0.66750900112E-01  0.79239382089E-01  0.51100000000E-03 0.  1.
         11    1    4    4    0    0 -0.33099024221E-01 -0.32103921205E-02 -0.40433414454E-01  0.52354313551E-01  0.51100000000E-03 0. -1.
</event>
<event>
 8    1  0.1145101E+005  0.1043930E+01  0.7957747E-01            NaN
         13   -1    0    0    0    0  0.00000000000E+00  0.00000000000E+00  0.74505805969E-08  0.10566000000E+00  0.10566000000E+00 0.  1.
     999900   -1    0    0    0    0 -0.00000000000E+00 -0.00000000000E+00 -0.74505805969E-08  0.93827000000E+00  0.93827000000E+00 0. -1.
     999902    2    1    2    0    0 -0.22914140451E-01  0.29348162235E-02  0.71019315876E-02  0.10197616651E+01  0.10194752303E+01 0.  0.
     999903    2    3    3    0    0 -0.14475808224E-01  0.11894447705E+00 -0.47195718672E-01  0.13044862592E+00  0.20786305563E-01 0.  0.
         14    1    1    2    0    0  0.22914140451E-01 -0.29348162235E-02 -0.71019315876E-02  0.24168334886E-01  0.00000000000E+00 0. -1.
     999901    1    3    3    0    0 -0.84383322270E-02 -0.11600966083E+00  0.54297650260E-01  0.88931303919E+00  0.88000000000E+00 0.  1.
        -11    1    4    4    0    0 -0.99113540860E-02  0.21131512767E-01 -0.52904541657E-02  0.23937957263E-01  0.51100000000E-03 0.  1.
         11    1    4    4    0    0 -0.45644541377E-02  0.97812964284E-01 -0.41905264506E-01  0.10651066866E+00  0.51100000000E-03 0. -1.
</event>
<event>
 8    1  0.1145101E+005  0.1043930E+01  0.7957747E-01            NaN
         13   -1    0    0    0    0  0.00000000000E+00  0.00000000000E+00  0.74505805969E-08  0.10566000000E+00  0.10566000000E+00 0.  1.
     999900   -1    0    0    0    0 -0.00000000000E+00 -0.00000000000E+00 -0.74505805969E-08  0.93827000000E+00  0.93827000000E+00 0.  1.
     999902    2    1    2    0    0  0.12580694109E-01  0.71277468973E-02  0.83562279252E-02  0.10272295454E+01  0.10270937804E+01 0.  0.
     999903    2    3    3    0    0 -0.52652139830E-01  0.12062411806E+00  0.33408976892E-01  0.13719337243E+00  0.19581522272E-01 0.  0.
         14    1    1    2    0    0 -0.12580694109E-01 -0.71277468973E-02 -0.83562279252E-02  0.16700454641E-01  0.00000000000E+00 0. -1.
     999901    1    3    3    0    0  0.65232833939E-01 -0.11349637117E+00 -0.25052748967E-01  0.89003617293E+00  0.88000000000E+00 0.  1.
        -11    1    4    4    0    0 -0.23693609037E-01  0.45748806760E-01  0.22318782923E-01  0.56149172936E-01  0.51100000000E-03 0. -1.
         11    1    4    4    0    0 -0.28958530793E-01  0.74875311302E-01  0.11090193970E-01  0.81044199494E-01  0.51100000000E-03 0.  1.
</event>
<event>
 8    1  0.1145101E+005  0.1043930E+01  0.7957747E-01            NaN
         13   -1    0    0    0    0  0.00000000000E+00  0.00000000000E+00  0.74505805969E-08  0.10566000000E+00  0.10566000000E+00 0.  1.
     999900   -1    0    0    0    0 -0.00000000000E+00 -0.00000000000E+00 -0.74505805969E-08  0.93827000000E+00  0.93827000000E+00 0. -1.
     999902    2    1    2    0    0  0.42527724423E-02  0.13926285542E-01  0.18970720490E-01  0.10200152402E+01  0.10197348550E+01 0.  0.
     999903    2    3    3    0    0 -0.76277181743E-01  0.60919684578E-01 -0.82449258896E-01  0.12929672946E+00  0.19757214722E-01 0.  0.
         14    1    1    2    0    0 -0.42527724423E-02 -0.13926285542E-01 -0.18970720490E-01  0.23914759843E-01  0.00000000000E+00 0.  1.
     999901    1    3    3    0    0  0.80529954186E-01 -0.46993399036E-01  0.10141997939E+00  0.89071851069E+00  0.88000000000E+00 0.  1.
        -11    1    4    4    0    0 -0.36473146472E-01  0.17933035053E-01 -0.39258390579E-01  0.56509879770E-01  0.51100000000E-03 0. -1.
         11    1    4    4    0    0 -0.39804035272E-01  0.42986649525E-01 -0.43190868317E-01  0.72786849693E-01  0.51100000000E-03 0.  1.
</event>
<event>
 8    1  0.1145101E+005  0.1043930E+01  0.7957747E-01            NaN
         13   -1    0    0    0    0  0.00000000000E+00  0.00000000000E+00  0.74505805969E-08  0.10566000000E+00  0.10566000000E+00 0.  1.
     999900   -1    0    0    0    0 -0.00000000000E+00 -0.00000000000E+00 -0.74505805969E-08  0.93827000000E+00  0.93827000000E+00 0.  1.
     999902    2    1    2    0    0  0.10180601324E-01 -0.10221715986E-01  0.67201098055E-02  0.10280149758E+01  0.10278917756E+01 0.  0.
     999903    2    3    3    0    0 -0.93447819600E-01  0.51891174284E-01 -0.80701084137E-01  0.13546843584E+00  0.20343135720E-01 0.  0.
         14    1    1    2    0    0 -0.10180601324E-01  0.10221715986E-01 -0.67201098055E-02  0.15915024248E-01  0.00000000000E+00 0.  1.
     999901    1    3    3    0    0  0.10362842092E+00 -0.62112890270E-01  0.87421193943E-01  0.89254653991E+00  0.88000000000E+00 0. -1.
        -11    1    4    4    0    0 -0.68015909580E-01  0.47211604889E-01 -0.64427834299E-01  0.10491094579E+00  0.51100000000E-03 0. -1.
         11    1    4    4    0    0 -0.25431910021E-01  0.46795693947E-02 -0.16273249838E-01  0.30557490052E-01  0.51100000000E-03 0.  1.
</event>
<event>
 8    1  0.1145101E+005  0.1043930E+01  0.7957747E-01            NaN
         13   -1    0    0    0    0  0.00000000000E+00  0.00000000000E+00  0.74505805969E-08  0.10566000000E+00  0.10566000000E+00 0. -1.
     999900   -1    0    0    0    0 -0.00000000000E+00 -0.00000000000E+00 -0.74505805969E-08  0.93827000000E+00  0.93827000000E+00 0.  1.
     999902    2    1    2    0    0 -0.15739658081E-01 -0.17749872461E-01 -0.71589161875E-04  0.10202065952E+01  0.10199307315E+01 0.  0.
     999903    2    3    3    0    0  0.37321560722E-01 -0.12438739924E+00 -0.13139479758E-01  0.13208620653E+00  0.20223650547E-01 0.  0.
         14    1    1    2    0    0  0.15739658081E-01  0.17749872461E-01  0.71589161875E-04  0.23723404771E-01  0.00000000000E+00 0. -1.
     999901    1    3    3    0    0 -0.53061218803E-01  0.10663752678E+00  0.13067890596E-01  0.88812038870E+00  0.88000000000E+00 0. -1.
        -11    1    4    4    0    0  0.68617333112E-02 -0.58388176017E-02 -0.12365837594E-02  0.91085364035E-02  0.51100000000E-03 0.  1.
         11    1    4    4    0    0  0.30459827410E-01 -0.11854858164E+00 -0.11902895998E-01  0.12297767013E+00  0.51100000000E-03 0. -1.
</event>
<event>
 7    1  0.1145101E+005  0.1043930E+01  0.7957747E-01            NaN
         13   -1    0    0    0    0  0.00000000000E+00  0.00000000000E+00  0.74505805969E-08  0.10566000000E+00  0.10566000000E+00 0. -1.
     999900   -1    0    0    0    0 -0.00000000000E+00 -0.00000000000E+00 -0.74505805969E-08  0.93827000000E+00  0.93827000000E+00 0. -1.
     999903    2    1    2    0    0  0.24258379829E-01 -0.80538028629E-01  0.54632980608E-01  0.10208264081E+00  0.19006839217E-01 0.  0.
         14    1    1    2    0    0  0.28254061200E-01 -0.90610681093E-02  0.40983125121E-01  0.50596555952E-01  0.00000000000E+00 0. -1.
     999901    1    1    2    0    0 -0.52512441029E-01  0.89599096739E-01 -0.95616105729E-01  0.89125080324E+00  0.88000000000E+00 0. -1.
        -11    1    3    3    0    0  0.10326157584E-01 -0.49333347975E-01  0.42118972611E-01  0.65686206526E-01  0.51100000000E-03 0. -1.
         11    1    3    3    0    0  0.13932222245E-01 -0.31204680654E-01  0.12514007997E-01  0.36396434283E-01  0.51100000000E-03 0.  1.
</event>
<event>
 8    1  0.1145101E+005  0.1043930E+01  0.7957747E-01            NaN
         13   -1    0    0    0    0  0.00000000000E+00  0.00000000000E+00  0.74505805969E-08  0.10566000000E+00  0.10566000000E+00 0. -1.
     999900   -1    0    0    0    0 -0.00000000000E+00 -0.00000000000E+00 -0.74505805969E-08  0.93827000000E+00  0.93827000000E+00 0.  1.
     999902    2    1    2    0    0 -0.75469309915E-02  0.66624670613E-02 -0.19175515065E-01  0.10222725529E+01  0.10220431143E+01 0.  0.
     999903    2    3    3    0    0  0.31322742733E-01  0.10746541278E+00 -0.72055203483E-01  0.13408994400E+00  0.16069585409E-01 0.  0.
         14    1    1    2    0    0  0.75469309915E-02 -0.66624670613E-02  0.19175515065E-01  0.21657447050E-01  0.00000000000E+00 0. -1.
     999901    1    3    3    0    0 -0.38869673724E-01 -0.10080294572E+00  0.52879688418E-01  0.88818260895E+00  0.88000000000E+00 0. -1.
        -11    1    4    4    0    0  0.16536495374E-01  0.76964689194E-01 -0.55809284251E-01  0.96498478701E-01  0.51100000000E-03 0. -1.
         11    1    4    4    0    0  0.14786247359E-01  0.30500723588E-01 -0.16245919231E-01  0.37591465295E-01  0.51100000000E-03 0.  1.
</event>
<event>
 8    1  0.1145101E+005  0.1043930E+01  0.7957747E-01            NaN
         13   -1    0    0    0    0  0.00000000000E+00  0.00000000000E+00  0.74505805969E-08  0.10566000000E+00  0.10566000000E+00 0. -1.
     999900   -1    0    0    0    0 -0.00000000000E+00 -0.00000000000E+00 -0.74505805969E-08  0.93827000000E+00  0.93827000000E+00 0.  1.
     999902    2    1    2    0    0 -0.25862416481E-02 -0.10806894946E-01 -0.20380162024E-01  0.10207173175E+01  0.10204533373E+01 0.  0.
     999903    2    3    3    0    0  0.29629838962E-01  0.59097643743E-01 -0.11344899328E+00  0.13246829402E+00  0.17513308991E-01 0.  0.
         14    1    1    2    0    0  0.25862416481E-02  0.10806894946E-01  0.20380162024E-01  0.23212682490E-01  0.00000000000E+00 0.  1.
     999901    1    3    3    0    0 -0.32216080610E-01 -0.69904538689E-01  0.93068831255E-01  0.88824902349E+00  0.88000000000E+00 0. -1.
        -11    1    4    4    0    0  0.84379507146E-02  0.34006512571E-01 -0.50529206874E-01  0.61490680414E-01  0.51100000000E-03 0. -1.
         11    1    4    4    0    0  0.21191888247E-01  0.25091131171E-01 -0.62919786405E-01  0.70977613606E-01  0.51100000000E-03 0.  1.
</event>
<event>
 8    1  0.1145101E+005  0.1043930E+01  0.7957747E-01            NaN
         13   -1    0    0    0    0  0.00000000000E+00  0.00000000000E+00  0.74505805969E-08  0.10566000000E+00  0.10566000000E+00 0. -1.
     999900   -1    0    0    0    0 -0.00000000000E+00 -0.00000000000E+00 -0.74505805969E-08  0.93827000000E+00  0.93827000000E+00 0.  1.
     999902    2    1    2    0    0  0.61170896777E-02  0.21934014850E-01  0.56085675670E-02  0.10204784366E+01  0.10202089315E+01 0.  0.
     999903    2    3    3    0    0  0.11247935585E+00  0.16359405126E-01 -0.62712648028E-01  0.13142737150E+00  0.20519311072E-01 0.  0.
         14    1    1    2    0    0 -0.61170896777E-02 -0.21934014850E-01 -0.56085675670E-02  0.23451563353E-01  0.00000000000E+00 0.  1.
     999901    1    3    3    0    0 -0.10636226618E+00  0.55746097245E-02  0.68321215595E-01  0.88905106515E+00  0.88000000000E+00 0. -1.
        -11    1    4    4    0    0  0.19892348242E-01 -0.35052523345E-02 -0.16348389059E-01  0.25990830274E-01  0.51100000000E-03 0.  1.
         11    1    4    4    0    0  0.92587007613E-01  0.19864657460E-01 -0.46364258969E-01  0.10543654123E+00  0.51100000000E-03 0. -1.
</event>
<event>
 8    1  0.1145101E+005  0.1043930E+01  0.7957747E-01            NaN
         13   -1    0    0    0    0  0.00000000000E+00  0.00000000000E+00  0.74505805969E-08  0.10566000000E+00  0.10566000000E+00 0.  1.
     999900   -1    0    0    0    0 -0.00000000000E+00 -0.00000000000E+00 -0.74505805969E-08  0.93827000000E+00  0.93827000000E+00 0.  1.
     999902    2    1    2    0    0 -0.17643760914E-01 -0.12907824166E-01  0.79089772944E-02  0.10206820722E+01  0.10204172805E+01 0.  0.
     999903    2    3    3    0    0 -0.61679748456E-01 -0.66904885233E-01  0.95697804506E-01  0.13357343796E+00  0.20078309304E-01 0.  0.
         14    1    1    2    0    0  0.17643760914E-01  0.12907824166E-01 -0.79089772944E-02  0.23247927773E-01  0.00000000000E+00 0.  1.
     999901    1    3    3    0    0  0.44035987542E-01  0.53997061068E-01 -0.87788827211E-01  0.88710863426E+00  0.88000000000E+00 0.  1.
        -11    1    4    4    0    0 -0.17279419952E-01 -0.11981335772E-01  0.12609064368E-01  0.24523058251E-01  0.51100000000E-03 0.  1.
         11    1    4    4    0    0 -0.44400328504E-01 -0.54923549461E-01  0.83088740138E-01  0.10905037971E+00  0.51100000000E-03 0. -1.
</event>
<event>
 8    1  0.1145101E+005  0.1043930E+01  0.7957747E-01            NaN
         13   -1    0    0    0    0  0.00000000000E+00  0.00000000000E+00  0.74505805969E-08  0.10566000000E+00  0.10566000000E+00 0. -1.
     999900   -1    0    0    0    0 -0.00000000000E+00 -0.00000000000E+00 -0.74505805969E-08  0.93827000000E+00  0.93827000000E+00 0.  1.
     999902    2    1    2    0    0  0.77091955147E-02  0.15640346966E-01  0.16635901251E-01  0.10198300963E+01  0.10195453006E+01 0.  0.
     999903    2    3    3    0    0  0.80763925527E-01  0.10284855603E+00  0.70299877292E-02  0.13245501275E+00  0.19856296976E-01 0.  0.
         14    1    1    2    0    0 -0.77091955147E-02 -0.15640346966E-01 -0.16635901251E-01  0.24099903716E-01  0.00000000000E+00 0.  1.
     999901    1    3    3    0    0 -0.73054730012E-01 -0.87208209069E-01  0.96059135214E-02  0.88737508354E+00  0.88000000000E+00 0. -1.
        -11    1    4    4    0    0  0.37017297895E-01  0.45438015669E-01 -0.66618063689E-02  0.58987578323E-01  0.51100000000E-03 0.  1.
         11    1    4    4    0    0  0.43746627632E-01  0.57410540366E-01  0.13691794098E-01  0.73467434425E-01  0.51100000000E-03 0. -1.
</event>
<event>
 8    1  0.1145101E+005  0.1043930E+01  0.7957747E-01            NaN
         13   -1    0    0    0    0  0.00000000000E+00  0.00000000000E+00  0.74505805969E-08  0.10566000000E+00  0.10566000000E+00 0.  1.
     999900   -1    0    0    0    0 -0.00000000000E+00 -0.00000000000E+00 -0.74505805969E-08  0.93827000000E+00  0.93827000000E+00 0.  1.
     999902    2    1    2    0    0  0.21142185517E-02  0.23571390498E-01 -0.52386855695E-03  0.10202581854E+01  0.10199835342E+01 0.  0.
     999903    2    3    3    0    0  0.89833004314E-01  0.52577711708E-01 -0.78739931502E-01  0.13197123592E+00  0.19545993558E-01 0.  0.
         14    1    1    2    0    0 -0.21142185517E-02 -0.23571390498E-01  0.52386855695E-03  0.23671814640E-01  0.00000000000E+00 0. -1.
     999901    1    3    3    0    0 -0.87718785762E-01 -0.29006321210E-01  0.78216062946E-01  0.88828694944E+00  0.88000000000E+00 0. -1.
        -11    1    4    4    0    0  0.37736863397E-01  0.30704184166E-01 -0.44293808994E-01  0.65795291780E-01  0.51100000000E-03 0.  1.
         11    1    4    4    0    0  0.52096140917E-01  0.21873527543E-01 -0.34446122509E-01  0.66175944137E-01  0.51100000000E-03 0. -1.
</event>
<event>
 8    1  0.1145101E+005  0.1043930E+01  0.7957747E-01            NaN
         13   -1    0    0    0    0  0.00000000000E+00  0.00000000000E+00  0.74505805969E-08  0.10566000000E+00  0.10566000000E+00 0. -1.
     999900   -1    0    0    0    0 -0.00000000000E+00 -0.00000000000E+00 -0.74505805969E-08  0.93827000000E+00  0.93827000000E+00 0. -1.
     999902    2    1    2    0    0 -0.19195751048E-01 -0.99753265788E-02 -0.11173743085E-01  0.10195817653E+01  0.10192909985E+01 0.  0.
     999903    2    3    3    0    0 -0.66686761643E-01  0.58734309155E-01  0.92138875491E-01  0.12960990772E+00  0.20305480809E-01 0.  0.
         14    1    1    2    0    0  0.19195751048E-01  0.99753265788E-02  0.11173743085E-01  0.24348234703E-01  0.00000000000E+00 0.  1.
     999901    1    3    3    0    0  0.47491010596E-01 -0.68709635734E-01 -0.10331261858E+00  0.88997185758E+00  0.88000000000E+00 0. -1.
        -11    1    4    4    0    0 -0.36675094937E-01  0.44296427430E-01  0.63615000861E-01  0.85757597490E-01  0.51100000000E-03 0.  1.
         11    1    4    4    0    0 -0.30011666707E-01  0.14437881725E-01  0.28523874629E-01  0.43852310225E-01  0.51100000000E-03 0. -1.
</event>
<event>
 8    1  0.1145101E+005  0.1043930E+01  0.7957747E-01            NaN
         13   -1    0    0    0    0  0.00000000000E+00  0.00000000000E+00  0.74505805969E-08  0.10566000000E+00  0.10566000000E+00 0. -1.
     999900   -1    0    0    0    0 -0.00000000000E+00 -0.00000000000E+00 -0.74505805969E-08  0.93827000000E+00  0.93827000000E+00 0.  1.
     999902    2    1    2    0    0 -0.47731303615E-02  0.22892325835E-01  0.50911723366E-03  0.10205398192E+01  0.10202717393E+01 0.  0.
     999903    2    3    3    0    0  0.22548625312E-01 -0.12173150653E+00 -0.25148623254E-01  0.12794761063E+00  0.20276529041E-01 0.  0.
         14    1    1    2    0    0  0.47731303615E-02 -0.22892325835E-01 -0.50911723366E-03  0.23390180759E-01  0.00000000000E+00 0. -1.
     999901    1    3    3    0    0 -0.27321755674E-01  0.14462383236E+00  0.25657740488E-01  0.89259220861E+00  0.88000000000E+00 0. -1.
        -11    1    4    4    0    0  0.25754937052E-01 -0.10184951659E+00 -0.18098292274E-01  0.10660417495E+00  0.51100000000E-03 0. -1.
         11    1    4    4    0    0 -0.32063117400E-02 -0.19881989934E-01 -0.70503309801E-02  0.21343435680E-01  0.51100000000E-03 0.  1.
</event>
<event>
 8    1  0.1145101E+005  0.1043930E+01  0.7957747E-01            NaN
         13   -1    0    0    0    0  0.00000000000E+00  0.00000000000E+00  0.74505805969E-08  0.10566000000E+00  0.10566000000E+00 0.  1.
     999900   -1    0    0    0    0 -0.00000000000E+00 -0.00000000000E+00 -0.74505805969E-08  0.93827000000E+00  0.93827000000E+00 0. -1.
     999902    2    1    2    0    0 -0.12557229998E-01 -0.19758335559E-02 -0.19841203636E-01  0.10203660168E+01  0.10200938912E+01 0.  0.
     999903    2    3    3    0    0 -0.74594620594E-01 -0.98372835339E-01  0.38714006262E-01  0.13100122526E+00  0.20517665202E-01 0.  0.
         14    1    1    2    0    0  0.12557229998E-01  0.19758335559E-02  0.19841203636E-01  0.23563983219E-01  0.00000000000E+00 0.  1.
     999901    1    3    3    0    0  0.62037390596E-01  0.96397001783E-01 -0.58555209898E-01  0.88936479152E+00  0.88000000000E+00 0. -1.
        -11    1    4    4    0    0 -0.66941711288E-01 -0.82252817026E-01  0.39405646733E-01  0.11313613364E+00  0.51100000000E-03 0. -1.
         11    1    4    4    0    0 -0.76529093056E-02 -0.16120018314E-01 -0.69164047096E-03  0.17865091626E-01  0.51100000000E-03 0.  1.
</event>
<event>
 8    1  0.1145101E+005  0.1043930E+01  0.7957747E-01            NaN
         13   -1    0    0    0    0  0.00000000000E+00  0.00000000000E+00  0.74505805969E-08  0.10566000000E+00  0.10566000000E+00 0.  1.
     999900   -1    0    0    0    0 -0.00000000000E+00 -0.00000000000E+00 -0.74505805969E-08  0.93827000000E+00  0.93827000000E+00 0.  1.
     999902    2    1    2    0    0 -0.20350548427E-01 -0.77704166419E-02 -0.95407233708E-02  0.10201487133E+01  0.10198714858E+01 0.  0.
     999903    2    3    3    0    0 -0.68776435582E-01 -0.11569098739E-01 -0.11114884928E+00  0.13297133090E+00  0.21523615122E-01 0.  0.
         14    1    1    2    0    0  0.20350548427E-01  0.77704166419E-02  0.95407233708E-02  0.23781286729E-01  0.00000000000E+00 0.  1.
     999901    1    3    3    0    0  0.48425887155E-01  0.37986820970E-02  0.10160812591E+00  0.88717738237E+00  0.88000000000E+00 0. -1.
        -11    1    4    4    0    0 -0.13530861079E-01 -0.65052341744E-02 -0.40140786066E-01  0.42859609193E-01  0.51100000000E-03 0. -1.
         11    1    4    4    0    0 -0.55245574503E-01 -0.50638645646E-02 -0.71008063219E-01  0.90111721711E-01  0.51100000000E-03 0.  1.
</event>
<event>
 8    1  0.1145101E+005  0.1043930E+01  0.7957747E-01            NaN
         13   -1    0    0    0    0  0.00000000000E+00  0.00000000000E+00  0.74505805969E-08  0.10566000000E+00  0.10566000000E+00 0.  1.
     999900   -1    0    0    0    0 -0.00000000000E+00 -0.00000000000E+00 -0.74505805969E-08  0.93827000000E+00  0.93827000000E+00 0.  1.
     999902    2    1    2    0    0 -0.20305293045E-01 -0.84601430941E-02 -0.82504935047E-02  0.10204363926E+01  0.10201659089E+01 0.  0.
     999903    2    3    3    0    0  0.55729724171E-01 -0.62172935258E-01  0.96801476022E-01  0.12931221257E+00  0.19489651743E-01 0.  0.
         14    1    1    2    0    0  0.20305293045E-01  0.84601430941E-02  0.82504935047E-02  0.23493607426E-01  0.00000000000E+00 0.  1.
     999901    1    3    3    0    0 -0.76035017216E-01  0.53712792164E-01 -0.10505196953E+00  0.89112418000E+00  0.88000000000E+00 0.  1.
        -11    1    4    4    0    0  0.26025418430E-01 -0.37781409513E-01  0.40860755021E-01  0.61437933975E-01  0.51100000000E-03 0. -1.
         11    1    4    4    0    0  0.29704305741E-01 -0.24391525744E-01  0.55940721001E-01  0.67874278595E-01  0.51100000000E-03 0.  1.
</event>
<event>
 8    1  0.1145101E+005  0.1043930E+01  0.7957747E-01            NaN
         13   -1    0    0    0    0  0.00000000000E+00  0.00000000000E+00  0.74505805969E-08  0.10566000000E+00  0.10566000000E+00 0. -1.
     999900   -1    0    0    0    0 -0.00000000000E+00 -0.00000000000E+00 -0.74505805969E-08  0.93827000000E+00  0.93827000000E+00 0.  1.
     999902    2    1    2    0    0  0.40109214501E-02  0.22438873404E-01  0.40202221068E-02  0.10207836673E+01  0.10205212113E+01 0.  0.
     999903    2    3    3    0    0 -0.54901922172E-01  0.11208801433E+00 -0.41476234133E-01  0.13310263275E+00  0.20447220677E-01 0.  0.
         14    1    1    2    0    0 -0.40109214501E-02 -0.22438873404E-01 -0.40202221068E-02  0.23146332675E-01  0.00000000000E+00 0. -1.
     999901    1    3    3    0    0  0.58912843622E-01 -0.89649140922E-01  0.45496456239E-01  0.88768103457E+00  0.88000000000E+00 0. -1.
        -11    1    4    4    0    0 -0.27572413258E-01  0.40227472163E-01 -0.23532369519E-01  0.54152756399E-01  0.51100000000E-03 0.  1.
         11    1    4    4    0    0 -0.27329508914E-01  0.71860542164E-01 -0.17943864613E-01  0.78949876351E-01  0.51100000000E-03 0. -1.
</event>
<event>
 8    1  0.1145101E+005  0.1043930E+01  0.7957747E-01            NaN
         13   -1    0    0    0    0  0.00000000000E+00  0.00000000000E+00  0.74505805969E-08  0.10566000000E+00  0.10566000000E+00 0.  1.
     999900   -1    0    0    0    0 -0.00000000000E+00 -0.00000000000E+00 -0.74505805969E-08  0.93827000000E+00  0.93827000000E+00 0.  1.
     999902    2    1    2    0    0 -0.13671756115E-01 -0.19104058142E-01  0.77653109201E-03  0.10204250015E+01  0.10201542524E+01 0.  0.
     999903    2    3    3    0    0 -0.88161245273E-01 -0.44718379600E-01  0.86365012389E-01  0.13277069630E+00  0.19924953902E-01 0.  0.
         14    1    1    2    0    0  0.13671756115E-01  0.19104058142E-01 -0.77653109201E-03  0.23504998475E-01  0.00000000000E+00 0. -1.
     999901    1    3    3    0    0  0.74489489157E-01  0.25614321458E-01 -0.85588481297E-01  0.88765430523E+00  0.88000000000E+00 0.  1.
        -11    1    4    4    0    0 -0.42361805565E-01 -0.12910209119E-01  0.30067785384E-01  0.53530635239E-01  0.51100000000E-03 0.  1.
         11    1    4    4    0    0 -0.45799439708E-01 -0.31808170481E-01  0.56297227005E-01  0.79240061057E-01  0.51100000000E-03 0. -1.
</event>
<event>
 8    1  0.1145101E+005  0.1043930E+01  0.7957747E-01            NaN
         13   -1    0    0    0    0  0.00000000000E+00  0.00000000000E+00  0.74505805969E-08  0.10566000000E+00  0.10566000000E+00 0. -1.
     999900   -1    0    0    0    0 -0.00000000000E+00 -0.00000000000E+00 -0.74505805969E-08  0.93827000000E+00  0.93827000000E+00 0. -1.
     999902    2    1    2    0    0  0.21782204829E-01  0.82638278966E-02 -0.13292911517E-03  0.10206325115E+01  0.10203665766E+01 0.  0.
     999903    2    3    3    0    0 -0.26225990509E-02 -0.14705340175E-01  0.12882965441E+00  0.13060187999E+00  0.15383307376E-01 0.  0.
         14    1    1    2    0    0 -0.21782204829E-01 -0.82638278966E-02  0.13292911517E-03  0.23297488467E-01  0.00000000000E+00 0.  1.
     999901    1    3    3    0    0  0.24404803880E-01  0.22969168071E-01 -0.12896258353E+00  0.89003063154E+00  0.88000000000E+00 0. -1.
        -11    1    4    4    0    0  0.10598789860E-02 -0.84232002566E-02  0.23022841401E-01  0.24543552986E-01  0.51100000000E-03 0.  1.
         11    1    4    4    0    0 -0.36824780369E-02 -0.62821399182E-02  0.10580681301E+00  0.10605832700E+00  0.51100000000E-03 0. -1.
</event>
<event>
 8    1  0.1145101E+005  0.1043930E+01  0.7957747E-01            NaN
         13   -1    0    0    0    0  0.00000000000E+00  0.00000000000E+00  0.74505805969E-08  0.10566000000E+00  0.10566000000E+00 0.  1.
     999900   -1    0    0    0    0 -0.00000000000E+00 -0.00000000000E+00 -0.74505805969E-08  0.93827000000E+00  0.93827000000E+00 0. -1.
     999902    2    1    2    0    0  0.12480183170E-01  0.20196283283E-01  0.50606280808E-02  0.10196554292E+01  0.10193664403E+01 0.  0.
     999903    2    3    3    0    0  0.82487031766E-01  0.85969068782E-01  0.56361387221E-01  0.13294308236E+00  0.17391549161E-01 0.  0.
         14    1    1    2    0    0 -0.12480183170E-01 -0.20196283283E-01 -0.50606280808E-02  0.24274570789E-01  0.00000000000E+00 0. -1.
     999901    1    3    3    0    0 -0.70006848596E-01 -0.65772785498E-01 -0.51300759140E-01  0.88671234685E+00  0.88000000000E+00 0.  1.
        -11    1    4    4    0    0  0.28564788577E-01  0.38766596200E-01  0.16300317389E-01  0.50840511360E-01  0.51100000000E-03 0. -1.
         11    1    4    4    0    0  0.53922243189E-01  0.47202472582E-01  0.40061069831E-01  0.82102571004E-01  0.51100000000E-03 0.  1.
</event>
<event>
 8    1  0.1145101E+005  0.1043930E+01  0.7957747E-01            NaN
         13   -1    0    0    0    0  0.00000000000E+00  0.00000000000E+00  0.74505805969E-08  0.10566000000E+00  0.10566000000E+00 0.  1.
     999900   -1    0    0    0    0 -0.00000000000E+00 -0.00000000000E+00 -0.74505805969E-08  0.93827000000E+00  0.93827000000E+00 0. -1.
     999902    2    1    2    0    0 -0.12184536386E-01  0.33522527115E-02 -0.20193524767E-01  0.10201081829E+01  0.10198299986E+01 0.  0.
     999903    2    3    3    0    0  0.11976637492E-02 -0.12095583604E+00 -0.45924914853E-01  0.13089859649E+00  0.19839256272E-01 0.  0.
         14    1    1    2    0    0  0.12184536386E-01 -0.33522527115E-02  0.20193524767E-01  0.23821817053E-01  0.00000000000E+00 0.  1.
     999901    1    3    3    0    0 -0.13382200135E-01  0.12430808875E+00  0.25731390086E-01  0.88920958646E+00  0.88000000000E+00 0.  1.
        -11    1    4    4    0    0  0.60295825021E-02 -0.60640449762E-01 -0.31891284922E-01  0.68781794011E-01  0.51100000000E-03 0. -1.
         11    1    4    4    0    0 -0.48319187529E-02 -0.60315386275E-01 -0.14033629931E-01  0.62116802480E-01  0.51100000000E-03 0.  1.
</event>
<event>
 8    1  0.1145101E+005  0.1043930E+01  0.7957747E-01            NaN
         13   -1    0    0    0    0  0.00000000000E+00  0.00000000000E+00  0.74505805969E-08  0.10566000000E+00  0.10566000000E+00 0. -1.
     999900   -1    0    0    0    0 -0.00000000000E+00 -0.00000000000E+00 -0.74505805969E-08  0.93827000000E+00  0.93827000000E+00 0. -1.
     999902    2    1    2    0    0 -0.18546128115E-01 -0.90318276923E-02 -0.12575686450E-01  0.10197705160E+01  0.10194842934E+01 0.  0.
     999903    2    3    3    0    0 -0.77521093203E-01  0.81464814645E-01  0.62125276354E-01  0.13002452826E+00  0.20019791965E-01 0.  0.
         14    1    1    2    0    0  0.18546128115E-01  0.90318276923E-02  0.12575686450E-01  0.24159484043E-01  0.00000000000E+00 0. -1.
     999901    1    3    3    0    0  0.58974965088E-01 -0.90496642337E-01 -0.74700962804E-01  0.88974598770E+00  0.88000000000E+00 0. -1.
        -11    1    4    4    0    0 -0.36292786959E-01  0.24755505887E-01  0.20463379582E-01  0.48466612032E-01  0.51100000000E-03 0.  1.
         11    1    4    4    0    0 -0.41228306244E-01  0.56709308758E-01  0.41661896772E-01  0.81557916226E-01  0.51100000000E-03 0. -1.
</event>
<event>
 8    1  0.1145101E+005  0.1043930E+01  0.7957747E-01            NaN
         13   -1    0    0    0    0  0.00000000000E+00  0.00000000000E+00  0.74505805969E-08  0.10566000000E+00  0.10566000000E+00 0.  1.
     999900   -1    0    0    0    0 -0.00000000000E+00 -0.00000000000E+00 -0.74505805969E-08  0.93827000000E+00  0.93827000000E+00 0.  1.
     999902    2    1    2    0    0 -0.10175121882E-01  0.13303750183E-01 -0.17950526298E-01  0.10193791493E+01  0.10190834636E+01 0.  0.
     999903    2    3    3    0    0  0.11066873111E+00 -0.60534460011E-01  0.44495128462E-02  0.12777549308E+00  0.19869312323E-01 0.  0.
         14    1    1    2    0    0  0.10175121882E-01 -0.13303750183E-01  0.17950526298E-01  0.24550850670E-01  0.00000000000E+00 0.  1.
     999901    1    3    3    0    0 -0.12084385299E+00  0.73838210194E-01 -0.22400039144E-01  0.89160365625E+00  0.88000000000E+00 0.  1.
        -11    1    4    4    0    0  0.15154675619E-01 -0.15167337638E-02  0.27488018418E-02  0.15484886406E-01  0.51100000000E-03 0.  1.
         11    1    4    4    0    0  0.95514055490E-01 -0.59017726247E-01  0.17007110044E-02  0.11229060667E+00  0.51100000000E-03 0. -1.
</event>
<event>
 8    1  0.1145101E+005  0.1043930E+01  0.7957747E-01            NaN
         13   -1    0    0    0    0  0.00000000000E+00  0.00000000000E+00  0.74505805969E-08  0.10566000000E+00  0.10566000000E+00 0.  1.
     999900   -1    0    0    0    0 -0.00000000000E+00 -0.00000000000E+00 -0.74505805969E-08  0.93827000000E+00  0.93827000000E+00 0.  1.
     999902    2    1    2    0    0 -0.10286537883E-01 -0.36680592591E-02  0.20850434646E-01  0.10203926224E+01  0.10201211181E+01 0.  0.
     999903    2    3    3    0    0 -0.10904418326E+00  0.40655723936E-01  0.60843664124E-01  0.13285832519E+00  0.20146000059E-01 0.  0.
         14    1    1    2    0    0  0.10286537883E-01  0.36680592591E-02 -0.20850434646E-01  0.23537377621E-01  0.00000000000E+00 0. -1.
     999901    1    3    3    0    0  0.98757645374E-01 -0.44323783195E-01 -0.39993229478E-01  0.88753429719E+00  0.88000000000E+00 0.  1.
        -11    1    4    4    0    0 -0.50640821037E-01  0.27930694668E-01  0.36009960834E-01  0.68129251135E-01  0.51100000000E-03 0.  1.
         11    1    4    4    0    0 -0.58403362220E-01  0.12725029268E-01  0.24833703290E-01  0.64729074059E-01  0.51100000000E-03 0. -1.
</event>
<event>
 8    1  0.1145101E+005  0.1043930E+01  0.7957747E-01            NaN
         13   -1    0    0    0    0  0.00000000000E+00  0.00000000000E+00  0.74505805969E-08  0.10566000000E+00  0.10566000000E+00 0. -1.
     999900   -1    0    0    0    0 -0.00000000000E+00 -0.00000000000E+00 -0.74505805969E-08  0.93827000000E+00  0.93827000000E+00 0.  1.
     999902    2    1    2    0    0 -0.20523588183E-01  0.11053377756E-01  0.17549229121E-02  0.10205532041E+01  0.10202854345E+01 0.  0.
     999903    2    3    3    0    0  0.20237032039E-01 -0.58667042393E-01 -0.11189870334E+00  0.12957648617E+00  0.20430042321E-01 0.  0.
         14    1    1    2    0    0  0.20523588183E-01 -0.11053377756E-01 -0.17549229121E-02  0.23376795891E-01  0.00000000000E+00 0. -1.
     999901    1    3    3    0    0 -0.40760620222E-01  0.69720420149E-01  0.11365362626E+00  0.89097671794E+00  0.88000000000E+00 0. -1.
        -11    1    4    4    0    0  0.13408167321E-01 -0.26782861016E-01 -0.35127882156E-01  0.46166327783E-01  0.51100000000E-03 0. -1.
         11    1    4    4    0    0  0.68288647179E-02 -0.31884181376E-01 -0.76770821188E-01  0.83410158388E-01  0.51100000000E-03 0.  1.
</event>
<event>
 8    1  0.1145101E+005  0.1043930E+01  0.7957747E-01            NaN
         13   -1    0    0    0    0  0.00000000000E+00  0.00000000000E+00  0.74505805969E-08  0.10566000000E+00  0.10566000000E+00 0. -1.
     999900   -1    0    0    0    0 -0.00000000000E+00 -0.00000000000E+00 -0.74505805969E-08  0.93827000000E+00  0.93827000000E+00 0.  1.
     999902    2    1    2    0    0  0.11436466081E-01  0.20599701411E-01 -0.42892601978E-02  0.10199813423E+01  0.10197001522E+01 0.  0.
     999903    2    3    3    0    0  0.67667524916E-01 -0.59579986051E-01 -0.91825182765E-01  0.13023235968E+00  0.19998366223E-01 0.  0.
         14    1    1    2    0    0 -0.11436466081E-01 -0.20599701411E-01  0.42892601978E-02  0.23948657743E-01  0.00000000000E+00 0. -1.
     999901    1    3    3    0    0 -0.56231058835E-01  0.80179687461E-01  0.87535922567E-01  0.88974898258E+00  0.88000000000E+00 0. -1.
        -11    1    4    4    0    0  0.25250128017E-01 -0.26353783446E-01 -0.50577350311E-01  0.62373234262E-01  0.51100000000E-03 0.  1.
         11    1    4    4    0    0  0.42417396899E-01 -0.33226202605E-01 -0.41247832454E-01  0.67859125417E-01  0.51100000000E-03 0. -1.
</event>
<event>
 8    1  0.1145101E+005  0.1043930E+01  0.7957747E-01            NaN
         13   -1    0    0    0    0  0.00000000000E+00  0.00000000000E+00  0.74505805969E-08  0.10566000000E+00  0.10566000000E+00 0.  1.
     999900   -1    0    0    0    0 -0.00000000000E+00 -0.00000000000E+00 -0.74505805969E-08  0.93827000000E+00  0.93827000000E+00 0. -1.
     999902    2    1    2    0    0  0.81028391791E-04  0.40363702973E-02 -0.22067496362E-01  0.10214962476E+01  0.10212498767E+01 0.  0.
     999903    2    3    3    0    0  0.12023564916E+00  0.18686362389E-01 -0.49352179544E-01  0.13279145461E+00  0.19802558514E-01 0.  0.
         14    1    1    2    0    0 -0.81028391791E-04 -0.40363702973E-02  0.22067496362E-01  0.22433752394E-01  0.00000000000E+00 0.  1.
     999901    1    3    3    0    0 -0.12015462077E+00 -0.14649992092E-01  0.27284683182E-01  0.88870479300E+00  0.88000000000E+00 0.  1.
        -11    1    4    4    0    0  0.94506783905E-01  0.22748095636E-01 -0.37938900879E-01  0.10434859549E+00  0.51100000000E-03 0.  1.
         11    1    4    4    0    0  0.25728865253E-01 -0.40617332468E-02 -0.11413278665E-01  0.28442859122E-01  0.51100000000E-03 0. -1.
</event>
<event>
 8    1  0.1145101E+005  0.1043930E+01  0.7957747E-01            NaN
         13   -1    0    0    0    0  0.00000000000E+00  0.00000000000E+00  0.74505805969E-08  0.10566000000E+00  0.10566000000E+00 0. -1.
     999900   -1    0    0    0    0 -0.00000000000E+00 -0.00000000000E+00 -0.74505805969E-08  0.93827000000E+00  0.93827000000E+00 0.  1.
     999902    2    1    2    0    0  0.97033695557E-02 -0.97268427434E-02  0.20816211147E-01  0.10189884384E+01  0.10186831480E+01 0.  0.
     999903    2    3    3    0    0 -0.38228114403E-02 -0.97845840034E-01 -0.80995267291E-01  0.12864384642E+00  0.20014584656E-01 0.  0.
         14    1    1    2    0    0 -0.97033695557E-02  0.97268427434E-02 -0.20816211147E-01  0.24941561639E-01  0.00000000000E+00 0.  1.
     999901    1    3    3    0    0  0.13526180996E-01  0.88118997291E-01  0.10181147844E+00  0.89034459194E+00  0.88000000000E+00 0. -1.
        -11    1    4    4    0    0 -0.94689862919E-02 -0.38246749313E-01 -0.24972398551E-01  0.46651445259E-01  0.51100000000E-03 0.  1.
         11    1    4    4    0    0  0.56461748516E-02 -0.59599090721E-01 -0.56022868740E-01  0.81992401161E-01  0.51100000000E-03 0. -1.
</event>
<event>
 8    1  0.1145101E+005  0.1043930E+01  0.7957747E-01            NaN
         13   -1    0    0    0    0  0.00000000000E+00  0.00000000000E+00  0.74505805969E-08  0.10566000000E+00  0.10566000000E+00 0. -1.
     999900   -1    0    0    0    0 -0.00000000000E+00 -0.00000000000E+00 -0.74505805969E-08  0.93827000000E+00  0.93827000000E+00 0. -1.
     999902    2    1    2    0    0  0.11941263634E-01  0.16072685026E-01  0.10525334513E-01  0.10213090441E+01  0.10210584978E+01 0.  0.
     999903    2    3    3    0    0  0.36479086421E-01 -0.94612570032E-01  0.80826758189E-01  0.13125532624E+00  0.20315847818E-01 0.  0.
         14    1    1    2    0    0 -0.11941263634E-01 -0.16072685026E-01 -0.10525334513E-01  0.22620955941E-01  0.00000000000E+00 0. -1.
     999901    1    3    3    0    0 -0.24537822788E-01  0.11068525506E+00 -0.70301423677E-01  0.89005371782E+00  0.88000000000E+00 0. -1.
        -11    1    4    4    0    0  0.19008099210E-02 -0.16603334888E-01  0.21910613238E-01  0.27561202826E-01  0.51100000000E-03 0.  1.
         11    1    4    4    0    0  0.34578276500E-01 -0.78009235144E-01  0.58916144952E-01  0.10369412341E+00  0.51100000000E-03 0. -1.
</event>
<event>
 8    1  0.1145101E+005  0.1043930E+01  0.7957747E-01            NaN
         13   -1    0    0    0    0  0.00000000000E+00  0.00000000000E+00  0.74505805969E-08  0.10566000000E+00  0.10566000000E+00 0.  1.
     999900   -1    0    0    0    0 -0.00000000000E+00 -0.00000000000E+00 -0.74505805969E-08  0.93827000000E+00  0.93827000000E+00 0. -1.
     999902    2    1    2    0    0  0.26913390187E-02 -0.20064672521E-01  0.12449779359E-01  0.10201638182E+01  0.10198869470E+01 0.  0.
     999903    2    3    3    0    0 -0.65200833558E-01 -0.48896481157E-01 -0.99271545018E-01  0.13003895363E+00  0.20329172263E-01 0.  0.
         14    1    1    2    0    0 -0.26913390187E-02  0.20064672521E-01 -0.12449779359E-01  0.23766181754E-01  0.00000000000E+00 0. -1.
     999901    1    3    3    0    0  0.67892172577E-01  0.28831808637E-01  0.11172132438E+00  0.89012486462E+00  0.88000000000E+00 0.  1.
        -11    1    4    4    0    0 -0.41743099378E-01 -0.30352824277E-01 -0.77220757410E-01  0.92882112288E-01  0.51100000000E-03 0.  1.
         11    1    4    4    0    0 -0.23457734181E-01 -0.18543656881E-01 -0.22050787608E-01  0.37156841342E-01  0.51100000000E-03 0. -1.
</event>
<event>
 8    1  0.1145101E+005  0.1043930E+01  0.7957747E-01            NaN
         13   -1    0    0    0    0  0.00000000000E+00  0.00000000000E+00  0.74505805969E-08  0.10566000000E+00  0.10566000000E+00 0. -1.
     999900   -1    0    0    0    0 -0.00000000000E+00 -0.00000000000E+00 -0.74505805969E-08  0.93827000000E+00  0.93827000000E+00 0.  1.
     999902    2    1    2    0    0 -0.16540365692E-02  0.21388219530E-01 -0.10275771308E-01  0.10201438013E+01  0.10198664580E+01 0.  0.
     999903    2    3    3    0    0 -0.30064009753E-01  0.34501100009E-01 -0.12182342580E+00  0.13255045218E+00  0.25189377076E-01 0.  0.
         14    1    1    2    0    0  0.16540365692E-02 -0.21388219530E-01  0.10275771308E-01  0.23786198679E-01  0.00000000000E+00 0. -1.
     999901    1    3    3    0    0  0.28409973184E-01 -0.13112880479E-01  0.11154765449E+00  0.88759334914E+00  0.88000000000E+00 0. -1.
        -11    1    4    4    0    0 -0.11564535739E-01  0.22788859327E-01 -0.37173703136E-01  0.45113367444E-01  0.51100000000E-03 0. -1.
         11    1    4    4    0    0 -0.18499474014E-01  0.11712240682E-01 -0.84649722659E-01  0.87437084740E-01  0.51100000000E-03 0.  1.
</event>
<event>
 8    1  0.1145101E+005  0.1043930E+01  0.7957747E-01            NaN
         13   -1    0    0    0    0  0.00000000000E+00  0.00000000000E+00  0.74505805969E-08  0.10566000000E+00  0.10566000000E+00 0. -1.
     999900   -1    0    0    0    0 -0.00000000000E+00 -0.00000000000E+00 -0.74505805969E-08  0.93827000000E+00  0.93827000000E+00 0.  1.
     999902    2    1    2    0    0 -0.91168915156E-02  0.15591652217E-01  0.15099190347E-01  0.10203884861E+01  0.10201168853E+01 0.  0.
     999903    2    3    3    0    0 -0.25519989139E-01 -0.12404645330E+00  0.16187619074E-01  0.12922685829E+00  0.19968712258E-01 0.  0.
         14    1    1    2    0    0  0.91168915156E-02 -0.15591652217E-01 -0.15099190347E-01  0.23541513946E-01  0.00000000000E+00 0.  1.
     999901    1    3    3    0    0  0.16403097624E-01  0.13963810552E+00 -0.10884287268E-02  0.89116162777E+00  0.88000000000E+00 0. -1.
        -11    1    4    4    0    0 -0.12490085912E-01 -0.95859918428E-01  0.74180715998E-02  0.96955737914E-01  0.51100000000E-03 0. -1.
         11    1    4    4    0    0 -0.13029903228E-01 -0.28186534874E-01  0.87695474739E-02  0.32271120374E-01  0.51100000000E-03 0.  1.
</event>
<event>
 8    1  0.1145101E+005  0.1043930E+01  0.7957747E-01            NaN
         13   -1    0    0    0    0  0.00000000000E+00  0.00000000000E+00  0.74505805969E-08  0.10566000000E+00  0.10566000000E+00 0. -1.
     999900   -1    0    0    0    0 -0.00000000000E+00 -0.00000000000E+00 -0.74505805969E-08  0.93827000000E+00  0.93827000000E+00 0.  1.
     999902    2    1    2    0    0  0.12762009999E-01 -0.12301289995E-01 -0.15810316753E-01  0.10201780159E+01  0.10199014792E+01 0.  0.
     999903    2    3    3    0    0 -0.11423601857E+00 -0.57719538063E-01  0.33676663169E-02  0.12969549972E+00  0.20692231850E-01 0.  0.
         14    1    1    2    0    0 -0.12762009999E-01  0.12301289995E-01  0.15810316753E-01  0.23751984140E-01  0.00000000000E+00 0. -1.
     999901    1    3    3    0    0  0.12699802857E+00  0.45418248069E-01 -0.19177983070E-01  0.89048251614E+00  0.88000000000E+00 0. -1.
        -11    1    4    4    0    0 -0.23619002419E-01 -0.21860004737E-01  0.15908253195E-03  0.32187008414E-01  0.51100000000E-03 0.  1.
         11    1    4    4    0    0 -0.90617016147E-01 -0.35859533326E-01  0.32085837850E-02  0.97508491306E-01  0.51100000000E-03 0. -1.
</event>
<event>
 8    1  0.1145101E+005  0.1043930E+01  0.7957747E-01            NaN
         13   -1    0    0    0    0  0.00000000000E+00  0.00000000000E+00  0.74505805969E-08  0.10566000000E+00  0.10566000000E+00 0.  1.
     999900   -1    0    0    0    0 -0.00000000000E+00 -0.00000000000E+00 -0.74505805969E-08  0.93827000000E+00  0.93827000000E+00 0. -1.
     999902    2    1    2    0    0  0.17563230676E-01  0.16316530436E-01 -0.22130621432E-02  0.10198552439E+01  0.10195710493E+01 0.  0.
     999903    2    3    3    0    0 -0.44167888245E-01 -0.23864172176E-01 -0.11751411600E+00  0.12928264555E+00  0.19599334589E-01 0.  0.
         14    1    1    2    0    0 -0.17563230676E-01 -0.16316530436E-01  0.22130621432E-02  0.24074756100E-01  0.00000000000E+00 0.  1.
     999901    1    3    3    0    0  0.61731118921E-01  0.40180702612E-01  0.11530105386E+00  0.89057259835E+00  0.88000000000E+00 0.  1.
        -11    1    4    4    0    0 -0.11809036808E-02 -0.73091544460E-02 -0.22443684038E-01  0.23638915931E-01  0.51100000000E-03 0.  1.
         11    1    4    4    0    0 -0.42986984565E-01 -0.16555017730E-01 -0.95070431961E-01  0.10564372962E+00  0.51100000000E-03 0. -1.
</event>
<event>
 8    1  0.1145101E+005  0.1043930E+01  0.7957747E-01            NaN
         13   -1    0    0    0    0  0.00000000000E+00  0.00000000000E+00  0.74505805969E-08  0.10566000000E+00  0.10566000000E+00 0. -1.
     999900   -1    0    0    0    0 -0.00000000000E+00 -0.00000000000E+00 -0.74505805969E-08  0.93827000000E+00  0.93827000000E+00 0. -1.
     999902    2    1    2    0    0  0.34902747109E-01  0.59862506712E-02  0.10125746268E-01  0.10070983874E+01  0.10064246589E+01 0.  0.
     999903    2    3    3    0    0  0.11754442260E+00 -0.20515336538E-01 -0.18504269902E-01  0.12236585236E+00  0.19834906097E-01 0.  0.
         14    1    1    2    0    0 -0.34902747109E-01 -0.59862506712E-02 -0.10125746268E-01  0.36831612649E-01  0.00000000000E+00 0.  1.
     999901    1    3    3    0    0 -0.82641675494E-01  0.26501587210E-01  0.28630016171E-01  0.88473253500E+00  0.88000000000E+00 0.  1.
        -11    1    4    4    0    0  0.10779859595E+00 -0.16198569624E-01 -0.21858169878E-01  0.11117990672E+00  0.51100000000E-03 0. -1.
         11    1    4    4    0    0  0.97458266532E-02 -0.43167669148E-02  0.33538999760E-02  0.11185945637E-01  0.51100000000E-03 0.  1.
</event>
<event>
 8    1  0.1145101E+005  0.1043930E+01  0.7957747E-01            NaN
         13   -1    0    0    0    0  0.00000000000E+00  0.00000000000E+00  0.74505805969E-08  0.10566000000E+00  0.10566000000E+00 0. -1.
     999900   -1    0    0    0    0 -0.00000000000E+00 -0.00000000000E+00 -0.74505805969E-08  0.93827000000E+00  0.93827000000E+00 0. -1.
     999902    2    1    2    0    0  0.96907041189E-02 -0.19325790654E-01 -0.48487396876E-02  0.10217735967E+01  0.10215333459E+01 0.  0.
     999903    2    3    3    0    0 -0.11671449269E+00 -0.49246654042E-01  0.21109701068E-01  0.13185934662E+00  0.29895853761E-01 0.  0.
         14    1    1    2    0    0 -0.96907041189E-02  0.19325790654E-01  0.48487396876E-02  0.22156403302E-01  0.00000000000E+00 0.  1.
     999901    1    3    3    0    0  0.12640519681E+00  0.29920863388E-01 -0.25958440755E-01  0.88991425008E+00  0.88000000000E+00 0. -1.
        -11    1    4    4    0    0 -0.11637236640E+00 -0.46744701216E-01  0.24315830650E-01  0.12774629346E+00  0.51100000000E-03 0.  1.
         11    1    4    4    0    0 -0.34212629706E-03 -0.25019528259E-02 -0.32061295822E-02  0.41130531536E-02  0.51100000000E-03 0. -1.
</event>
<event>
 8    1  0.1145101E+005  0.1043930E+01  0.7957747E-01            NaN
         13   -1    0    0    0    0  0.00000000000E+00  0.00000000000E+00  0.74505805969E-08  0.10566000000E+00  0.10566000000E+00 0.  1.
     999900   -1    0    0    0    0 -0.00000000000E+00 -0.00000000000E+00 -0.74505805969E-08  0.93827000000E+00  0.93827000000E+00 0.  1.
     999902    2    1    2    0    0  0.18020809027E-01  0.16153317825E-01 -0.32863185428E-02  0.10195070779E+01  0.10192145028E+01 0.  0.
     999903    2    3    3    0    0  0.72584430341E-01  0.10467122218E+00  0.31498557322E-01  0.13270236672E+00  0.19829138646E-01 0.  0.
         14    1    1    2    0    0 -0.18020809027E-01 -0.16153317825E-01  0.32863185428E-02  0.24422922108E-01  0.00000000000E+00 0. -1.
     999901    1    3    3    0    0 -0.54563621314E-01 -0.88517904357E-01 -0.34784875865E-01  0.88680471117E+00  0.88000000000E+00 0. -1.
        -11    1    4    4    0    0  0.26507818972E-01  0.47343767562E-01  0.21952914691E-01  0.58534505875E-01  0.51100000000E-03 0. -1.
         11    1    4    4    0    0  0.46076611369E-01  0.57327454620E-01  0.95456426307E-02  0.74167860847E-01  0.51100000000E-03 0.  1.
</event>
<event>
 8    1  0.1145101E+005  0.1043930E+01  0.7957747E-01            NaN
         13   -1    0    0    0    0  0.00000000000E+00  0.00000000000E+00  0.74505805969E-08  0.10566000000E+00  0.10566000000E+00 0.  1.
     999900   -1    0    0    0    0 -0.00000000000E+00 -0.00000000000E+00 -0.74505805969E-08  0.93827000000E+00  0.93827000000E+00 0.  1.
     999902    2    1    2    0    0 -0.64663230188E-02  0.18276646960E-01 -0.12919277757E-01  0.10206328565E+01  0.10203669295E+01 0.  0.
     999903    2    3    3    0    0 -0.49667645865E-01  0.12201775533E+00 -0.41811614095E-02  0.13344351564E+00  0.20844234092E-01 0.  0.
         14    1    1    2    0    0  0.64663230188E-02 -0.18276646960E-01  0.12919277757E-01  0.23297143500E-01  0.00000000000E+00 0. -1.
     999901    1    3    3    0    0  0.43201322846E-01 -0.10374110836E+00 -0.87381163476E-02  0.88718934086E+00  0.88000000000E+00 0.  1.
        -11    1    4    4    0    0 -0.24837023503E-01  0.67298330359E-01  0.78295960525E-02  0.72163056344E-01  0.51100000000E-03 0.  1.
         11    1    4    4    0    0 -0.24830622362E-01  0.54719424967E-01 -0.12010757462E-01  0.61280459295E-01  0.51100000000E-03 0. -1.
</event>
<event>
 8    1  0.1145101E+005  0.1043930E+01  0.7957747E-01            NaN
         13   -1    0    0    0    0  0.00000000000E+00  0.00000000000E+00  0.74505805969E-08  0.10566000000E+00  0.10566000000E+00 0. -1.
     999900   -1    0    0    0    0 -0.00000000000E+00 -0.00000000000E+00 -0.74505805969E-08  0.93827000000E+00  0.93827000000E+00 0.  1.
     999902    2    1    2    0    0 -0.23522290334E-01 -0.44986004207E-02 -0.32799961812E-02  0.10197578275E+01  0.10194713006E+01 0.  0.
     999903    2    3    3    0    0  0.88267862752E-01 -0.55828587198E-02  0.89422871516E-01  0.12785422530E+00  0.22975401424E-01 0.  0.
         14    1    1    2    0    0  0.23522290334E-01  0.44986004207E-02  0.32799961812E-02  0.24172172498E-01  0.00000000000E+00 0.  1.
     999901    1    3    3    0    0 -0.11179015309E+00  0.10842582991E-02 -0.92702867697E-01  0.89190360220E+00  0.88000000000E+00 0.  1.
        -11    1    4    4    0    0  0.61875944510E-01  0.63437745086E-02  0.64982016403E-01  0.89954430468E-01  0.51100000000E-03 0. -1.
         11    1    4    4    0    0  0.26391918242E-01 -0.11926633228E-01  0.24440855113E-01  0.37899794832E-01  0.51100000000E-03 0.  1.
</event>
<event>
 8    1  0.1145101E+005  0.1043930E+01  0.7957747E-01            NaN
         13   -1    0    0    0    0  0.00000000000E+00  0.00000000000E+00  0.74505805969E-08  0.10566000000E+00  0.10566000000E+00 0.  1.
     999900   -1    0    0    0    0 -0.00000000000E+00 -0.00000000000E+00 -0.74505805969E-08  0.93827000000E+00  0.93827000000E+00 0.  1.
     999902    2    1    2    0    0  0.22991763931E-02 -0.77858685650E-02 -0.22601097732E-01  0.10199150967E+01  0.10196323303E+01 0.  0.
     999903    2    3    3    0    0  0.79315900303E-01  0.63474019955E-01 -0.81776766887E-01  0.13170830362E+00  0.18430257437E-01 0.  0.
         14    1    1    2    0    0 -0.22991763931E-02  0.77858685650E-02  0.22601097732E-01  0.24014903291E-01  0.00000000000E+00 0.  1.
     999901    1    3    3    0    0 -0.77016723910E-01 -0.71259888520E-01  0.59175669155E-01  0.88820679309E+00  0.88000000000E+00 0. -1.
        -11    1    4    4    0    0  0.34554242189E-01  0.19334314510E-01 -0.39616387175E-01  0.56013664624E-01  0.51100000000E-03 0. -1.
         11    1    4    4    0    0  0.44761658114E-01  0.44139705445E-01 -0.42160379712E-01  0.75694638993E-01  0.51100000000E-03 0.  1.
</event>
<event>
 8    1  0.1145101E+005  0.1043930E+01  0.7957747E-01            NaN
         13   -1    0    0    0    0  0.00000000000E+00  0.00000000000E+00  0.74505805969E-08  0.10566000000E+00  0.10566000000E+00 0. -1.
     999900   -1    0    0    0    0 -0.00000000000E+00 -0.00000000000E+00 -0.74505805969E-08  0.93827000000E+00  0.93827000000E+00 0. -1.
     999902    2    1    2    0    0  0.13941058864E-01 -0.33635705223E-03  0.18426303987E-01  0.10208216695E+01  0.10205600845E+01 0.  0.
     999903    2    3    3    0    0 -0.30201295031E-02  0.11955753374E+00 -0.47378214095E-01  0.13009586349E+00  0.19419409580E-01 0.  0.
         14    1    1    2    0    0 -0.13941058864E-01  0.33635705223E-03 -0.18426303987E-01  0.23108330466E-01  0.00000000000E+00 0.  1.
     999901    1    3    3    0    0  0.16961188367E-01 -0.11989389079E+00  0.65804518082E-01  0.89072580605E+00  0.88000000000E+00 0. -1.
        -11    1    4    4    0    0 -0.49688141109E-02  0.61437701741E-01 -0.34102093550E-01  0.70444972953E-01  0.51100000000E-03 0. -1.
         11    1    4    4    0    0  0.19486846078E-02  0.58119832001E-01 -0.13276120545E-01  0.59650890532E-01  0.51100000000E-03 0.  1.
</event>
<event>
 7    1  0.1145101E+005  0.1043930E+01  0.7957747E-01            NaN
         13   -1    0    0    0    0  0.00000000000E+00  0.00000000000E+00  0.74505805969E-08  0.10566000000E+00  0.10566000000E+00 0. -1.
     999900   -1    0    0    0    0 -0.00000000000E+00 -0.00000000000E+00 -0.74505805969E-08  0.93827000000E+00  0.93827000000E+00 0. -1.
     999902    2    1    2    0    0  0.23920571169E-01 -0.43649461861E-03 -0.21719956497E-02  0.10199070564E+01  0.10196240984E+01 0.  0.
         14    1    1    2    0    0 -0.23920571169E-01  0.43649461861E-03  0.21719956497E-02  0.24022943568E-01  0.00000000000E+00 0.  1.
     999901    1    3    3    0    0 -0.53038246263E-01  0.52406634949E-01 -0.64640621550E-01  0.88551562432E+00  0.88000000000E+00 0. -1.
        -11    1    3    3    0    0  0.72279544236E-01 -0.25537018784E-01  0.13089694631E-01  0.77769358168E-01  0.51100000000E-03 0. -1.
         11    1    3    3    0    0  0.46792731956E-02 -0.27306110784E-01  0.49378931270E-01  0.56622073948E-01  0.51100000000E-03 0.  1.
</event>
<event>
 8    1  0.1145101E+005  0.1043930E+01  0.7957747E-01            NaN
         13   -1    0    0    0    0  0.00000000000E+00  0.00000000000E+00  0.74505805969E-08  0.10566000000E+00  0.10566000000E+00 0. -1.
     999900   -1    0    0    0    0 -0.00000000000E+00 -0.00000000000E+00 -0.74505805969E-08  0.93827000000E+00  0.93827000000E+00 0.  1.
     999902    2    1    2    0    0 -0.80809817582E-02  0.21950155370E-01 -0.49624052143E-02  0.10200189763E+01  0.10197386798E+01 0.  0.
     999903    2    3    3    0    0 -0.10281676542E-01  0.82444814527E-01 -0.10141700474E+00  0.13268142128E+00  0.20398293771E-01 0.  0.
         14    1    1    2    0    0  0.80809817582E-02 -0.21950155370E-01  0.49624052143E-02  0.23911023659E-01  0.00000000000E+00 0.  1.
     999901    1    3    3    0    0  0.22006947842E-02 -0.60494659157E-01  0.96454599525E-01  0.88733755506E+00  0.88000000000E+00 0. -1.
        -11    1    4    4    0    0 -0.12573519599E-01  0.28233741014E-01 -0.42920434490E-01  0.52892932841E-01  0.51100000000E-03 0. -1.
         11    1    4    4    0    0  0.22918430569E-02  0.54211073513E-01 -0.58496570250E-01  0.79788488443E-01  0.51100000000E-03 0.  1.
</event>
<event>
 8    1  0.1145101E+005  0.1043930E+01  0.7957747E-01            NaN
         13   -1    0    0    0    0  0.00000000000E+00  0.00000000000E+00  0.74505805969E-08  0.10566000000E+00  0.10566000000E+00 0. -1.
     999900   -1    0    0    0    0 -0.00000000000E+00 -0.00000000000E+00 -0.74505805969E-08  0.93827000000E+00  0.93827000000E+00 0. -1.
     999902    2    1    2    0    0 -0.13221168670E-01 -0.14224944242E-01  0.10081818910E-01  0.10220486972E+01  0.10218144391E+01 0.  0.
     999903    2    3    3    0    0 -0.69256908863E-01 -0.71302466137E-01  0.88931229591E-01  0.13490999483E+00  0.20282554205E-01 0.  0.
         14    1    1    2    0    0  0.13221168670E-01  0.14224944242E-01 -0.10081818910E-01  0.21881302800E-01  0.00000000000E+00 0.  1.
     999901    1    3    3    0    0  0.56035740194E-01  0.57077521895E-01 -0.78849410681E-01  0.88713870237E+00  0.88000000000E+00 0.  1.
        -11    1    4    4    0    0 -0.21337722423E-01 -0.34297238482E-01  0.42274257682E-01  0.58471984311E-01  0.51100000000E-03 0. -1.
         11    1    4    4    0    0 -0.47919186440E-01 -0.37005227655E-01  0.46656971909E-01  0.76438010516E-01  0.51100000000E-03 0.  1.
</event>
<event>
 8    1  0.1145101E+005  0.1043930E+01  0.7957747E-01            NaN
         13   -1    0    0    0    0  0.00000000000E+00  0.00000000000E+00  0.74505805969E-08  0.10566000000E+00  0.10566000000E+00 0. -1.
     999900   -1    0    0    0    0 -0.00000000000E+00 -0.00000000000E+00 -0.74505805969E-08  0.93827000000E+00  0.93827000000E+00 0. -1.
     999902    2    1    2    0    0 -0.13614348364E-01  0.10712325209E-01  0.15102032455E-01  0.10209479249E+01  0.10206892228E+01 0.  0.
     999903    2    3    3    0    0 -0.16069779954E-01  0.12984825984E+00 -0.74459449638E-02  0.13263052026E+00  0.20410889169E-01 0.  0.
         14    1    1    2    0    0  0.13614348364E-01 -0.10712325209E-01 -0.15102032455E-01  0.22982075125E-01  0.00000000000E+00 0. -1.
     999901    1    3    3    0    0  0.24554315906E-02 -0.11913593463E+00  0.22547977419E-01  0.88831740462E+00  0.88000000000E+00 0.  1.
        -11    1    4    4    0    0 -0.20897034249E-01  0.11117178851E+00 -0.67439151086E-02  0.11332075764E+00  0.51100000000E-03 0. -1.
         11    1    4    4    0    0  0.48272542951E-02  0.18676471328E-01 -0.70202985515E-03  0.19309762615E-01  0.51100000000E-03 0.  1.
</event>
<event>
 8    1  0.1145101E+005  0.1043930E+01  0.7957747E-01            NaN
         13   -1    0    0    0    0  0.00000000000E+00  0.00000000000E+00  0.74505805969E-08  0.10566000000E+00  0.10566000000E+00 0.  1.
     999900   -1    0    0    0    0 -0.00000000000E+00 -0.00000000000E+00 -0.74505805969E-08  0.93827000000E+00  0.93827000000E+00 0.  1.
     999902    2    1    2    0    0  0.10149955962E-01 -0.19210878318E-01  0.52441886159E-02  0.10215786921E+01  0.10213341486E+01 0.  0.
     999903    2    3    3    0    0  0.10077868103E+00  0.14255831987E-01 -0.81647403701E-01  0.13203738594E+00  0.20199045965E-01 0.  0.
         14    1    1    2    0    0 -0.10149955962E-01  0.19210878318E-01 -0.52441886159E-02  0.22351307926E-01  0.00000000000E+00 0.  1.
     999901    1    3    3    0    0 -0.90628725071E-01 -0.33466710305E-01  0.86891592316E-01  0.88954130614E+00  0.88000000000E+00 0. -1.
        -11    1    4    4    0    0  0.45694966717E-01  0.20276423835E-02 -0.25207955423E-01  0.52228760798E-01  0.51100000000E-03 0.  1.
         11    1    4    4    0    0  0.55083714316E-01  0.12228189604E-01 -0.56439448278E-01  0.79808625140E-01  0.51100000000E-03 0. -1.
</event>
<event>
 8    1  0.1145101E+005  0.1043930E+01  0.7957747E-01            NaN
         13   -1    0    0    0    0  0.00000000000E+00  0.00000000000E+00  0.74505805969E-08  0.10566000000E+00  0.10566000000E+00 0.  1.
     999900   -1    0    0    0    0 -0.00000000000E+00 -0.00000000000E+00 -0.74505805969E-08  0.93827000000E+00  0.93827000000E+00 0. -1.
     999902    2    1    2    0    0 -0.17107697432E-01  0.61612827707E-02  0.56489509170E-02  0.10248893760E+01  0.10247124902E+01 0.  0.
     999903    2    3    3    0    0  0.80118138463E-01  0.94108590967E-01  0.48053171640E-01  0.13416735979E+00  0.20406619596E-01 0.  0.
         14    1    1    2    0    0  0.17107697432E-01 -0.61612827707E-02 -0.56489509170E-02  0.19040624025E-01  0.00000000000E+00 0.  1.
     999901    1    3    3    0    0 -0.97225835895E-01 -0.87947308196E-01 -0.42404220723E-01  0.89072201619E+00  0.88000000000E+00 0. -1.
        -11    1    4    4    0    0  0.24830911419E-01  0.21827120634E-01  0.21230735183E-01  0.39293798423E-01  0.51100000000E-03 0.  1.
         11    1    4    4    0    0  0.55287227044E-01  0.72281470333E-01  0.26822436457E-01  0.94873561366E-01  0.51100000000E-03 0. -1.
</event>
<event>
 8    1  0.1145101E+005  0.1043930E+01  0.7957747E-01            NaN
         13   -1    0    0    0    0  0.00000000000E+00  0.00000000000E+00  0.74505805969E-08  0.10566000000E+00  0.10566000000E+00 0.  1.
     999900   -1    0    0    0    0 -0.00000000000E+00 -0.00000000000E+00 -0.74505805969E-08  0.93827000000E+00  0.93827000000E+00 0.  1.
     999902    2    1    2    0    0  0.17592448662E-01 -0.15782114669E-01  0.14249251980E-01  0.10163327071E+01  0.10159579524E+01 0.  0.
     999903    2    3    3    0    0 -0.70237521948E-01 -0.11590966710E-01  0.10379022811E+00  0.12742930635E+00  0.19953863445E-01 0.  0.
         14    1    1    2    0    0 -0.17592448662E-01  0.15782114669E-01 -0.14249251980E-01  0.27597292899E-01  0.00000000000E+00 0.  1.
     999901    1    3    3    0    0  0.87829970610E-01 -0.41911479588E-02 -0.89540976134E-01  0.88890340075E+00  0.88000000000E+00 0.  1.
        -11    1    4    4    0    0 -0.29535474849E-01  0.41966333873E-02  0.35469433262E-01  0.46349733800E-01  0.51100000000E-03 0. -1.
         11    1    4    4    0    0 -0.40702047099E-01 -0.15787600098E-01  0.68320794852E-01  0.81079572551E-01  0.51100000000E-03 0.  1.
</event>
<event>
 8    1  0.1145101E+005  0.1043930E+01  0.7957747E-01            NaN
         13   -1    0    0    0    0  0.00000000000E+00  0.00000000000E+00  0.74505805969E-08  0.10566000000E+00  0.10566000000E+00 0. -1.
     999900   -1    0    0    0    0 -0.00000000000E+00 -0.00000000000E+00 -0.74505805969E-08  0.93827000000E+00  0.93827000000E+00 0. -1.
     999902    2    1    2    0    0 -0.20730563555E-01  0.84287468989E-02 -0.54255023809E-02  0.10209031436E+01  0.10206434208E+01 0.  0.
     999903    2    3    3    0    0  0.59879932908E-02 -0.78198236984E-01 -0.10258361791E+00  0.13092684334E+00  0.21624507197E-01 0.  0.
         14    1    1    2    0    0  0.20730563555E-01 -0.84287468989E-02  0.54255023809E-02  0.23026856400E-01  0.00000000000E+00 0. -1.
     999901    1    3    3    0    0 -0.26718556846E-01  0.86626983883E-01  0.97158115530E-01  0.88997630026E+00  0.88000000000E+00 0.  1.
        -11    1    4    4    0    0  0.10575012919E-01 -0.17437956523E-01 -0.26938916478E-01  0.33791708568E-01  0.51100000000E-03 0.  1.
         11    1    4    4    0    0 -0.45870196281E-02 -0.60760280461E-01 -0.75644701433E-01  0.97135134769E-01  0.51100000000E-03 0. -1.
</event>
<event>
 8    1  0.1145101E+005  0.1043930E+01  0.7957747E-01            NaN
         13   -1    0    0    0    0  0.00000000000E+00  0.00000000000E+00  0.74505805969E-08  0.10566000000E+00  0.10566000000E+00 0.  1.
     999900   -1    0    0    0    0 -0.00000000000E+00 -0.00000000000E+00 -0.74505805969E-08  0.93827000000E+00  0.93827000000E+00 0.  1.
     999902    2    1    2    0    0 -0.20674049533E-01  0.26899652895E-03 -0.90084038572E-02  0.10213769509E+01  0.10211279233E+01 0.  0.
     999903    2    3    3    0    0 -0.36161487055E-01  0.94972056270E-01  0.81187802555E-01  0.13157703750E+00  0.19842199890E-01 0.  0.
         14    1    1    2    0    0  0.20674049533E-01 -0.26899652895E-03  0.90084038572E-02  0.22553049091E-01  0.00000000000E+00 0. -1.
     999901    1    3    3    0    0  0.15487437522E-01 -0.94703059741E-01 -0.90196206412E-01  0.88979991341E+00  0.88000000000E+00 0. -1.
        -11    1    4    4    0    0 -0.16874222075E-01  0.54239117930E-01  0.33443774043E-01  0.65919408581E-01  0.51100000000E-03 0.  1.
         11    1    4    4    0    0 -0.19287264980E-01  0.40732938340E-01  0.47744028512E-01  0.65657628923E-01  0.51100000000E-03 0. -1.
</event>
<event>
 8    1  0.1145101E+005  0.1043930E+01  0.7957747E-01            NaN
         13   -1    0    0    0    0  0.00000000000E+00  0.00000000000E+00  0.74505805969E-08  0.10566000000E+00  0.10566000000E+00 0.  1.
     999900   -1    0    0    0    0 -0.00000000000E+00 -0.00000000000E+00 -0.74505805969E-08  0.93827000000E+00  0.93827000000E+00 0. -1.
     999902    2    1    2    0    0  0.21718862956E-01 -0.94343144001E-03  0.86015525312E-02  0.10205508260E+01  0.10202830013E+01 0.  0.
     999903    2    3    3    0    0  0.90409251601E-01  0.94682463071E-01  0.90588214555E-02  0.13270912260E+00  0.19774918152E-01 0.  0.
         14    1    1    2    0    0 -0.21718862956E-01  0.94343144001E-03 -0.86015525312E-02  0.23379174000E-01  0.00000000000E+00 0. -1.
     999901    1    3    3    0    0 -0.68690388645E-01 -0.95625894511E-01 -0.45726892430E-03  0.88784170340E+00  0.88000000000E+00 0. -1.
        -11    1    4    4    0    0  0.69753189184E-01  0.69821005962E-01 -0.14845126244E-02  0.98706358324E-01  0.51100000000E-03 0. -1.
         11    1    4    4    0    0  0.20656062417E-01  0.24861457109E-01  0.10543334080E-01  0.34002764280E-01  0.51100000000E-03 0.  1.
</event>
<event>
 8    1  0.1145101E+005  0.1043930E+01  0.7957747E-01            NaN
         13   -1    0    0    0    0  0.00000000000E+00  0.00000000000E+00  0.74505805969E-08  0.10566000000E+00  0.10566000000E+00 0.  1.
     999900   -1    0    0    0    0 -0.00000000000E+00 -0.00000000000E+00 -0.74505805969E-08  0.93827000000E+00  0.93827000000E+00 0. -1.
     999902    2    1    2    0    0 -0.21453260567E-01  0.93291535164E-04  0.96585515904E-02  0.10204025966E+01  0.10201313251E+01 0.  0.
     999903    2    3    3    0    0 -0.87148068610E-01 -0.95068761791E-01  0.24488907427E-01  0.13271370759E+00  0.19502980937E-01 0.  0.
         14    1    1    2    0    0  0.21453260567E-01 -0.93291535165E-04 -0.96585515904E-02  0.23527403407E-01  0.00000000000E+00 0. -1.
     999901    1    3    3    0    0  0.65694808043E-01  0.95162053326E-01 -0.14830355837E-01  0.88768888900E+00  0.88000000000E+00 0. -1.
        -11    1    4    4    0    0 -0.35666121312E-01 -0.31779848576E-01  0.17312495725E-01  0.50813527866E-01  0.51100000000E-03 0.  1.
         11    1    4    4    0    0 -0.51481947298E-01 -0.63288913216E-01  0.71764117023E-02  0.81900179728E-01  0.51100000000E-03 0. -1.
</event>
<event>
 8    1  0.1145101E+005  0.1043930E+01  0.7957747E-01            NaN
         13   -1    0    0    0    0  0.00000000000E+00  0.00000000000E+00  0.74505805969E-08  0.10566000000E+00  0.10566000000E+00 0.  1.
     999900   -1    0    0    0    0 -0.00000000000E+00 -0.00000000000E+00 -0.74505805969E-08  0.93827000000E+00  0.93827000000E+00 0. -1.
     999902    2    1    2    0    0  0.13881645441E-01  0.18762804932E-01  0.55600356298E-02  0.10199371485E+01  0.10196549072E+01 0.  0.
     999903    2    3    3    0    0 -0.71176961903E-01 -0.44262228760E-01 -0.92174090133E-01  0.12822021978E+00  0.30315953996E-01 0.  0.
         14    1    1    2    0    0 -0.13881645441E-01 -0.18762804932E-01 -0.55600356298E-02  0.23992851545E-01  0.00000000000E+00 0. -1.
     999901    1    3    3    0    0  0.85058607345E-01  0.63025033691E-01  0.97734125763E-01  0.89171692868E+00  0.88000000000E+00 0.  1.
        -11    1    4    4    0    0 -0.16969617764E-01 -0.24406865420E-01 -0.20157448767E-01  0.35920006521E-01  0.51100000000E-03 0. -1.
         11    1    4    4    0    0 -0.54207344140E-01 -0.19855363339E-01 -0.72016641367E-01  0.92300213254E-01  0.51100000000E-03 0.  1.
</event>
<event>
 8    1  0.1145101E+005  0.1043930E+01  0.7957747E-01            NaN
         13   -1    0    0    0    0  0.00000000000E+00  0.00000000000E+00  0.74505805969E-08  0.10566000000E+00  0.10566000000E+00 0. -1.
     999900   -1    0    0    0    0 -0.00000000000E+00 -0.00000000000E+00 -0.74505805969E-08  0.93827000000E+00  0.93827000000E+00 0.  1.
     999902    2    1    2    0    0  0.91956364512E-02  0.20330663616E-01  0.36546851665E-02  0.10213191102E+01  0.10210687893E+01 0.  0.
     999903    2    3    3    0    0  0.62538120966E-01 -0.94288129258E-01  0.61711260554E-01  0.13039068758E+00  0.19803631855E-01 0.  0.
         14    1    1    2    0    0 -0.91956364512E-02 -0.20330663616E-01 -0.36546851665E-02  0.22610889776E-01  0.00000000000E+00 0.  1.
     999901    1    3    3    0    0 -0.53342484514E-01  0.11461879287E+00 -0.58056575388E-01  0.89092842265E+00  0.88000000000E+00 0.  1.
        -11    1    4    4    0    0  0.30578462854E-01 -0.33666292044E-01  0.16966834493E-01  0.48544785551E-01  0.51100000000E-03 0. -1.
         11    1    4    4    0    0  0.31959658112E-01 -0.60621837215E-01  0.44744426061E-01  0.81845902026E-01  0.51100000000E-03 0.  1.
</event>
<event>
 8    1  0.1145101E+005  0.1043930E+01  0.7957747E-01            NaN
         13   -1    0    0    0    0  0.00000000000E+00  0.00000000000E+00  0.74505805969E-08  0.10566000000E+00  0.10566000000E+00 0. -1.
     999900   -1    0    0    0    0 -0.00000000000E+00 -0.00000000000E+00 -0.74505805969E-08  0.93827000000E+00  0.93827000000E+00 0. -1.
     999902    2    1    2    0    0  0.21595865737E-01  0.52445332969E-02  0.16614287492E-02  0.10216444241E+01  0.10214013327E+01 0.  0.
     999903    2    3    3    0    0  0.24718256477E-02  0.11890105786E+00 -0.54867656203E-01  0.13233060329E+00  0.18903898732E-01 0.  0.
         14    1    1    2    0    0 -0.21595865737E-01 -0.52445332969E-02 -0.16614287492E-02  0.22285575871E-01  0.00000000000E+00 0. -1.
     999901    1    3    3    0    0  0.19124040089E-01 -0.11365652457E+00  0.56529084952E-01  0.88931382084E+00  0.88000000000E+00 0.  1.
        -11    1    4    4    0    0  0.50155517349E-02  0.83447300273E-01 -0.47059220441E-01  0.95934555982E-01  0.51100000000E-03 0. -1.
         11    1    4    4    0    0 -0.25437260872E-02  0.35453757591E-01 -0.78084357622E-02  0.36396047310E-01  0.51100000000E-03 0.  1.
</event>
<event>
 8    1  0.1145101E+005  0.1043930E+01  0.7957747E-01            NaN
         13   -1    0    0    0    0  0.00000000000E+00  0.00000000000E+00  0.74505805969E-08  0.10566000000E+00  0.10566000000E+00 0.  1.
     999900   -1    0    0    0    0 -0.00000000000E+00 -0.00000000000E+00 -0.74505805969E-08  0.93827000000E+00  0.93827000000E+00 0.  1.
     999902    2    1    2    0    0 -0.14350092889E-01 -0.21089241041E-01 -0.61920406022E-02  0.10176807596E+01  0.10173421774E+01 0.  0.
     999903    2    3    3    0    0 -0.25813705516E-01  0.12011801560E+00  0.18721386392E-01  0.12600167913E+00  0.20766505967E-01 0.  0.
         14    1    1    2    0    0  0.14350092889E-01  0.21089241041E-01  0.61920406022E-02  0.26249240378E-01  0.00000000000E+00 0. -1.
     999901    1    3    3    0    0  0.11463612627E-01 -0.14120725664E+00 -0.24913426994E-01  0.89167908049E+00  0.88000000000E+00 0.  1.
        -11    1    4    4    0    0 -0.38007949228E-02  0.47797631622E-01 -0.67118032158E-03  0.47955930131E-01  0.51100000000E-03 0.  1.
         11    1    4    4    0    0 -0.22012910593E-01  0.72320383981E-01  0.19392566714E-01  0.78045748998E-01  0.51100000000E-03 0. -1.
</event>
<event>
 7    1  0.1145101E+005  0.1043930E+01  0.7957747E-01            NaN
         13   -1    0    0    0    0  0.00000000000E+00  0.00000000000E+00  0.74505805969E-08  0.10566000000E+00  0.10566000000E+00 0.  1.
     999900   -1    0    0    0    0 -0.00000000000E+00 -0.00000000000E+00 -0.74505805969E-08  0.93827000000E+00  0.93827000000E+00 0.  1.
     999903    2    1    2    0    0  0.25772049793E-01 -0.86726644246E-01  0.42414685825E-01  0.10196496544E+00  0.20301212568E-01 0.  0.
         14    1    1    2    0    0  0.84226693973E-02  0.56301890651E-02  0.51606135940E-01  0.52591193705E-01  0.00000000000E+00 0.  1.
     999901    1    1    2    0    0 -0.34194719190E-01  0.81096455181E-01 -0.94020821765E-01  0.88937384085E+00  0.88000000000E+00 0.  1.
        -11    1    3    3    0    0  0.17778543590E-01 -0.30212533385E-01  0.10640892125E-01  0.36638279053E-01  0.51100000000E-03 0. -1.
         11    1    3    3    0    0  0.79935062028E-02 -0.56514110862E-01  0.31773793699E-01  0.65326686392E-01  0.51100000000E-03 0.  1.
</event>
<event>
 8    1  0.1145101E+005  0.1043930E+01  0.7957747E-01            NaN
         13   -1    0    0    0    0  0.00000000000E+00  0.00000000000E+00  0.74505805969E-08  0.10566000000E+00  0.10566000000E+00 0. -1.
     999900   -1    0    0    0    0 -0.00000000000E+00 -0.00000000000E+00 -0.74505805969E-08  0.93827000000E+00  0.93827000000E+00 0.  1.
     999902    2    1    2    0    0 -0.81367840171E-02  0.21035853170E-01  0.10981760701E-01  0.10188438795E+01  0.10185349957E+01 0.  0.
     999903    2    3    3    0    0  0.45655768104E-01  0.82757360229E-01  0.89340512188E-01  0.13157657085E+00  0.19935823162E-01 0.  0.
         14    1    1    2    0    0  0.81367840171E-02 -0.21035853170E-01 -0.10981760701E-01  0.25086120482E-01  0.00000000000E+00 0. -1.
     999901    1    3    3    0    0 -0.53792552122E-01 -0.61721507059E-01 -0.78358751487E-01  0.88726730867E+00  0.88000000000E+00 0.  1.
        -11    1    4    4    0    0  0.24885100724E-01  0.25455278598E-01  0.31105264222E-01  0.47276188826E-01  0.51100000000E-03 0. -1.
         11    1    4    4    0    0  0.20770667380E-01  0.57302081631E-01  0.58235247966E-01  0.84300382024E-01  0.51100000000E-03 0.  1.
</event>
<event>
 8    1  0.1145101E+005  0.1043930E+01  0.7957747E-01            NaN
         13   -1    0    0    0    0  0.00000000000E+00  0.00000000000E+00  0.74505805969E-08  0.10566000000E+00  0.10566000000E+00 0. -1.
     999900   -1    0    0    0    0 -0.00000000000E+00 -0.00000000000E+00 -0.74505805969E-08  0.93827000000E+00  0.93827000000E+00 0. -1.
     999902    2    1    2    0    0 -0.17069705198E-01 -0.13624066570E-01 -0.83253293348E-02  0.10205569143E+01  0.10202892307E+01 0.  0.
     999903    2    3    3    0    0 -0.28758178333E-01  0.74331754284E-01 -0.10228377170E+00  0.13111830727E+00  0.19437027376E-01 0.  0.
         14    1    1    2    0    0  0.17069705198E-01  0.13624066570E-01  0.83253293348E-02  0.23373085675E-01  0.00000000000E+00 0. -1.
     999901    1    3    3    0    0  0.11688473135E-01 -0.87955820854E-01  0.93958442362E-01  0.88943860705E+00  0.88000000000E+00 0.  1.
        -11    1    4    4    0    0 -0.29342866629E-02  0.28727909694E-01 -0.45049832131E-01  0.53513094936E-01  0.51100000000E-03 0.  1.
         11    1    4    4    0    0 -0.25823891670E-01  0.45603844591E-01 -0.57233939565E-01  0.77605212335E-01  0.51100000000E-03 0. -1.
</event>
<event>
 8    1  0.1145101E+005  0.1043930E+01  0.7957747E-01            NaN
         13   -1    0    0    0    0  0.00000000000E+00  0.00000000000E+00  0.74505805969E-08  0.10566000000E+00  0.10566000000E+00 0.  1.
     999900   -1    0    0    0    0 -0.00000000000E+00 -0.00000000000E+00 -0.74505805969E-08  0.93827000000E+00  0.93827000000E+00 0. -1.
     999902    2    1    2    0    0 -0.11979676072E-01 -0.55045180254E-02  0.19640087312E-01  0.10202752883E+01  0.10200010385E+01 0.  0.
     999903    2    3    3    0    0  0.24437388518E-01 -0.11725112147E+00  0.51475489448E-01  0.13189080011E+00  0.20011139310E-01 0.  0.
         14    1    1    2    0    0  0.11979676072E-01  0.55045180254E-02 -0.19640087312E-01  0.23654711731E-01  0.00000000000E+00 0. -1.
     999901    1    3    3    0    0 -0.36417064590E-01  0.11174660344E+00 -0.31835402137E-01  0.88838448816E+00  0.88000000000E+00 0. -1.
        -11    1    4    4    0    0  0.19199395264E-03 -0.46718607023E-01  0.16938254455E-01  0.49697391167E-01  0.51100000000E-03 0. -1.
         11    1    4    4    0    0  0.24245394566E-01 -0.70532514445E-01  0.34537234994E-01  0.82193408942E-01  0.51100000000E-03 0.  1.
</event>
<event>
 8    1  0.1145101E+005  0.1043930E+01  0.7957747E-01            NaN
         13   -1    0    0    0    0  0.00000000000E+00  0.00000000000E+00  0.74505805969E-08  0.10566000000E+00  0.10566000000E+00 0.  1.
     999900   -1    0    0    0    0 -0.00000000000E+00 -0.00000000000E+00 -0.74505805969E-08  0.93827000000E+00  0.93827000000E+00 0.  1.
     999902    2    1    2    0    0 -0.81817056916E-02 -0.21136999181E-01 -0.85207010824E-02  0.10197160497E+01  0.10194285196E+01 0.  0.
     999903    2    3    3    0    0  0.10106979472E+00 -0.51901955795E-01 -0.61635825559E-01  0.13083833631E+00  0.20267679597E-01 0.  0.
         14    1    1    2    0    0  0.81817056916E-02  0.21136999181E-01  0.85207010824E-02  0.24213950304E-01  0.00000000000E+00 0.  1.
     999901    1    3    3    0    0 -0.10925150042E+00  0.30764956615E-01  0.53115124477E-01  0.88887771338E+00  0.88000000000E+00 0. -1.
        -11    1    4    4    0    0  0.69996625152E-01 -0.27049408834E-01 -0.33971644602E-01  0.82374339505E-01  0.51100000000E-03 0.  1.
         11    1    4    4    0    0  0.31073169572E-01 -0.24852546961E-01 -0.27664180957E-01  0.48463996809E-01  0.51100000000E-03 0. -1.
</event>
<event>
 8    1  0.1145101E+005  0.1043930E+01  0.7957747E-01            NaN
         13   -1    0    0    0    0  0.00000000000E+00  0.00000000000E+00  0.74505805969E-08  0.10566000000E+00  0.10566000000E+00 0. -1.
     999900   -1    0    0    0    0 -0.00000000000E+00 -0.00000000000E+00 -0.74505805969E-08  0.93827000000E+00  0.93827000000E+00 0.  1.
     999902    2    1    2    0    0 -0.12734401986E-01  0.72892122001E-02 -0.18729181291E-01  0.10201375676E+01  0.10198600771E+01 0.  0.
     999903    2    3    3    0    0  0.96595328904E-01  0.49871714005E-01 -0.70339046382E-01  0.13085142821E+00  0.18885692829E-01 0.  0.
         14    1    1    2    0    0  0.12734401986E-01 -0.72892122001E-02  0.18729181291E-01  0.23792432416E-01  0.00000000000E+00 0. -1.
     999901    1    3    3    0    0 -0.10932973089E+00 -0.42582501805E-01  0.51609865091E-01  0.88928613938E+00  0.88000000000E+00 0. -1.
        -11    1    4    4    0    0  0.25874631974E-01  0.46961206130E-02 -0.19383809650E-01  0.32673281534E-01  0.51100000000E-03 0.  1.
         11    1    4    4    0    0  0.70720696929E-01  0.45175593392E-01 -0.50955236732E-01  0.98178146672E-01  0.51100000000E-03 0. -1.
</event>
<event>
 8    1  0.1145101E+005  0.1043930E+01  0.7957747E-01            NaN
         13   -1    0    0    0    0  0.00000000000E+00  0.00000000000E+00  0.74505805969E-08  0.10566000000E+00  0.10566000000E+00 0.  1.
     999900   -1    0    0    0    0 -0.00000000000E+00 -0.00000000000E+00 -0.74505805969E-08  0.93827000000E+00  0.93827000000E+00 0. -1.
     999902    2    1    2    0    0  0.12593309122E-01 -0.20372534261E-01 -0.52461260636E-02  0.10194115697E+01  0.10191166739E+01 0.  0.
     999903    2    3    3    0    0  0.81438776901E-01 -0.25583376047E-01  0.97408236100E-01  0.13075822367E+00  0.17960096962E-01 0.  0.
         14    1    1    2    0    0 -0.12593309122E-01  0.20372534261E-01  0.52461260636E-02  0.24518430323E-01  0.00000000000E+00 0.  1.
     999901    1    3    3    0    0 -0.68845467779E-01  0.52108417868E-02 -0.10265436216E+00  0.88865334601E+00  0.88000000000E+00 0. -1.
        -11    1    4    4    0    0  0.33453744872E-01 -0.22438662252E-02  0.32090311666E-01  0.46413760949E-01  0.51100000000E-03 0. -1.
         11    1    4    4    0    0  0.47985032029E-01 -0.23339509822E-01  0.65317924434E-01  0.84344462717E-01  0.51100000000E-03 0.  1.
</event>
<event>
 8    1  0.1145101E+005  0.1043930E+01  0.7957747E-01            NaN
         13   -1    0    0    0    0  0.00000000000E+00  0.00000000000E+00  0.74505805969E-08  0.10566000000E+00  0.10566000000E+00 0. -1.
     999900   -1    0    0    0    0 -0.00000000000E+00 -0.00000000000E+00 -0.74505805969E-08  0.93827000000E+00  0.93827000000E+00 0.  1.
     999902    2    1    2    0    0  0.81108579409E-02 -0.12812208141E-01  0.17924699001E-01  0.10204516370E+01  0.10201815083E+01 0.  0.
     999903    2    3    3    0    0 -0.12734034292E+00 -0.17650330016E-01 -0.11149925747E-02  0.12987151985E+00  0.18392155288E-01 0.  0.
         14    1    1    2    0    0 -0.81108579409E-02  0.12812208141E-01 -0.17924699001E-01  0.23478362981E-01  0.00000000000E+00 0.  1.
     999901    1    3    3    0    0  0.13545120086E+00  0.48381218752E-02  0.19039691576E-01  0.89058011717E+00  0.88000000000E+00 0.  1.
        -11    1    4    4    0    0 -0.11697745398E+00 -0.16425002815E-01 -0.61250922010E-02  0.11828475529E+00  0.51100000000E-03 0. -1.
         11    1    4    4    0    0 -0.10362888936E-01 -0.12253272015E-02  0.50100996263E-02  0.11586764566E-01  0.51100000000E-03 0.  1.
</event>
<event>
 8    1  0.1145101E+005  0.1043930E+01  0.7957747E-01            NaN
         13   -1    0    0    0    0  0.00000000000E+00  0.00000000000E+00  0.74505805969E-08  0.10566000000E+00  0.10566000000E+00 0.  1.
     999900   -1    0    0    0    0 -0.00000000000E+00 -0.00000000000E+00 -0.74505805969E-08  0.93827000000E+00  0.93827000000E+00 0. -1.
     999902    2    1    2    0    0 -0.73461191390E-02  0.11243243728E-01 -0.20066167916E-01  0.10197840461E+01  0.10194981479E+01 0.  0.
     999903    2    3    3    0    0  0.92175759725E-01 -0.20790458891E-01  0.83601674655E-01  0.12755213449E+00  0.18753483561E-01 0.  0.
         14    1    1    2    0    0  0.73461191390E-02 -0.11243243728E-01  0.20066167916E-01  0.24145953922E-01  0.00000000000E+00 0. -1.
     999901    1    3    3    0    0 -0.99521878864E-01  0.32033702619E-01 -0.10366784257E+00  0.89223191159E+00  0.88000000000E+00 0.  1.
        -11    1    4    4    0    0  0.67373958517E-01 -0.22958509506E-01  0.57780741231E-01  0.91679979402E-01  0.51100000000E-03 0. -1.
         11    1    4    4    0    0  0.24801801209E-01  0.21680506158E-02  0.25820933424E-01  0.35872155086E-01  0.51100000000E-03 0.  1.
</event>
<event>
 8    1  0.1145101E+005  0.1043930E+01  0.7957747E-01            NaN
         13   -1    0    0    0    0  0.00000000000E+00  0.00000000000E+00  0.74505805969E-08  0.10566000000E+00  0.10566000000E+00 0.  1.
     999900   -1    0    0    0    0 -0.00000000000E+00 -0.00000000000E+00 -0.74505805969E-08  0.93827000000E+00  0.93827000000E+00 0. -1.
     999902    2    1    2    0    0  0.22330630793E-01  0.25214760946E-03  0.45716355193E-02  0.10211348141E+01  0.10208803495E+01 0.  0.
     999903    2    3    3    0    0  0.10535284073E+00 -0.43748929243E-01 -0.65956364239E-01  0.13332685012E+00  0.20312979096E-01 0.  0.
         14    1    1    2    0    0 -0.22330630793E-01 -0.25214760946E-03 -0.45716355193E-02  0.22795185925E-01  0.00000000000E+00 0.  1.
     999901    1    3    3    0    0 -0.83022209940E-01  0.44001076853E-01  0.70527999758E-01  0.88780796395E+00  0.88000000000E+00 0. -1.
        -11    1    4    4    0    0  0.85776969634E-01 -0.28765726246E-01 -0.45402570960E-01  0.10122652862E+00  0.51100000000E-03 0. -1.
         11    1    4    4    0    0  0.19575871098E-01 -0.14983202998E-01 -0.20553793279E-01  0.32100321501E-01  0.51100000000E-03 0.  1.
</event>
<event>
 8    1  0.1145101E+005  0.1043930E+01  0.7957747E-01            NaN
         13   -1    0    0    0    0  0.00000000000E+00  0.00000000000E+00  0.74505805969E-08  0.10566000000E+00  0.10566000000E+00 0. -1.
     999900   -1    0    0    0    0 -0.00000000000E+00 -0.00000000000E+00 -0.74505805969E-08  0.93827000000E+00  0.93827000000E+00 0. -1.
     999902    2    1    2    0    0 -0.16976448119E-01 -0.16122069222E-01 -0.45109589630E-02  0.10200873983E+01  0.10198087225E+01 0.  0.
     999903    2    3    3    0    0  0.97173209702E-01 -0.83695349491E-01 -0.57947370284E-02  0.13014473681E+00  0.21366547039E-01 0.  0.
         14    1    1    2    0    0  0.16976448119E-01  0.16122069222E-01  0.45109589630E-02  0.23842601735E-01  0.00000000000E+00 0.  1.
     999901    1    3    3    0    0 -0.11414965782E+00  0.67573280269E-01  0.12837780654E-02  0.88994266145E+00  0.88000000000E+00 0.  1.
        -11    1    4    4    0    0  0.34948550792E-01 -0.43868344546E-01 -0.80707772560E-03  0.56095858591E-01  0.51100000000E-03 0.  1.
         11    1    4    4    0    0  0.62224658910E-01 -0.39827004945E-01 -0.49876593028E-02  0.74048878221E-01  0.51100000000E-03 0. -1.
</event>
<event>
 8    1  0.1145101E+005  0.1043930E+01  0.7957747E-01            NaN
         13   -1    0    0    0    0  0.00000000000E+00  0.00000000000E+00  0.74505805969E-08  0.10566000000E+00  0.10566000000E+00 0.  1.
     999900   -1    0    0    0    0 -0.00000000000E+00 -0.00000000000E+00 -0.74505805969E-08  0.93827000000E+00  0.93827000000E+00 0. -1.
     999902    2    1    2    0    0 -0.15771686260E-01  0.17508814081E-01  0.82662918362E-02  0.10189572901E+01  0.10186512273E+01 0.  0.
     999903    2    3    3    0    0  0.48666190465E-01 -0.20795680909E-01  0.11621412757E+00  0.12919765430E+00  0.19632931301E-01 0.  0.
         14    1    1    2    0    0  0.15771686260E-01 -0.17508814081E-01 -0.82662918362E-02  0.24972709879E-01  0.00000000000E+00 0. -1.
     999901    1    3    3    0    0 -0.64437876724E-01  0.38304494990E-01 -0.10794783573E+00  0.88975963582E+00  0.88000000000E+00 0. -1.
        -11    1    4    4    0    0  0.30486937263E-01 -0.22722430390E-01  0.82523726069E-01  0.90863571754E-01  0.51100000000E-03 0.  1.
         11    1    4    4    0    0  0.18179253201E-01  0.19267494808E-02  0.33690401501E-01  0.38334082548E-01  0.51100000000E-03 0. -1.
</event>
<event>
 8    1  0.1145101E+005  0.1043930E+01  0.7957747E-01            NaN
         13   -1    0    0    0    0  0.00000000000E+00  0.00000000000E+00  0.74505805969E-08  0.10566000000E+00  0.10566000000E+00 0.  1.
     999900   -1    0    0    0    0 -0.00000000000E+00 -0.00000000000E+00 -0.74505805969E-08  0.93827000000E+00  0.93827000000E+00 0. -1.
     999902    2    1    2    0    0 -0.13107065711E-01 -0.14688646462E-01  0.12935722954E-01  0.10203740149E+01  0.10201020762E+01 0.  0.
     999903    2    3    3    0    0  0.65005173799E-01 -0.98123800059E-01  0.56357888197E-01  0.13192118482E+00  0.19314105812E-01 0.  0.
         14    1    1    2    0    0  0.13107065711E-01  0.14688646462E-01 -0.12935722954E-01  0.23555985116E-01  0.00000000000E+00 0. -1.
     999901    1    3    3    0    0 -0.78112239510E-01  0.83435153597E-01 -0.43422165243E-01  0.88845283007E+00  0.88000000000E+00 0. -1.
        -11    1    4    4    0    0  0.30685903871E-01 -0.30061903298E-01  0.22783858095E-01  0.48628263767E-01  0.51100000000E-03 0.  1.
         11    1    4    4    0    0  0.34319269927E-01 -0.68061896761E-01  0.33574030102E-01  0.83292921051E-01  0.51100000000E-03 0. -1.
</event>
<event>
 8    1  0.1145101E+005  0.1043930E+01  0.7957747E-01            NaN
         13   -1    0    0    0    0  0.00000000000E+00  0.00000000000E+00  0.74505805969E-08  0.10566000000E+00  0.10566000000E+00 0.  1.
     999900   -1    0    0    0    0 -0.00000000000E+00 -0.00000000000E+00 -0.74505805969E-08  0.93827000000E+00  0.93827000000E+00 0. -1.
     999902    2    1    2    0    0 -0.23587956988E-01 -0.52121461787E-02 -0.16764209149E-02  0.10197149516E+01  0.10194273951E+01 0.  0.
     999903    2    3    3    0    0 -0.81771742153E-01  0.10068535145E+00  0.27525138861E-02  0.13144739712E+00  0.21134901574E-01 0.  0.
         14    1    1    2    0    0  0.23587956988E-01  0.52121461787E-02  0.16764209149E-02  0.24215048415E-01  0.00000000000E+00 0. -1.
     999901    1    3    3    0    0  0.58183785165E-01 -0.10589749763E+00 -0.44289348010E-02  0.88826755447E+00  0.88000000000E+00 0.  1.
        -11    1    4    4    0    0 -0.71472979467E-01  0.75499766697E-01  0.53892952238E-02  0.10410526975E+00  0.51100000000E-03 0. -1.
         11    1    4    4    0    0 -0.10298762686E-01  0.25185584753E-01 -0.26367813377E-02  0.27342127368E-01  0.51100000000E-03 0.  1.
</event>
<event>
 8    1  0.1145101E+005  0.1043930E+01  0.7957747E-01            NaN
         13   -1    0    0    0    0  0.00000000000E+00  0.00000000000E+00  0.74505805969E-08  0.10566000000E+00  0.10566000000E+00 0. -1.
     999900   -1    0    0    0    0 -0.00000000000E+00 -0.00000000000E+00 -0.74505805969E-08  0.93827000000E+00  0.93827000000E+00 0.  1.
     999902    2    1    2    0    0 -0.17942588412E-01 -0.15200597316E-01  0.73745784751E-02  0.10192849387E+01  0.10189869515E+01 0.  0.
     999903    2    3    3    0    0 -0.39963729744E-01 -0.12413900692E+00  0.14540033889E-01  0.13226529322E+00  0.16586213295E-01 0.  0.
         14    1    1    2    0    0  0.17942588412E-01  0.15200597316E-01 -0.73745784751E-02  0.24645061277E-01  0.00000000000E+00 0.  1.
     999901    1    3    3    0    0  0.22021141332E-01  0.10893840960E+00 -0.71654554144E-02  0.88701964550E+00  0.88000000000E+00 0.  1.
        -11    1    4    4    0    0 -0.34606226275E-01 -0.11424319365E+00  0.89928895467E-02  0.11970894443E+00  0.51100000000E-03 0.  1.
         11    1    4    4    0    0 -0.53575034685E-02 -0.98958132660E-02  0.55471443428E-02  0.12556348791E-01  0.51100000000E-03 0. -1.
</event>
<event>
 8    1  0.1145101E+005  0.1043930E+01  0.7957747E-01            NaN
         13   -1    0    0    0    0  0.00000000000E+00  0.00000000000E+00  0.74505805969E-08  0.10566000000E+00  0.10566000000E+00 0.  1.
     999900   -1    0    0    0    0 -0.00000000000E+00 -0.00000000000E+00 -0.74505805969E-08  0.93827000000E+00  0.93827000000E+00 0.  1.
     999902    2    1    2    0    0 -0.15131572985E-01 -0.17975263022E-01  0.73769475586E-03  0.10204221550E+01  0.10201513396E+01 0.  0.
     999903    2    3    3    0    0 -0.17680935478E-01  0.10214753873E+00 -0.74919139164E-01  0.12904123574E+00  0.17088825587E-01 0.  0.
         14    1    1    2    0    0  0.15131572985E-01  0.17975263022E-01 -0.73769475586E-03  0.23507844973E-01  0.00000000000E+00 0. -1.
     999901    1    3    3    0    0  0.25493624935E-02 -0.12012280175E+00  0.75656833920E-01  0.89138091929E+00  0.88000000000E+00 0. -1.
        -11    1    4    4    0    0 -0.13843035999E-01  0.97838659967E-01 -0.73278771453E-01  0.12302061818E+00  0.51100000000E-03 0. -1.
         11    1    4    4    0    0 -0.38378994793E-02  0.43088787643E-02 -0.16403677108E-02  0.60206175635E-02  0.51100000000E-03 0.  1.
</event>
<event>
 8    1  0.1145101E+005  0.1043930E+01  0.7957747E-01            NaN
         13   -1    0    0    0    0  0.00000000000E+00  0.00000000000E+00  0.74505805969E-08  0.10566000000E+00  0.10566000000E+00 0.  1.
     999900   -1    0    0    0    0 -0.00000000000E+00 -0.00000000000E+00 -0.74505805969E-08  0.93827000000E+00  0.93827000000E+00 0.  1.
     999902    2    1    2    0    0 -0.21622885270E-01  0.93291679251E-02 -0.55417592001E-02  0.10197371573E+01  0.10194501343E+01 0.  0.
     999903    2    3    3    0    0 -0.85215201669E-01 -0.88599481172E-01 -0.41762478678E-01  0.13128572729E+00  0.19502279477E-01 0.  0.
         14    1    1    2    0    0  0.21622885270E-01 -0.93291679251E-02  0.55417592001E-02  0.24192842673E-01  0.00000000000E+00 0. -1.
     999901    1    3    3    0    0  0.63592316399E-01  0.97928649097E-01  0.36220719478E-01  0.88845143004E+00  0.88000000000E+00 0. -1.
        -11    1    4    4    0    0 -0.42657511177E-01 -0.54657914834E-01 -0.30235007060E-01  0.75641044987E-01  0.51100000000E-03 0. -1.
         11    1    4    4    0    0 -0.42557690492E-01 -0.33941566338E-01 -0.11527471618E-01  0.55644682301E-01  0.51100000000E-03 0.  1.
</event>
<event>
 7    1  0.1145101E+005  0.1043930E+01  0.7957747E-01            NaN
         13   -1    0    0    0    0  0.00000000000E+00  0.00000000000E+00  0.74505805969E-08  0.10566000000E+00  0.10566000000E+00 0. -1.
     999900   -1    0    0    0    0 -0.00000000000E+00 -0.00000000000E+00 -0.74505805969E-08  0.93827000000E+00  0.93827000000E+00 0.  1.
     999903    2    1    2    0    0 -0.27565676881E-01 -0.28447035889E-01  0.95845171508E-01  0.10570909270E+00  0.20469855523E-01 0.  0.
         14    1    1    2    0    0  0.34474922909E-01 -0.86132985084E-02 -0.43066425123E-01  0.55833916159E-01  0.00000000000E+00 0.  1.
     999901    1    1    2    0    0 -0.69092460282E-02  0.37060334398E-01 -0.52778746385E-01  0.88238699114E+00  0.88000000000E+00 0.  1.
        -11    1    3    3    0    0 -0.19293608259E-01 -0.95341587557E-02  0.65961145693E-01  0.69384993802E-01  0.51100000000E-03 0.  1.
         11    1    3    3    0    0 -0.82720686222E-02 -0.18912877134E-01  0.29884025815E-01  0.36324098897E-01  0.51100000000E-03 0. -1.
</event>
<event>
 8    1  0.1145101E+005  0.1043930E+01  0.7957747E-01            NaN
         13   -1    0    0    0    0  0.00000000000E+00  0.00000000000E+00  0.74505805969E-08  0.10566000000E+00  0.10566000000E+00 0. -1.
     999900   -1    0    0    0    0 -0.00000000000E+00 -0.00000000000E+00 -0.74505805969E-08  0.93827000000E+00  0.93827000000E+00 0.  1.
     999902    2    1    2    0    0 -0.36890384618E-02 -0.49854126173E-02 -0.22613443163E-01  0.10204815213E+01  0.10202120878E+01 0.  0.
     999903    2    3    3    0    0  0.33833221537E-01 -0.91676614825E-01 -0.88167502288E-01  0.13300159517E+00  0.19147513492E-01 0.  0.
         14    1    1    2    0    0  0.36890384618E-02  0.49854126173E-02  0.22613443163E-01  0.23448478744E-01  0.00000000000E+00 0. -1.
     999901    1    3    3    0    0 -0.37522259999E-01  0.86691202208E-01  0.65554059125E-01  0.88747992608E+00  0.88000000000E+00 0. -1.
        -11    1    4    4    0    0 -0.17931306245E-02 -0.10999132122E-01 -0.12904032948E-01  0.17057884165E-01  0.51100000000E-03 0. -1.
         11    1    4    4    0    0  0.35626352162E-01 -0.80677482703E-01 -0.75263469340E-01  0.11594371101E+00  0.51100000000E-03 0.  1.
</event>
<event>
 8    1  0.1145101E+005  0.1043930E+01  0.7957747E-01            NaN
         13   -1    0    0    0    0  0.00000000000E+00  0.00000000000E+00  0.74505805969E-08  0.10566000000E+00  0.10566000000E+00 0. -1.
     999900   -1    0    0    0    0 -0.00000000000E+00 -0.00000000000E+00 -0.74505805969E-08  0.93827000000E+00  0.93827000000E+00 0.  1.
     999902    2    1    2    0    0 -0.21443696126E-02 -0.21653352793E-01 -0.12640943216E-01  0.10187653531E+01  0.10184545082E+01 0.  0.
     999903    2    3    3    0    0 -0.73751389205E-01  0.11817019450E-01  0.10195930133E+00  0.12782144515E+00  0.19071270377E-01 0.  0.
         14    1    1    2    0    0  0.21443696126E-02  0.21653352793E-01  0.12640943216E-01  0.25164646900E-01  0.00000000000E+00 0.  1.
     999901    1    3    3    0    0  0.71607019592E-01 -0.33470372243E-01 -0.11460024454E+00  0.89094390795E+00  0.88000000000E+00 0. -1.
        -11    1    4    4    0    0 -0.57258900716E-01  0.85972840655E-03  0.76796231215E-01  0.95797928442E-01  0.51100000000E-03 0.  1.
         11    1    4    4    0    0 -0.16492488489E-01  0.10957291044E-01  0.25163070111E-01  0.32023516703E-01  0.51100000000E-03 0. -1.
</event>
<event>
 8    1  0.1145101E+005  0.1043930E+01  0.7957747E-01            NaN
         13   -1    0    0    0    0  0.00000000000E+00  0.00000000000E+00  0.74505805969E-08  0.10566000000E+00  0.10566000000E+00 0.  1.
     999900   -1    0    0    0    0 -0.00000000000E+00 -0.00000000000E+00 -0.74505805969E-08  0.93827000000E+00  0.93827000000E+00 0.  1.
     999902    2    1    2    0    0 -0.17121268980E-01  0.87289298544E-02 -0.16835290188E-01  0.10183808500E+01  0.10180603109E+01 0.  0.
     999903    2    3    3    0    0  0.32340231056E-01 -0.16195323720E-01  0.11923614235E+00  0.12620200409E+00  0.20037692985E-01 0.  0.
         14    1    1    2    0    0  0.17121268980E-01 -0.87289298544E-02  0.16835290188E-01  0.25549149958E-01  0.00000000000E+00 0.  1.
     999901    1    3    3    0    0 -0.49461500035E-01  0.24924253575E-01 -0.13607143254E+00  0.89217884595E+00  0.88000000000E+00 0.  1.
        -11    1    4    4    0    0  0.47019526204E-02 -0.11513353626E-01  0.49500116092E-01  0.51041045094E-01  0.51100000000E-03 0. -1.
         11    1    4    4    0    0  0.27638278435E-01 -0.46819700944E-02  0.69736026257E-01  0.75160959001E-01  0.51100000000E-03 0.  1.
</event>
<event>
 8    1  0.1145101E+005  0.1043930E+01  0.7957747E-01            NaN
         13   -1    0    0    0    0  0.00000000000E+00  0.00000000000E+00  0.74505805969E-08  0.10566000000E+00  0.10566000000E+00 0.  1.
     999900   -1    0    0    0    0 -0.00000000000E+00 -0.00000000000E+00 -0.74505805969E-08  0.93827000000E+00  0.93827000000E+00 0. -1.
     999902    2    1    2    0    0  0.73751642034E-02  0.18517638852E-01 -0.13966378162E-01  0.10195916411E+01  0.10193011129E+01 0.  0.
     999903    2    3    3    0    0  0.12517930171E+00 -0.30205285860E-01 -0.73817330990E-03  0.13030725260E+00  0.19930336414E-01 0.  0.
         14    1    1    2    0    0 -0.73751642034E-02 -0.18517638852E-01  0.13966378162E-01  0.24338358915E-01  0.00000000000E+00 0. -1.
     999901    1    3    3    0    0 -0.11780413750E+00  0.48722924712E-01 -0.13228204852E-01  0.88928438849E+00  0.88000000000E+00 0. -1.
        -11    1    4    4    0    0  0.22844946963E-01  0.16418991710E-02 -0.30107238767E-02  0.23106557811E-01  0.51100000000E-03 0. -1.
         11    1    4    4    0    0  0.10233435475E+00 -0.31847185031E-01  0.22725505668E-02  0.10720069479E+00  0.51100000000E-03 0.  1.
</event>
<event>
 8    1  0.1145101E+005  0.1043930E+01  0.7957747E-01            NaN
         13   -1    0    0    0    0  0.00000000000E+00  0.00000000000E+00  0.74505805969E-08  0.10566000000E+00  0.10566000000E+00 0.  1.
     999900   -1    0    0    0    0 -0.00000000000E+00 -0.00000000000E+00 -0.74505805969E-08  0.93827000000E+00  0.93827000000E+00 0.  1.
     999902    2    1    2    0    0 -0.94613444154E-02 -0.17961588374E-01 -0.11678066374E-01  0.10205096471E+01  0.10202408671E+01 0.  0.
     999903    2    3    3    0    0 -0.99082585765E-01  0.67654207113E-01 -0.49719395611E-01  0.13101025191E+00  0.17239990249E-01 0.  0.
         14    1    1    2    0    0  0.94613444154E-02  0.17961588374E-01  0.11678066374E-01  0.23420352886E-01  0.00000000000E+00 0.  1.
     999901    1    3    3    0    0  0.89621241349E-01 -0.85615795487E-01  0.38041329237E-01  0.88949939520E+00  0.88000000000E+00 0. -1.
        -11    1    4    4    0    0 -0.28576549533E-01  0.16998450634E-01 -0.22007331339E-01  0.39876688188E-01  0.51100000000E-03 0. -1.
         11    1    4    4    0    0 -0.70506036231E-01  0.50655756479E-01 -0.27712064272E-01  0.91133563722E-01  0.51100000000E-03 0.  1.
</event>
<event>
 8    1  0.1145101E+005  0.1043930E+01  0.7957747E-01            NaN
         13   -1    0    0    0    0  0.00000000000E+00  0.00000000000E+00  0.74505805969E-08  0.10566000000E+00  0.10566000000E+00 0. -1.
     999900   -1    0    0    0    0 -0.00000000000E+00 -0.00000000000E+00 -0.74505805969E-08  0.93827000000E+00  0.93827000000E+00 0. -1.
     999902    2    1    2    0    0  0.14235906674E-01 -0.14152981738E-01  0.26817702581E-01  0.10104313866E+01  0.10098759477E+01 0.  0.
     999903    2    3    3    0    0  0.21840953186E-01 -0.10036342758E+00 -0.62072144548E-01  0.12172925275E+00  0.20376825455E-01 0.  0.
         14    1    1    2    0    0 -0.14235906674E-01  0.14152981738E-01 -0.26817702581E-01  0.33498613443E-01  0.00000000000E+00 0. -1.
     999901    1    3    3    0    0 -0.76050465124E-02  0.86210445840E-01  0.88889847129E-01  0.88870213380E+00  0.88000000000E+00 0.  1.
        -11    1    4    4    0    0 -0.16081059302E-02 -0.24174389977E-01 -0.20932664685E-01  0.32022253313E-01  0.51100000000E-03 0.  1.
         11    1    4    4    0    0  0.23449059116E-01 -0.76189037601E-01 -0.41139479863E-01  0.89706999440E-01  0.51100000000E-03 0. -1.
</event>
<event>
 8    1  0.1145101E+005  0.1043930E+01  0.7957747E-01            NaN
         13   -1    0    0    0    0  0.00000000000E+00  0.00000000000E+00  0.74505805969E-08  0.10566000000E+00  0.10566000000E+00 0.  1.
     999900   -1    0    0    0    0 -0.00000000000E+00 -0.00000000000E+00 -0.74505805969E-08  0.93827000000E+00  0.93827000000E+00 0. -1.
     999902    2    1    2    0    0  0.18040953712E-01  0.14693563519E-01  0.27935578092E-03  0.10206608174E+01  0.10203955357E+01 0.  0.
     999903    2    3    3    0    0 -0.24212459125E-01  0.11637406310E+00  0.54107387394E-01  0.13216673644E+00  0.20279820299E-01 0.  0.
         14    1    1    2    0    0 -0.18040953712E-01 -0.14693563519E-01 -0.27935578092E-03  0.23269182611E-01  0.00000000000E+00 0. -1.
     999901    1    3    3    0    0  0.42253412837E-01 -0.10168049958E+00 -0.53828031613E-01  0.88849408095E+00  0.88000000000E+00 0. -1.
        -11    1    4    4    0    0 -0.52153944525E-02  0.35115992552E-01  0.65114916432E-02  0.36097007032E-01  0.51100000000E-03 0.  1.
         11    1    4    4    0    0 -0.18997064673E-01  0.81258070549E-01  0.47595895751E-01  0.96069729410E-01  0.51100000000E-03 0. -1.
</event>
<event>
 8    1  0.1145101E+005  0.1043930E+01  0.7957747E-01            NaN
         13   -1    0    0    0    0  0.00000000000E+00  0.00000000000E+00  0.74505805969E-08  0.10566000000E+00  0.10566000000E+00 0. -1.
     999900   -1    0    0    0    0 -0.00000000000E+00 -0.00000000000E+00 -0.74505805969E-08  0.93827000000E+00  0.93827000000E+00 0. -1.
     999902    2    1    2    0    0 -0.15659008670E-01  0.18200351677E-01 -0.14631564976E-02  0.10198759321E+01  0.10195922316E+01 0.  0.
     999903    2    3    3    0    0  0.11061546718E+00 -0.55911807383E-01 -0.22579231105E-01  0.12752860964E+00  0.19794262173E-01 0.  0.
         14    1    1    2    0    0  0.15659008670E-01 -0.18200351677E-01  0.14631564976E-02  0.24054067861E-01  0.00000000000E+00 0. -1.
     999901    1    3    3    0    0 -0.12627447585E+00  0.74112159060E-01  0.21116074607E-01  0.89234732250E+00  0.88000000000E+00 0.  1.
        -11    1    4    4    0    0  0.90350424745E-01 -0.51802195578E-01 -0.23711861181E-01  0.10681376409E+00  0.51100000000E-03 0. -1.
         11    1    4    4    0    0  0.20265042432E-01 -0.41096118051E-02  0.11326300768E-02  0.20714845542E-01  0.51100000000E-03 0.  1.
</event>
<event>
 8    1  0.1145101E+005  0.1043930E+01  0.7957747E-01            NaN
         13   -1    0    0    0    0  0.00000000000E+00  0.00000000000E+00  0.74505805969E-08  0.10566000000E+00  0.10566000000E+00 0.  1.
     999900   -1    0    0    0    0 -0.00000000000E+00 -0.00000000000E+00 -0.74505805969E-08  0.93827000000E+00  0.93827000000E+00 0. -1.
     999902    2    1    2    0    0 -0.17891337866E-01  0.16531187906E-01  0.11302978745E-01  0.10170759971E+01  0.10167214202E+01 0.  0.
     999903    2    3    3    0    0  0.58939151782E-01 -0.75926881451E-01 -0.76173674674E-01  0.12460550254E+00  0.22031514045E-01 0.  0.
         14    1    1    2    0    0  0.17891337866E-01 -0.16531187906E-01 -0.11302978745E-01  0.26854002918E-01  0.00000000000E+00 0.  1.
     999901    1    3    3    0    0 -0.76830489648E-01  0.92458069357E-01  0.87476653418E-01  0.89247049454E+00  0.88000000000E+00 0.  1.
        -11    1    4    4    0    0  0.30850006769E-01 -0.56642658779E-01 -0.48269828179E-01  0.80562715599E-01  0.51100000000E-03 0. -1.
         11    1    4    4    0    0  0.28089145014E-01 -0.19284222672E-01 -0.27903846495E-01  0.44042786945E-01  0.51100000000E-03 0.  1.
</event>
<event>
 8    1  0.1145101E+005  0.1043930E+01  0.7957747E-01            NaN
         13   -1    0    0    0    0  0.00000000000E+00  0.00000000000E+00  0.74505805969E-08  0.10566000000E+00  0.10566000000E+00 0. -1.
     999900   -1    0    0    0    0 -0.00000000000E+00 -0.00000000000E+00 -0.74505805969E-08  0.93827000000E+00  0.93827000000E+00 0. -1.
     999902    2    1    2    0    0  0.17938404908E-01 -0.13304987033E-02 -0.15483036943E-01  0.10201964577E+01  0.10199203554E+01 0.  0.
     999903    2    3    3    0    0  0.40701801593E-01  0.54512391591E-01  0.10827732314E+00  0.12949267565E+00  0.20399432611E-01 0.  0.
         14    1    1    2    0    0 -0.17938404908E-01  0.13304987033E-02  0.15483036943E-01  0.23733542307E-01  0.00000000000E+00 0. -1.
     999901    1    3    3    0    0 -0.22763396685E-01 -0.55842890295E-01 -0.12376036008E+00  0.89070378205E+00  0.88000000000E+00 0. -1.
        -11    1    4    4    0    0  0.13367650104E-01  0.67311629419E-02  0.32953955303E-01  0.36197056717E-01  0.51100000000E-03 0.  1.
         11    1    4    4    0    0  0.27334151489E-01  0.47781228650E-01  0.75323367832E-01  0.93295618930E-01  0.51100000000E-03 0. -1.
</event>
<event>
 8    1  0.1145101E+005  0.1043930E+01  0.7957747E-01            NaN
         13   -1    0    0    0    0  0.00000000000E+00  0.00000000000E+00  0.74505805969E-08  0.10566000000E+00  0.10566000000E+00 0.  1.
     999900   -1    0    0    0    0 -0.00000000000E+00 -0.00000000000E+00 -0.74505805969E-08  0.93827000000E+00  0.93827000000E+00 0.  1.
     999902    2    1    2    0    0  0.86487061207E-02  0.22569587422E-01 -0.18589101104E-02  0.10196886729E+01  0.10194004844E+01 0.  0.
     999903    2    3    3    0    0 -0.85505658729E-01 -0.80619211647E-01 -0.45462650561E-01  0.12760445104E+00  0.20133761864E-01 0.  0.
         14    1    1    2    0    0 -0.86487061207E-02 -0.22569587422E-01  0.18589101104E-02  0.24241327125E-01  0.00000000000E+00 0. -1.
     999901    1    3    3    0    0  0.94154364849E-01  0.10318879907E+00  0.43603740451E-01  0.89208422184E+00  0.88000000000E+00 0. -1.
        -11    1    4    4    0    0 -0.22081529291E-01 -0.28986117848E-01 -0.21797994556E-01  0.42464133706E-01  0.51100000000E-03 0. -1.
         11    1    4    4    0    0 -0.63424129437E-01 -0.51633093800E-01 -0.23664656006E-01  0.85140317330E-01  0.51100000000E-03 0.  1.
</event>
<event>
 8    1  0.1145101E+005  0.1043930E+01  0.7957747E-01            NaN
         13   -1    0    0    0    0  0.00000000000E+00  0.00000000000E+00  0.74505805969E-08  0.10566000000E+00  0.10566000000E+00 0. -1.
     999900   -1    0    0    0    0 -0.00000000000E+00 -0.00000000000E+00 -0.74505805969E-08  0.93827000000E+00  0.93827000000E+00 0.  1.
     999902    2    1    2    0    0 -0.25816311481E-02 -0.15040493988E-01  0.16148835682E-01  0.10217114003E+01  0.10214697839E+01 0.  0.
     999903    2    3    3    0    0 -0.41697191394E-01 -0.10681000414E+00 -0.63322450285E-01  0.13251662111E+00  0.20096999938E-01 0.  0.
         14    1    1    2    0    0  0.25816311481E-02  0.15040493988E-01 -0.16148835682E-01  0.22218599701E-01  0.00000000000E+00 0. -1.
     999901    1    3    3    0    0  0.39115560245E-01  0.91769510147E-01  0.79471285966E-01  0.88919477919E+00  0.88000000000E+00 0. -1.
        -11    1    4    4    0    0 -0.13237464781E-01 -0.36643348659E-01 -0.11033578196E-01  0.40496499152E-01  0.51100000000E-03 0. -1.
         11    1    4    4    0    0 -0.28459726612E-01 -0.70166655476E-01 -0.52288872088E-01  0.92020121956E-01  0.51100000000E-03 0.  1.
</event>
<event>
 8    1  0.1145101E+005  0.1043930E+01  0.7957747E-01            NaN
         13   -1    0    0    0    0  0.00000000000E+00  0.00000000000E+00  0.74505805969E-08  0.10566000000E+00  0.10566000000E+00 0.  1.
     999900   -1    0    0    0    0 -0.00000000000E+00 -0.00000000000E+00 -0.74505805969E-08  0.93827000000E+00  0.93827000000E+00 0. -1.
     999902    2    1    2    0    0  0.24512707045E-01  0.69971675462E-02  0.71743020265E-02  0.10174478594E+01  0.10171031623E+01 0.  0.
     999903    2    3    3    0    0 -0.84798154482E-01 -0.35580378921E-01  0.84312160922E-01  0.12631826099E+00  0.19775545842E-01 0.  0.
         14    1    1    2    0    0 -0.24512707045E-01 -0.69971675462E-02 -0.71743020265E-02  0.26482140584E-01  0.00000000000E+00 0.  1.
     999901    1    3    3    0    0  0.10931086153E+00  0.42577546468E-01 -0.77137858895E-01  0.89112959842E+00  0.88000000000E+00 0. -1.
        -11    1    4    4    0    0 -0.30223124510E-01 -0.23147737319E-01  0.35220643613E-01  0.51865304931E-01  0.51100000000E-03 0. -1.
         11    1    4    4    0    0 -0.54575029972E-01 -0.12432641602E-01  0.49091517309E-01  0.74452956062E-01  0.51100000000E-03 0.  1.
</event>
<event>
 8    1  0.1145101E+005  0.1043930E+01  0.7957747E-01            NaN
         13   -1    0    0    0    0  0.00000000000E+00  0.00000000000E+00  0.74505805969E-08  0.10566000000E+00  0.10566000000E+00 0.  1.
     999900   -1    0    0    0    0 -0.00000000000E+00 -0.00000000000E+00 -0.74505805969E-08  0.93827000000E+00  0.93827000000E+00 0.  1.
     999902    2    1    2    0    0 -0.11258714526E-01  0.84562869340E-02 -0.12213628864E-02  0.10297963816E+01  0.10296993874E+01 0.  0.
     999903    2    3    3    0    0 -0.48843712917E-01  0.13961487023E-01  0.12903454538E+00  0.13939785232E+00  0.14185059680E-01 0.  0.
         14    1    1    2    0    0  0.11258714526E-01 -0.84562869340E-02  0.12213628864E-02  0.14133618390E-01  0.00000000000E+00 0. -1.
     999901    1    3    3    0    0  0.37584998391E-01 -0.55052000890E-02 -0.13025590826E+00  0.89039852929E+00  0.88000000000E+00 0.  1.
        -11    1    4    4    0    0 -0.17401753841E-01  0.10810370146E-02  0.30085467614E-01  0.34776229818E-01  0.51100000000E-03 0.  1.
         11    1    4    4    0    0 -0.31441959076E-01  0.12880450008E-01  0.98949077763E-01  0.10462162250E+00  0.51100000000E-03 0. -1.
</event>
<event>
 8    1  0.1145101E+005  0.1043930E+01  0.7957747E-01            NaN
         13   -1    0    0    0    0  0.00000000000E+00  0.00000000000E+00  0.74505805969E-08  0.10566000000E+00  0.10566000000E+00 0. -1.
     999900   -1    0    0    0    0 -0.00000000000E+00 -0.00000000000E+00 -0.74505805969E-08  0.93827000000E+00  0.93827000000E+00 0. -1.
     999902    2    1    2    0    0  0.62325975244E-02 -0.15822558832E-01 -0.17291135642E-01  0.10196775360E+01  0.10193890795E+01 0.  0.
     999903    2    3    3    0    0  0.55859781600E-01 -0.56952196879E-01  0.10015015416E+00  0.12953880460E+00  0.19656566039E-01 0.  0.
         14    1    1    2    0    0 -0.62325975244E-02  0.15822558832E-01  0.17291135642E-01  0.24252464034E-01  0.00000000000E+00 0. -1.
     999901    1    3    3    0    0 -0.49627184075E-01  0.41129638047E-01 -0.11744128981E+00  0.89013873137E+00  0.88000000000E+00 0. -1.
        -11    1    4    4    0    0  0.19835533379E-01 -0.29909738562E-01  0.55625586653E-01  0.66200512512E-01  0.51100000000E-03 0.  1.
         11    1    4    4    0    0  0.36024248220E-01 -0.27042458317E-01  0.44524567511E-01  0.63338292089E-01  0.51100000000E-03 0. -1.
</event>
<event>
 8    1  0.1145101E+005  0.1043930E+01  0.7957747E-01            NaN
         13   -1    0    0    0    0  0.00000000000E+00  0.00000000000E+00  0.74505805969E-08  0.10566000000E+00  0.10566000000E+00 0. -1.
     999900   -1    0    0    0    0 -0.00000000000E+00 -0.00000000000E+00 -0.74505805969E-08  0.93827000000E+00  0.93827000000E+00 0.  1.
     999902    2    1    2    0    0 -0.80356176951E-02 -0.20530977695E-01  0.76539500606E-02  0.10205917235E+01  0.10203248458E+01 0.  0.
     999903    2    3    3    0    0 -0.19586504434E-01  0.47302993842E-01  0.11919448209E+00  0.13088606380E+00  0.17396343126E-01 0.  0.
         14    1    1    2    0    0  0.80356176951E-02  0.20530977695E-01 -0.76539500606E-02  0.23338276466E-01  0.00000000000E+00 0. -1.
     999901    1    3    3    0    0  0.11550886739E-01 -0.67833971537E-01 -0.11154053203E+00  0.88970565973E+00  0.88000000000E+00 0.  1.
        -11    1    4    4    0    0 -0.11907400869E-01  0.41844160853E-01  0.86039541008E-01  0.96414644794E-01  0.51100000000E-03 0.  1.
         11    1    4    4    0    0 -0.76791035648E-02  0.54588329891E-02  0.33154941081E-01  0.34471419005E-01  0.51100000000E-03 0. -1.
</event>
<event>
 8    1  0.1145101E+005  0.1043930E+01  0.7957747E-01            NaN
         13   -1    0    0    0    0  0.00000000000E+00  0.00000000000E+00  0.74505805969E-08  0.10566000000E+00  0.10566000000E+00 0. -1.
     999900   -1    0    0    0    0 -0.00000000000E+00 -0.00000000000E+00 -0.74505805969E-08  0.93827000000E+00  0.93827000000E+00 0. -1.
     999902    2    1    2    0    0 -0.13088830904E-02 -0.14182357633E-01 -0.14524593419E-01  0.10235875258E+01  0.10233853657E+01 0.  0.
     999903    2    3    3    0    0  0.23045677630E-01 -0.12610458013E+00  0.36139630510E-01  0.13471937353E+00  0.20242735081E-01 0.  0.
         14    1    1    2    0    0  0.13088830904E-02  0.14182357633E-01  0.14524593419E-01  0.20342474210E-01  0.00000000000E+00 0. -1.
     999901    1    3    3    0    0 -0.24354560720E-01  0.11192222250E+00 -0.50664223930E-01  0.88886815226E+00  0.88000000000E+00 0. -1.
        -11    1    4    4    0    0  0.16452142101E-01 -0.47744858192E-01  0.20697557968E-01  0.54579249631E-01  0.51100000000E-03 0. -1.
         11    1    4    4    0    0  0.65935355288E-02 -0.78359721939E-01  0.15442072542E-01  0.80140123899E-01  0.51100000000E-03 0.  1.
</event>
<event>
 8    1  0.1145101E+005  0.1043930E+01  0.7957747E-01            NaN
         13   -1    0    0    0    0  0.00000000000E+00  0.00000000000E+00  0.74505805969E-08  0.10566000000E+00  0.10566000000E+00 0.  1.
     999900   -1    0    0    0    0 -0.00000000000E+00 -0.00000000000E+00 -0.74505805969E-08  0.93827000000E+00  0.93827000000E+00 0.  1.
     999902    2    1    2    0    0 -0.11634228689E-01  0.92330625127E-02 -0.18625654155E-01  0.10201073277E+01  0.10198291231E+01 0.  0.
     999903    2    3    3    0    0  0.11297947413E+00  0.72102239024E-02  0.56307129179E-01  0.12817258304E+00  0.21008792020E-01 0.  0.
         14    1    1    2    0    0  0.11634228689E-01 -0.92330625127E-02  0.18625654155E-01  0.23822672253E-01  0.00000000000E+00 0. -1.
     999901    1    3    3    0    0 -0.12461370282E+00  0.20228386103E-02 -0.74932783334E-01  0.89193474471E+00  0.88000000000E+00 0. -1.
        -11    1    4    4    0    0  0.93707526195E-01  0.13641118108E-01  0.48576075374E-01  0.10642874043E+00  0.51100000000E-03 0. -1.
         11    1    4    4    0    0  0.19271947935E-01 -0.64308942060E-02  0.77310538056E-02  0.21743842610E-01  0.51100000000E-03 0.  1.
</event>
<event>
 8    1  0.1145101E+005  0.1043930E+01  0.7957747E-01            NaN
         13   -1    0    0    0    0  0.00000000000E+00  0.00000000000E+00  0.74505805969E-08  0.10566000000E+00  0.10566000000E+00 0. -1.
     999900   -1    0    0    0    0 -0.00000000000E+00 -0.00000000000E+00 -0.74505805969E-08  0.93827000000E+00  0.93827000000E+00 0. -1.
     999902    2    1    2    0    0 -0.15147711179E-01  0.16835379346E-01 -0.56580977333E-02  0.10205869663E+01  0.10203199785E+01 0.  0.
     999903    2    3    3    0    0  0.40199390841E-01 -0.10103996120E+00 -0.66393032604E-01  0.12893309293E+00  0.19764687958E-01 0.  0.
         14    1    1    2    0    0  0.15147711179E-01 -0.16835379346E-01  0.56580977333E-02  0.23343033686E-01  0.00000000000E+00 0.  1.
     999901    1    3    3    0    0 -0.55347102021E-01  0.11787534055E+00  0.60734934871E-01  0.89165387339E+00  0.88000000000E+00 0.  1.
        -11    1    4    4    0    0  0.21133016104E-01 -0.31450325102E-01 -0.17278937080E-01  0.41647930396E-01  0.51100000000E-03 0. -1.
         11    1    4    4    0    0  0.19066374737E-01 -0.69589636099E-01 -0.49114095524E-01  0.87285162532E-01  0.51100000000E-03 0.  1.
</event>
<event>
 8    1  0.1145101E+005  0.1043930E+01  0.7957747E-01            NaN
         13   -1    0    0    0    0  0.00000000000E+00  0.00000000000E+00  0.74505805969E-08  0.10566000000E+00  0.10566000000E+00 0. -1.
     999900   -1    0    0    0    0 -0.00000000000E+00 -0.00000000000E+00 -0.74505805969E-08  0.93827000000E+00  0.93827000000E+00 0.  1.
     999902    2    1    2    0    0  0.74297875014E-02  0.21186378279E-01 -0.70318672713E-02  0.10204031744E+01  0.10201319163E+01 0.  0.
     999903    2    3    3    0    0  0.93155793286E-01 -0.43941326619E-01  0.76621224242E-01  0.12990420989E+00  0.19885918037E-01 0.  0.
         14    1    1    2    0    0 -0.74297875014E-02 -0.21186378279E-01  0.70318672713E-02  0.23526825630E-01  0.00000000000E+00 0. -1.
     999901    1    3    3    0    0 -0.85726005785E-01  0.65127704898E-01 -0.83653091513E-01  0.89049896448E+00  0.88000000000E+00 0. -1.
        -11    1    4    4    0    0  0.10061983661E-01 -0.78523658443E-02  0.28846911630E-02  0.13095255960E-01  0.51100000000E-03 0. -1.
         11    1    4    4    0    0  0.83093809625E-01 -0.36088960775E-01  0.73736533079E-01  0.11680895393E+00  0.51100000000E-03 0.  1.
</event>
<event>
 8    1  0.1145101E+005  0.1043930E+01  0.7957747E-01            NaN
         13   -1    0    0    0    0  0.00000000000E+00  0.00000000000E+00  0.74505805969E-08  0.10566000000E+00  0.10566000000E+00 0. -1.
     999900   -1    0    0    0    0 -0.00000000000E+00 -0.00000000000E+00 -0.74505805969E-08  0.93827000000E+00  0.93827000000E+00 0. -1.
     999902    2    1    2    0    0  0.15243216598E-01  0.19195597384E-02  0.17139979950E-01  0.10209121966E+01  0.10206526803E+01 0.  0.
     999903    2    3    3    0    0  0.44782270796E-01 -0.17012481258E-01 -0.11908451497E+00  0.12973988388E+00  0.18879604525E-01 0.  0.
         14    1    1    2    0    0 -0.15243216598E-01 -0.19195597384E-02 -0.17139979950E-01  0.23017803426E-01  0.00000000000E+00 0.  1.
     999901    1    3    3    0    0 -0.29539054199E-01  0.18932040997E-01  0.13622449492E+00  0.89117231270E+00  0.88000000000E+00 0.  1.
        -11    1    4    4    0    0  0.39825163974E-01 -0.19782235482E-01 -0.93625080138E-01  0.10364987833E+00  0.51100000000E-03 0.  1.
         11    1    4    4    0    0  0.49571068228E-02  0.27697542241E-02 -0.25459434832E-01  0.26090005548E-01  0.51100000000E-03 0. -1.
</event>
<event>
 8    1  0.1145101E+005  0.1043930E+01  0.7957747E-01            NaN
         13   -1    0    0    0    0  0.00000000000E+00  0.00000000000E+00  0.74505805969E-08  0.10566000000E+00  0.10566000000E+00 0. -1.
     999900   -1    0    0    0    0 -0.00000000000E+00 -0.00000000000E+00 -0.74505805969E-08  0.93827000000E+00  0.93827000000E+00 0. -1.
     999902    2    1    2    0    0  0.11557793086E-01  0.20142671463E-01  0.24634876527E-02  0.10205766584E+01  0.10203094320E+01 0.  0.
     999903    2    3    3    0    0 -0.64748295901E-01 -0.10500323307E+00  0.28050389021E-01  0.12808643087E+00  0.20032190870E-01 0.  0.
         14    1    1    2    0    0 -0.11557793086E-01 -0.20142671463E-01 -0.24634876527E-02  0.23353341647E-01  0.00000000000E+00 0. -1.
     999901    1    3    3    0    0  0.76306088987E-01  0.12514590453E+00 -0.25586901368E-01  0.89249022749E+00  0.88000000000E+00 0.  1.
        -11    1    4    4    0    0 -0.23121067093E-01 -0.24501031997E-01  0.18359241147E-02  0.33741903485E-01  0.51100000000E-03 0.  1.
         11    1    4    4    0    0 -0.41627228808E-01 -0.80502201071E-01  0.26214464906E-01  0.94344527381E-01  0.51100000000E-03 0. -1.
</event>
<event>
 8    1  0.1145101E+005  0.1043930E+01  0.7957747E-01            NaN
         13   -1    0    0    0    0  0.00000000000E+00  0.00000000000E+00  0.74505805969E-08  0.10566000000E+00  0.10566000000E+00 0.  1.
     999900   -1    0    0    0    0 -0.00000000000E+00 -0.00000000000E+00 -0.74505805969E-08  0.93827000000E+00  0.93827000000E+00 0. -1.
     999902    2    1    2    0    0 -0.70866594074E-02  0.10991474108E-01 -0.20239126710E-01  0.10198332057E+01  0.10195484844E+01 0.  0.
     999903    2    3    3    0    0 -0.54318736530E-01  0.11151030110E+00  0.37566760958E-01  0.13097077298E+00  0.18894693844E-01 0.  0.
         14    1    1    2    0    0  0.70866594074E-02 -0.10991474108E-01  0.20239126710E-01  0.24096794281E-01  0.00000000000E+00 0.  1.
     999901    1    3    3    0    0  0.47232077122E-01 -0.10051882699E+00 -0.57805887668E-01  0.88886243274E+00  0.88000000000E+00 0. -1.
        -11    1    4    4    0    0 -0.27151311480E-02  0.16630960265E-01  0.96089714746E-02  0.19405005290E-01  0.51100000000E-03 0.  1.
         11    1    4    4    0    0 -0.51603605381E-01  0.94879340837E-01  0.27957789484E-01  0.11156576769E+00  0.51100000000E-03 0. -1.
</event>
<event>
 8    1  0.1145101E+005  0.1043930E+01  0.7957747E-01            NaN
         13   -1    0    0    0    0  0.00000000000E+00  0.00000000000E+00  0.74505805969E-08  0.10566000000E+00  0.10566000000E+00 0.  1.
     999900   -1    0    0    0    0 -0.00000000000E+00 -0.00000000000E+00 -0.74505805969E-08  0.93827000000E+00  0.93827000000E+00 0. -1.
     999902    2    1    2    0    0 -0.16094734620E-01  0.13073476821E-01 -0.17061201758E-01  0.10170777955E+01  0.10167232668E+01 0.  0.
     999903    2    3    3    0    0 -0.37946737525E-02  0.99464784654E-01 -0.81931334811E-01  0.13038569356E+00  0.19494679406E-01 0.  0.
         14    1    1    2    0    0  0.16094734620E-01 -0.13073476821E-01  0.17061201758E-01  0.26852204455E-01  0.00000000000E+00 0.  1.
     999901    1    3    3    0    0 -0.12300060867E-01 -0.86391307832E-01  0.64870133053E-01  0.88669210199E+00  0.88000000000E+00 0. -1.
        -11    1    4    4    0    0  0.61200198816E-02  0.19293377716E-01 -0.11986520034E-01  0.23529276456E-01  0.51100000000E-03 0. -1.
         11    1    4    4    0    0 -0.99146936341E-02  0.80171406938E-01 -0.69944814776E-01  0.10685641710E+00  0.51100000000E-03 0.  1.
</event>
<event>
 8    1  0.1145101E+005  0.1043930E+01  0.7957747E-01            NaN
         13   -1    0    0    0    0  0.00000000000E+00  0.00000000000E+00  0.74505805969E-08  0.10566000000E+00  0.10566000000E+00 0.  1.
     999900   -1    0    0    0    0 -0.00000000000E+00 -0.00000000000E+00 -0.74505805969E-08  0.93827000000E+00  0.93827000000E+00 0.  1.
     999902    2    1    2    0    0 -0.20355662100E-01  0.25664824995E-02 -0.12784834673E-01  0.10197558028E+01  0.10194692274E+01 0.  0.
     999903    2    3    3    0    0 -0.42131181960E-01 -0.12173796200E+00  0.58588139650E-02  0.13055765065E+00  0.20391335332E-01 0.  0.
         14    1    1    2    0    0  0.20355662100E-01 -0.25664824995E-02  0.12784834673E-01  0.24174197186E-01  0.00000000000E+00 0.  1.
     999901    1    3    3    0    0  0.21775519860E-01  0.12430444450E+00 -0.18643648638E-01  0.88919815217E+00  0.88000000000E+00 0.  1.
        -11    1    4    4    0    0 -0.16565928367E-01 -0.69086223797E-01 -0.41855088956E-02  0.71169627699E-01  0.51100000000E-03 0. -1.
         11    1    4    4    0    0 -0.25565253593E-01 -0.52651738199E-01  0.10044322861E-01  0.59388022946E-01  0.51100000000E-03 0.  1.
</event>
<event>
 8    1  0.1145101E+005  0.1043930E+01  0.7957747E-01            NaN
         13   -1    0    0    0    0  0.00000000000E+00  0.00000000000E+00  0.74505805969E-08  0.10566000000E+00  0.10566000000E+00 0.  1.
     999900   -1    0    0    0    0 -0.00000000000E+00 -0.00000000000E+00 -0.74505805969E-08  0.93827000000E+00  0.93827000000E+00 0. -1.
     999902    2    1    2    0    0  0.41576539179E-02 -0.23631541800E-01  0.18943431346E-02  0.10198608415E+01  0.10195767807E+01 0.  0.
     999903    2    3    3    0    0  0.74970821498E-01 -0.10452656247E+00  0.57538208476E-02  0.13330943036E+00  0.34523490990E-01 0.  0.
         14    1    1    2    0    0 -0.41576539179E-02  0.23631541800E-01 -0.18943431346E-02  0.24069158479E-01  0.00000000000E+00 0. -1.
     999901    1    3    3    0    0 -0.70813167580E-01  0.80895020666E-01 -0.38594777130E-02  0.88655141117E+00  0.88000000000E+00 0.  1.
        -11    1    4    4    0    0  0.53983023814E-01 -0.96752905242E-01  0.51261994236E-02  0.11091361762E+00  0.51100000000E-03 0.  1.
         11    1    4    4    0    0  0.20987797684E-01 -0.77736572253E-02  0.62762142395E-03  0.22395812732E-01  0.51100000000E-03 0. -1.
</event>
<event>
 8    1  0.1145101E+005  0.1043930E+01  0.7957747E-01            NaN
         13   -1    0    0    0    0  0.00000000000E+00  0.00000000000E+00  0.74505805969E-08  0.10566000000E+00  0.10566000000E+00 0. -1.
     999900   -1    0    0    0    0 -0.00000000000E+00 -0.00000000000E+00 -0.74505805969E-08  0.93827000000E+00  0.93827000000E+00 0.  1.
     999902    2    1    2    0    0  0.18554328530E-01  0.12039978760E-01 -0.13116154029E-01  0.10182150687E+01  0.10178903027E+01 0.  0.
     999903    2    3    3    0    0  0.64460530607E-01  0.10879930014E+00  0.27059986016E-01  0.13081219069E+00  0.19675839799E-01 0.  0.
         14    1    1    2    0    0 -0.18554328530E-01 -0.12039978760E-01  0.13116154029E-01  0.25714931309E-01  0.00000000000E+00 0. -1.
     999901    1    3    3    0    0 -0.45906202077E-01 -0.96759321380E-01 -0.40176140045E-01  0.88740287801E+00  0.88000000000E+00 0. -1.
        -11    1    4    4    0    0  0.42240338173E-01  0.67063738702E-01  0.74034035139E-02  0.79604413962E-01  0.51100000000E-03 0.  1.
         11    1    4    4    0    0  0.22220192434E-01  0.41735561437E-01  0.19656582502E-01  0.51207776723E-01  0.51100000000E-03 0. -1.
</event>
<event>
 8    1  0.1145101E+005  0.1043930E+01  0.7957747E-01            NaN
         13   -1    0    0    0    0  0.00000000000E+00  0.00000000000E+00  0.74505805969E-08  0.10566000000E+00  0.10566000000E+00 0.  1.
     999900   -1    0    0    0    0 -0.00000000000E+00 -0.00000000000E+00 -0.74505805969E-08  0.93827000000E+00  0.93827000000E+00 0. -1.
     999902    2    1    2    0    0 -0.23610840829E-01  0.16391985268E-02 -0.68370024717E-03  0.10202524532E+01  0.10199776674E+01 0.  0.
     999903    2    3    3    0    0 -0.55853864973E-01 -0.10376743724E+00  0.55084646765E-01  0.13162413945E+00  0.20081347404E-01 0.  0.
         14    1    1    2    0    0  0.23610840829E-01 -0.16391985268E-02  0.68370024717E-03  0.23677546801E-01  0.00000000000E+00 0. -1.
     999901    1    3    3    0    0  0.32243024144E-01  0.10540663576E+00 -0.55768347012E-01  0.88862831375E+00  0.88000000000E+00 0. -1.
        -11    1    4    4    0    0 -0.31504272520E-01 -0.72109523259E-01  0.28742984404E-01  0.83777818097E-01  0.51100000000E-03 0.  1.
         11    1    4    4    0    0 -0.24349592453E-01 -0.31657913978E-01  0.26341662361E-01  0.47846321352E-01  0.51100000000E-03 0. -1.
</event>
<event>
 8    1  0.1145101E+005  0.1043930E+01  0.7957747E-01            NaN
         13   -1    0    0    0    0  0.00000000000E+00  0.00000000000E+00  0.74505805969E-08  0.10566000000E+00  0.10566000000E+00 0. -1.
     999900   -1    0    0    0    0 -0.00000000000E+00 -0.00000000000E+00 -0.74505805969E-08  0.93827000000E+00  0.93827000000E+00 0.  1.
     999902    2    1    2    0    0 -0.26360753798E-01 -0.35110487164E-03  0.13555316693E-01  0.10142861267E+01  0.10138528431E+01 0.  0.
     999903    2    3    3    0    0 -0.68250248964E-01  0.37500754507E-01  0.10013381439E+00  0.12823684512E+00  0.18801717737E-01 0.  0.
         14    1    1    2    0    0  0.26360753798E-01  0.35110487164E-03 -0.13555316693E-01  0.29643873331E-01  0.00000000000E+00 0. -1.
     999901    1    3    3    0    0  0.41889495166E-01 -0.37851859379E-01 -0.86578497702E-01  0.88604928155E+00  0.88000000000E+00 0.  1.
        -11    1    4    4    0    0 -0.46607132161E-01  0.30178957961E-01  0.82149488011E-01  0.99155402139E-01  0.51100000000E-03 0. -1.
         11    1    4    4    0    0 -0.21643116803E-01  0.73217965455E-02  0.17984326383E-01  0.29081442984E-01  0.51100000000E-03 0.  1.
</event>
<event>
 8    1  0.1145101E+005  0.1043930E+01  0.7957747E-01            NaN
         13   -1    0    0    0    0  0.00000000000E+00  0.00000000000E+00  0.74505805969E-08  0.10566000000E+00  0.10566000000E+00 0.  1.
     999900   -1    0    0    0    0 -0.00000000000E+00 -0.00000000000E+00 -0.74505805969E-08  0.93827000000E+00  0.93827000000E+00 0.  1.
     999902    2    1    2    0    0  0.44689906945E-02  0.17110036910E-02 -0.23162513813E-01  0.10202783308E+01  0.10200041523E+01 0.  0.
     999903    2    3    3    0    0  0.11024140738E+00 -0.56768000657E-01  0.34455367317E-01  0.13015057684E+00  0.19396559339E-01 0.  0.
         14    1    1    2    0    0 -0.44689906945E-02 -0.17110036910E-02  0.23162513813E-01  0.23651669235E-01  0.00000000000E+00 0.  1.
     999901    1    3    3    0    0 -0.10577241669E+00  0.58479004348E-01 -0.57617881131E-01  0.89012775393E+00  0.88000000000E+00 0. -1.
        -11    1    4    4    0    0  0.35241258870E-01 -0.93125432690E-02  0.14141928640E-01  0.39101471271E-01  0.51100000000E-03 0.  1.
         11    1    4    4    0    0  0.75000148513E-01 -0.47455457388E-01  0.20313438677E-01  0.91049105569E-01  0.51100000000E-03 0. -1.
</event>
<event>
 8    1  0.1145101E+005  0.1043930E+01  0.7957747E-01            NaN
         13   -1    0    0    0    0  0.00000000000E+00  0.00000000000E+00  0.74505805969E-08  0.10566000000E+00  0.10566000000E+00 0.  1.
     999900   -1    0    0    0    0 -0.00000000000E+00 -0.00000000000E+00 -0.74505805969E-08  0.93827000000E+00  0.93827000000E+00 0. -1.
     999902    2    1    2    0    0 -0.88503090912E-02  0.43319384696E-03  0.23562789089E-01  0.10187561910E+01  0.10184451169E+01 0.  0.
     999903    2    3    3    0    0  0.57659293469E-01 -0.10726391039E+00 -0.33662650838E-01  0.12785948296E+00  0.19614604895E-01 0.  0.
         14    1    1    2    0    0  0.88503090912E-02 -0.43319384696E-03 -0.23562789089E-01  0.25173808960E-01  0.00000000000E+00 0. -1.
     999901    1    3    3    0    0 -0.66509602560E-01  0.10769710424E+00  0.57225439927E-01  0.89089670808E+00  0.88000000000E+00 0.  1.
        -11    1    4    4    0    0  0.42255964010E-01 -0.84135743261E-01 -0.33889799909E-01  0.10006582557E+00  0.51100000000E-03 0.  1.
         11    1    4    4    0    0  0.15403329459E-01 -0.23128167131E-01  0.22714907097E-03  0.27793657387E-01  0.51100000000E-03 0. -1.
</event>
<event>
 8    1  0.1145101E+005  0.1043930E+01  0.7957747E-01            NaN
         13   -1    0    0    0    0  0.00000000000E+00  0.00000000000E+00  0.74505805969E-08  0.10566000000E+00  0.10566000000E+00 0.  1.
     999900   -1    0    0    0    0 -0.00000000000E+00 -0.00000000000E+00 -0.74505805969E-08  0.93827000000E+00  0.93827000000E+00 0.  1.
     999902    2    1    2    0    0  0.16098967638E-01  0.63232244981E-03  0.19476401222E-01  0.10186533943E+01  0.10183397424E+01 0.  0.
     999903    2    3    3    0    0  0.10761794093E+00  0.11461796832E-01  0.73056085708E-01  0.13222021432E+00  0.20784595754E-01 0.  0.
         14    1    1    2    0    0 -0.16098967638E-01 -0.63232244981E-03 -0.19476401222E-01  0.25276605691E-01  0.00000000000E+00 0. -1.
     999901    1    3    3    0    0 -0.91518973291E-01 -0.10829474383E-01 -0.53579684486E-01  0.88643317998E+00  0.88000000000E+00 0.  1.
        -11    1    4    4    0    0  0.33128789711E-01 -0.60366997750E-02  0.21615081031E-01  0.40017887261E-01  0.51100000000E-03 0. -1.
         11    1    4    4    0    0  0.74489151218E-01  0.17498496607E-01  0.51441004677E-01  0.92202327064E-01  0.51100000000E-03 0.  1.
</event>
<event>
 8    1  0.1145101E+005  0.1043930E+01  0.7957747E-01            NaN
         13   -1    0    0    0    0  0.00000000000E+00  0.00000000000E+00  0.74505805969E-08  0.10566000000E+00  0.10566000000E+00 0.  1.
     999900   -1    0    0    0    0 -0.00000000000E+00 -0.00000000000E+00 -0.74505805969E-08  0.93827000000E+00  0.93827000000E+00 0.  1.
     999902    2    1    2    0    0 -0.54675913795E-02  0.14684015920E-01  0.17345073818E-01  0.10205555168E+01  0.10202878008E+01 0.  0.
     999903    2    3    3    0    0  0.11614153063E+00  0.39353308754E-01  0.43454577612E-01  0.13146662431E+00  0.18911238597E-01 0.  0.
         14    1    1    2    0    0  0.54675913795E-02 -0.14684015920E-01 -0.17345073818E-01  0.23374483198E-01  0.00000000000E+00 0.  1.
     999901    1    3    3    0    0 -0.12160912201E+00 -0.24669292834E-01 -0.26109503794E-01  0.88908889249E+00  0.88000000000E+00 0.  1.
        -11    1    4    4    0    0  0.12711777982E-01  0.96695082151E-02  0.96867814898E-02  0.18686453521E-01  0.51100000000E-03 0.  1.
         11    1    4    4    0    0  0.10342975265E+00  0.29683800539E-01  0.33767796122E-01  0.11278017079E+00  0.51100000000E-03 0. -1.
</event>
<event>
 8    1  0.1145101E+005  0.1043930E+01  0.7957747E-01            NaN
         13   -1    0    0    0    0  0.00000000000E+00  0.00000000000E+00  0.74505805969E-08  0.10566000000E+00  0.10566000000E+00 0.  1.
     999900   -1    0    0    0    0 -0.00000000000E+00 -0.00000000000E+00 -0.74505805969E-08  0.93827000000E+00  0.93827000000E+00 0. -1.
     999902    2    1    2    0    0  0.34172677714E-02 -0.75250175507E-02  0.24614192173E-01  0.10179653690E+01  0.10176341830E+01 0.  0.
     999903    2    3    3    0    0  0.47685096284E-02 -0.96366543230E-01 -0.81220870125E-01  0.12718161129E+00  0.16403754692E-01 0.  0.
         14    1    1    2    0    0 -0.34172677714E-02  0.75250175507E-02 -0.24614192173E-01  0.25964631029E-01  0.00000000000E+00 0. -1.
     999901    1    3    3    0    0 -0.13512418570E-02  0.88841525679E-01  0.10583506230E+00  0.89078375768E+00  0.88000000000E+00 0.  1.
        -11    1    4    4    0    0 -0.37101950306E-02 -0.72701387591E-02 -0.91378443023E-02  0.12263025085E-01  0.51100000000E-03 0.  1.
         11    1    4    4    0    0  0.84787046590E-02 -0.89096404471E-01 -0.72083025822E-01  0.11491858620E+00  0.51100000000E-03 0. -1.
</event>
<event>
 8    1  0.1145101E+005  0.1043930E+01  0.7957747E-01            NaN
         13   -1    0    0    0    0  0.00000000000E+00  0.00000000000E+00  0.74505805969E-08  0.10566000000E+00  0.10566000000E+00 0. -1.
     999900   -1    0    0    0    0 -0.00000000000E+00 -0.00000000000E+00 -0.74505805969E-08  0.93827000000E+00  0.93827000000E+00 0. -1.
     999902    2    1    2    0    0 -0.29204528311E-02  0.63412966547E-02  0.20237291591E-01  0.10225223131E+01  0.10222981912E+01 0.  0.
     999903    2    3    3    0    0 -0.41395778744E-01 -0.12360690911E+00  0.35329365682E-02  0.13199105459E+00  0.20417599629E-01 0.  0.
         14    1    1    2    0    0  0.29204528311E-02 -0.63412966547E-02 -0.20237291591E-01  0.21407686912E-01  0.00000000000E+00 0.  1.
     999901    1    3    3    0    0  0.38475325913E-01  0.12994820576E+00  0.16704355022E-01  0.89053125850E+00  0.88000000000E+00 0.  1.
        -11    1    4    4    0    0 -0.33242344694E-01 -0.93669040239E-01  0.11206366427E-01  0.10002392888E+00  0.51100000000E-03 0. -1.
         11    1    4    4    0    0 -0.81534340500E-02 -0.29937868867E-01 -0.76734298584E-02  0.31967125706E-01  0.51100000000E-03 0.  1.
</event>
<event>
 8    1  0.1145101E+005  0.1043930E+01  0.7957747E-01            NaN
         13   -1    0    0    0    0  0.00000000000E+00  0.00000000000E+00  0.74505805969E-08  0.10566000000E+00  0.10566000000E+00 0. -1.
     999900   -1    0    0    0    0 -0.00000000000E+00 -0.00000000000E+00 -0.74505805969E-08  0.93827000000E+00  0.93827000000E+00 0.  1.
     999902    2    1    2    0    0  0.62582413177E-02 -0.23516843245E-01  0.34350179618E-05  0.10195946859E+01  0.10193042313E+01 0.  0.
     999903    2    3    3    0    0 -0.11353332657E-01 -0.72769123184E-01  0.10717933049E+00  0.13155041494E+00  0.19845889611E-01 0.  0.
         14    1    1    2    0    0 -0.62582413177E-02  0.23516843245E-01 -0.34350179617E-05  0.24335314101E-01  0.00000000000E+00 0.  1.
     999901    1    3    3    0    0  0.17611573975E-01  0.49252279939E-01 -0.10717589547E+00  0.88804427096E+00  0.88000000000E+00 0.  1.
        -11    1    4    4    0    0 -0.39301506564E-02 -0.30237285591E-01  0.61782517858E-01  0.68899057744E-01  0.51100000000E-03 0.  1.
         11    1    4    4    0    0 -0.74231820009E-02 -0.42531837593E-01  0.45396812632E-01  0.62651357194E-01  0.51100000000E-03 0. -1.
</event>
<event>
 8    1  0.1145101E+005  0.1043930E+01  0.7957747E-01            NaN
         13   -1    0    0    0    0  0.00000000000E+00  0.00000000000E+00  0.74505805969E-08  0.10566000000E+00  0.10566000000E+00 0.  1.
     999900   -1    0    0    0    0 -0.00000000000E+00 -0.00000000000E+00 -0.74505805969E-08  0.93827000000E+00  0.93827000000E+00 0. -1.
     999902    2    1    2    0    0 -0.88675736800E-02 -0.16298906379E-01 -0.11575755486E-01  0.10220602417E+01  0.10218262335E+01 0.  0.
     999903    2    3    3    0    0  0.10646136889E+00  0.56612844508E-01 -0.45907028142E-01  0.13088375825E+00  0.22001493412E-01 0.  0.
         14    1    1    2    0    0  0.88675736800E-02  0.16298906379E-01  0.11575755486E-01  0.21869758279E-01  0.00000000000E+00 0.  1.
     999901    1    3    3    0    0 -0.11532894257E+00 -0.72911750888E-01  0.34331272656E-01  0.89117648347E+00  0.88000000000E+00 0.  1.
        -11    1    4    4    0    0  0.42245228722E-01  0.31772556017E-01 -0.12344634095E-01  0.54284489291E-01  0.51100000000E-03 0. -1.
         11    1    4    4    0    0  0.64216140163E-01  0.24840288492E-01 -0.33562394047E-01  0.76599268958E-01  0.51100000000E-03 0.  1.
</event>
<event>
 8    1  0.1145101E+005  0.1043930E+01  0.7957747E-01            NaN
         13   -1    0    0    0    0  0.00000000000E+00  0.00000000000E+00  0.74505805969E-08  0.10566000000E+00  0.10566000000E+00 0.  1.
     999900   -1    0    0    0    0 -0.00000000000E+00 -0.00000000000E+00 -0.74505805969E-08  0.93827000000E+00  0.93827000000E+00 0. -1.
     999902    2    1    2    0    0 -0.15462263828E-01 -0.11440607614E-01  0.10348097062E-01  0.10220884749E+01  0.10218550770E+01 0.  0.
     999903    2    3    3    0    0  0.96633036615E-01 -0.87039746662E-01  0.22163537625E-02  0.13172522800E+00  0.20802937373E-01 0.  0.
         14    1    1    2    0    0  0.15462263828E-01  0.11440607614E-01 -0.10348097062E-01  0.21841525086E-01  0.00000000000E+00 0.  1.
     999901    1    3    3    0    0 -0.11209530044E+00  0.75599139048E-01  0.81317432993E-02  0.89036324691E+00  0.88000000000E+00 0. -1.
        -11    1    4    4    0    0  0.50695661566E-01 -0.59244110386E-01  0.28380700267E-02  0.78027113746E-01  0.51100000000E-03 0.  1.
         11    1    4    4    0    0  0.45937375048E-01 -0.27795636276E-01 -0.62171626415E-03  0.53698114254E-01  0.51100000000E-03 0. -1.
</event>
<event>
 8    1  0.1145101E+005  0.1043930E+01  0.7957747E-01            NaN
         13   -1    0    0    0    0  0.00000000000E+00  0.00000000000E+00  0.74505805969E-08  0.10566000000E+00  0.10566000000E+00 0.  1.
     999900   -1    0    0    0    0 -0.00000000000E+00 -0.00000000000E+00 -0.74505805969E-08  0.93827000000E+00  0.93827000000E+00 0.  1.
     999902    2    1    2    0    0 -0.18836728539E-01  0.14288399322E-01  0.21711262395E-02  0.10201877489E+01  0.10199114415E+01 0.  0.
     999903    2    3    3    0    0  0.10940543254E+00  0.63149998111E-01 -0.20958159217E-01  0.12925089843E+00  0.17580653441E-01 0.  0.
         14    1    1    2    0    0  0.18836728539E-01 -0.14288399322E-01 -0.21711262395E-02  0.23742251081E-01  0.00000000000E+00 0. -1.
     999901    1    3    3    0    0 -0.12824216108E+00 -0.48861598789E-01  0.23129285456E-01  0.89093685049E+00  0.88000000000E+00 0. -1.
        -11    1    4    4    0    0  0.72588876264E-01  0.50863208765E-01 -0.16774255230E-01  0.90210020079E-01  0.51100000000E-03 0.  1.
         11    1    4    4    0    0  0.36816556281E-01  0.12286789345E-01 -0.41839039867E-02  0.39040878350E-01  0.51100000000E-03 0. -1.
</event>
<event>
 8    1  0.1145101E+005  0.1043930E+01  0.7957747E-01            NaN
         13   -1    0    0    0    0  0.00000000000E+00  0.00000000000E+00  0.74505805969E-08  0.10566000000E+00  0.10566000000E+00 0. -1.
     999900   -1    0    0    0    0 -0.00000000000E+00 -0.00000000000E+00 -0.74505805969E-08  0.93827000000E+00  0.93827000000E+00 0. -1.
     999902    2    1    2    0    0  0.21335950020E-01  0.15871273898E-01 -0.29162935351E-02  0.10171788343E+01  0.10168270040E+01 0.  0.
     999903    2    3    3    0    0 -0.22526750011E-01  0.12556939969E+00  0.39769845111E-02  0.12925702888E+00  0.20406726957E-01 0.  0.
         14    1    1    2    0    0 -0.21335950020E-01 -0.15871273898E-01  0.29162935351E-02  0.26751165701E-01  0.00000000000E+00 0. -1.
     999901    1    3    3    0    0  0.43862700031E-01 -0.10969812579E+00 -0.68932780462E-02  0.88792180542E+00  0.88000000000E+00 0.  1.
        -11    1    4    4    0    0 -0.97839978262E-02  0.35198965114E-01 -0.74183686127E-02  0.37282530392E-01  0.51100000000E-03 0.  1.
         11    1    4    4    0    0 -0.12742752185E-01  0.90370434574E-01  0.11395353124E-01  0.91974498488E-01  0.51100000000E-03 0. -1.
</event>
<event>
 8    1  0.1145101E+005  0.1043930E+01  0.7957747E-01            NaN
         13   -1    0    0    0    0  0.00000000000E+00  0.00000000000E+00  0.74505805969E-08  0.10566000000E+00  0.10566000000E+00 0. -1.
     999900   -1    0    0    0    0 -0.00000000000E+00 -0.00000000000E+00 -0.74505805969E-08  0.93827000000E+00  0.93827000000E+00 0.  1.
     999902    2    1    2    0    0  0.12549613340E-01 -0.11440253719E-01  0.15955823851E-01  0.10206284869E+01  0.10203624590E+01 0.  0.
     999903    2    3    3    0    0  0.85910809946E-01 -0.77913321294E-01 -0.58961239487E-01  0.13191419066E+00  0.21766328005E-01 0.  0.
         14    1    1    2    0    0 -0.12549613340E-01  0.11440253719E-01 -0.15955823851E-01  0.23301513146E-01  0.00000000000E+00 0.  1.
     999901    1    3    3    0    0 -0.73361196606E-01  0.66473067575E-01  0.74917063339E-01  0.88871429619E+00  0.88000000000E+00 0. -1.
        -11    1    4    4    0    0  0.20982504975E-01 -0.11646814036E-01 -0.20181936507E-01  0.31360571971E-01  0.51100000000E-03 0. -1.
         11    1    4    4    0    0  0.64928304971E-01 -0.66266507258E-01 -0.38779302981E-01  0.10055361869E+00  0.51100000000E-03 0.  1.
</event>
<event>
 8    1  0.1145101E+005  0.1043930E+01  0.7957747E-01            NaN
         13   -1    0    0    0    0  0.00000000000E+00  0.00000000000E+00  0.74505805969E-08  0.10566000000E+00  0.10566000000E+00 0. -1.
     999900   -1    0    0    0    0 -0.00000000000E+00 -0.00000000000E+00 -0.74505805969E-08  0.93827000000E+00  0.93827000000E+00 0.  1.
     999902    2    1    2    0    0 -0.54126424724E-02  0.23422440617E-01  0.20758598850E-02  0.10198008347E+01  0.10195153387E+01 0.  0.
     999903    2    3    3    0    0  0.54777797564E-01  0.30616897763E-01 -0.11253500099E+00  0.13030080733E+00  0.19395164578E-01 0.  0.
         14    1    1    2    0    0  0.54126424724E-02 -0.23422440617E-01 -0.20758598850E-02  0.24129165283E-01  0.00000000000E+00 0.  1.
     999901    1    3    3    0    0 -0.60190440036E-01 -0.71944571462E-02  0.11461086088E+00  0.88950002738E+00  0.88000000000E+00 0. -1.
        -11    1    4    4    0    0  0.55272080246E-01  0.27755841511E-01 -0.10134088600E+00  0.11872500111E+00  0.51100000000E-03 0.  1.
         11    1    4    4    0    0 -0.49428268206E-03  0.28610562524E-02 -0.11194114990E-01  0.11575806220E-01  0.51100000000E-03 0. -1.
</event>
<event>
 8    1  0.1145101E+005  0.1043930E+01  0.7957747E-01            NaN
         13   -1    0    0    0    0  0.00000000000E+00  0.00000000000E+00  0.74505805969E-08  0.10566000000E+00  0.10566000000E+00 0.  1.
     999900   -1    0    0    0    0 -0.00000000000E+00 -0.00000000000E+00 -0.74505805969E-08  0.93827000000E+00  0.93827000000E+00 0. -1.
     999902    2    1    2    0    0  0.19863253847E-01 -0.44231329742E-02 -0.57623124835E-02  0.10227801252E+01  0.10225614247E+01 0.  0.
     999903    2    3    3    0    0 -0.38034476859E-01  0.10294095071E+00 -0.70524508837E-01  0.13200892239E+00  0.20228407756E-01 0.  0.
         14    1    1    2    0    0 -0.19863253847E-01  0.44231329742E-02  0.57623124835E-02  0.21149874795E-01  0.00000000000E+00 0.  1.
     999901    1    3    3    0    0  0.57897730706E-01 -0.10736408369E+00  0.64762196354E-01  0.89077120281E+00  0.88000000000E+00 0.  1.
        -11    1    4    4    0    0 -0.19511749784E-01  0.77404540225E-01 -0.46813267220E-01  0.92541419569E-01  0.51100000000E-03 0. -1.
         11    1    4    4    0    0 -0.18522727075E-01  0.25536410488E-01 -0.23711241617E-01  0.39467502821E-01  0.51100000000E-03 0.  1.
</event>
<event>
 8    1  0.1145101E+005  0.1043930E+01  0.7957747E-01            NaN
         13   -1    0    0    0    0  0.00000000000E+00  0.00000000000E+00  0.74505805969E-08  0.10566000000E+00  0.10566000000E+00 0. -1.
     999900   -1    0    0    0    0 -0.00000000000E+00 -0.00000000000E+00 -0.74505805969E-08  0.93827000000E+00  0.93827000000E+00 0. -1.
     999902    2    1    2    0    0 -0.11953364146E-03 -0.57252641289E-02  0.25168959194E-01  0.10181178043E+01  0.10177905453E+01 0.  0.
     999903    2    3    3    0    0  0.52885197512E-01 -0.96867388484E-01  0.67038875995E-01  0.13083573066E+00  0.21062821606E-01 0.  0.
         14    1    1    2    0    0  0.11953364146E-03  0.57252641289E-02 -0.25168959194E-01  0.25812195655E-01  0.00000000000E+00 0.  1.
     999901    1    3    3    0    0 -0.53004731153E-01  0.91142124355E-01 -0.41869916801E-01  0.88728207369E+00  0.88000000000E+00 0. -1.
        -11    1    4    4    0    0  0.58338829448E-02 -0.22835749391E-01  0.71997362841E-02  0.24649603730E-01  0.51100000000E-03 0. -1.
         11    1    4    4    0    0  0.47051314567E-01 -0.74031639093E-01  0.59839139711E-01  0.10618612693E+00  0.51100000000E-03 0.  1.
</event>
<event>
 8    1  0.1145101E+005  0.1043930E+01  0.7957747E-01            NaN
         13   -1    0    0    0    0  0.00000000000E+00  0.00000000000E+00  0.74505805969E-08  0.10566000000E+00  0.10566000000E+00 0. -1.
     999900   -1    0    0    0    0 -0.00000000000E+00 -0.00000000000E+00 -0.74505805969E-08  0.93827000000E+00  0.93827000000E+00 0.  1.
     999902    2    1    2    0    0 -0.74824885667E-02 -0.61403343077E-02 -0.21616490159E-01  0.10202453217E+01  0.10199703684E+01 0.  0.
     999903    2    3    3    0    0 -0.13717123024E-01  0.11847958677E+00  0.44691678610E-01  0.12897332692E+00  0.20278090972E-01 0.  0.
         14    1    1    2    0    0  0.74824885667E-02  0.61403343077E-02  0.21616490159E-01  0.23684678325E-01  0.00000000000E+00 0.  1.
     999901    1    3    3    0    0  0.62346344574E-02 -0.12461992108E+00 -0.66308168769E-01  0.89127199476E+00  0.88000000000E+00 0. -1.
        -11    1    4    4    0    0  0.13603195187E-03  0.79717414762E-01  0.31906982560E-01  0.85867347566E-01  0.51100000000E-03 0.  1.
         11    1    4    4    0    0 -0.13853154976E-01  0.38762172009E-01  0.12784696051E-01  0.43105979350E-01  0.51100000000E-03 0. -1.
</event>
<event>
 8    1  0.1145101E+005  0.1043930E+01  0.7957747E-01            NaN
         13   -1    0    0    0    0  0.00000000000E+00  0.00000000000E+00  0.74505805969E-08  0.10566000000E+00  0.10566000000E+00 0. -1.
     999900   -1    0    0    0    0 -0.00000000000E+00 -0.00000000000E+00 -0.74505805969E-08  0.93827000000E+00  0.93827000000E+00 0. -1.
     999902    2    1    2    0    0  0.91326812530E-02  0.61622285021E-02 -0.19485048463E-01  0.10215459423E+01  0.10213006737E+01 0.  0.
     999903    2    3    3    0    0 -0.10621822364E+00  0.62554835190E-01 -0.42697268834E-01  0.13192536892E+00  0.19642498814E-01 0.  0.
         14    1    1    2    0    0 -0.91326812530E-02 -0.61622285021E-02  0.19485048463E-01  0.22384057733E-01  0.00000000000E+00 0. -1.
     999901    1    3    3    0    0  0.11535090489E+00 -0.56392606688E-01  0.23212220371E-01  0.88962057335E+00  0.88000000000E+00 0. -1.
        -11    1    4    4    0    0 -0.58125923609E-01  0.44325216631E-01 -0.20612838399E-01  0.75950629048E-01  0.51100000000E-03 0. -1.
         11    1    4    4    0    0 -0.48092300032E-01  0.18229618558E-01 -0.22084430434E-01  0.55974739872E-01  0.51100000000E-03 0.  1.
</event>
<event>
 8    1  0.1145101E+005  0.1043930E+01  0.7957747E-01            NaN
         13   -1    0    0    0    0  0.00000000000E+00  0.00000000000E+00  0.74505805969E-08  0.10566000000E+00  0.10566000000E+00 0. -1.
     999900   -1    0    0    0    0 -0.00000000000E+00 -0.00000000000E+00 -0.74505805969E-08  0.93827000000E+00  0.93827000000E+00 0.  1.
     999902    2    1    2    0    0  0.21368045867E-01  0.14679226963E-03 -0.57812742641E-02  0.10217931966E+01  0.10215533753E+01 0.  0.
     999903    2    3    3    0    0 -0.80631299983E-01 -0.43194090482E-01 -0.90938140435E-01  0.13076346056E+00  0.21498866074E-01 0.  0.
         14    1    1    2    0    0 -0.21368045867E-01 -0.14679226963E-03  0.57812742641E-02  0.22136803388E-01  0.00000000000E+00 0.  1.
     999901    1    3    3    0    0  0.10199934585E+00  0.43340882752E-01  0.85156866171E-01  0.89102973605E+00  0.88000000000E+00 0. -1.
        -11    1    4    4    0    0 -0.66145279270E-02 -0.82046963567E-02 -0.19202135059E-01  0.21910092054E-01  0.51100000000E-03 0. -1.
         11    1    4    4    0    0 -0.74016772056E-01 -0.34989394126E-01 -0.71736005376E-01  0.10885336851E+00  0.51100000000E-03 0.  1.
</event>
<event>
 8    1  0.1145101E+005  0.1043930E+01  0.7957747E-01            NaN
         13   -1    0    0    0    0  0.00000000000E+00  0.00000000000E+00  0.74505805969E-08  0.10566000000E+00  0.10566000000E+00 0. -1.
     999900   -1    0    0    0    0 -0.00000000000E+00 -0.00000000000E+00 -0.74505805969E-08  0.93827000000E+00  0.93827000000E+00 0. -1.
     999902    2    1    2    0    0  0.81387098689E-02  0.20249244725E-01 -0.10871976627E-01  0.10195482366E+01  0.10192566587E+01 0.  0.
     999903    2    3    3    0    0 -0.11008528336E+00 -0.59483985193E-01 -0.17786689905E-01  0.12804270450E+00  0.20529338248E-01 0.  0.
         14    1    1    2    0    0 -0.81387098689E-02 -0.20249244725E-01  0.10871976627E-01  0.24381763391E-01  0.00000000000E+00 0. -1.
     999901    1    3    3    0    0  0.11822399323E+00  0.79733229918E-01  0.69147132778E-02  0.89150553211E+00  0.88000000000E+00 0.  1.
        -11    1    4    4    0    0 -0.76078435641E-01 -0.30521161266E-01 -0.14535780636E-01  0.83252745866E-01  0.51100000000E-03 0.  1.
         11    1    4    4    0    0 -0.34006847724E-01 -0.28962823928E-01 -0.32509092692E-02  0.44789958630E-01  0.51100000000E-03 0. -1.
</event>
<event>
 8    1  0.1145101E+005  0.1043930E+01  0.7957747E-01            NaN
         13   -1    0    0    0    0  0.00000000000E+00  0.00000000000E+00  0.74505805969E-08  0.10566000000E+00  0.10566000000E+00 0.  1.
     999900   -1    0    0    0    0 -0.00000000000E+00 -0.00000000000E+00 -0.74505805969E-08  0.93827000000E+00  0.93827000000E+00 0.  1.
     999902    2    1    2    0    0  0.15330271888E-01  0.17742295688E-01 -0.39178690339E-02  0.10201569903E+01  0.10198799581E+01 0.  0.
     999903    2    3    3    0    0 -0.61405327829E-02 -0.26317707494E-01  0.12503684536E+00  0.12940921584E+00  0.19550053120E-01 0.  0.
         14    1    1    2    0    0 -0.15330271888E-01 -0.17742295688E-01  0.39178690339E-02  0.23773009700E-01  0.00000000000E+00 0.  1.
     999901    1    3    3    0    0  0.21470804671E-01  0.44060003182E-01 -0.12895471439E+00  0.89074777446E+00  0.88000000000E+00 0.  1.
        -11    1    4    4    0    0 -0.41884704163E-02  0.21520586593E-02  0.14928691918E-01  0.15662107275E-01  0.51100000000E-03 0. -1.
         11    1    4    4    0    0 -0.19520623666E-02 -0.28469766154E-01  0.11010815344E+00  0.11374710857E+00  0.51100000000E-03 0.  1.
</event>
<event>
 8    1  0.1145101E+005  0.1043930E+01  0.7957747E-01            NaN
         13   -1    0    0    0    0  0.00000000000E+00  0.00000000000E+00  0.74505805969E-08  0.10566000000E+00  0.10566000000E+00 0. -1.
     999900   -1    0    0    0    0 -0.00000000000E+00 -0.00000000000E+00 -0.74505805969E-08  0.93827000000E+00  0.93827000000E+00 0.  1.
     999902    2    1    2    0    0 -0.10033532626E-01  0.19922537296E-01 -0.61348007123E-02  0.10207952848E+01  0.10205330952E+01 0.  0.
     999903    2    3    3    0    0  0.11201017133E+00 -0.58317347605E-01  0.14296570965E-01  0.12870023029E+00  0.20301867461E-01 0.  0.
         14    1    1    2    0    0  0.10033532626E-01 -0.19922537296E-01  0.61348007123E-02  0.23134715236E-01  0.00000000000E+00 0.  1.
     999901    1    3    3    0    0 -0.12204370396E+00  0.78239884901E-01 -0.20431371678E-01  0.89209505447E+00  0.88000000000E+00 0.  1.
        -11    1    4    4    0    0  0.90405033358E-01 -0.46928865653E-01  0.33090432702E-02  0.10191466713E+00  0.51100000000E-03 0.  1.
         11    1    4    4    0    0  0.21605137974E-01 -0.11388481952E-01  0.10987527695E-01  0.26785563162E-01  0.51100000000E-03 0. -1.
</event>
<event>
 8    1  0.1145101E+005  0.1043930E+01  0.7957747E-01            NaN
         13   -1    0    0    0    0  0.00000000000E+00  0.00000000000E+00  0.74505805969E-08  0.10566000000E+00  0.10566000000E+00 0. -1.
     999900   -1    0    0    0    0 -0.00000000000E+00 -0.00000000000E+00 -0.74505805969E-08  0.93827000000E+00  0.93827000000E+00 0. -1.
     999902    2    1    2    0    0  0.10662154850E-02 -0.17287013397E-01 -0.16036893460E-01  0.10203257716E+01  0.10200527048E+01 0.  0.
     999903    2    3    3    0    0 -0.82715181575E-01  0.84073869213E-01  0.46571762007E-01  0.12835425031E+00  0.19891400350E-01 0.  0.
         14    1    1    2    0    0 -0.10662154850E-02  0.17287013397E-01  0.16036893460E-01  0.23604228424E-01  0.00000000000E+00 0. -1.
     999901    1    3    3    0    0  0.83781397060E-01 -0.10136088261E+00 -0.62608655466E-01  0.89197152127E+00  0.88000000000E+00 0. -1.
        -11    1    4    4    0    0 -0.73730511246E-01  0.65005968196E-01  0.41299580340E-01  0.10662026377E+00  0.51100000000E-03 0.  1.
         11    1    4    4    0    0 -0.89846703286E-02  0.19067901017E-01  0.52721816663E-02  0.21733986533E-01  0.51100000000E-03 0. -1.
</event>
<event>
 8    1  0.1145101E+005  0.1043930E+01  0.7957747E-01            NaN
         13   -1    0    0    0    0  0.00000000000E+00  0.00000000000E+00  0.74505805969E-08  0.10566000000E+00  0.10566000000E+00 0. -1.
     999900   -1    0    0    0    0 -0.00000000000E+00 -0.00000000000E+00 -0.74505805969E-08  0.93827000000E+00  0.93827000000E+00 0.  1.
     999902    2    1    2    0    0  0.10386274664E-01  0.23967310959E-01 -0.56645505347E-02  0.10172018532E+01  0.10168506362E+01 0.  0.
     999903    2    3    3    0    0  0.50499952950E-01 -0.10664730889E+00  0.38860413210E-01  0.12554510399E+00  0.18098278379E-01 0.  0.
         14    1    1    2    0    0 -0.10386274664E-01 -0.23967310959E-01  0.56645505347E-02  0.26728146751E-01  0.00000000000E+00 0. -1.
     999901    1    3    3    0    0 -0.40113678286E-01  0.13061461984E+00 -0.44524963745E-01  0.89165674926E+00  0.88000000000E+00 0. -1.
        -11    1    4    4    0    0  0.10080618854E-01 -0.84130504097E-02  0.48712707031E-02  0.14013875015E-01  0.51100000000E-03 0.  1.
         11    1    4    4    0    0  0.40419334096E-01 -0.98234258476E-01  0.33989142507E-01  0.11153122897E+00  0.51100000000E-03 0. -1.
</event>
<event>
 8    1  0.1145101E+005  0.1043930E+01  0.7957747E-01            NaN
         13   -1    0    0    0    0  0.00000000000E+00  0.00000000000E+00  0.74505805969E-08  0.10566000000E+00  0.10566000000E+00 0. -1.
     999900   -1    0    0    0    0 -0.00000000000E+00 -0.00000000000E+00 -0.74505805969E-08  0.93827000000E+00  0.93827000000E+00 0. -1.
     999902    2    1    2    0    0 -0.19963329923E-01  0.35703892594E-02 -0.12733716051E-01  0.10199836068E+01  0.10197024706E+01 0.  0.
     999903    2    3    3    0    0  0.44056487126E-01 -0.11808621010E+00 -0.19715107124E-01  0.12928298094E+00  0.20978003699E-01 0.  0.
         14    1    1    2    0    0  0.19963329923E-01 -0.35703892594E-02  0.12733716051E-01  0.23946393164E-01  0.00000000000E+00 0. -1.
     999901    1    3    3    0    0 -0.64019817049E-01  0.12165659936E+00  0.69813910730E-02  0.89070062589E+00  0.88000000000E+00 0. -1.
        -11    1    4    4    0    0  0.41846587612E-01 -0.98487161165E-01 -0.10551277870E-01  0.10752882588E+00  0.51100000000E-03 0. -1.
         11    1    4    4    0    0  0.22098995144E-02 -0.19599048935E-01 -0.91638292543E-02  0.21754155066E-01  0.51100000000E-03 0.  1.
</event>
<event>
 8    1  0.1145101E+005  0.1043930E+01  0.7957747E-01            NaN
         13   -1    0    0    0    0  0.00000000000E+00  0.00000000000E+00  0.74505805969E-08  0.10566000000E+00  0.10566000000E+00 0. -1.
     999900   -1    0    0    0    0 -0.00000000000E+00 -0.00000000000E+00 -0.74505805969E-08  0.93827000000E+00  0.93827000000E+00 0. -1.
     999902    2    1    2    0    0 -0.21964351543E-01 -0.41209589691E-02 -0.38045035309E-02  0.10212608737E+01  0.10210092472E+01 0.  0.
     999903    2    3    3    0    0 -0.53377884812E-01 -0.78242887487E-01 -0.91661574707E-01  0.13322949173E+00  0.19419195610E-01 0.  0.
         14    1    1    2    0    0  0.21964351543E-01  0.41209589691E-02  0.38045035309E-02  0.22669126332E-01  0.00000000000E+00 0.  1.
     999901    1    3    3    0    0  0.31413533269E-01  0.74121928518E-01  0.87857071176E-01  0.88803138194E+00  0.88000000000E+00 0.  1.
        -11    1    4    4    0    0 -0.49536527026E-01 -0.67790210284E-01 -0.71901516864E-01  0.11054170873E+00  0.51100000000E-03 0.  1.
         11    1    4    4    0    0 -0.38413577858E-02 -0.10452677204E-01 -0.19760057843E-01  0.22687782997E-01  0.51100000000E-03 0. -1.
</event>
<event>
 8    1  0.1145101E+005  0.1043930E+01  0.7957747E-01            NaN
         13   -1    0    0    0    0  0.00000000000E+00  0.00000000000E+00  0.74505805969E-08  0.10566000000E+00  0.10566000000E+00 0. -1.
     999900   -1    0    0    0    0 -0.00000000000E+00 -0.00000000000E+00 -0.74505805969E-08  0.93827000000E+00  0.93827000000E+00 0. -1.
     999902    2    1    2    0    0 -0.85003082546E-02  0.10061304177E-01  0.18501771628E-01  0.10212187553E+01  0.10209661824E+01 0.  0.
     999903    2    3    3    0    0 -0.48283609316E-01  0.59204616835E-01  0.10876567200E+00  0.13434483646E+00  0.19546613356E-01 0.  0.
         14    1    1    2    0    0  0.85003082546E-02 -0.10061304177E-01 -0.18501771628E-01  0.22711244693E-01  0.00000000000E+00 0.  1.
     999901    1    3    3    0    0  0.39783301062E-01 -0.49143312659E-01 -0.90263900375E-01  0.88687391885E+00  0.88000000000E+00 0. -1.
        -11    1    4    4    0    0 -0.38285485162E-01  0.36091041212E-01  0.62794504105E-01  0.81925286064E-01  0.51100000000E-03 0. -1.
         11    1    4    4    0    0 -0.99981241540E-02  0.23113575623E-01  0.45971167898E-01  0.52419550395E-01  0.51100000000E-03 0.  1.
</event>
<event>
 8    1  0.1145101E+005  0.1043930E+01  0.7957747E-01            NaN
         13   -1    0    0    0    0  0.00000000000E+00  0.00000000000E+00  0.74505805969E-08  0.10566000000E+00  0.10566000000E+00 0.  1.
     999900   -1    0    0    0    0 -0.00000000000E+00 -0.00000000000E+00 -0.74505805969E-08  0.93827000000E+00  0.93827000000E+00 0. -1.
     999902    2    1    2    0    0 -0.15121208959E-01 -0.10137257661E-01 -0.11498536424E-01  0.10223979009E+01  0.10221711385E+01 0.  0.
     999903    2    3    3    0    0 -0.51666501873E-01 -0.38938206241E-01 -0.11672449730E+00  0.13490843281E+00  0.19750079798E-01 0.  0.
         14    1    1    2    0    0  0.15121208959E-01  0.10137257661E-01  0.11498536424E-01  0.21532099135E-01  0.00000000000E+00 0.  1.
     999901    1    3    3    0    0  0.36545292914E-01  0.28800948580E-01  0.10522596087E+00  0.88748946806E+00  0.88000000000E+00 0.  1.
        -11    1    4    4    0    0 -0.49716832856E-01 -0.33770174709E-01 -0.94437385942E-01  0.11194136480E+00  0.51100000000E-03 0.  1.
         11    1    4    4    0    0 -0.19496690171E-02 -0.51680315321E-02 -0.22287111355E-01  0.22967068005E-01  0.51100000000E-03 0. -1.
</event>
<event>
 8    1  0.1145101E+005  0.1043930E+01  0.7957747E-01            NaN
         13   -1    0    0    0    0  0.00000000000E+00  0.00000000000E+00  0.74505805969E-08  0.10566000000E+00  0.10566000000E+00 0.  1.
     999900   -1    0    0    0    0 -0.00000000000E+00 -0.00000000000E+00 -0.74505805969E-08  0.93827000000E+00  0.93827000000E+00 0. -1.
     999902    2    1    2    0    0  0.20470746191E-01 -0.77973336663E-02  0.84702527557E-02  0.10204439394E+01  0.10201736315E+01 0.  0.
     999903    2    3    3    0    0 -0.14309242872E-01  0.59138146967E-01  0.11423372546E+00  0.13090702706E+00  0.19627298431E-01 0.  0.
         14    1    1    2    0    0 -0.20470746191E-01  0.77973336663E-02 -0.84702527557E-02  0.23486060625E-01  0.00000000000E+00 0. -1.
     999901    1    3    3    0    0  0.34779989063E-01 -0.66935480634E-01 -0.10576347270E+00  0.88953691231E+00  0.88000000000E+00 0. -1.
        -11    1    4    4    0    0 -0.21756928397E-02  0.19233728397E-01  0.56172000545E-01  0.59415694170E-01  0.51100000000E-03 0.  1.
         11    1    4    4    0    0 -0.12133550032E-01  0.39904418570E-01  0.58061724915E-01  0.71491332894E-01  0.51100000000E-03 0. -1.
</event>
<event>
 8    1  0.1145101E+005  0.1043930E+01  0.7957747E-01            NaN
         13   -1    0    0    0    0  0.00000000000E+00  0.00000000000E+00  0.74505805969E-08  0.10566000000E+00  0.10566000000E+00 0. -1.
     999900   -1    0    0    0    0 -0.00000000000E+00 -0.00000000000E+00 -0.74505805969E-08  0.93827000000E+00  0.93827000000E+00 0.  1.
     999902    2    1    2    0    0  0.60767600255E-02  0.22773905706E-01  0.21678821778E-02  0.10202598182E+01  0.10199852053E+01 0.  0.
     999903    2    3    3    0    0 -0.11291361873E+00 -0.40301096247E-01 -0.42865427533E-01  0.12887596985E+00  0.19947608253E-01 0.  0.
         14    1    1    2    0    0 -0.60767600255E-02 -0.22773905706E-01 -0.21678821778E-02  0.23670181804E-01  0.00000000000E+00 0.  1.
     999901    1    3    3    0    0  0.11899037875E+00  0.63075001953E-01  0.45033309710E-01  0.89138384834E+00  0.88000000000E+00 0.  1.
        -11    1    4    4    0    0 -0.45567968804E-01 -0.68627500540E-02 -0.20414806558E-01  0.50403993562E-01  0.51100000000E-03 0. -1.
         11    1    4    4    0    0 -0.67345649922E-01 -0.33438346193E-01 -0.22450620975E-01  0.78471976289E-01  0.51100000000E-03 0.  1.
</event>
<event>
 8    1  0.1145101E+005  0.1043930E+01  0.7957747E-01            NaN
         13   -1    0    0    0    0  0.00000000000E+00  0.00000000000E+00  0.74505805969E-08  0.10566000000E+00  0.10566000000E+00 0.  1.
     999900   -1    0    0    0    0 -0.00000000000E+00 -0.00000000000E+00 -0.74505805969E-08  0.93827000000E+00  0.93827000000E+00 0.  1.
     999902    2    1    2    0    0  0.89527521511E-02 -0.28911509253E-02 -0.21702027007E-01  0.10202764907E+01  0.10200022691E+01 0.  0.
     999903    2    3    3    0    0 -0.73413408353E-01 -0.82736617102E-01 -0.68822035537E-01  0.13158094214E+00  0.18498524933E-01 0.  0.
         14    1    1    2    0    0 -0.89527521511E-02  0.28911509253E-02  0.21702027007E-01  0.23653509274E-01  0.00000000000E+00 0.  1.
     999901    1    3    3    0    0  0.82366160504E-01  0.79845466176E-01  0.47120008530E-01  0.88869554858E+00  0.88000000000E+00 0. -1.
        -11    1    4    4    0    0 -0.62190324404E-02 -0.89135748774E-02 -0.13873340068E-01  0.17631190182E-01  0.51100000000E-03 0.  1.
         11    1    4    4    0    0 -0.67194375912E-01 -0.73823042224E-01 -0.54948695469E-01  0.11394975196E+00  0.51100000000E-03 0. -1.
</event>
<event>
 8    1  0.1145101E+005  0.1043930E+01  0.7957747E-01            NaN
         13   -1    0    0    0    0  0.00000000000E+00  0.00000000000E+00  0.74505805969E-08  0.10566000000E+00  0.10566000000E+00 0.  1.
     999900   -1    0    0    0    0 -0.00000000000E+00 -0.00000000000E+00 -0.74505805969E-08  0.93827000000E+00  0.93827000000E+00 0.  1.
     999902    2    1    2    0    0 -0.82831316478E-02  0.20109314091E-01 -0.94041737971E-02  0.10202354169E+01  0.10199602309E+01 0.  0.
     999903    2    3    3    0    0  0.79168318552E-01  0.97619385045E-01 -0.35342686016E-01  0.13213160898E+00  0.20309840909E-01 0.  0.
         14    1    1    2    0    0  0.82831316478E-02 -0.20109314091E-01  0.94041737971E-02  0.23694583092E-01  0.00000000000E+00 0. -1.
     999901    1    3    3    0    0 -0.87451450200E-01 -0.77510070954E-01  0.25938512219E-01  0.88810380793E+00  0.88000000000E+00 0. -1.
        -11    1    4    4    0    0  0.35908713617E-01  0.60005509339E-01 -0.21411128684E-01  0.73135452533E-01  0.51100000000E-03 0.  1.
         11    1    4    4    0    0  0.43259604936E-01  0.37613875706E-01 -0.13931557332E-01  0.58996156447E-01  0.51100000000E-03 0. -1.
</event>
<event>
 8    1  0.1145101E+005  0.1043930E+01  0.7957747E-01            NaN
         13   -1    0    0    0    0  0.00000000000E+00  0.00000000000E+00  0.74505805969E-08  0.10566000000E+00  0.10566000000E+00 0. -1.
     999900   -1    0    0    0    0 -0.00000000000E+00 -0.00000000000E+00 -0.74505805969E-08  0.93827000000E+00  0.93827000000E+00 0.  1.
     999902    2    1    2    0    0  0.70482568880E-02 -0.38179048848E-02  0.22179004104E-01  0.10203469013E+01  0.10200743288E+01 0.  0.
     999903    2    3    3    0    0 -0.14603276526E-02  0.87048037732E-01 -0.92036792750E-01  0.12828509635E+00  0.20169315701E-01 0.  0.
         14    1    1    2    0    0 -0.70482568880E-02  0.38179048848E-02 -0.22179004104E-01  0.23583098734E-01  0.00000000000E+00 0.  1.
     999901    1    3    3    0    0  0.85085845406E-02 -0.90865942617E-01  0.11421579685E+00  0.89206180492E+00  0.88000000000E+00 0. -1.
        -11    1    4    4    0    0  0.58889195487E-02  0.43803724055E-01 -0.57079982591E-01  0.72193013153E-01  0.51100000000E-03 0.  1.
         11    1    4    4    0    0 -0.73492472014E-02  0.43244313677E-01 -0.34956810159E-01  0.56092083197E-01  0.51100000000E-03 0. -1.
</event>
<event>
 8    1  0.1145101E+005  0.1043930E+01  0.7957747E-01            NaN
         13   -1    0    0    0    0  0.00000000000E+00  0.00000000000E+00  0.74505805969E-08  0.10566000000E+00  0.10566000000E+00 0.  1.
     999900   -1    0    0    0    0 -0.00000000000E+00 -0.00000000000E+00 -0.74505805969E-08  0.93827000000E+00  0.93827000000E+00 0. -1.
     999902    2    1    2    0    0 -0.13578098864E-01 -0.98778301207E-02 -0.17392773049E-01  0.10197547058E+01  0.10194681040E+01 0.  0.
     999903    2    3    3    0    0 -0.10206703320E+00  0.38622492897E-01 -0.72202451734E-01  0.13229390455E+00  0.19470668228E-01 0.  0.
         14    1    1    2    0    0  0.13578098864E-01  0.98778301207E-02  0.17392773049E-01  0.24175294227E-01  0.00000000000E+00 0.  1.
     999901    1    3    3    0    0  0.88488934332E-01 -0.48500323018E-01  0.54809678685E-01  0.88746080122E+00  0.88000000000E+00 0. -1.
        -11    1    4    4    0    0 -0.34785379616E-01  0.22734926984E-01 -0.23688716901E-01  0.47836345695E-01  0.51100000000E-03 0. -1.
         11    1    4    4    0    0 -0.67281653580E-01  0.15887565913E-01 -0.48513734832E-01  0.84457558853E-01  0.51100000000E-03 0.  1.
</event>
<event>
 8    1  0.1145101E+005  0.1043930E+01  0.7957747E-01            NaN
         13   -1    0    0    0    0  0.00000000000E+00  0.00000000000E+00  0.74505805969E-08  0.10566000000E+00  0.10566000000E+00 0. -1.
     999900   -1    0    0    0    0 -0.00000000000E+00 -0.00000000000E+00 -0.74505805969E-08  0.93827000000E+00  0.93827000000E+00 0. -1.
     999902    2    1    2    0    0 -0.41156779129E-02 -0.19632998596E-01  0.66696134591E-02  0.10227905302E+01  0.10225720471E+01 0.  0.
     999903    2    3    3    0    0 -0.38462161228E-01 -0.54793351471E-01  0.11518085995E+00  0.13476427952E+00  0.20325632194E-01 0.  0.
         14    1    1    2    0    0  0.41156779129E-02  0.19632998596E-01 -0.66696134591E-02  0.21139469772E-01  0.00000000000E+00 0.  1.
     999901    1    3    3    0    0  0.34346483315E-01  0.35160352875E-01 -0.10851124649E+00  0.88802625071E+00  0.88000000000E+00 0. -1.
        -11    1    4    4    0    0 -0.19338442321E-01 -0.34469122944E-01  0.84495220825E-01  0.93283435031E-01  0.51100000000E-03 0. -1.
         11    1    4    4    0    0 -0.19123718907E-01 -0.20324228527E-01  0.30685639125E-01  0.41480844490E-01  0.51100000000E-03 0.  1.
</event>
<event>
 8    1  0.1145101E+005  0.1043930E+01  0.7957747E-01            NaN
         13   -1    0    0    0    0  0.00000000000E+00  0.00000000000E+00  0.74505805969E-08  0.10566000000E+00  0.10566000000E+00 0. -1.
     999900   -1    0    0    0    0 -0.00000000000E+00 -0.00000000000E+00 -0.74505805969E-08  0.93827000000E+00  0.93827000000E+00 0. -1.
     999902    2    1    2    0    0 -0.23643626734E-01  0.14174338965E-02  0.40922556293E-02  0.10198930127E+01  0.10196097197E+01 0.  0.
     999903    2    3    3    0    0 -0.71658581460E-01 -0.79421724794E-01  0.74837295951E-01  0.13206123458E+00  0.19919491612E-01 0.  0.
         14    1    1    2    0    0  0.23643626734E-01 -0.14174338965E-02 -0.40922556293E-02  0.24036987335E-01  0.00000000000E+00 0. -1.
     999901    1    3    3    0    0  0.48014954726E-01  0.80839158691E-01 -0.70745040322E-01  0.88783177809E+00  0.88000000000E+00 0. -1.
        -11    1    4    4    0    0 -0.11495746519E-01 -0.64129981698E-02  0.15695925955E-01  0.20491509123E-01  0.51100000000E-03 0.  1.
         11    1    4    4    0    0 -0.60162834941E-01 -0.73008726625E-01  0.59141369997E-01  0.11156972545E+00  0.51100000000E-03 0. -1.
</event>
<event>
 8    1  0.1145101E+005  0.1043930E+01  0.7957747E-01            NaN
         13   -1    0    0    0    0  0.00000000000E+00  0.00000000000E+00  0.74505805969E-08  0.10566000000E+00  0.10566000000E+00 0. -1.
     999900   -1    0    0    0    0 -0.00000000000E+00 -0.00000000000E+00 -0.74505805969E-08  0.93827000000E+00  0.93827000000E+00 0.  1.
     999902    2    1    2    0    0  0.56830447210E-02 -0.15091363643E-02 -0.22999641575E-01  0.10201906234E+01  0.10199143837E+01 0.  0.
     999903    2    3    3    0    0 -0.72371921599E-01  0.84602969533E-01  0.61129398658E-01  0.12857099149E+00  0.19958431392E-01 0.  0.
         14    1    1    2    0    0 -0.56830447210E-02  0.15091363643E-02  0.22999641575E-01  0.23739376623E-01  0.00000000000E+00 0. -1.
     999901    1    3    3    0    0  0.78054966319E-01 -0.86112105897E-01 -0.84129040233E-01  0.89161963188E+00  0.88000000000E+00 0.  1.
        -11    1    4    4    0    0 -0.39000190857E-01  0.58015784347E-01  0.43925539079E-01  0.82562462564E-01  0.51100000000E-03 0. -1.
         11    1    4    4    0    0 -0.33371730742E-01  0.26587185186E-01  0.17203859579E-01  0.46008528929E-01  0.51100000000E-03 0.  1.
</event>
<event>
 8    1  0.1145101E+005  0.1043930E+01  0.7957747E-01            NaN
         13   -1    0    0    0    0  0.00000000000E+00  0.00000000000E+00  0.74505805969E-08  0.10566000000E+00  0.10566000000E+00 0.  1.
     999900   -1    0    0    0    0 -0.00000000000E+00 -0.00000000000E+00 -0.74505805969E-08  0.93827000000E+00  0.93827000000E+00 0. -1.
     999902    2    1    2    0    0  0.85640931362E-02 -0.22932999436E-01  0.66052699482E-02  0.10185746111E+01  0.10182589762E+01 0.  0.
     999903    2    3    3    0    0 -0.31285879503E-01  0.94645069553E-01  0.75990527908E-01  0.12715611420E+00  0.21392091975E-01 0.  0.
         14    1    1    2    0    0 -0.85640931362E-02  0.22932999436E-01 -0.66052699482E-02  0.25355388884E-01  0.00000000000E+00 0. -1.
     999901    1    3    3    0    0  0.39849972639E-01 -0.11757806899E+00 -0.69385257960E-01  0.89141849692E+00  0.88000000000E+00 0.  1.
        -11    1    4    4    0    0 -0.11419781682E-01  0.66041867693E-01  0.52633937765E-01  0.85220491829E-01  0.51100000000E-03 0. -1.
         11    1    4    4    0    0 -0.19866097820E-01  0.28603201860E-01  0.23356590144E-01  0.41935622368E-01  0.51100000000E-03 0.  1.
</event>
<event>
 8    1  0.1145101E+005  0.1043930E+01  0.7957747E-01            NaN
         13   -1    0    0    0    0  0.00000000000E+00  0.00000000000E+00  0.74505805969E-08  0.10566000000E+00  0.10566000000E+00 0.  1.
     999900   -1    0    0    0    0 -0.00000000000E+00 -0.00000000000E+00 -0.74505805969E-08  0.93827000000E+00  0.93827000000E+00 0. -1.
     999902    2    1    2    0    0 -0.41755388575E-02  0.21879846096E-01  0.94936806290E-02  0.10197165169E+01  0.10194289981E+01 0.  0.
     999903    2    3    3    0    0 -0.87838727742E-01 -0.53556576057E-01  0.76849081910E-01  0.12998232459E+00  0.20141360050E-01 0.  0.
         14    1    1    2    0    0  0.41755388575E-02 -0.21879846096E-01 -0.94936806290E-02  0.24213483058E-01  0.00000000000E+00 0. -1.
     999901    1    3    3    0    0  0.83663188885E-01  0.75436422153E-01 -0.67355401281E-01  0.88973419235E+00  0.88000000000E+00 0. -1.
        -11    1    4    4    0    0 -0.62295127686E-01 -0.27048430331E-01  0.52517183436E-01  0.85852292887E-01  0.51100000000E-03 0.  1.
         11    1    4    4    0    0 -0.25543600056E-01 -0.26508145726E-01  0.24331898474E-01  0.44130031702E-01  0.51100000000E-03 0. -1.
</event>
<event>
 8    1  0.1145101E+005  0.1043930E+01  0.7957747E-01            NaN
         13   -1    0    0    0    0  0.00000000000E+00  0.00000000000E+00  0.74505805969E-08  0.10566000000E+00  0.10566000000E+00 0. -1.
     999900   -1    0    0    0    0 -0.00000000000E+00 -0.00000000000E+00 -0.74505805969E-08  0.93827000000E+00  0.93827000000E+00 0. -1.
     999902    2    1    2    0    0 -0.50544250471E-02 -0.18585862856E-01 -0.80228763953E-02  0.10230650040E+01  0.10228522153E+01 0.  0.
     999903    2    3    3    0    0  0.86383222354E-01 -0.81505329149E-01 -0.60142078271E-01  0.13456282970E+00  0.19619015653E-01 0.  0.
         14    1    1    2    0    0  0.50544250471E-02  0.18585862856E-01  0.80228763953E-02  0.20864995958E-01  0.00000000000E+00 0. -1.
     999901    1    3    3    0    0 -0.91437647401E-01  0.62919466293E-01  0.52119201876E-01  0.88850217434E+00  0.88000000000E+00 0. -1.
        -11    1    4    4    0    0  0.11668371745E-01 -0.21806496919E-01 -0.12351689942E-01  0.27649585395E-01  0.51100000000E-03 0.  1.
         11    1    4    4    0    0  0.74714850608E-01 -0.59698832229E-01 -0.47790388329E-01  0.10691324431E+00  0.51100000000E-03 0. -1.
</event>
<event>
 8    1  0.1145101E+005  0.1043930E+01  0.7957747E-01            NaN
         13   -1    0    0    0    0  0.00000000000E+00  0.00000000000E+00  0.74505805969E-08  0.10566000000E+00  0.10566000000E+00 0. -1.
     999900   -1    0    0    0    0 -0.00000000000E+00 -0.00000000000E+00 -0.74505805969E-08  0.93827000000E+00  0.93827000000E+00 0. -1.
     999902    2    1    2    0    0 -0.18363745871E-01 -0.13697354306E-01  0.92593069417E-02  0.10192200942E+01  0.10189205175E+01 0.  0.
     999903    2    3    3    0    0 -0.12740856500E+00  0.25914875820E-01 -0.21969645132E-02  0.13153143964E+00  0.19778011418E-01 0.  0.
         14    1    1    2    0    0  0.18363745871E-01  0.13697354306E-01 -0.92593069417E-02  0.24709905756E-01  0.00000000000E+00 0. -1.
     999901    1    3    3    0    0  0.10904481913E+00 -0.39612230127E-01  0.11456271455E-01  0.88768865460E+00  0.88000000000E+00 0. -1.
        -11    1    4    4    0    0 -0.32432031725E-01 -0.84365892431E-03  0.38295800078E-02  0.32672239688E-01  0.51100000000E-03 0.  1.
         11    1    4    4    0    0 -0.94976533279E-01  0.26758534745E-01 -0.60265445210E-02  0.98859199953E-01  0.51100000000E-03 0. -1.
</event>
<event>
 8    1  0.1145101E+005  0.1043930E+01  0.7957747E-01            NaN
         13   -1    0    0    0    0  0.00000000000E+00  0.00000000000E+00  0.74505805969E-08  0.10566000000E+00  0.10566000000E+00 0.  1.
     999900   -1    0    0    0    0 -0.00000000000E+00 -0.00000000000E+00 -0.74505805969E-08  0.93827000000E+00  0.93827000000E+00 0. -1.
     999902    2    1    2    0    0 -0.28948637513E-02 -0.22965780883E-01  0.10232577171E-01  0.10186216424E+01  0.10183071921E+01 0.  0.
     999903    2    3    3    0    0  0.16764856917E-01 -0.29093300765E-01 -0.12235000728E+00  0.12845188737E+00  0.20071933373E-01 0.  0.
         14    1    1    2    0    0  0.28948637513E-02  0.22965780883E-01 -0.10232577171E-01  0.25308357577E-01  0.00000000000E+00 0.  1.
     999901    1    3    3    0    0 -0.19659720668E-01  0.61275198826E-02  0.13258258445E+00  0.89016975506E+00  0.88000000000E+00 0.  1.
        -11    1    4    4    0    0  0.38463187139E-02 -0.90148720091E-02 -0.11781445480E-01  0.15333807863E-01  0.51100000000E-03 0.  1.
         11    1    4    4    0    0  0.12918538203E-01 -0.20078428756E-01 -0.11056856180E+00  0.11311807950E+00  0.51100000000E-03 0. -1.
</event>
<event>
 8    1  0.1145101E+005  0.1043930E+01  0.7957747E-01            NaN
         13   -1    0    0    0    0  0.00000000000E+00  0.00000000000E+00  0.74505805969E-08  0.10566000000E+00  0.10566000000E+00 0.  1.
     999900   -1    0    0    0    0 -0.00000000000E+00 -0.00000000000E+00 -0.74505805969E-08  0.93827000000E+00  0.93827000000E+00 0. -1.
     999902    2    1    2    0    0 -0.69569934134E-02  0.19047425763E-01  0.13147081927E-01  0.10197628746E+01  0.10194764688E+01 0.  0.
     999903    2    3    3    0    0 -0.12097860594E+00  0.81715838423E-02  0.47305631985E-01  0.13168291280E+00  0.19999220707E-01 0.  0.
         14    1    1    2    0    0  0.69569934134E-02 -0.19047425763E-01 -0.13147081927E-01  0.24167125371E-01  0.00000000000E+00 0.  1.
     999901    1    3    3    0    0  0.11402161252E+00  0.10875841920E-01 -0.34158550058E-01  0.88807996183E+00  0.88000000000E+00 0. -1.
        -11    1    4    4    0    0 -0.97988471272E-01  0.10196585203E-01  0.45527196509E-01  0.10852970835E+00  0.51100000000E-03 0.  1.
         11    1    4    4    0    0 -0.22990134665E-01 -0.20250013612E-02  0.17784354755E-02  0.23153204447E-01  0.51100000000E-03 0. -1.
</event>
<event>
 8    1  0.1145101E+005  0.1043930E+01  0.7957747E-01            NaN
         13   -1    0    0    0    0  0.00000000000E+00  0.00000000000E+00  0.74505805969E-08  0.10566000000E+00  0.10566000000E+00 0. -1.
     999900   -1    0    0    0    0 -0.00000000000E+00 -0.00000000000E+00 -0.74505805969E-08  0.93827000000E+00  0.93827000000E+00 0. -1.
     999902    2    1    2    0    0 -0.15203022777E-01 -0.17579393139E-01 -0.45761271939E-02  0.10202422837E+01  0.10199672590E+01 0.  0.
     999903    2    3    3    0    0  0.11949107788E+00  0.39048929715E-01 -0.14581042154E-01  0.12813838500E+00  0.20097321116E-01 0.  0.
         14    1    1    2    0    0  0.15203022777E-01  0.17579393139E-01  0.45761271939E-02  0.23687716327E-01  0.00000000000E+00 0. -1.
     999901    1    3    3    0    0 -0.13469410066E+00 -0.56628322853E-01  0.10004914960E-01  0.89210389867E+00  0.88000000000E+00 0. -1.
        -11    1    4    4    0    0  0.51015745568E-01  0.21766377390E-01  0.23337418425E-02  0.55516564668E-01  0.51100000000E-03 0. -1.
         11    1    4    4    0    0  0.68475332311E-01  0.17282552325E-01 -0.16914783996E-01  0.72621820334E-01  0.51100000000E-03 0.  1.
</event>
<event>
 8    1  0.1389678E+005  0.1043930E+01  0.7957747E-01            NaN
         13   -1    0    0    0    0  0.00000000000E+00  0.00000000000E+00  0.74505805969E-08  0.10566000000E+00  0.10566000000E+00 0. -1.
     999900   -1    0    0    0    0 -0.00000000000E+00 -0.00000000000E+00 -0.74505805969E-08  0.93827000000E+00  0.93827000000E+00 0.  1.
     999902    2    1    2    0    0 -0.15864147483E-01 -0.13207140698E-01 -0.10976834937E-01  0.10205507219E+01  0.10202828947E+01 0.  0.
     999903    2    3    3    0    0 -0.94156049907E-01  0.23833123529E-01  0.85202359252E-01  0.13108344279E+00  0.22137015145E-01 0.  0.
         14    1    1    2    0    0  0.15864147483E-01  0.13207140698E-01  0.10976834937E-01  0.23379278133E-01  0.00000000000E+00 0. -1.
     999901    1    3    3    0    0  0.78291902423E-01 -0.37040264227E-01 -0.96179194189E-01  0.88946727908E+00  0.88000000000E+00 0.  1.
        -11    1    4    4    0    0 -0.30854499238E-01 -0.26257669016E-02  0.28130143889E-01  0.41838509668E-01  0.51100000000E-03 0.  1.
         11    1    4    4    0    0 -0.63301550668E-01  0.26458890430E-01  0.57072215364E-01  0.89244933118E-01  0.51100000000E-03 0. -1.
</event>
<event>
 8    1  0.1145101E+005  0.1043930E+01  0.7957747E-01            NaN
         13   -1    0    0    0    0  0.00000000000E+00  0.00000000000E+00  0.74505805969E-08  0.10566000000E+00  0.10566000000E+00 0.  1.
     999900   -1    0    0    0    0 -0.00000000000E+00 -0.00000000000E+00 -0.74505805969E-08  0.93827000000E+00  0.93827000000E+00 0.  1.
     999902    2    1    2    0    0 -0.98546251087E-02 -0.19494865083E-01 -0.91100033735E-02  0.10202623942E+01  0.10199878419E+01 0.  0.
     999903    2    3    3    0    0  0.22970207619E-01 -0.96560010227E-01  0.83792396230E-01  0.13141630966E+00  0.19940279953E-01 0.  0.
         14    1    1    2    0    0  0.98546251087E-02  0.19494865083E-01  0.91100033735E-02  0.23667605753E-01  0.00000000000E+00 0.  1.
     999901    1    3    3    0    0 -0.32824832727E-01  0.77065145144E-01 -0.92902399603E-01  0.88884608459E+00  0.88000000000E+00 0.  1.
        -11    1    4    4    0    0  0.20583688244E-01 -0.45001185137E-01  0.37647035341E-01  0.62180023129E-01  0.51100000000E-03 0. -1.
         11    1    4    4    0    0  0.23865193746E-02 -0.51558825090E-01  0.46145360889E-01  0.69236286527E-01  0.51100000000E-03 0.  1.
</event>
<event>
 8    1  0.1145101E+005  0.1043930E+01  0.7957747E-01            NaN
         13   -1    0    0    0    0  0.00000000000E+00  0.00000000000E+00  0.74505805969E-08  0.10566000000E+00  0.10566000000E+00 0.  1.
     999900   -1    0    0    0    0 -0.00000000000E+00 -0.00000000000E+00 -0.74505805969E-08  0.93827000000E+00  0.93827000000E+00 0.  1.
     999902    2    1    2    0    0 -0.71876541827E-02 -0.18931571269E-01  0.11864319275E-01  0.10204602570E+01  0.10201903290E+01 0.  0.
     999903    2    3    3    0    0  0.97634815767E-01 -0.44197834200E-01  0.74002527220E-01  0.13170422125E+00  0.19586272274E-01 0.  0.
         14    1    1    2    0    0  0.71876541827E-02  0.18931571269E-01 -0.11864319275E-01  0.23469742973E-01  0.00000000000E+00 0. -1.
     999901    1    3    3    0    0 -0.10482246995E+00  0.25266262932E-01 -0.62138207944E-01  0.88875603578E+00  0.88000000000E+00 0.  1.
        -11    1    4    4    0    0  0.66801367169E-01 -0.22982359642E-01  0.40277223071E-01  0.81321137041E-01  0.51100000000E-03 0. -1.
         11    1    4    4    0    0  0.30833448597E-01 -0.21215474559E-01  0.33725304149E-01  0.50383084206E-01  0.51100000000E-03 0.  1.
</event>
<event>
 8    1  0.1145101E+005  0.1043930E+01  0.7957747E-01            NaN
         13   -1    0    0    0    0  0.00000000000E+00  0.00000000000E+00  0.74505805969E-08  0.10566000000E+00  0.10566000000E+00 0.  1.
     999900   -1    0    0    0    0 -0.00000000000E+00 -0.00000000000E+00 -0.74505805969E-08  0.93827000000E+00  0.93827000000E+00 0.  1.
     999902    2    1    2    0    0 -0.16428578166E-01 -0.12729238101E-01 -0.10887017094E-01  0.10204681411E+01  0.10201983964E+01 0.  0.
     999903    2    3    3    0    0 -0.10011889359E+00 -0.69286276400E-01  0.48800357952E-01  0.13268137038E+00  0.19962218273E-01 0.  0.
         14    1    1    2    0    0  0.16428578166E-01  0.12729238101E-01  0.10887017094E-01  0.23461858929E-01  0.00000000000E+00 0. -1.
     999901    1    3    3    0    0  0.83690315423E-01  0.56557038299E-01 -0.59687375047E-01  0.88778677069E+00  0.88000000000E+00 0.  1.
        -11    1    4    4    0    0 -0.65547556794E-01 -0.53466277654E-01  0.26703742688E-01  0.88704430794E-01  0.51100000000E-03 0. -1.
         11    1    4    4    0    0 -0.34571336795E-01 -0.15819998746E-01  0.22096615265E-01  0.43976939585E-01  0.51100000000E-03 0.  1.
</event>
<event>
 8    1  0.1145101E+005  0.1043930E+01  0.7957747E-01            NaN
         13   -1    0    0    0    0  0.00000000000E+00  0.00000000000E+00  0.74505805969E-08  0.10566000000E+00  0.10566000000E+00 0.  1.
     999900   -1    0    0    0    0 -0.00000000000E+00 -0.00000000000E+00 -0.74505805969E-08  0.93827000000E+00  0.93827000000E+00 0. -1.
     999902    2    1    2    0    0  0.33951156435E-02  0.16246810957E-01  0.17149960061E-01  0.10200635632E+01  0.10197843233E+01 0.  0.
     999903    2    3    3    0    0 -0.67835212170E-01 -0.10684834383E+00 -0.44197442098E-03  0.12847192297E+00  0.22060259766E-01 0.  0.
         14    1    1    2    0    0 -0.33951156435E-02 -0.16246810957E-01 -0.17149960061E-01  0.23866436822E-01  0.00000000000E+00 0. -1.
     999901    1    3    3    0    0  0.71230327814E-01  0.12309515478E+00  0.17591934482E-01  0.89159164021E+00  0.88000000000E+00 0. -1.
        -11    1    4    4    0    0 -0.31379537080E-02 -0.18390186478E-01 -0.26840868411E-02  0.18855003456E-01  0.51100000000E-03 0. -1.
         11    1    4    4    0    0 -0.64697258463E-01 -0.88458157350E-01  0.22421124201E-02  0.10961691951E+00  0.51100000000E-03 0.  1.
</event>
<event>
 8    1  0.1145101E+005  0.1043930E+01  0.7957747E-01            NaN
         13   -1    0    0    0    0  0.00000000000E+00  0.00000000000E+00  0.74505805969E-08  0.10566000000E+00  0.10566000000E+00 0. -1.
     999900   -1    0    0    0    0 -0.00000000000E+00 -0.00000000000E+00 -0.74505805969E-08  0.93827000000E+00  0.93827000000E+00 0. -1.
     999902    2    1    2    0    0  0.65290934885E-02 -0.22073238707E-01 -0.88411253059E-02  0.10192718893E+01  0.10189735825E+01 0.  0.
     999903    2    3    3    0    0  0.61831558538E-01  0.77506098062E-02 -0.11305846008E+00  0.13089748764E+00  0.21650018244E-01 0.  0.
         14    1    1    2    0    0 -0.65290934885E-02  0.22073238707E-01  0.88411253059E-02  0.24658110744E-01  0.00000000000E+00 0.  1.
     999901    1    3    3    0    0 -0.55302465050E-01 -0.29823848513E-01  0.10421733478E+00  0.88837440162E+00  0.88000000000E+00 0.  1.
        -11    1    4    4    0    0  0.23403620783E-01 -0.60875531145E-02 -0.31834225620E-01  0.39980830538E-01  0.51100000000E-03 0. -1.
         11    1    4    4    0    0  0.38427937755E-01  0.13838162921E-01 -0.81224234464E-01  0.90916657101E-01  0.51100000000E-03 0.  1.
</event>
<event>
 8    1  0.1145101E+005  0.1043930E+01  0.7957747E-01            NaN
         13   -1    0    0    0    0  0.00000000000E+00  0.00000000000E+00  0.74505805969E-08  0.10566000000E+00  0.10566000000E+00 0.  1.
     999900   -1    0    0    0    0 -0.00000000000E+00 -0.00000000000E+00 -0.74505805969E-08  0.93827000000E+00  0.93827000000E+00 0. -1.
     999902    2    1    2    0    0  0.19117428242E-01 -0.20518246622E-03 -0.13293536313E-01  0.10206440328E+01  0.10203783638E+01 0.  0.
     999903    2    3    3    0    0 -0.96336331088E-01 -0.68251805188E-01 -0.49907522401E-01  0.12974533067E+00  0.20102050656E-01 0.  0.
         14    1    1    2    0    0 -0.19117428242E-01  0.20518246622E-03  0.13293536313E-01  0.23285967236E-01  0.00000000000E+00 0.  1.
     999901    1    3    3    0    0  0.11545375933E+00  0.68046622721E-01  0.36613986088E-01  0.89089870209E+00  0.88000000000E+00 0.  1.
        -11    1    4    4    0    0 -0.48322245274E-01 -0.43051242568E-01 -0.19601777903E-01  0.67623514349E-01  0.51100000000E-03 0. -1.
         11    1    4    4    0    0 -0.48014085814E-01 -0.25200562620E-01 -0.30305744498E-01  0.62121816325E-01  0.51100000000E-03 0.  1.
</event>
<event>
 8    1  0.1145101E+005  0.1043930E+01  0.7957747E-01            NaN
         13   -1    0    0    0    0  0.00000000000E+00  0.00000000000E+00  0.74505805969E-08  0.10566000000E+00  0.10566000000E+00 0. -1.
     999900   -1    0    0    0    0 -0.00000000000E+00 -0.00000000000E+00 -0.74505805969E-08  0.93827000000E+00  0.93827000000E+00 0.  1.
     999902    2    1    2    0    0  0.22964778260E-01  0.39892532571E-02  0.44858104448E-02  0.10201935791E+01  0.10199174090E+01 0.  0.
     999903    2    3    3    0    0 -0.91653850928E-01 -0.65732117180E-01  0.58565342016E-01  0.12838468960E+00  0.18209602367E-01 0.  0.
         14    1    1    2    0    0 -0.22964778260E-01 -0.39892532571E-02 -0.44858104448E-02  0.23736420906E-01  0.00000000000E+00 0.  1.
     999901    1    3    3    0    0  0.11461862919E+00  0.69721370437E-01 -0.54079531571E-01  0.89180888950E+00  0.88000000000E+00 0.  1.
        -11    1    4    4    0    0 -0.69163196451E-01 -0.39379871520E-01  0.40029064051E-01  0.89089332212E-01  0.51100000000E-03 0. -1.
         11    1    4    4    0    0 -0.22490654477E-01 -0.26352245660E-01  0.18536277966E-01  0.39295357384E-01  0.51100000000E-03 0.  1.
</event>
<event>
 8    1  0.1145101E+005  0.1043930E+01  0.7957747E-01            NaN
         13   -1    0    0    0    0  0.00000000000E+00  0.00000000000E+00  0.74505805969E-08  0.10566000000E+00  0.10566000000E+00 0. -1.
     999900   -1    0    0    0    0 -0.00000000000E+00 -0.00000000000E+00 -0.74505805969E-08  0.93827000000E+00  0.93827000000E+00 0. -1.
     999902    2    1    2    0    0 -0.11636439548E-01 -0.19469688496E-01  0.52712112797E-02  0.10206434982E+01  0.10203778170E+01 0.  0.
     999903    2    3    3    0    0  0.22941965934E-01  0.38422128323E-01  0.12070166254E+00  0.13054725758E+00  0.21704869847E-01 0.  0.
         14    1    1    2    0    0  0.11636439548E-01  0.19469688496E-01 -0.52712112797E-02  0.23286501752E-01  0.00000000000E+00 0. -1.
     999901    1    3    3    0    0 -0.34578405482E-01 -0.57891816819E-01 -0.11543045126E+00  0.89009624067E+00  0.88000000000E+00 0. -1.
        -11    1    4    4    0    0 -0.36287342229E-02  0.81699471184E-02  0.30025623532E-01  0.31332330547E-01  0.51100000000E-03 0.  1.
         11    1    4    4    0    0  0.26570700157E-01  0.30252181204E-01  0.90676039007E-01  0.99214927029E-01  0.51100000000E-03 0. -1.
</event>
<event>
 8    1  0.1145101E+005  0.1043930E+01  0.7957747E-01            NaN
         13   -1    0    0    0    0  0.00000000000E+00  0.00000000000E+00  0.74505805969E-08  0.10566000000E+00  0.10566000000E+00 0.  1.
     999900   -1    0    0    0    0 -0.00000000000E+00 -0.00000000000E+00 -0.74505805969E-08  0.93827000000E+00  0.93827000000E+00 0.  1.
     999902    2    1    2    0    0 -0.20431081402E-01 -0.55847812402E-02 -0.94496503753E-02  0.10207370105E+01  0.10204734832E+01 0.  0.
     999903    2    3    3    0    0  0.89259281911E-01  0.90065707994E-01 -0.77840771937E-02  0.12878198585E+00  0.21098740697E-01 0.  0.
         14    1    1    2    0    0  0.20431081402E-01  0.55847812402E-02  0.94496503753E-02  0.23192989479E-01  0.00000000000E+00 0.  1.
     999901    1    3    3    0    0 -0.10969036331E+00 -0.95650489235E-01 -0.16655731816E-02  0.89195502467E+00  0.88000000000E+00 0.  1.
        -11    1    4    4    0    0  0.26427823202E-02  0.10532631029E-01 -0.19451412721E-02  0.11043790579E-01  0.51100000000E-03 0.  1.
         11    1    4    4    0    0  0.86616499591E-01  0.79533076965E-01 -0.58389359216E-02  0.11773819528E+00  0.51100000000E-03 0. -1.
</event>
<event>
 8    1  0.1145101E+005  0.1043930E+01  0.7957747E-01            NaN
         13   -1    0    0    0    0  0.00000000000E+00  0.00000000000E+00  0.74505805969E-08  0.10566000000E+00  0.10566000000E+00 0. -1.
     999900   -1    0    0    0    0 -0.00000000000E+00 -0.00000000000E+00 -0.74505805969E-08  0.93827000000E+00  0.93827000000E+00 0.  1.
     999902    2    1    2    0    0 -0.83859500300E-02 -0.95417593470E-02  0.19866344867E-01  0.10203494786E+01  0.10200769665E+01 0.  0.
     999903    2    3    3    0    0 -0.10211998004E+00  0.72979985647E-01  0.33323755207E-01  0.13143046733E+00  0.20221929967E-01 0.  0.
         14    1    1    2    0    0  0.83859500300E-02  0.95417593470E-02 -0.19866344867E-01  0.23580521362E-01  0.00000000000E+00 0.  1.
     999901    1    3    3    0    0  0.93734030012E-01 -0.82521744994E-01 -0.13457410340E-01  0.88891901131E+00  0.88000000000E+00 0. -1.
        -11    1    4    4    0    0 -0.77293938150E-01  0.44587006182E-01  0.20182557170E-01  0.91487434820E-01  0.51100000000E-03 0. -1.
         11    1    4    4    0    0 -0.24826041891E-01  0.28392979465E-01  0.13141198037E-01  0.39943032505E-01  0.51100000000E-03 0.  1.
</event>
<event>
 8    1  0.1145101E+005  0.1043930E+01  0.7957747E-01            NaN
         13   -1    0    0    0    0  0.00000000000E+00  0.00000000000E+00  0.74505805969E-08  0.10566000000E+00  0.10566000000E+00 0. -1.
     999900   -1    0    0    0    0 -0.00000000000E+00 -0.00000000000E+00 -0.74505805969E-08  0.93827000000E+00  0.93827000000E+00 0. -1.
     999902    2    1    2    0    0  0.10969354603E-01  0.26994604785E-02  0.22052742327E-01  0.10191522424E+01  0.10188509979E+01 0.  0.
     999903    2    3    3    0    0 -0.40244527601E-01  0.10449600065E+00 -0.59020345568E-01  0.12810889727E+00  0.19734543735E-01 0.  0.
         14    1    1    2    0    0 -0.10969354603E-01 -0.26994604785E-02 -0.22052742327E-01  0.24777757595E-01  0.00000000000E+00 0.  1.
     999901    1    3    3    0    0  0.51213882204E-01 -0.10179654017E+00  0.81073087895E-01  0.89104334513E+00  0.88000000000E+00 0. -1.
        -11    1    4    4    0    0  0.89643386331E-04  0.17117082830E-01 -0.12584449590E-01  0.21251636478E-01  0.51100000000E-03 0. -1.
         11    1    4    4    0    0 -0.40334170987E-01  0.87378917819E-01 -0.46435895978E-01  0.10685726080E+00  0.51100000000E-03 0.  1.
</event>
<event>
 8    1  0.1145101E+005  0.1043930E+01  0.7957747E-01            NaN
         13   -1    0    0    0    0  0.00000000000E+00  0.00000000000E+00  0.74505805969E-08  0.10566000000E+00  0.10566000000E+00 0.  1.
     999900   -1    0    0    0    0 -0.00000000000E+00 -0.00000000000E+00 -0.74505805969E-08  0.93827000000E+00  0.93827000000E+00 0. -1.
     999902    2    1    2    0    0  0.56205358563E-03 -0.91613144421E-02 -0.21633156395E-01  0.10204302331E+01  0.10201596060E+01 0.  0.
     999903    2    3    3    0    0 -0.80713464675E-01  0.99434778020E-01 -0.10074281273E-01  0.12996269934E+00  0.19669103118E-01 0.  0.
         14    1    1    2    0    0 -0.56205358563E-03  0.91613144421E-02  0.21633156395E-01  0.23499766853E-01  0.00000000000E+00 0.  1.
     999901    1    3    3    0    0  0.81275518261E-01 -0.10859609246E+00 -0.11558875122E-01  0.89046753380E+00  0.88000000000E+00 0.  1.
        -11    1    4    4    0    0 -0.57061444698E-01  0.67847401185E-01 -0.15906217252E-01  0.90069679620E-01  0.51100000000E-03 0. -1.
         11    1    4    4    0    0 -0.23652019977E-01  0.31587376835E-01  0.58319359791E-02  0.39893019722E-01  0.51100000000E-03 0.  1.
</event>
<event>
 8    1  0.1145101E+005  0.1043930E+01  0.7957747E-01            NaN
         13   -1    0    0    0    0  0.00000000000E+00  0.00000000000E+00  0.74505805969E-08  0.10566000000E+00  0.10566000000E+00 0.  1.
     999900   -1    0    0    0    0 -0.00000000000E+00 -0.00000000000E+00 -0.74505805969E-08  0.93827000000E+00  0.93827000000E+00 0. -1.
     999902    2    1    2    0    0 -0.17382855293E-01  0.12532377901E-01 -0.10541475022E-01  0.10200480644E+01  0.10197684574E+01 0.  0.
     999903    2    3    3    0    0 -0.11696773926E+00  0.47052016062E-01  0.35549808106E-01  0.13256107240E+00  0.20329899577E-01 0.  0.
         14    1    1    2    0    0  0.17382855293E-01 -0.12532377901E-01  0.10541475022E-01  0.23881935634E-01  0.00000000000E+00 0.  1.
     999901    1    3    3    0    0  0.99584883962E-01 -0.34519638161E-01 -0.46091283128E-01  0.88748699197E+00  0.88000000000E+00 0.  1.
        -11    1    4    4    0    0 -0.39037436367E-01  0.15064633674E-01  0.20290916704E-02  0.41895619817E-01  0.51100000000E-03 0. -1.
         11    1    4    4    0    0 -0.77930302889E-01  0.31987382387E-01  0.33520716436E-01  0.90665452581E-01  0.51100000000E-03 0.  1.
</event>
<event>
 8    1  0.1145101E+005  0.1043930E+01  0.7957747E-01            NaN
         13   -1    0    0    0    0  0.00000000000E+00  0.00000000000E+00  0.74505805969E-08  0.10566000000E+00  0.10566000000E+00 0.  1.
     999900   -1    0    0    0    0 -0.00000000000E+00 -0.00000000000E+00 -0.74505805969E-08  0.93827000000E+00  0.93827000000E+00 0.  1.
     999902    2    1    2    0    0 -0.76541830382E-02 -0.97960618567E-02  0.20828311241E-01  0.10196737040E+01  0.10193851553E+01 0.  0.
     999903    2    3    3    0    0  0.45231977126E-01 -0.72389862893E-01  0.99117555824E-01  0.13240591147E+00  0.20513690923E-01 0.  0.
         14    1    1    2    0    0  0.76541830382E-02  0.97960618567E-02 -0.20828311241E-01  0.24256295988E-01  0.00000000000E+00 0. -1.
     999901    1    3    3    0    0 -0.52886160164E-01  0.62593801037E-01 -0.78289244582E-01  0.88726779254E+00  0.88000000000E+00 0.  1.
        -11    1    4    4    0    0  0.39477795736E-01 -0.45739123493E-01  0.71148964118E-01  0.93343451780E-01  0.51100000000E-03 0. -1.
         11    1    4    4    0    0  0.57541813897E-02 -0.26650739400E-01  0.27968591706E-01  0.39062459690E-01  0.51100000000E-03 0.  1.
</event>
<event>
 8    1  0.1145101E+005  0.1043930E+01  0.7957747E-01            NaN
         13   -1    0    0    0    0  0.00000000000E+00  0.00000000000E+00  0.74505805969E-08  0.10566000000E+00  0.10566000000E+00 0. -1.
     999900   -1    0    0    0    0 -0.00000000000E+00 -0.00000000000E+00 -0.74505805969E-08  0.93827000000E+00  0.93827000000E+00 0. -1.
     999902    2    1    2    0    0 -0.74738067438E-02  0.22723733336E-01  0.97919280165E-03  0.10199887247E+01  0.10197077100E+01 0.  0.
     999903    2    3    3    0    0 -0.98512312239E-01 -0.20484493196E-01  0.80910958400E-01  0.13063837334E+00  0.19887465310E-01 0.  0.
         14    1    1    2    0    0  0.74738067438E-02 -0.22723733336E-01 -0.97919280165E-03  0.23941275290E-01  0.00000000000E+00 0. -1.
     999901    1    3    3    0    0  0.91038505496E-01  0.43208226533E-01 -0.79931765598E-01  0.88935035137E+00  0.88000000000E+00 0.  1.
        -11    1    4    4    0    0 -0.56341606940E-01 -0.15724562934E-01  0.58134985900E-01  0.82471669431E-01  0.51100000000E-03 0.  1.
         11    1    4    4    0    0 -0.42170705299E-01 -0.47599302621E-02  0.22775972499E-01  0.48166703913E-01  0.51100000000E-03 0. -1.
</event>
<event>
 8    1  0.1145101E+005  0.1043930E+01  0.7957747E-01            NaN
         13   -1    0    0    0    0  0.00000000000E+00  0.00000000000E+00  0.74505805969E-08  0.10566000000E+00  0.10566000000E+00 0. -1.
     999900   -1    0    0    0    0 -0.00000000000E+00 -0.00000000000E+00 -0.74505805969E-08  0.93827000000E+00  0.93827000000E+00 0.  1.
     999902    2    1    2    0    0 -0.11537600121E-01 -0.62160246549E-02  0.18320767824E-01  0.10214043321E+01  0.10211559156E+01 0.  0.
     999903    2    3    3    0    0  0.77514781344E-02 -0.12401623356E+00  0.44882447979E-01  0.13294809764E+00  0.14854323592E-01 0.  0.
         14    1    1    2    0    0  0.11537600121E-01  0.62160246549E-02 -0.18320767824E-01  0.22525667864E-01  0.00000000000E+00 0.  1.
     999901    1    3    3    0    0 -0.19289078256E-01  0.11780020891E+00 -0.26561680155E-01  0.88845623449E+00  0.88000000000E+00 0.  1.
        -11    1    4    4    0    0  0.11054534353E-01 -0.62217473320E-01  0.24731820794E-01  0.67861187706E-01  0.51100000000E-03 0.  1.
         11    1    4    4    0    0 -0.33030562183E-02 -0.61798760244E-01  0.20150627185E-01  0.65086909936E-01  0.51100000000E-03 0. -1.
</event>
<event>
 8    1  0.1145101E+005  0.1043930E+01  0.7957747E-01            NaN
         13   -1    0    0    0    0  0.00000000000E+00  0.00000000000E+00  0.74505805969E-08  0.10566000000E+00  0.10566000000E+00 0.  1.
     999900   -1    0    0    0    0 -0.00000000000E+00 -0.00000000000E+00 -0.74505805969E-08  0.93827000000E+00  0.93827000000E+00 0. -1.
     999902    2    1    2    0    0  0.93074657589E-02 -0.19482248069E-01  0.10166047325E-01  0.10200650586E+01  0.10197858542E+01 0.  0.
     999903    2    3    3    0    0  0.80108807843E-01  0.18258557611E-01  0.10094855499E+00  0.13176406113E+00  0.20502707867E-01 0.  0.
         14    1    1    2    0    0 -0.93074657589E-02  0.19482248069E-01 -0.10166047325E-01  0.23864941376E-01  0.00000000000E+00 0. -1.
     999901    1    3    3    0    0 -0.70801342084E-01 -0.37740805681E-01 -0.90782507667E-01  0.88830099750E+00  0.88000000000E+00 0. -1.
        -11    1    4    4    0    0  0.16493786814E-01 -0.31148188342E-02  0.27924878734E-01  0.32585381280E-01  0.51100000000E-03 0.  1.
         11    1    4    4    0    0  0.63615021029E-01  0.21373376446E-01  0.73023676257E-01  0.99178679848E-01  0.51100000000E-03 0. -1.
</event>
<event>
 8    1  0.1145101E+005  0.1043930E+01  0.7957747E-01            NaN
         13   -1    0    0    0    0  0.00000000000E+00  0.00000000000E+00  0.74505805969E-08  0.10566000000E+00  0.10566000000E+00 0.  1.
     999900   -1    0    0    0    0 -0.00000000000E+00 -0.00000000000E+00 -0.74505805969E-08  0.93827000000E+00  0.93827000000E+00 0.  1.
     999902    2    1    2    0    0 -0.12510453734E-02 -0.21912046067E-01  0.50898210910E-02  0.10213998168E+01  0.10211512995E+01 0.  0.
     999903    2    3    3    0    0  0.65677952638E-01  0.10290566966E+00  0.38748704150E-01  0.12944024743E+00  0.18712169093E-01 0.  0.
         14    1    1    2    0    0  0.12510453734E-02  0.21912046067E-01 -0.50898210910E-02  0.22530183224E-01  0.00000000000E+00 0.  1.
     999901    1    3    3    0    0 -0.66928998011E-01 -0.12481771572E+00 -0.33658883060E-01  0.89195956934E+00  0.88000000000E+00 0.  1.
        -11    1    4    4    0    0  0.36975779180E-01  0.72432601419E-01  0.21185264233E-01  0.84040267348E-01  0.51100000000E-03 0. -1.
         11    1    4    4    0    0  0.28702173458E-01  0.30473068237E-01  0.17563439918E-01  0.45399980085E-01  0.51100000000E-03 0.  1.
</event>
<event>
 8    1  0.1145101E+005  0.1043930E+01  0.7957747E-01            NaN
         13   -1    0    0    0    0  0.00000000000E+00  0.00000000000E+00  0.74505805969E-08  0.10566000000E+00  0.10566000000E+00 0. -1.
     999900   -1    0    0    0    0 -0.00000000000E+00 -0.00000000000E+00 -0.74505805969E-08  0.93827000000E+00  0.93827000000E+00 0.  1.
     999902    2    1    2    0    0 -0.73272333059E-03  0.49476142925E-02  0.23292534035E-01  0.10201065260E+01  0.10198283025E+01 0.  0.
     999903    2    3    3    0    0  0.64329922259E-01  0.34165248559E-01  0.10953459058E+00  0.13301886952E+00  0.19763350077E-01 0.  0.
         14    1    1    2    0    0  0.73272333059E-03 -0.49476142925E-02 -0.23292534035E-01  0.23823473979E-01  0.00000000000E+00 0.  1.
     999901    1    3    3    0    0 -0.65062645590E-01 -0.29217634267E-01 -0.86242056550E-01  0.88708765650E+00  0.88000000000E+00 0.  1.
        -11    1    4    4    0    0  0.25615396854E-01  0.35123892562E-02  0.42680655487E-01  0.49903756453E-01  0.51100000000E-03 0. -1.
         11    1    4    4    0    0  0.38714525405E-01  0.30652859303E-01  0.66853935097E-01  0.83115113065E-01  0.51100000000E-03 0.  1.
</event>
<event>
 8    1  0.1145101E+005  0.1043930E+01  0.7957747E-01            NaN
         13   -1    0    0    0    0  0.00000000000E+00  0.00000000000E+00  0.74505805969E-08  0.10566000000E+00  0.10566000000E+00 0. -1.
     999900   -1    0    0    0    0 -0.00000000000E+00 -0.00000000000E+00 -0.74505805969E-08  0.93827000000E+00  0.93827000000E+00 0. -1.
     999902    2    1    2    0    0 -0.72135026890E-02  0.20313015874E-01  0.95398597888E-02  0.10203575127E+01  0.10200851883E+01 0.  0.
     999903    2    3    3    0    0  0.19607850050E-01 -0.97993093852E-01  0.79396688201E-01  0.12929315076E+00  0.20634207269E-01 0.  0.
         14    1    1    2    0    0  0.72135026890E-02 -0.20313015874E-01 -0.95398597888E-02  0.23572487347E-01  0.00000000000E+00 0.  1.
     999901    1    3    3    0    0 -0.26821352739E-01  0.11830610973E+00 -0.69856828412E-01  0.89106436189E+00  0.88000000000E+00 0. -1.
        -11    1    4    4    0    0  0.18938852502E-01 -0.43154411346E-01  0.39057362010E-01  0.61210472967E-01  0.51100000000E-03 0. -1.
         11    1    4    4    0    0  0.66899754791E-03 -0.54838682506E-01  0.40339326191E-01  0.68082677792E-01  0.51100000000E-03 0.  1.
</event>
<event>
 8    1  0.1145101E+005  0.1043930E+01  0.7957747E-01            NaN
         13   -1    0    0    0    0  0.00000000000E+00  0.00000000000E+00  0.74505805969E-08  0.10566000000E+00  0.10566000000E+00 0. -1.
     999900   -1    0    0    0    0 -0.00000000000E+00 -0.00000000000E+00 -0.74505805969E-08  0.93827000000E+00  0.93827000000E+00 0. -1.
     999902    2    1    2    0    0 -0.95440466751E-02  0.20596404323E-01  0.67367777935E-02  0.10202512147E+01  0.10199763998E+01 0.  0.
     999903    2    3    3    0    0  0.55269952771E-01  0.42830661543E-01  0.10962267124E+00  0.13161139803E+00  0.20376378307E-01 0.  0.
         14    1    1    2    0    0  0.95440466751E-02 -0.20596404323E-01 -0.67367777935E-02  0.23678785294E-01  0.00000000000E+00 0.  1.
     999901    1    3    3    0    0 -0.64813999446E-01 -0.22234257220E-01 -0.10288589345E+00  0.88863981668E+00  0.88000000000E+00 0. -1.
        -11    1    4    4    0    0  0.27469170336E-01  0.19723564076E-01  0.34882549177E-01  0.48586290833E-01  0.51100000000E-03 0.  1.
         11    1    4    4    0    0  0.27800782435E-01  0.23107097467E-01  0.74740122064E-01  0.83025107193E-01  0.51100000000E-03 0. -1.
</event>
<event>
 8    1  0.1148624E+005  0.1043930E+01  0.7957747E-01            NaN
         13   -1    0    0    0    0  0.00000000000E+00  0.00000000000E+00  0.74505805969E-08  0.10566000000E+00  0.10566000000E+00 0. -1.
     999900   -1    0    0    0    0 -0.00000000000E+00 -0.00000000000E+00 -0.74505805969E-08  0.93827000000E+00  0.93827000000E+00 0. -1.
     999902    2    1    2    0    0 -0.20583558865E-01  0.90830697579E-02  0.22109484871E-02  0.10213230687E+01  0.10210728364E+01 0.  0.
     999903    2    3    3    0    0 -0.21705334714E-01  0.31960555903E-01 -0.12363012992E+00  0.13207585063E+00  0.25826780806E-01 0.  0.
         14    1    1    2    0    0  0.20583558865E-01 -0.90830697579E-02 -0.22109484871E-02  0.22606931349E-01  0.00000000000E+00 0. -1.
     999901    1    3    3    0    0  0.11217758490E-02 -0.22877486145E-01  0.12584107840E+00  0.88924721803E+00  0.88000000000E+00 0.  1.
        -11    1    4    4    0    0 -0.24393876051E-01  0.22635515994E-01 -0.69231453144E-01  0.76815903291E-01  0.51100000000E-03 0. -1.
         11    1    4    4    0    0  0.26885413369E-02  0.93250399097E-02 -0.54398676772E-01  0.55259947334E-01  0.51100000000E-03 0.  1.
</event>
<event>
 8    1  0.1145101E+005  0.1043930E+01  0.7957747E-01            NaN
         13   -1    0    0    0    0  0.00000000000E+00  0.00000000000E+00  0.74505805969E-08  0.10566000000E+00  0.10566000000E+00 0. -1.
     999900   -1    0    0    0    0 -0.00000000000E+00 -0.00000000000E+00 -0.74505805969E-08  0.93827000000E+00  0.93827000000E+00 0.  1.
     999902    2    1    2    0    0  0.11052723507E-01 -0.65969091140E-02  0.19886118961E-01  0.10202416139E+01  0.10199665736E+01 0.  0.
     999903    2    3    3    0    0  0.12354629631E+00  0.37576154923E-01  0.19229329670E-01  0.13198123833E+00  0.19329392116E-01 0.  0.
         14    1    1    2    0    0 -0.11052723507E-01  0.65969091140E-02 -0.19886118961E-01  0.23688386059E-01  0.00000000000E+00 0.  1.
     999901    1    3    3    0    0 -0.11249357281E+00 -0.44173064037E-01  0.65678929081E-03  0.88826037561E+00  0.88000000000E+00 0.  1.
        -11    1    4    4    0    0  0.11706774967E+00  0.35896269556E-01  0.13563785699E-01  0.12319755511E+00  0.51100000000E-03 0.  1.
         11    1    4    4    0    0  0.64785466461E-02  0.16798853671E-02  0.56655439711E-02  0.87836832241E-02  0.51100000000E-03 0. -1.
</event>
<event>
 8    1  0.1145101E+005  0.1043930E+01  0.7957747E-01            NaN
         13   -1    0    0    0    0  0.00000000000E+00  0.00000000000E+00  0.74505805969E-08  0.10566000000E+00  0.10566000000E+00 0.  1.
     999900   -1    0    0    0    0 -0.00000000000E+00 -0.00000000000E+00 -0.74505805969E-08  0.93827000000E+00  0.93827000000E+00 0.  1.
     999902    2    1    2    0    0  0.23352006015E-01  0.29437133028E-02  0.18912771871E-02  0.10203173220E+01  0.10200440574E+01 0.  0.
     999903    2    3    3    0    0 -0.11765663798E+00  0.18088285962E-02 -0.45424123950E-01  0.12783568475E+00  0.20790741626E-01 0.  0.
         14    1    1    2    0    0 -0.23352006015E-01 -0.29437133028E-02 -0.18912771871E-02  0.23612678000E-01  0.00000000000E+00 0. -1.
     999901    1    3    3    0    0  0.14100864399E+00  0.11348847066E-02  0.47315401137E-01  0.89248163725E+00  0.88000000000E+00 0. -1.
        -11    1    4    4    0    0 -0.94272686537E-01  0.90530676952E-02 -0.32365230324E-01  0.10008529720E+00  0.51100000000E-03 0.  1.
         11    1    4    4    0    0 -0.23383951441E-01 -0.72442390990E-02 -0.13058893625E-01  0.27750387544E-01  0.51100000000E-03 0. -1.
</event>
<event>
 8    1  0.1145101E+005  0.1043930E+01  0.7957747E-01            NaN
         13   -1    0    0    0    0  0.00000000000E+00  0.00000000000E+00  0.74505805969E-08  0.10566000000E+00  0.10566000000E+00 0. -1.
     999900   -1    0    0    0    0 -0.00000000000E+00 -0.00000000000E+00 -0.74505805969E-08  0.93827000000E+00  0.93827000000E+00 0. -1.
     999902    2    1    2    0    0  0.10840656355E-01 -0.75014339050E-02  0.19595500077E-01  0.10203127401E+01  0.10200393682E+01 0.  0.
     999903    2    3    3    0    0  0.11890666953E+00 -0.45484712893E-01 -0.25107245394E-01  0.13176373858E+00  0.22883484643E-01 0.  0.
         14    1    1    2    0    0 -0.10840656355E-01  0.75014339050E-02 -0.19595500077E-01  0.23617259877E-01  0.00000000000E+00 0.  1.
     999901    1    3    3    0    0 -0.10806601317E+00  0.37983278988E-01  0.44702745471E-01  0.88854900154E+00  0.88000000000E+00 0. -1.
        -11    1    4    4    0    0  0.10685113717E+00 -0.40423982985E-01 -0.14987121814E-01  0.11522212833E+00  0.51100000000E-03 0. -1.
         11    1    4    4    0    0  0.12055532353E-01 -0.50607299089E-02 -0.10120123580E-01  0.16541610254E-01  0.51100000000E-03 0.  1.
</event>
<event>
 8    1  0.1145101E+005  0.1043930E+01  0.7957747E-01            NaN
         13   -1    0    0    0    0  0.00000000000E+00  0.00000000000E+00  0.74505805969E-08  0.10566000000E+00  0.10566000000E+00 0. -1.
     999900   -1    0    0    0    0 -0.00000000000E+00 -0.00000000000E+00 -0.74505805969E-08  0.93827000000E+00  0.93827000000E+00 0.  1.
     999902    2    1    2    0    0 -0.16736117405E-01 -0.11329963986E-01 -0.16070456315E-02  0.10236556737E+01  0.10234548794E+01 0.  0.
     999903    2    3    3    0    0  0.85734713880E-01  0.65904697334E-01  0.71645181427E-01  0.13133770746E+00  0.20559452432E-01 0.  0.
         14    1    1    2    0    0  0.16736117405E-01  0.11329963986E-01  0.16070456315E-02  0.20274326262E-01  0.00000000000E+00 0. -1.
     999901    1    3    3    0    0 -0.10247083128E+00 -0.77234661320E-01 -0.73252227058E-01  0.89231796628E+00  0.88000000000E+00 0.  1.
        -11    1    4    4    0    0  0.77973485858E-01  0.53844197841E-01  0.55836026505E-01  0.10998629512E+00  0.51100000000E-03 0.  1.
         11    1    4    4    0    0  0.77612280218E-02  0.12060499494E-01  0.15809154922E-01  0.21351412337E-01  0.51100000000E-03 0. -1.
</event>
<event>
 8    1  0.1145101E+005  0.1043930E+01  0.7957747E-01            NaN
         13   -1    0    0    0    0  0.00000000000E+00  0.00000000000E+00  0.74505805969E-08  0.10566000000E+00  0.10566000000E+00 0. -1.
     999900   -1    0    0    0    0 -0.00000000000E+00 -0.00000000000E+00 -0.74505805969E-08  0.93827000000E+00  0.93827000000E+00 0. -1.
     999902    2    1    2    0    0  0.18963241722E-01 -0.97820473392E-02 -0.36005413546E-02  0.10222907559E+01  0.10220617069E+01 0.  0.
     999903    2    3    3    0    0 -0.19920687940E-01  0.10040401697E+00  0.79556916430E-01  0.13068092446E+00  0.16443863118E-01 0.  0.
         14    1    1    2    0    0 -0.18963241722E-01  0.97820473392E-02  0.36005413546E-02  0.21639244091E-01  0.00000000000E+00 0. -1.
     999901    1    3    3    0    0  0.38883929662E-01 -0.11018606431E+00 -0.83157457784E-01  0.89160983145E+00  0.88000000000E+00 0. -1.
        -11    1    4    4    0    0 -0.22173365262E-01  0.92965677256E-01  0.76046464202E-01  0.12213763185E+00  0.51100000000E-03 0.  1.
         11    1    4    4    0    0  0.22526773228E-02  0.74383397126E-02  0.35104522281E-02  0.85432926116E-02  0.51100000000E-03 0. -1.
</event>
<event>
 8    1  0.1145101E+005  0.1043930E+01  0.7957747E-01            NaN
         13   -1    0    0    0    0  0.00000000000E+00  0.00000000000E+00  0.74505805969E-08  0.10566000000E+00  0.10566000000E+00 0.  1.
     999900   -1    0    0    0    0 -0.00000000000E+00 -0.00000000000E+00 -0.74505805969E-08  0.93827000000E+00  0.93827000000E+00 0.  1.
     999902    2    1    2    0    0 -0.20806316767E-01  0.90057084666E-02 -0.41547253758E-02  0.10208807626E+01  0.10206205289E+01 0.  0.
     999903    2    3    3    0    0 -0.13634984682E-01  0.19650408095E-01 -0.12828882480E+00  0.13207594021E+00  0.20346500194E-01 0.  0.
         14    1    1    2    0    0  0.20806316767E-01 -0.90057084666E-02  0.41547253758E-02  0.23049237414E-01  0.00000000000E+00 0.  1.
     999901    1    3    3    0    0 -0.71713320851E-02 -0.10644699628E-01  0.12413409942E+00  0.88880482237E+00  0.88000000000E+00 0. -1.
        -11    1    4    4    0    0 -0.72621654242E-02  0.66848032664E-02 -0.98182911951E-01  0.98679131337E-01  0.51100000000E-03 0.  1.
         11    1    4    4    0    0 -0.63728192577E-02  0.12965604829E-01 -0.30105912846E-01  0.33396808877E-01  0.51100000000E-03 0. -1.
</event>
<event>
 7    1  0.1145101E+005  0.1043930E+01  0.7957747E-01            NaN
         13   -1    0    0    0    0  0.00000000000E+00  0.00000000000E+00  0.74505805969E-08  0.10566000000E+00  0.10566000000E+00 0. -1.
     999900   -1    0    0    0    0 -0.00000000000E+00 -0.00000000000E+00 -0.74505805969E-08  0.93827000000E+00  0.93827000000E+00 0.  1.
     999903    2    1    2    0    0 -0.42714683514E-01 -0.83258402279E-01  0.28585538726E-01  0.99775439697E-01  0.19532014869E-01 0.  0.
         14    1    1    2    0    0  0.60465325550E-03 -0.48843040605E-01  0.18059742705E-01  0.52078426702E-01  0.00000000000E+00 0. -1.
     999901    1    1    2    0    0  0.42110030258E-01  0.13210144288E+00 -0.46645281431E-01  0.89207613360E+00  0.88000000000E+00 0.  1.
        -11    1    3    3    0    0 -0.89452865364E-02 -0.24636588807E-01  0.16705669503E-01  0.31085690821E-01  0.51100000000E-03 0.  1.
         11    1    3    3    0    0 -0.33769396977E-01 -0.58621813472E-01  0.11879869222E-01  0.68689748877E-01  0.51100000000E-03 0. -1.
</event>
<event>
 8    1  0.1145101E+005  0.1043930E+01  0.7957747E-01            NaN
         13   -1    0    0    0    0  0.00000000000E+00  0.00000000000E+00  0.74505805969E-08  0.10566000000E+00  0.10566000000E+00 0. -1.
     999900   -1    0    0    0    0 -0.00000000000E+00 -0.00000000000E+00 -0.74505805969E-08  0.93827000000E+00  0.93827000000E+00 0. -1.
     999902    2    1    2    0    0  0.20336883187E-01 -0.22598425678E-02 -0.12606533172E-01  0.10198962657E+01  0.10196130503E+01 0.  0.
     999903    2    3    3    0    0 -0.66529252361E-01 -0.93693135575E-01  0.53757516129E-01  0.12843120209E+00  0.20003951038E-01 0.  0.
         14    1    1    2    0    0 -0.20336883187E-01  0.22598425678E-02  0.12606533172E-01  0.24033734309E-01  0.00000000000E+00 0. -1.
     999901    1    3    3    0    0  0.86866135549E-01  0.91433293007E-01 -0.66364049301E-01  0.89146506360E+00  0.88000000000E+00 0. -1.
        -11    1    4    4    0    0 -0.26306125337E-01 -0.27476625859E-01  0.95273947574E-02  0.39217465124E-01  0.51100000000E-03 0.  1.
         11    1    4    4    0    0 -0.40223127024E-01 -0.66216509716E-01  0.44230121371E-01  0.89213736970E-01  0.51100000000E-03 0. -1.
</event>
<event>
 8    1  0.1145101E+005  0.1043930E+01  0.7957747E-01            NaN
         13   -1    0    0    0    0  0.00000000000E+00  0.00000000000E+00  0.74505805969E-08  0.10566000000E+00  0.10566000000E+00 0. -1.
     999900   -1    0    0    0    0 -0.00000000000E+00 -0.00000000000E+00 -0.74505805969E-08  0.93827000000E+00  0.93827000000E+00 0.  1.
     999902    2    1    2    0    0 -0.66522738011E-02 -0.20898986601E-01 -0.86666236176E-02  0.10203475753E+01  0.10200750187E+01 0.  0.
     999903    2    3    3    0    0 -0.10573487121E+00  0.13073869025E-01 -0.74955208550E-01  0.13165995164E+00  0.19112052163E-01 0.  0.
         14    1    1    2    0    0  0.66522738011E-02  0.20898986601E-01  0.86666236176E-02  0.23582424655E-01  0.00000000000E+00 0. -1.
     999901    1    3    3    0    0  0.99082597405E-01 -0.33972855626E-01  0.66288584932E-01  0.88868762370E+00  0.88000000000E+00 0. -1.
        -11    1    4    4    0    0 -0.36050057395E-01  0.13649055995E-01 -0.26950970141E-01  0.47037424252E-01  0.51100000000E-03 0.  1.
         11    1    4    4    0    0 -0.69684813811E-01 -0.57518697050E-03 -0.48004238409E-01  0.84622527392E-01  0.51100000000E-03 0. -1.
</event>
<event>
 8    1  0.1145101E+005  0.1043930E+01  0.7957747E-01            NaN
         13   -1    0    0    0    0  0.00000000000E+00  0.00000000000E+00  0.74505805969E-08  0.10566000000E+00  0.10566000000E+00 0. -1.
     999900   -1    0    0    0    0 -0.00000000000E+00 -0.00000000000E+00 -0.74505805969E-08  0.93827000000E+00  0.93827000000E+00 0.  1.
     999902    2    1    2    0    0  0.20749493471E-01 -0.48746887301E-02  0.92171164778E-02  0.10207080426E+01  0.10204438490E+01 0.  0.
     999903    2    3    3    0    0 -0.62673720889E-01 -0.11005459148E+00 -0.21644757338E-01  0.12999220694E+00  0.19734993013E-01 0.  0.
         14    1    1    2    0    0 -0.20749493471E-01  0.48746887301E-02 -0.92171164778E-02  0.23221957404E-01  0.00000000000E+00 0. -1.
     999901    1    3    3    0    0  0.83423214360E-01  0.10517990275E+00  0.30861873816E-01  0.89071583566E+00  0.88000000000E+00 0.  1.
        -11    1    4    4    0    0 -0.28719216360E-01 -0.67921270545E-01 -0.16995628542E-01  0.75678298682E-01  0.51100000000E-03 0. -1.
         11    1    4    4    0    0 -0.33954504529E-01 -0.42133320932E-01 -0.46491287958E-02  0.54313908256E-01  0.51100000000E-03 0.  1.
</event>
<event>
 8    1  0.1145101E+005  0.1043930E+01  0.7957747E-01            NaN
         13   -1    0    0    0    0  0.00000000000E+00  0.00000000000E+00  0.74505805969E-08  0.10566000000E+00  0.10566000000E+00 0.  1.
     999900   -1    0    0    0    0 -0.00000000000E+00 -0.00000000000E+00 -0.74505805969E-08  0.93827000000E+00  0.93827000000E+00 0. -1.
     999902    2    1    2    0    0  0.92925652516E-02 -0.15954898658E-01  0.14415549661E-01  0.10205052560E+01  0.10202363740E+01 0.  0.
     999903    2    3    3    0    0  0.35032053726E-01 -0.12680527217E+00  0.61853021440E-02  0.13313945568E+00  0.19520114201E-01 0.  0.
         14    1    1    2    0    0 -0.92925652516E-02  0.15954898658E-01 -0.14415549661E-01  0.23424744015E-01  0.00000000000E+00 0. -1.
     999901    1    3    3    0    0 -0.25739488475E-01  0.11085037351E+00  0.82302475173E-02  0.88736580030E+00  0.88000000000E+00 0. -1.
        -11    1    4    4    0    0  0.30440043385E-01 -0.88115290163E-01 -0.23276951363E-02  0.93255455001E-01  0.51100000000E-03 0.  1.
         11    1    4    4    0    0  0.45920103415E-02 -0.38689982006E-01  0.85129972804E-02  0.39884000681E-01  0.51100000000E-03 0. -1.
</event>
<event>
 8    1  0.1145101E+005  0.1043930E+01  0.7957747E-01            NaN
         13   -1    0    0    0    0  0.00000000000E+00  0.00000000000E+00  0.74505805969E-08  0.10566000000E+00  0.10566000000E+00 0. -1.
     999900   -1    0    0    0    0 -0.00000000000E+00 -0.00000000000E+00 -0.74505805969E-08  0.93827000000E+00  0.93827000000E+00 0. -1.
     999902    2    1    2    0    0  0.14888999235E-01  0.10846785005E-01 -0.15028639575E-01  0.10201561688E+01  0.10198791172E+01 0.  0.
     999903    2    3    3    0    0  0.12828493693E+00  0.22963409268E-01 -0.15027087914E-01  0.13279747509E+00  0.20615838825E-01 0.  0.
         14    1    1    2    0    0 -0.14888999235E-01 -0.10846785005E-01  0.15028639575E-01  0.23773831215E-01  0.00000000000E+00 0. -1.
     999901    1    3    3    0    0 -0.11339593770E+00 -0.12116624263E-01 -0.15516608487E-05  0.88735869369E+00  0.88000000000E+00 0.  1.
        -11    1    4    4    0    0  0.65776322659E-01  0.13499415589E-01 -0.17949641837E-01  0.69506903304E-01  0.51100000000E-03 0.  1.
         11    1    4    4    0    0  0.62508614274E-01  0.94639936792E-02  0.29225539236E-02  0.63290571788E-01  0.51100000000E-03 0. -1.
</event>
<event>
 8    1  0.1145101E+005  0.1043930E+01  0.7957747E-01            NaN
         13   -1    0    0    0    0  0.00000000000E+00  0.00000000000E+00  0.74505805969E-08  0.10566000000E+00  0.10566000000E+00 0.  1.
     999900   -1    0    0    0    0 -0.00000000000E+00 -0.00000000000E+00 -0.74505805969E-08  0.93827000000E+00  0.93827000000E+00 0.  1.
     999902    2    1    2    0    0 -0.20391359887E-02 -0.56990662565E-02 -0.24267458214E-01  0.10189190632E+01  0.10186120510E+01 0.  0.
     999903    2    3    3    0    0 -0.28833453689E-01 -0.93801979643E-01 -0.85941486803E-01  0.13196712278E+00  0.19980062641E-01 0.  0.
         14    1    1    2    0    0  0.20391359887E-02  0.56990662565E-02  0.24267458214E-01  0.25010936806E-01  0.00000000000E+00 0.  1.
     999901    1    3    3    0    0  0.26794317700E-01  0.88102913387E-01  0.61674028590E-01  0.88695194042E+00  0.88000000000E+00 0. -1.
        -11    1    4    4    0    0 -0.14477663319E-01 -0.69143583351E-01 -0.52575418138E-01  0.88061759960E-01  0.51100000000E-03 0. -1.
         11    1    4    4    0    0 -0.14355790369E-01 -0.24658396292E-01 -0.33366068665E-01  0.43905362816E-01  0.51100000000E-03 0.  1.
</event>
<event>
 8    1  0.1145101E+005  0.1043930E+01  0.7957747E-01            NaN
         13   -1    0    0    0    0  0.00000000000E+00  0.00000000000E+00  0.74505805969E-08  0.10566000000E+00  0.10566000000E+00 0. -1.
     999900   -1    0    0    0    0 -0.00000000000E+00 -0.00000000000E+00 -0.74505805969E-08  0.93827000000E+00  0.93827000000E+00 0. -1.
     999902    2    1    2    0    0  0.14042998465E-01  0.74089815253E-03 -0.18895114650E-01  0.10203762297E+01  0.10201043428E+01 0.  0.
     999903    2    3    3    0    0  0.59260872342E-01 -0.12946594936E-01 -0.11733244668E+00  0.13362828814E+00  0.20252185992E-01 0.  0.
         14    1    1    2    0    0 -0.14042998465E-01 -0.74089815253E-03  0.18895114650E-01  0.23553770262E-01  0.00000000000E+00 0. -1.
     999901    1    3    3    0    0 -0.45217873877E-01  0.13687493088E-01  0.98437332028E-01  0.88674794159E+00  0.88000000000E+00 0.  1.
        -11    1    4    4    0    0  0.27493125523E-01 -0.72799744450E-02 -0.34398650672E-01  0.44636288690E-01  0.51100000000E-03 0. -1.
         11    1    4    4    0    0  0.31767746818E-01 -0.56666204908E-02 -0.82933796006E-01  0.88991999453E-01  0.51100000000E-03 0.  1.
</event>
<event>
 8    1  0.1145101E+005  0.1043930E+01  0.7957747E-01            NaN
         13   -1    0    0    0    0  0.00000000000E+00  0.00000000000E+00  0.74505805969E-08  0.10566000000E+00  0.10566000000E+00 0. -1.
     999900   -1    0    0    0    0 -0.00000000000E+00 -0.00000000000E+00 -0.74505805969E-08  0.93827000000E+00  0.93827000000E+00 0. -1.
     999902    2    1    2    0    0 -0.20632127050E-01 -0.10298246330E-01  0.71582757604E-02  0.10197850325E+01  0.10194991579E+01 0.  0.
     999903    2    3    3    0    0 -0.17467358538E-01 -0.95103787667E-01  0.87471410020E-01  0.13206199284E+00  0.20959087242E-01 0.  0.
         14    1    1    2    0    0  0.20632127050E-01  0.10298246330E-01 -0.71582757604E-02  0.24144967508E-01  0.00000000000E+00 0.  1.
     999901    1    3    3    0    0 -0.31647685123E-02  0.84805541338E-01 -0.80313134260E-01  0.88772303966E+00  0.88000000000E+00 0. -1.
        -11    1    4    4    0    0 -0.18038694155E-01 -0.40589795084E-01  0.39210931189E-01  0.59251026975E-01  0.51100000000E-03 0. -1.
         11    1    4    4    0    0  0.57133561758E-03 -0.54513992583E-01  0.48260478831E-01  0.72810965862E-01  0.51100000000E-03 0.  1.
</event>
<event>
 8    1  0.1275949E+005  0.1043930E+01  0.7957747E-01            NaN
         13   -1    0    0    0    0  0.00000000000E+00  0.00000000000E+00  0.74505805969E-08  0.10566000000E+00  0.10566000000E+00 0.  1.
     999900   -1    0    0    0    0 -0.00000000000E+00 -0.00000000000E+00 -0.74505805969E-08  0.93827000000E+00  0.93827000000E+00 0. -1.
     999902    2    1    2    0    0  0.13825850252E-01 -0.12316719309E-01  0.13408088667E-01  0.10210688419E+01  0.10208128855E+01 0.  0.
     999903    2    3    3    0    0 -0.64102917564E-01 -0.35289155140E-01 -0.10472771063E+00  0.12946540269E+00  0.20949668501E-01 0.  0.
         14    1    1    2    0    0 -0.13825850252E-01  0.12316719309E-01 -0.13408088667E-01  0.22861158138E-01  0.00000000000E+00 0. -1.
     999901    1    3    3    0    0  0.77928767816E-01  0.22972435831E-01  0.11813579930E+00  0.89160343917E+00  0.88000000000E+00 0.  1.
        -11    1    4    4    0    0 -0.32495317591E-01 -0.61055445436E-02 -0.47109113386E-01  0.57556520261E-01  0.51100000000E-03 0. -1.
         11    1    4    4    0    0 -0.31607599974E-01 -0.29183610596E-01 -0.57618597242E-01  0.71908882432E-01  0.51100000000E-03 0.  1.
</event>
<event>
 8    1  0.1145101E+005  0.1043930E+01  0.7957747E-01            NaN
         13   -1    0    0    0    0  0.00000000000E+00  0.00000000000E+00  0.74505805969E-08  0.10566000000E+00  0.10566000000E+00 0.  1.
     999900   -1    0    0    0    0 -0.00000000000E+00 -0.00000000000E+00 -0.74505805969E-08  0.93827000000E+00  0.93827000000E+00 0.  1.
     999902    2    1    2    0    0 -0.10064652527E-01  0.17982806288E-01  0.11886821954E-01  0.10201397691E+01  0.10198623306E+01 0.  0.
     999903    2    3    3    0    0 -0.97334848735E-01  0.38100547428E-01 -0.74511458688E-01  0.13138475581E+00  0.28004858363E-01 0.  0.
         14    1    1    2    0    0  0.10064652527E-01 -0.17982806288E-01 -0.11886821954E-01  0.23790230949E-01  0.00000000000E+00 0. -1.
     999901    1    3    3    0    0  0.87270196208E-01 -0.20117741141E-01  0.86398280642E-01  0.88875501324E+00  0.88000000000E+00 0. -1.
        -11    1    4    4    0    0 -0.55026847498E-01  0.36172862192E-01 -0.45910754750E-01  0.80277571136E-01  0.51100000000E-03 0.  1.
         11    1    4    4    0    0 -0.42308001237E-01  0.19276852367E-02 -0.28600703938E-01  0.51107184679E-01  0.51100000000E-03 0. -1.
</event>
<event>
 8    1  0.1145101E+005  0.1043930E+01  0.7957747E-01            NaN
         13   -1    0    0    0    0  0.00000000000E+00  0.00000000000E+00  0.74505805969E-08  0.10566000000E+00  0.10566000000E+00 0.  1.
     999900   -1    0    0    0    0 -0.00000000000E+00 -0.00000000000E+00 -0.74505805969E-08  0.93827000000E+00  0.93827000000E+00 0. -1.
     999902    2    1    2    0    0  0.16274010181E-01  0.11181340591E-01 -0.10911220624E-01  0.10213707332E+01  0.10211215667E+01 0.  0.
     999903    2    3    3    0    0  0.10159480891E+00  0.70799328701E-01  0.44610336159E-01  0.13349879055E+00  0.22311316536E-01 0.  0.
         14    1    1    2    0    0 -0.16274010181E-01 -0.11181340591E-01  0.10911220624E-01  0.22559266838E-01  0.00000000000E+00 0.  1.
     999901    1    3    3    0    0 -0.85320798727E-01 -0.59617988111E-01 -0.55521556783E-01  0.88787194261E+00  0.88000000000E+00 0. -1.
        -11    1    4    4    0    0  0.18605606607E-01  0.66864470768E-02  0.14069539280E-01  0.24271181024E-01  0.51100000000E-03 0. -1.
         11    1    4    4    0    0  0.82989202301E-01  0.64112881624E-01  0.30540796879E-01  0.10922760953E+00  0.51100000000E-03 0.  1.
</event>
<event>
 8    1  0.1145101E+005  0.1043930E+01  0.7957747E-01            NaN
         13   -1    0    0    0    0  0.00000000000E+00  0.00000000000E+00  0.74505805969E-08  0.10566000000E+00  0.10566000000E+00 0. -1.
     999900   -1    0    0    0    0 -0.00000000000E+00 -0.00000000000E+00 -0.74505805969E-08  0.93827000000E+00  0.93827000000E+00 0.  1.
     999902    2    1    2    0    0  0.46087735500E-02 -0.29373489171E-02  0.22490416181E-01  0.10207850733E+01  0.10205226495E+01 0.  0.
     999903    2    3    3    0    0  0.18450327322E-01  0.79115042427E-01  0.10355342206E+00  0.13315035425E+00  0.20151950260E-01 0.  0.
         14    1    1    2    0    0 -0.46087735500E-02  0.29373489171E-02 -0.22490416181E-01  0.23144926708E-01  0.00000000000E+00 0.  1.
     999901    1    3    3    0    0 -0.13841553772E-01 -0.82052391344E-01 -0.81063005876E-01  0.88763471905E+00  0.88000000000E+00 0.  1.
        -11    1    4    4    0    0  0.14427164410E-01  0.70478831677E-01  0.79211076251E-01  0.10700497423E+00  0.51100000000E-03 0.  1.
         11    1    4    4    0    0  0.40231629121E-02  0.86362107502E-02  0.24342345807E-01  0.26145380019E-01  0.51100000000E-03 0. -1.
</event>
<event>
 7    1  0.1145101E+005  0.1043930E+01  0.7957747E-01            NaN
         13   -1    0    0    0    0  0.00000000000E+00  0.00000000000E+00  0.74505805969E-08  0.10566000000E+00  0.10566000000E+00 0. -1.
     999900   -1    0    0    0    0 -0.00000000000E+00 -0.00000000000E+00 -0.74505805969E-08  0.93827000000E+00  0.93827000000E+00 0.  1.
     999903    2    1    2    0    0  0.83796554223E-01 -0.31332759893E-01 -0.34606368673E-01  0.97990238918E-01  0.20022033573E-01 0.  0.
         14    1    1    2    0    0  0.97291330320E-02 -0.41774164446E-01  0.38980062622E-01  0.57958451728E-01  0.00000000000E+00 0. -1.
     999901    1    1    2    0    0 -0.93525687255E-01  0.73106924338E-01 -0.43736939494E-02  0.88798130935E+00  0.88000000000E+00 0. -1.
        -11    1    3    3    0    0  0.48336212270E-01 -0.13309826434E-01 -0.97347440806E-02  0.51074134937E-01  0.51100000000E-03 0. -1.
         11    1    3    3    0    0  0.35460341953E-01 -0.18022933458E-01 -0.24871624592E-01  0.46916103981E-01  0.51100000000E-03 0.  1.
</event>
<event>
 8    1  0.1145101E+005  0.1043930E+01  0.7957747E-01            NaN
         13   -1    0    0    0    0  0.00000000000E+00  0.00000000000E+00  0.74505805969E-08  0.10566000000E+00  0.10566000000E+00 0.  1.
     999900   -1    0    0    0    0 -0.00000000000E+00 -0.00000000000E+00 -0.74505805969E-08  0.93827000000E+00  0.93827000000E+00 0. -1.
     999902    2    1    2    0    0 -0.24582416368E-01 -0.25781806177E-02  0.16932552113E-02  0.10191548245E+01  0.10188536435E+01 0.  0.
     999903    2    3    3    0    0  0.11355635586E+00 -0.14720456541E-01 -0.50675982094E-01  0.12675788796E+00  0.19691856248E-01 0.  0.
         14    1    1    2    0    0  0.24582416368E-01  0.25781806177E-02 -0.16932552113E-02  0.24775175539E-01  0.00000000000E+00 0. -1.
     999901    1    3    3    0    0 -0.13813877223E+00  0.12142275923E-01  0.52369237306E-01  0.89239693650E+00  0.88000000000E+00 0.  1.
        -11    1    4    4    0    0  0.63218235404E-01  0.16030635676E-02 -0.26261835829E-01  0.68476713140E-01  0.51100000000E-03 0. -1.
         11    1    4    4    0    0  0.50338120455E-01 -0.16323520109E-01 -0.24414146265E-01  0.58281174821E-01  0.51100000000E-03 0.  1.
</event>
<event>
 8    1  0.1279635E+005  0.1043930E+01  0.7957747E-01            NaN
         13   -1    0    0    0    0  0.00000000000E+00  0.00000000000E+00  0.74505805969E-08  0.10566000000E+00  0.10566000000E+00 0. -1.
     999900   -1    0    0    0    0 -0.00000000000E+00 -0.00000000000E+00 -0.74505805969E-08  0.93827000000E+00  0.93827000000E+00 0.  1.
     999902    2    1    2    0    0 -0.28869153586E-01 -0.69016849048E-04 -0.35025537248E-02  0.10148490668E+01  0.10144323180E+01 0.  0.
     999903    2    3    3    0    0 -0.27719871837E-01 -0.28170272722E-01  0.11799454464E+00  0.12605632026E+00  0.20137719644E-01 0.  0.
         14    1    1    2    0    0  0.28869153586E-01  0.69016849048E-04  0.35025537248E-02  0.29080933181E-01  0.00000000000E+00 0. -1.
     999901    1    3    3    0    0 -0.11492817488E-02  0.28101255873E-01 -0.12149709836E+00  0.88879274656E+00  0.88000000000E+00 0.  1.
        -11    1    4    4    0    0 -0.20103180688E-01 -0.28043842467E-01  0.77319026842E-01  0.84670467147E-01  0.51100000000E-03 0. -1.
         11    1    4    4    0    0 -0.76166911485E-02 -0.12643025551E-03  0.40675517796E-01  0.41385853110E-01  0.51100000000E-03 0.  1.
</event>
<event>
 7    1  0.1145101E+005  0.1043930E+01  0.7957747E-01            NaN
         13   -1    0    0    0    0  0.00000000000E+00  0.00000000000E+00  0.74505805969E-08  0.10566000000E+00  0.10566000000E+00 0. -1.
     999900   -1    0    0    0    0 -0.00000000000E+00 -0.00000000000E+00 -0.74505805969E-08  0.93827000000E+00  0.93827000000E+00 0.  1.
     999902    2    1    2    0    0 -0.44432537694E-02  0.20493378443E-01 -0.11506881202E-01  0.10200107739E+01  0.10197302827E+01 0.  0.
         14    1    1    2    0    0  0.44432537694E-02 -0.20493378443E-01  0.11506881202E-01  0.23919226138E-01  0.00000000000E+00 0.  1.
     999901    1    3    3    0    0  0.58299538493E-01  0.19486995200E-01 -0.12428236155E+00  0.89085615257E+00  0.88000000000E+00 0.  1.
        -11    1    3    3    0    0 -0.31397174255E-01  0.19608544545E-02  0.52449771252E-01  0.61162628514E-01  0.51100000000E-03 0.  1.
         11    1    3    3    0    0 -0.31345618007E-01 -0.95447121166E-03  0.60325709096E-01  0.67991992782E-01  0.51100000000E-03 0. -1.
</event>
<event>
 8    1  0.1145101E+005  0.1043930E+01  0.7957747E-01            NaN
         13   -1    0    0    0    0  0.00000000000E+00  0.00000000000E+00  0.74505805969E-08  0.10566000000E+00  0.10566000000E+00 0. -1.
     999900   -1    0    0    0    0 -0.00000000000E+00 -0.00000000000E+00 -0.74505805969E-08  0.93827000000E+00  0.93827000000E+00 0. -1.
     999902    2    1    2    0    0  0.14027227499E-01 -0.94937305087E-02  0.16355693269E-01  0.10203842417E+01  0.10201125418E+01 0.  0.
     999903    2    3    3    0    0 -0.11801974515E+00 -0.32329232165E-01  0.38681608082E-01  0.12995945007E+00  0.20478094694E-01 0.  0.
         14    1    1    2    0    0 -0.14027227499E-01  0.94937305087E-02 -0.16355693269E-01  0.23545758272E-01  0.00000000000E+00 0.  1.
     999901    1    3    3    0    0  0.13204697265E+00  0.22835501657E-01 -0.22325914812E-01  0.89042479165E+00  0.88000000000E+00 0.  1.
        -11    1    4    4    0    0 -0.51949070829E-01 -0.88402884094E-02  0.25751376672E-01  0.58653654453E-01  0.51100000000E-03 0.  1.
         11    1    4    4    0    0 -0.66070674319E-01 -0.23488943756E-01  0.12930231410E-01  0.71305795621E-01  0.51100000000E-03 0. -1.
</event>
<event>
 8    1  0.1145101E+005  0.1043930E+01  0.7957747E-01            NaN
         13   -1    0    0    0    0  0.00000000000E+00  0.00000000000E+00  0.74505805969E-08  0.10566000000E+00  0.10566000000E+00 0.  1.
     999900   -1    0    0    0    0 -0.00000000000E+00 -0.00000000000E+00 -0.74505805969E-08  0.93827000000E+00  0.93827000000E+00 0. -1.
     999902    2    1    2    0    0 -0.34992154026E-02  0.17169204392E-01  0.15312803400E-01  0.10206596748E+01  0.10203943667E+01 0.  0.
     999903    2    3    3    0    0 -0.84460388336E-01 -0.38526639580E-01  0.91835152251E-01  0.13188950852E+00  0.18528035883E-01 0.  0.
         14    1    1    2    0    0  0.34992154026E-02 -0.17169204392E-01 -0.15312803400E-01  0.23270325220E-01  0.00000000000E+00 0.  1.
     999901    1    3    3    0    0  0.80961172933E-01  0.55695843972E-01 -0.76522348851E-01  0.88877016626E+00  0.88000000000E+00 0.  1.
        -11    1    4    4    0    0 -0.53630196324E-01 -0.16998995707E-01  0.46527830349E-01  0.73008656547E-01  0.51100000000E-03 0. -1.
         11    1    4    4    0    0 -0.30830192011E-01 -0.21527643873E-01  0.45307321903E-01  0.58880851974E-01  0.51100000000E-03 0.  1.
</event>
<event>
 8    1  0.1145101E+005  0.1043930E+01  0.7957747E-01            NaN
         13   -1    0    0    0    0  0.00000000000E+00  0.00000000000E+00  0.74505805969E-08  0.10566000000E+00  0.10566000000E+00 0. -1.
     999900   -1    0    0    0    0 -0.00000000000E+00 -0.00000000000E+00 -0.74505805969E-08  0.93827000000E+00  0.93827000000E+00 0.  1.
     999902    2    1    2    0    0 -0.11364931408E-01  0.45785809450E-02 -0.20131931351E-01  0.10203626554E+01  0.10200904513E+01 0.  0.
     999903    2    3    3    0    0 -0.88119961747E-01 -0.63982247274E-01 -0.73233116657E-01  0.13277510611E+00  0.20181273592E-01 0.  0.
         14    1    1    2    0    0  0.11364931408E-01 -0.45785809450E-02  0.20131931351E-01  0.23567344553E-01  0.00000000000E+00 0. -1.
     999901    1    3    3    0    0  0.76755030339E-01  0.68560828219E-01  0.53101185306E-01  0.88758754933E+00  0.88000000000E+00 0. -1.
        -11    1    4    4    0    0 -0.27659792378E-01 -0.91853179651E-02 -0.18775181436E-01  0.34672795380E-01  0.51100000000E-03 0.  1.
         11    1    4    4    0    0 -0.60460169369E-01 -0.54796929309E-01 -0.54457935221E-01  0.98102310734E-01  0.51100000000E-03 0. -1.
</event>
<event>
 8    1  0.1145101E+005  0.1043930E+01  0.7957747E-01            NaN
         13   -1    0    0    0    0  0.00000000000E+00  0.00000000000E+00  0.74505805969E-08  0.10566000000E+00  0.10566000000E+00 0.  1.
     999900   -1    0    0    0    0 -0.00000000000E+00 -0.00000000000E+00 -0.74505805969E-08  0.93827000000E+00  0.93827000000E+00 0. -1.
     999902    2    1    2    0    0  0.43702418790E-03  0.22179541310E-01 -0.58921349773E-02  0.10209769981E+01  0.10207189575E+01 0.  0.
     999903    2    3    3    0    0 -0.14886210614E-01 -0.11431551436E+00 -0.54272348007E-01  0.12900931550E+00  0.20205930773E-01 0.  0.
         14    1    1    2    0    0 -0.43702418790E-03 -0.22179541310E-01  0.58921349773E-02  0.22953001926E-01  0.00000000000E+00 0. -1.
     999901    1    3    3    0    0  0.15323234802E-01  0.13649505567E+00  0.48380213030E-01  0.89196768258E+00  0.88000000000E+00 0.  1.
        -11    1    4    4    0    0 -0.64599208106E-02 -0.88867453517E-01 -0.48987213133E-01  0.10168167506E+00  0.51100000000E-03 0.  1.
         11    1    4    4    0    0 -0.84262898033E-02 -0.25448060839E-01 -0.52851348736E-02  0.27327640438E-01  0.51100000000E-03 0. -1.
</event>
<event>
 8    1  0.1145101E+005  0.1043930E+01  0.7957747E-01            NaN
         13   -1    0    0    0    0  0.00000000000E+00  0.00000000000E+00  0.74505805969E-08  0.10566000000E+00  0.10566000000E+00 0.  1.
     999900   -1    0    0    0    0 -0.00000000000E+00 -0.00000000000E+00 -0.74505805969E-08  0.93827000000E+00  0.93827000000E+00 0. -1.
     999902    2    1    2    0    0 -0.16162855024E-01  0.15232048791E-01 -0.53809836725E-02  0.10210781253E+01  0.10208223791E+01 0.  0.
     999903    2    3    3    0    0 -0.47523698875E-01 -0.71481737156E-01  0.96739870527E-01  0.13038656696E+00  0.16550335116E-01 0.  0.
         14    1    1    2    0    0  0.16162855024E-01 -0.15232048791E-01  0.53809836725E-02  0.22851874719E-01  0.00000000000E+00 0.  1.
     999901    1    3    3    0    0  0.31360843851E-01  0.86713785948E-01 -0.10212085420E+00  0.89069155832E+00  0.88000000000E+00 0. -1.
        -11    1    4    4    0    0 -0.61064517619E-02 -0.21364551590E-01  0.28330341404E-01  0.36008362679E-01  0.51100000000E-03 0.  1.
         11    1    4    4    0    0 -0.41417247113E-01 -0.50117185566E-01  0.68409529123E-01  0.94378204281E-01  0.51100000000E-03 0. -1.
</event>
<event>
 8    1  0.1145101E+005  0.1043930E+01  0.7957747E-01            NaN
         13   -1    0    0    0    0  0.00000000000E+00  0.00000000000E+00  0.74505805969E-08  0.10566000000E+00  0.10566000000E+00 0. -1.
     999900   -1    0    0    0    0 -0.00000000000E+00 -0.00000000000E+00 -0.74505805969E-08  0.93827000000E+00  0.93827000000E+00 0.  1.
     999902    2    1    2    0    0 -0.48624487095E-02  0.38645322095E-02 -0.18858982570E-01  0.10240745413E+01  0.10238820376E+01 0.  0.
     999903    2    3    3    0    0  0.97152288535E-01 -0.86642761203E-01  0.17574890991E-01  0.13282485467E+00  0.19698476789E-01 0.  0.
         14    1    1    2    0    0  0.48624487095E-02 -0.38645322095E-02  0.18858982570E-01  0.19855458701E-01  0.00000000000E+00 0. -1.
     999901    1    3    3    0    0 -0.10201473724E+00  0.90507293413E-01 -0.36433873562E-01  0.89124968663E+00  0.88000000000E+00 0. -1.
        -11    1    4    4    0    0  0.29212118070E-01 -0.21639445148E-01  0.13247130134E-01  0.38695749201E-01  0.51100000000E-03 0. -1.
         11    1    4    4    0    0  0.67940170465E-01 -0.65003316056E-01  0.43277608571E-02  0.94129105468E-01  0.51100000000E-03 0.  1.
</event>
<event>
 8    1  0.1145101E+005  0.1043930E+01  0.7957747E-01            NaN
         13   -1    0    0    0    0  0.00000000000E+00  0.00000000000E+00  0.74505805969E-08  0.10566000000E+00  0.10566000000E+00 0. -1.
     999900   -1    0    0    0    0 -0.00000000000E+00 -0.00000000000E+00 -0.74505805969E-08  0.93827000000E+00  0.93827000000E+00 0.  1.
     999902    2    1    2    0    0 -0.21680889975E-01  0.81956878722E-02  0.44829607700E-02  0.10203222210E+01  0.10200490711E+01 0.  0.
     999903    2    3    3    0    0  0.34766582989E-01  0.37863438191E-01 -0.11669969789E+00  0.12973155785E+00  0.23855866598E-01 0.  0.
         14    1    1    2    0    0  0.21680889975E-01 -0.81956878722E-02 -0.44829607700E-02  0.23607778953E-01  0.00000000000E+00 0.  1.
     999901    1    3    3    0    0 -0.56447472964E-01 -0.29667750319E-01  0.12118265866E+00  0.89059066320E+00  0.88000000000E+00 0. -1.
        -11    1    4    4    0    0  0.21464845799E-01  0.13917391011E-01 -0.79605678966E-01  0.83616736497E-01  0.51100000000E-03 0. -1.
         11    1    4    4    0    0  0.13301737190E-01  0.23946047180E-01 -0.37094018921E-01  0.46114821354E-01  0.51100000000E-03 0.  1.
</event>
<event>
 8    1  0.1145101E+005  0.1043930E+01  0.7957747E-01            NaN
         13   -1    0    0    0    0  0.00000000000E+00  0.00000000000E+00  0.74505805969E-08  0.10566000000E+00  0.10566000000E+00 0.  1.
     999900   -1    0    0    0    0 -0.00000000000E+00 -0.00000000000E+00 -0.74505805969E-08  0.93827000000E+00  0.93827000000E+00 0. -1.
     999902    2    1    2    0    0  0.33153935483E-02  0.21794144300E-01  0.10430194961E-01  0.10195421849E+01  0.10192504605E+01 0.  0.
     999903    2    3    3    0    0 -0.23878524324E-01 -0.21051576461E-01  0.12515542635E+00  0.13064559714E+00  0.19774693705E-01 0.  0.
         14    1    1    2    0    0 -0.33153935483E-02 -0.21794144300E-01 -0.10430194961E-01  0.24387815135E-01  0.00000000000E+00 0. -1.
     999901    1    3    3    0    0  0.27193917872E-01  0.42845720761E-01 -0.11472523139E+00  0.88889658773E+00  0.88000000000E+00 0. -1.
        -11    1    4    4    0    0 -0.13249553827E-01 -0.20267447722E-01  0.61411355508E-01  0.66014663675E-01  0.51100000000E-03 0. -1.
         11    1    4    4    0    0 -0.10628970497E-01 -0.78412873907E-03  0.63744070841E-01  0.64630933462E-01  0.51100000000E-03 0.  1.
</event>
<event>
 8    1  0.1146848E+005  0.1043930E+01  0.7957747E-01            NaN
         13   -1    0    0    0    0  0.00000000000E+00  0.00000000000E+00  0.74505805969E-08  0.10566000000E+00  0.10566000000E+00 0. -1.
     999900   -1    0    0    0    0 -0.00000000000E+00 -0.00000000000E+00 -0.74505805969E-08  0.93827000000E+00  0.93827000000E+00 0.  1.
     999902    2    1    2    0    0 -0.18325533013E-01  0.52527425928E-02  0.14235154816E-01  0.10201380665E+01  0.10198605879E+01 0.  0.
     999903    2    3    3    0    0  0.19960069674E-01  0.74478139766E-01 -0.10156564405E+00  0.12903326462E+00  0.19713083039E-01 0.  0.
         14    1    1    2    0    0  0.18325533013E-01 -0.52527425928E-02 -0.14235154816E-01  0.23791933456E-01  0.00000000000E+00 0.  1.
     999901    1    3    3    0    0 -0.38285602687E-01 -0.69225397173E-01  0.11580079887E+00  0.89110480192E+00  0.88000000000E+00 0. -1.
        -11    1    4    4    0    0  0.13474131068E-01  0.23504843964E-01 -0.45686871165E-01  0.53118558109E-01  0.51100000000E-03 0.  1.
         11    1    4    4    0    0  0.64859386061E-02  0.50973295802E-01 -0.55878772889E-01  0.75914706514E-01  0.51100000000E-03 0. -1.
</event>
<event>
 8    1  0.1145101E+005  0.1043930E+01  0.7957747E-01            NaN
         13   -1    0    0    0    0  0.00000000000E+00  0.00000000000E+00  0.74505805969E-08  0.10566000000E+00  0.10566000000E+00 0. -1.
     999900   -1    0    0    0    0 -0.00000000000E+00 -0.00000000000E+00 -0.74505805969E-08  0.93827000000E+00  0.93827000000E+00 0. -1.
     999902    2    1    2    0    0 -0.19550464375E-01  0.45767630369E-02 -0.11502355360E-01  0.10207897408E+01  0.10205274241E+01 0.  0.
     999903    2    3    3    0    0  0.28250603413E-01 -0.11912509699E+00  0.36755464212E-01  0.12954571731E+00  0.21029583881E-01 0.  0.
         14    1    1    2    0    0  0.19550464375E-01 -0.45767630369E-02  0.11502355360E-01  0.23140259203E-01  0.00000000000E+00 0. -1.
     999901    1    3    3    0    0 -0.47801067788E-01  0.12370186002E+00 -0.48257819572E-01  0.89124402349E+00  0.88000000000E+00 0. -1.
        -11    1    4    4    0    0 -0.20449651438E-02 -0.48184559137E-02  0.46260263990E-02  0.70043301661E-02  0.51100000000E-03 0. -1.
         11    1    4    4    0    0  0.30295568557E-01 -0.11430664107E+00  0.32129437813E-01  0.12254138714E+00  0.51100000000E-03 0.  1.
</event>
<event>
 8    1  0.1145101E+005  0.1043930E+01  0.7957747E-01            NaN
         13   -1    0    0    0    0  0.00000000000E+00  0.00000000000E+00  0.74505805969E-08  0.10566000000E+00  0.10566000000E+00 0.  1.
     999900   -1    0    0    0    0 -0.00000000000E+00 -0.00000000000E+00 -0.74505805969E-08  0.93827000000E+00  0.93827000000E+00 0.  1.
     999902    2    1    2    0    0 -0.17333858414E-01  0.14602423302E-01 -0.62677719076E-02  0.10204145077E+01  0.10201435140E+01 0.  0.
     999903    2    3    3    0    0 -0.55091484199E-02 -0.12149672792E+00  0.37150901244E-01  0.12881595234E+00  0.20531792485E-01 0.  0.
         14    1    1    2    0    0  0.17333858414E-01 -0.14602423302E-01  0.62677719076E-02  0.23515492308E-01  0.00000000000E+00 0.  1.
     999901    1    3    3    0    0 -0.11824709995E-01  0.13609915122E+00 -0.43418673151E-01  0.89159855535E+00  0.88000000000E+00 0.  1.
        -11    1    4    4    0    0  0.31656290194E-02 -0.21977699800E-01 -0.67019120580E-04  0.22210495450E-01  0.51100000000E-03 0.  1.
         11    1    4    4    0    0 -0.86747774393E-02 -0.99519028118E-01  0.37217920364E-01  0.10660545689E+00  0.51100000000E-03 0. -1.
</event>
<event>
 8    1  0.1145101E+005  0.1043930E+01  0.7957747E-01            NaN
         13   -1    0    0    0    0  0.00000000000E+00  0.00000000000E+00  0.74505805969E-08  0.10566000000E+00  0.10566000000E+00 0.  1.
     999900   -1    0    0    0    0 -0.00000000000E+00 -0.00000000000E+00 -0.74505805969E-08  0.93827000000E+00  0.93827000000E+00 0.  1.
     999902    2    1    2    0    0  0.20706594185E-01  0.10600869378E-01 -0.89749349309E-02  0.10189962692E+01  0.10186911729E+01 0.  0.
     999903    2    3    3    0    0 -0.88434926803E-01 -0.27966975780E-01  0.82479282669E-01  0.12671647889E+00  0.25521479983E-01 0.  0.
         14    1    1    2    0    0 -0.20706594185E-01 -0.10600869378E-01  0.89749349309E-02  0.24933730794E-01  0.00000000000E+00 0. -1.
     999901    1    3    3    0    0  0.10914152099E+00  0.38567845158E-01 -0.91454217600E-01  0.89227979031E+00  0.88000000000E+00 0.  1.
        -11    1    4    4    0    0 -0.70916806142E-01 -0.32470042419E-01  0.69214245907E-01  0.10428024744E+00  0.51100000000E-03 0. -1.
         11    1    4    4    0    0 -0.17518120661E-01  0.45030666391E-02  0.13265036762E-01  0.22436231456E-01  0.51100000000E-03 0.  1.
</event>
<event>
 8    1  0.1145101E+005  0.1043930E+01  0.7957747E-01            NaN
         13   -1    0    0    0    0  0.00000000000E+00  0.00000000000E+00  0.74505805969E-08  0.10566000000E+00  0.10566000000E+00 0.  1.
     999900   -1    0    0    0    0 -0.00000000000E+00 -0.00000000000E+00 -0.74505805969E-08  0.93827000000E+00  0.93827000000E+00 0.  1.
     999902    2    1    2    0    0 -0.23007757097E-01  0.29113482790E-02 -0.62650726726E-02  0.10199074279E+01  0.10196244787E+01 0.  0.
     999903    2    3    3    0    0 -0.97019173804E-01 -0.72114574821E-01 -0.50582098524E-01  0.13251203815E+00  0.19689072516E-01 0.  0.
         14    1    1    2    0    0  0.23007757097E-01 -0.29113482790E-02  0.62650726726E-02  0.24022572116E-01  0.00000000000E+00 0.  1.
     999901    1    3    3    0    0  0.74011416707E-01  0.75025923100E-01  0.44317025852E-01  0.88739538973E+00  0.88000000000E+00 0. -1.
        -11    1    4    4    0    0 -0.47729091258E-01 -0.46852147734E-01 -0.31476168283E-01  0.73920228560E-01  0.51100000000E-03 0. -1.
         11    1    4    4    0    0 -0.49290082546E-01 -0.25262427087E-01 -0.19105930241E-01  0.58591809591E-01  0.51100000000E-03 0.  1.
</event>
<event>
 8    1  0.1145101E+005  0.1043930E+01  0.7957747E-01            NaN
         13   -1    0    0    0    0  0.00000000000E+00  0.00000000000E+00  0.74505805969E-08  0.10566000000E+00  0.10566000000E+00 0. -1.
     999900   -1    0    0    0    0 -0.00000000000E+00 -0.00000000000E+00 -0.74505805969E-08  0.93827000000E+00  0.93827000000E+00 0. -1.
     999902    2    1    2    0    0 -0.59309256159E-02 -0.14619223550E-01  0.15717049701E-01  0.10216606662E+01  0.10214179329E+01 0.  0.
     999903    2    3    3    0    0  0.55577240264E-01  0.10409101071E+00  0.52575122818E-01  0.13079934606E+00  0.20507492400E-01 0.  0.
         14    1    1    2    0    0  0.59309256159E-02  0.14619223550E-01 -0.15717049701E-01  0.22269333784E-01  0.00000000000E+00 0.  1.
     999901    1    3    3    0    0 -0.61508165880E-01 -0.11871023426E+00 -0.36858073117E-01  0.89086132015E+00  0.88000000000E+00 0.  1.
        -11    1    4    4    0    0  0.50594728848E-01  0.82341739930E-01  0.36558561557E-01  0.10332849687E+00  0.51100000000E-03 0.  1.
         11    1    4    4    0    0  0.49825114164E-02  0.21749270784E-01  0.16016561260E-01  0.27470849191E-01  0.51100000000E-03 0. -1.
</event>
<event>
 8    1  0.1145101E+005  0.1043930E+01  0.7957747E-01            NaN
         13   -1    0    0    0    0  0.00000000000E+00  0.00000000000E+00  0.74505805969E-08  0.10566000000E+00  0.10566000000E+00 0. -1.
     999900   -1    0    0    0    0 -0.00000000000E+00 -0.00000000000E+00 -0.74505805969E-08  0.93827000000E+00  0.93827000000E+00 0.  1.
     999902    2    1    2    0    0  0.19752130873E-01 -0.73458025608E-02 -0.10963706468E-01  0.10201747827E+01  0.10198981699E+01 0.  0.
     999903    2    3    3    0    0 -0.39016873294E-01 -0.10291492223E+00 -0.68456583167E-01  0.13119070897E+00  0.20270686257E-01 0.  0.
         14    1    1    2    0    0 -0.19752130873E-01  0.73458025608E-02  0.10963706468E-01  0.23755217296E-01  0.00000000000E+00 0. -1.
     999901    1    3    3    0    0  0.58769004167E-01  0.95569119669E-01  0.57492876700E-01  0.88898407374E+00  0.88000000000E+00 0. -1.
        -11    1    4    4    0    0 -0.32260149497E-01 -0.95081112932E-01 -0.67055296642E-01  0.12073859868E+00  0.51100000000E-03 0.  1.
         11    1    4    4    0    0 -0.67567237971E-02 -0.78338092977E-02 -0.14012865251E-02  0.10452110290E-01  0.51100000000E-03 0. -1.
</event>
<event>
 8    1  0.1145101E+005  0.1043930E+01  0.7957747E-01            NaN
         13   -1    0    0    0    0  0.00000000000E+00  0.00000000000E+00  0.74505805969E-08  0.10566000000E+00  0.10566000000E+00 0.  1.
     999900   -1    0    0    0    0 -0.00000000000E+00 -0.00000000000E+00 -0.74505805969E-08  0.93827000000E+00  0.93827000000E+00 0. -1.
     999902    2    1    2    0    0  0.11631638035E-01  0.13936569496E-01 -0.15374641791E-01  0.10201412930E+01  0.10198638904E+01 0.  0.
     999903    2    3    3    0    0  0.95274976287E-01 -0.86405228138E-01  0.37486437075E-02  0.13029277526E+00  0.20468766463E-01 0.  0.
         14    1    1    2    0    0 -0.11631638035E-01 -0.13936569496E-01  0.15374641791E-01  0.23788707045E-01  0.00000000000E+00 0. -1.
     999901    1    3    3    0    0 -0.83643338252E-01  0.10034179763E+00 -0.19123285498E-01  0.88984851769E+00  0.88000000000E+00 0.  1.
        -11    1    4    4    0    0  0.46889897380E-01 -0.30471386874E-01  0.63836906490E-02  0.56286592734E-01  0.51100000000E-03 0. -1.
         11    1    4    4    0    0  0.48385078907E-01 -0.55933841263E-01 -0.26350469415E-02  0.74006182530E-01  0.51100000000E-03 0.  1.
</event>
<event>
 8    1  0.1145101E+005  0.1043930E+01  0.7957747E-01            NaN
         13   -1    0    0    0    0  0.00000000000E+00  0.00000000000E+00  0.74505805969E-08  0.10566000000E+00  0.10566000000E+00 0. -1.
     999900   -1    0    0    0    0 -0.00000000000E+00 -0.00000000000E+00 -0.74505805969E-08  0.93827000000E+00  0.93827000000E+00 0. -1.
     999902    2    1    2    0    0  0.72946319577E-02 -0.21432914731E-01  0.85707017617E-02  0.10197217696E+01  0.10194343770E+01 0.  0.
     999903    2    3    3    0    0  0.57049451228E-01 -0.35665009440E-01  0.11200846320E+00  0.13215348208E+00  0.19799348847E-01 0.  0.
         14    1    1    2    0    0 -0.72946319577E-02  0.21432914731E-01 -0.85707017617E-02  0.24208230376E-01  0.00000000000E+00 0. -1.
     999901    1    3    3    0    0 -0.49754819271E-01  0.14232094710E-01 -0.10343776143E+00  0.88756828754E+00  0.88000000000E+00 0. -1.
        -11    1    4    4    0    0  0.27315884521E-01 -0.88262577078E-02  0.34322527419E-01  0.44747708117E-01  0.51100000000E-03 0.  1.
         11    1    4    4    0    0  0.29733566707E-01 -0.26838751732E-01  0.77685935777E-01  0.87405773964E-01  0.51100000000E-03 0. -1.
</event>
<event>
 7    1  0.1145101E+005  0.1043930E+01  0.7957747E-01            NaN
         13   -1    0    0    0    0  0.00000000000E+00  0.00000000000E+00  0.74505805969E-08  0.10566000000E+00  0.10566000000E+00 0. -1.
     999900   -1    0    0    0    0 -0.00000000000E+00 -0.00000000000E+00 -0.74505805969E-08  0.93827000000E+00  0.93827000000E+00 0. -1.
     999903    2    1    2    0    0  0.10589883504E+00 -0.37661864233E-01  0.41883150758E-02  0.11437421044E+00  0.20759064268E-01 0.  0.
         14    1    1    2    0    0  0.29766566946E-01  0.10629126111E-01  0.21756906368E-01  0.38371731839E-01  0.00000000000E+00 0.  1.
     999901    1    1    2    0    0 -0.13566540199E+00  0.27032738122E-01 -0.25945221444E-01  0.89118405772E+00  0.88000000000E+00 0. -1.
        -11    1    3    3    0    0  0.97899397990E-01 -0.30337015776E-01  0.81470756765E-02  0.10281664562E+00  0.51100000000E-03 0.  1.
         11    1    3    3    0    0  0.79994370508E-02 -0.73248484568E-02 -0.39587606006E-02  0.11557564819E-01  0.51100000000E-03 0. -1.
</event>
<event>
 8    1  0.1145101E+005  0.1043930E+01  0.7957747E-01            NaN
         13   -1    0    0    0    0  0.00000000000E+00  0.00000000000E+00  0.74505805969E-08  0.10566000000E+00  0.10566000000E+00 0. -1.
     999900   -1    0    0    0    0 -0.00000000000E+00 -0.00000000000E+00 -0.74505805969E-08  0.93827000000E+00  0.93827000000E+00 0.  1.
     999902    2    1    2    0    0 -0.35856442458E-02 -0.19428585121E-01 -0.19316248770E-01  0.10162995054E+01  0.10159238360E+01 0.  0.
     999903    2    3    3    0    0  0.75161905652E-01 -0.12660437222E-01 -0.10209875141E+00  0.12888757898E+00  0.19448759437E-01 0.  0.
         14    1    1    2    0    0  0.35856442458E-02  0.19428585121E-01  0.19316248770E-01  0.27630494585E-01  0.00000000000E+00 0. -1.
     999901    1    3    3    0    0 -0.78747549898E-01 -0.67681478987E-02  0.82782502638E-01  0.88741192644E+00  0.88000000000E+00 0. -1.
        -11    1    4    4    0    0  0.49675189205E-01 -0.16989804125E-01 -0.62955564193E-01  0.81975252672E-01  0.51100000000E-03 0.  1.
         11    1    4    4    0    0  0.25486716447E-01  0.43293669028E-02 -0.39143187215E-01  0.46912326306E-01  0.51100000000E-03 0. -1.
</event>
<event>
 8    1  0.1145101E+005  0.1043930E+01  0.7957747E-01            NaN
         13   -1    0    0    0    0  0.00000000000E+00  0.00000000000E+00  0.74505805969E-08  0.10566000000E+00  0.10566000000E+00 0.  1.
     999900   -1    0    0    0    0 -0.00000000000E+00 -0.00000000000E+00 -0.74505805969E-08  0.93827000000E+00  0.93827000000E+00 0.  1.
     999902    2    1    2    0    0 -0.13403251103E-01  0.11575035716E-01  0.14832052634E-01  0.10208298187E+01  0.10205684202E+01 0.  0.
     999903    2    3    3    0    0 -0.56553292213E-01 -0.11589573897E+00  0.18326809606E-02  0.13050419953E+00  0.19947185353E-01 0.  0.
         14    1    1    2    0    0  0.13403251103E-01 -0.11575035716E-01 -0.14832052634E-01  0.23100181326E-01  0.00000000000E+00 0. -1.
     999901    1    3    3    0    0  0.43150041110E-01  0.12747077468E+00  0.12999371673E-01  0.89032561915E+00  0.88000000000E+00 0. -1.
        -11    1    4    4    0    0 -0.51674113949E-01 -0.10616818006E+00 -0.40036354496E-02  0.11814477021E+00  0.51100000000E-03 0.  1.
         11    1    4    4    0    0 -0.48791782639E-02 -0.97275589070E-02  0.58363164102E-02  0.12359429318E-01  0.51100000000E-03 0. -1.
</event>
<event>
 8    1  0.1145101E+005  0.1043930E+01  0.7957747E-01            NaN
         13   -1    0    0    0    0  0.00000000000E+00  0.00000000000E+00  0.74505805969E-08  0.10566000000E+00  0.10566000000E+00 0. -1.
     999900   -1    0    0    0    0 -0.00000000000E+00 -0.00000000000E+00 -0.74505805969E-08  0.93827000000E+00  0.93827000000E+00 0.  1.
     999902    2    1    2    0    0  0.65224538557E-02  0.21160088277E-01 -0.21795071462E-01  0.10128604509E+01  0.10123838087E+01 0.  0.
     999903    2    3    3    0    0 -0.59803425111E-03  0.32713367591E-01 -0.12136961423E+00  0.12714081741E+00  0.19070451751E-01 0.  0.
         14    1    1    2    0    0 -0.65224538557E-02 -0.21160088277E-01  0.21795071462E-01  0.31069549083E-01  0.00000000000E+00 0. -1.
     999901    1    3    3    0    0  0.71204881068E-02 -0.11553279314E-01  0.99574542764E-01  0.88571963351E+00  0.88000000000E+00 0. -1.
        -11    1    4    4    0    0 -0.69800826609E-02  0.29358049845E-01 -0.89143666033E-01  0.94114137936E-01  0.51100000000E-03 0. -1.
         11    1    4    4    0    0  0.63820484098E-02  0.33553177465E-02 -0.32225948193E-01  0.33026679473E-01  0.51100000000E-03 0.  1.
</event>
<event>
 8    1  0.1145101E+005  0.1043930E+01  0.7957747E-01            NaN
         13   -1    0    0    0    0  0.00000000000E+00  0.00000000000E+00  0.74505805969E-08  0.10566000000E+00  0.10566000000E+00 0.  1.
     999900   -1    0    0    0    0 -0.00000000000E+00 -0.00000000000E+00 -0.74505805969E-08  0.93827000000E+00  0.93827000000E+00 0. -1.
     999902    2    1    2    0    0 -0.11044148584E-01  0.12950541510E-01 -0.16671613485E-01  0.10201049619E+01  0.10198267014E+01 0.  0.
     999903    2    3    3    0    0  0.22421622297E-01  0.26324728685E-01  0.12202907058E+00  0.12851273087E+00  0.20705251589E-01 0.  0.
         14    1    1    2    0    0  0.11044148584E-01 -0.12950541510E-01  0.16671613485E-01  0.23825038081E-01  0.00000000000E+00 0.  1.
     999901    1    3    3    0    0 -0.33465770881E-01 -0.13374187175E-01 -0.13870068406E+00  0.89159223105E+00  0.88000000000E+00 0. -1.
        -11    1    4    4    0    0  0.42073497923E-02  0.46294440267E-03  0.45543112133E-01  0.45742237522E-01  0.51100000000E-03 0.  1.
         11    1    4    4    0    0  0.18214272505E-01  0.25861784282E-01  0.76485958446E-01  0.82770493351E-01  0.51100000000E-03 0. -1.
</event>
<event>
 8    1  0.1145101E+005  0.1043930E+01  0.7957747E-01            NaN
         13   -1    0    0    0    0  0.00000000000E+00  0.00000000000E+00  0.74505805969E-08  0.10566000000E+00  0.10566000000E+00 0. -1.
     999900   -1    0    0    0    0 -0.00000000000E+00 -0.00000000000E+00 -0.74505805969E-08  0.93827000000E+00  0.93827000000E+00 0.  1.
     999902    2    1    2    0    0 -0.54520457863E-02  0.10433162151E-01  0.17419540511E-01  0.10229058218E+01  0.10226897400E+01 0.  0.
     999903    2    3    3    0    0  0.13729339920E-01  0.13180167355E+00  0.12168828179E-02  0.13422096924E+00  0.21298165544E-01 0.  0.
         14    1    1    2    0    0  0.54520457863E-02 -0.10433162151E-01 -0.17419540511E-01  0.21024178161E-01  0.00000000000E+00 0.  1.
     999901    1    3    3    0    0 -0.19181385707E-01 -0.12136851140E+00  0.16202657693E-01  0.88868485260E+00  0.88000000000E+00 0. -1.
        -11    1    4    4    0    0  0.10363089973E-01  0.98154884616E-01  0.10206142725E-01  0.99228027684E-01  0.51100000000E-03 0. -1.
         11    1    4    4    0    0  0.33662499475E-02  0.33646788935E-01 -0.89892599070E-02  0.34992941560E-01  0.51100000000E-03 0.  1.
</event>
<event>
 8    1  0.1145101E+005  0.1043930E+01  0.7957747E-01            NaN
         13   -1    0    0    0    0  0.00000000000E+00  0.00000000000E+00  0.74505805969E-08  0.10566000000E+00  0.10566000000E+00 0.  1.
     999900   -1    0    0    0    0 -0.00000000000E+00 -0.00000000000E+00 -0.74505805969E-08  0.93827000000E+00  0.93827000000E+00 0. -1.
     999902    2    1    2    0    0 -0.88392313382E-02 -0.13031233983E-01  0.19613656281E-01  0.10187776525E+01  0.10184671152E+01 0.  0.
     999903    2    3    3    0    0 -0.76140396139E-01 -0.10216713499E+00 -0.20572130743E-01  0.13080831011E+00  0.21263067363E-01 0.  0.
         14    1    1    2    0    0  0.88392313382E-02  0.13031233983E-01 -0.19613656281E-01  0.25152347455E-01  0.00000000000E+00 0. -1.
     999901    1    3    3    0    0  0.67301164801E-01  0.89135901007E-01  0.40185787024E-01  0.88796934244E+00  0.88000000000E+00 0.  1.
        -11    1    4    4    0    0 -0.76425189910E-02 -0.24044953343E-01 -0.26611060262E-02  0.25375391309E-01  0.51100000000E-03 0.  1.
         11    1    4    4    0    0 -0.68497877148E-01 -0.78122181647E-01 -0.17911024717E-01  0.10543291880E+00  0.51100000000E-03 0. -1.
</event>
<event>
 8    1  0.1145101E+005  0.1043930E+01  0.7957747E-01            NaN
         13   -1    0    0    0    0  0.00000000000E+00  0.00000000000E+00  0.74505805969E-08  0.10566000000E+00  0.10566000000E+00 0.  1.
     999900   -1    0    0    0    0 -0.00000000000E+00 -0.00000000000E+00 -0.74505805969E-08  0.93827000000E+00  0.93827000000E+00 0. -1.
     999902    2    1    2    0    0 -0.15610657974E-01 -0.34289332417E-02  0.18937170288E-01  0.10191496319E+01  0.10188483231E+01 0.  0.
     999903    2    3    3    0    0  0.10714292668E+00 -0.30967102653E-03  0.69430385242E-01  0.12919022994E+00  0.19744226637E-01 0.  0.
         14    1    1    2    0    0  0.15610657974E-01  0.34289332417E-02 -0.18937170288E-01  0.24780368118E-01  0.00000000000E+00 0. -1.
     999901    1    3    3    0    0 -0.12275358465E+00 -0.31192622152E-02 -0.50493214953E-01  0.88995940194E+00  0.88000000000E+00 0. -1.
        -11    1    4    4    0    0  0.41604619188E-01 -0.46848242898E-02  0.37262182943E-01  0.56050185683E-01  0.51100000000E-03 0.  1.
         11    1    4    4    0    0  0.65538307488E-01  0.43751532633E-02  0.32168202298E-01  0.73140044261E-01  0.51100000000E-03 0. -1.
</event>
<event>
 8    1  0.1145101E+005  0.1043930E+01  0.7957747E-01            NaN
         13   -1    0    0    0    0  0.00000000000E+00  0.00000000000E+00  0.74505805969E-08  0.10566000000E+00  0.10566000000E+00 0.  1.
     999900   -1    0    0    0    0 -0.00000000000E+00 -0.00000000000E+00 -0.74505805969E-08  0.93827000000E+00  0.93827000000E+00 0.  1.
     999902    2    1    2    0    0 -0.37278944212E-02 -0.17475358739E-02  0.24877811754E-01  0.10187138029E+01  0.10184016671E+01 0.  0.
     999903    2    3    3    0    0 -0.37452779663E-02  0.12517453863E+00  0.26716430092E-01  0.12960605138E+00  0.20031692088E-01 0.  0.
         14    1    1    2    0    0  0.37278944212E-02  0.17475358739E-02 -0.24877811754E-01  0.25216197099E-01  0.00000000000E+00 0. -1.
     999901    1    3    3    0    0  0.17383545091E-04 -0.12692207451E+00 -0.18386183375E-02  0.88910775152E+00  0.88000000000E+00 0. -1.
        -11    1    4    4    0    0 -0.40578120500E-02  0.37108203363E-01 -0.79253766466E-03  0.37341315355E-01  0.51100000000E-03 0. -1.
         11    1    4    4    0    0  0.31253408370E-03  0.88066335271E-01  0.27508967756E-01  0.92264736024E-01  0.51100000000E-03 0.  1.
</event>
<event>
 8    1  0.1145101E+005  0.1043930E+01  0.7957747E-01            NaN
         13   -1    0    0    0    0  0.00000000000E+00  0.00000000000E+00  0.74505805969E-08  0.10566000000E+00  0.10566000000E+00 0. -1.
     999900   -1    0    0    0    0 -0.00000000000E+00 -0.00000000000E+00 -0.74505805969E-08  0.93827000000E+00  0.93827000000E+00 0. -1.
     999902    2    1    2    0    0  0.99789784018E-02  0.62255792190E-02  0.20192729720E-01  0.10205615559E+01  0.10202939798E+01 0.  0.
     999903    2    3    3    0    0 -0.56655984904E-01  0.28620162996E-01 -0.10976141051E+00  0.12824445178E+00  0.19236886987E-01 0.  0.
         14    1    1    2    0    0 -0.99789784018E-02 -0.62255792190E-02 -0.20192729720E-01  0.23368444110E-01  0.00000000000E+00 0.  1.
     999901    1    3    3    0    0  0.66634963306E-01 -0.22394583777E-01  0.12995414023E+00  0.89231710411E+00  0.88000000000E+00 0.  1.
        -11    1    4    4    0    0 -0.35766771985E-01  0.73912861219E-02 -0.61673414936E-01  0.71678199752E-01  0.51100000000E-03 0.  1.
         11    1    4    4    0    0 -0.20889212919E-01  0.21228876874E-01 -0.48087995573E-01  0.56566252032E-01  0.51100000000E-03 0. -1.
</event>
<event>
 8    1  0.1145101E+005  0.1043930E+01  0.7957747E-01            NaN
         13   -1    0    0    0    0  0.00000000000E+00  0.00000000000E+00  0.74505805969E-08  0.10566000000E+00  0.10566000000E+00 0. -1.
     999900   -1    0    0    0    0 -0.00000000000E+00 -0.00000000000E+00 -0.74505805969E-08  0.93827000000E+00  0.93827000000E+00 0. -1.
     999902    2    1    2    0    0 -0.65459040339E-02 -0.22607051890E-01  0.25184790191E-02  0.10202599685E+01  0.10199853592E+01 0.  0.
     999903    2    3    3    0    0  0.44847722758E-01 -0.42496535004E-01 -0.11373329638E+00  0.13090549940E+00  0.19588602423E-01 0.  0.
         14    1    1    2    0    0  0.65459040339E-02  0.22607051890E-01 -0.25184790191E-02  0.23670031503E-01  0.00000000000E+00 0.  1.
     999901    1    3    3    0    0 -0.51393626792E-01  0.19889483114E-01  0.11625177540E+00  0.88935446909E+00  0.88000000000E+00 0.  1.
        -11    1    4    4    0    0  0.14460350371E-01 -0.20043174393E-01 -0.62768297691E-01  0.67460735903E-01  0.51100000000E-03 0. -1.
         11    1    4    4    0    0  0.30387372387E-01 -0.22453360611E-01 -0.50964998689E-01  0.63444763501E-01  0.51100000000E-03 0.  1.
</event>
<event>
 8    1  0.1145101E+005  0.1043930E+01  0.7957747E-01            NaN
         13   -1    0    0    0    0  0.00000000000E+00  0.00000000000E+00  0.74505805969E-08  0.10566000000E+00  0.10566000000E+00 0.  1.
     999900   -1    0    0    0    0 -0.00000000000E+00 -0.00000000000E+00 -0.74505805969E-08  0.93827000000E+00  0.93827000000E+00 0. -1.
     999902    2    1    2    0    0  0.17662138519E-01 -0.12654419258E-01  0.11744442312E-01  0.10192314699E+01  0.10189321723E+01 0.  0.
     999903    2    3    3    0    0 -0.86961610772E-01 -0.65477834583E-02 -0.90343768060E-01  0.12715220066E+00  0.20012258460E-01 0.  0.
         14    1    1    2    0    0 -0.17662138519E-01  0.12654419258E-01 -0.11744442312E-01  0.24698530099E-01  0.00000000000E+00 0. -1.
     999901    1    3    3    0    0  0.10462374929E+00 -0.61066358002E-02  0.10208821037E+00  0.89207926924E+00  0.88000000000E+00 0. -1.
        -11    1    4    4    0    0 -0.50347206999E-01  0.61347453075E-02 -0.51058267637E-01  0.71970022702E-01  0.51100000000E-03 0. -1.
         11    1    4    4    0    0 -0.36614403773E-01 -0.12682528766E-01 -0.39285500422E-01  0.55182177956E-01  0.51100000000E-03 0.  1.
</event>
<event>
 8    1  0.1145101E+005  0.1043930E+01  0.7957747E-01            NaN
         13   -1    0    0    0    0  0.00000000000E+00  0.00000000000E+00  0.74505805969E-08  0.10566000000E+00  0.10566000000E+00 0. -1.
     999900   -1    0    0    0    0 -0.00000000000E+00 -0.00000000000E+00 -0.74505805969E-08  0.93827000000E+00  0.93827000000E+00 0.  1.
     999902    2    1    2    0    0  0.35762192342E-02  0.22613300314E-01 -0.62399709579E-02  0.10202005261E+01  0.10199245195E+01 0.  0.
     999903    2    3    3    0    0 -0.60453313085E-01  0.35613815182E-01  0.10809591569E+00  0.13040195934E+00  0.19924786469E-01 0.  0.
         14    1    1    2    0    0 -0.35762192342E-02 -0.22613300314E-01  0.62399709579E-02  0.23729473923E-01  0.00000000000E+00 0.  1.
     999901    1    3    3    0    0  0.64029532319E-01 -0.13000514869E-01 -0.11433588665E+00  0.88979856674E+00  0.88000000000E+00 0.  1.
        -11    1    4    4    0    0 -0.44500043903E-01  0.22725935386E-01  0.59800794074E-01  0.77930213264E-01  0.51100000000E-03 0. -1.
         11    1    4    4    0    0 -0.15953269182E-01  0.12887879796E-01  0.48295121615E-01  0.52471746074E-01  0.51100000000E-03 0.  1.
</event>
<event>
 8    1  0.1145101E+005  0.1043930E+01  0.7957747E-01            NaN
         13   -1    0    0    0    0  0.00000000000E+00  0.00000000000E+00  0.74505805969E-08  0.10566000000E+00  0.10566000000E+00 0.  1.
     999900   -1    0    0    0    0 -0.00000000000E+00 -0.00000000000E+00 -0.74505805969E-08  0.93827000000E+00  0.93827000000E+00 0. -1.
     999902    2    1    2    0    0 -0.85313126483E-02 -0.43511687627E-02 -0.21018156572E-01  0.10208328385E+01  0.10205715091E+01 0.  0.
     999903    2    3    3    0    0 -0.21738579381E-01  0.12544078528E+00  0.19377519337E-01  0.13029805877E+00  0.19852944772E-01 0.  0.
         14    1    1    2    0    0  0.85313126483E-02  0.43511687627E-02  0.21018156572E-01  0.23097161531E-01  0.00000000000E+00 0.  1.
     999901    1    3    3    0    0  0.13207266733E-01 -0.12979195405E+00 -0.40395675909E-01  0.89053477970E+00  0.88000000000E+00 0.  1.
        -11    1    4    4    0    0 -0.21416950517E-01  0.65712061334E-01  0.10097882909E-01  0.69849761163E-01  0.51100000000E-03 0. -1.
         11    1    4    4    0    0 -0.32162886377E-03  0.59728723950E-01  0.92796364284E-02  0.60448297602E-01  0.51100000000E-03 0.  1.
</event>
<event>
 8    1  0.1145101E+005  0.1043930E+01  0.7957747E-01            NaN
         13   -1    0    0    0    0  0.00000000000E+00  0.00000000000E+00  0.74505805969E-08  0.10566000000E+00  0.10566000000E+00 0.  1.
     999900   -1    0    0    0    0 -0.00000000000E+00 -0.00000000000E+00 -0.74505805969E-08  0.93827000000E+00  0.93827000000E+00 0.  1.
     999902    2    1    2    0    0 -0.16951555273E-01  0.11699256789E-01 -0.11819485153E-01  0.10201828304E+01  0.10199064071E+01 0.  0.
     999903    2    3    3    0    0  0.46000619515E-01  0.97157244240E-01 -0.73359368109E-01  0.13167104029E+00  0.20001971377E-01 0.  0.
         14    1    1    2    0    0  0.16951555273E-01 -0.11699256789E-01  0.11819485153E-01  0.23747169618E-01  0.00000000000E+00 0.  1.
     999901    1    3    3    0    0 -0.62952174788E-01 -0.85457987451E-01  0.61539882956E-01  0.88851179009E+00  0.88000000000E+00 0.  1.
        -11    1    4    4    0    0  0.24322576566E-01  0.35547307074E-01 -0.20794893936E-01  0.47831867054E-01  0.51100000000E-03 0.  1.
         11    1    4    4    0    0  0.21678042949E-01  0.61609937165E-01 -0.52564474173E-01  0.83839173241E-01  0.51100000000E-03 0. -1.
</event>
<event>
 8    1  0.1145101E+005  0.1043930E+01  0.7957747E-01            NaN
         13   -1    0    0    0    0  0.00000000000E+00  0.00000000000E+00  0.74505805969E-08  0.10566000000E+00  0.10566000000E+00 0.  1.
     999900   -1    0    0    0    0 -0.00000000000E+00 -0.00000000000E+00 -0.74505805969E-08  0.93827000000E+00  0.93827000000E+00 0.  1.
     999902    2    1    2    0    0  0.17224174679E-02 -0.22460594654E-01 -0.65661816019E-02  0.10204659898E+01  0.10201961951E+01 0.  0.
     999903    2    3    3    0    0 -0.20340076030E-01 -0.12821360092E+00 -0.24397481425E-01  0.13368055509E+00  0.20562284745E-01 0.  0.
         14    1    1    2    0    0 -0.17224174679E-02  0.22460594654E-01  0.65661816019E-02  0.23464010207E-01  0.00000000000E+00 0.  1.
     999901    1    3    3    0    0  0.22062493498E-01  0.10575300627E+00  0.17831299823E-01  0.88678543471E+00  0.88000000000E+00 0.  1.
        -11    1    4    4    0    0 -0.21152065019E-01 -0.71149369956E-01 -0.10794041762E-01  0.75009433795E-01  0.51100000000E-03 0. -1.
         11    1    4    4    0    0  0.81198898896E-03 -0.57064230967E-01 -0.13603439663E-01  0.58671121292E-01  0.51100000000E-03 0.  1.
</event>
<event>
 8    1  0.1145101E+005  0.1043930E+01  0.7957747E-01            NaN
         13   -1    0    0    0    0  0.00000000000E+00  0.00000000000E+00  0.74505805969E-08  0.10566000000E+00  0.10566000000E+00 0. -1.
     999900   -1    0    0    0    0 -0.00000000000E+00 -0.00000000000E+00 -0.74505805969E-08  0.93827000000E+00  0.93827000000E+00 0.  1.
     999902    2    1    2    0    0 -0.11846025236E-01  0.20801334408E-02  0.20536176284E-01  0.10201310545E+01  0.10198534104E+01 0.  0.
     999903    2    3    3    0    0 -0.78260358374E-01 -0.14369942565E-01  0.10521255799E+00  0.13342278330E+00  0.20019435621E-01 0.  0.
         14    1    1    2    0    0  0.11846025236E-01 -0.20801334408E-02 -0.20536176284E-01  0.23798945468E-01  0.00000000000E+00 0.  1.
     999901    1    3    3    0    0  0.66414333138E-01  0.16450076006E-01 -0.84676381709E-01  0.88670827123E+00  0.88000000000E+00 0.  1.
        -11    1    4    4    0    0 -0.37187457932E-02 -0.19681732304E-02  0.15776736479E-01  0.16336135133E-01  0.51100000000E-03 0. -1.
         11    1    4    4    0    0 -0.74541612580E-01 -0.12401769335E-01  0.89435821515E-01  0.11708664817E+00  0.51100000000E-03 0.  1.
</event>
<event>
 8    1  0.1145101E+005  0.1043930E+01  0.7957747E-01            NaN
         13   -1    0    0    0    0  0.00000000000E+00  0.00000000000E+00  0.74505805969E-08  0.10566000000E+00  0.10566000000E+00 0. -1.
     999900   -1    0    0    0    0 -0.00000000000E+00 -0.00000000000E+00 -0.74505805969E-08  0.93827000000E+00  0.93827000000E+00 0.  1.
     999902    2    1    2    0    0  0.11317918348E-01 -0.21276650921E-01  0.37705746100E-04  0.10198303616E+01  0.10195455722E+01 0.  0.
     999903    2    3    3    0    0  0.44980078710E-01 -0.99226760874E-01  0.73190519836E-01  0.13272231016E+00  0.19728199796E-01 0.  0.
         14    1    1    2    0    0 -0.11317918348E-01  0.21276650921E-01 -0.37705746100E-04  0.24099638418E-01  0.00000000000E+00 0.  1.
     999901    1    3    3    0    0 -0.33662160362E-01  0.77950109953E-01 -0.73152814090E-01  0.88710805142E+00  0.88000000000E+00 0. -1.
        -11    1    4    4    0    0  0.45092588459E-01 -0.82813488013E-01  0.62250106809E-01  0.11299005376E+00  0.51100000000E-03 0.  1.
         11    1    4    4    0    0 -0.11250974927E-03 -0.16413272861E-01  0.10940413027E-01  0.19732256400E-01  0.51100000000E-03 0. -1.
</event>
<event>
 8    1  0.1145101E+005  0.1043930E+01  0.7957747E-01            NaN
         13   -1    0    0    0    0  0.00000000000E+00  0.00000000000E+00  0.74505805969E-08  0.10566000000E+00  0.10566000000E+00 0.  1.
     999900   -1    0    0    0    0 -0.00000000000E+00 -0.00000000000E+00 -0.74505805969E-08  0.93827000000E+00  0.93827000000E+00 0.  1.
     999902    2    1    2    0    0  0.18655320353E-01  0.19755656677E-01  0.31281149892E-03  0.10167563952E+01  0.10163932125E+01 0.  0.
     999903    2    3    3    0    0 -0.40125431321E-01 -0.16727414957E-01 -0.11648159523E+00  0.12634799184E+00  0.22494362966E-01 0.  0.
         14    1    1    2    0    0 -0.18655320353E-01 -0.19755656677E-01 -0.31281149892E-03  0.27173604826E-01  0.00000000000E+00 0.  1.
     999901    1    3    3    0    0  0.58780751675E-01  0.36483071634E-01  0.11679440673E+00  0.89040840333E+00  0.88000000000E+00 0. -1.
        -11    1    4    4    0    0 -0.29860835182E-01 -0.22205568253E-01 -0.85430317460E-01  0.93184531986E-01  0.51100000000E-03 0.  1.
         11    1    4    4    0    0 -0.10264596139E-01  0.54781532959E-02 -0.31051277769E-01  0.33163459854E-01  0.51100000000E-03 0. -1.
</event>
<event>
 8    1  0.1145101E+005  0.1043930E+01  0.7957747E-01            NaN
         13   -1    0    0    0    0  0.00000000000E+00  0.00000000000E+00  0.74505805969E-08  0.10566000000E+00  0.10566000000E+00 0. -1.
     999900   -1    0    0    0    0 -0.00000000000E+00 -0.00000000000E+00 -0.74505805969E-08  0.93827000000E+00  0.93827000000E+00 0. -1.
     999902    2    1    2    0    0 -0.20293943125E-01  0.84483306723E-02 -0.90472358111E-02  0.10201587801E+01  0.10198817901E+01 0.  0.
     999903    2    3    3    0    0 -0.72982326509E-01 -0.16560606023E-01  0.10537949158E+00  0.13083601048E+00  0.20311345047E-01 0.  0.
         14    1    1    2    0    0  0.20293943125E-01 -0.84483306723E-02  0.90472358111E-02  0.23771219879E-01  0.00000000000E+00 0. -1.
     999901    1    3    3    0    0  0.52688383385E-01  0.25008936696E-01 -0.11442672739E+00  0.88932276964E+00  0.88000000000E+00 0. -1.
        -11    1    4    4    0    0 -0.46167543263E-01 -0.94932049602E-02  0.48929773381E-01  0.67940759751E-01  0.51100000000E-03 0. -1.
         11    1    4    4    0    0 -0.26814783246E-01 -0.70674010632E-02  0.56449718202E-01  0.62895250730E-01  0.51100000000E-03 0.  1.
</event>
<event>
 8    1  0.1181776E+005  0.1043930E+01  0.7957747E-01            NaN
         13   -1    0    0    0    0  0.00000000000E+00  0.00000000000E+00  0.74505805969E-08  0.10566000000E+00  0.10566000000E+00 0.  1.
     999900   -1    0    0    0    0 -0.00000000000E+00 -0.00000000000E+00 -0.74505805969E-08  0.93827000000E+00  0.93827000000E+00 0. -1.
     999902    2    1    2    0    0 -0.38589328455E-02  0.18337665207E-02  0.23753085999E-01  0.10197957265E+01  0.10195101082E+01 0.  0.
     999903    2    3    3    0    0 -0.65582520149E-01 -0.61842991262E-01  0.95437823758E-01  0.13243828312E+00  0.17489943255E-01 0.  0.
         14    1    1    2    0    0  0.38589328455E-02 -0.18337665207E-02 -0.23753085999E-01  0.24134273489E-01  0.00000000000E+00 0. -1.
     999901    1    3    3    0    0  0.61723587304E-01  0.63676757783E-01 -0.71684737759E-01  0.88735744339E+00  0.88000000000E+00 0. -1.
        -11    1    4    4    0    0 -0.47629368482E-01 -0.35506560176E-01  0.55129034248E-01  0.81047788962E-01  0.51100000000E-03 0. -1.
         11    1    4    4    0    0 -0.17953151667E-01 -0.26336431086E-01  0.40308789510E-01  0.51390494159E-01  0.51100000000E-03 0.  1.
</event>
<event>
 8    1  0.1145101E+005  0.1043930E+01  0.7957747E-01            NaN
         13   -1    0    0    0    0  0.00000000000E+00  0.00000000000E+00  0.74505805969E-08  0.10566000000E+00  0.10566000000E+00 0. -1.
     999900   -1    0    0    0    0 -0.00000000000E+00 -0.00000000000E+00 -0.74505805969E-08  0.93827000000E+00  0.93827000000E+00 0.  1.
     999902    2    1    2    0    0  0.14411262981E-01 -0.78085619548E-02  0.18771283817E-01  0.10190097424E+01  0.10187049798E+01 0.  0.
     999903    2    3    3    0    0  0.10752268077E+00 -0.34536692400E-01  0.66574839078E-01  0.13240424451E+00  0.18567842152E-01 0.  0.
         14    1    1    2    0    0 -0.14411262981E-01  0.78085619548E-02 -0.18771283817E-01  0.24920257555E-01  0.00000000000E+00 0.  1.
     999901    1    3    3    0    0 -0.93111417793E-01  0.26728130445E-01 -0.47803555261E-01  0.88660549794E+00  0.88000000000E+00 0. -1.
        -11    1    4    4    0    0  0.94173739051E-01 -0.34323007119E-01  0.63621847555E-01  0.11872136519E+00  0.51100000000E-03 0.  1.
         11    1    4    4    0    0  0.13348941723E-01 -0.21368528065E-03  0.29529915230E-02  0.13682879319E-01  0.51100000000E-03 0. -1.
</event>
<event>
 8    1  0.1145101E+005  0.1043930E+01  0.7957747E-01            NaN
         13   -1    0    0    0    0  0.00000000000E+00  0.00000000000E+00  0.74505805969E-08  0.10566000000E+00  0.10566000000E+00 0. -1.
     999900   -1    0    0    0    0 -0.00000000000E+00 -0.00000000000E+00 -0.74505805969E-08  0.93827000000E+00  0.93827000000E+00 0.  1.
     999902    2    1    2    0    0  0.16727955929E-01  0.48637309038E-02 -0.17094364170E-01  0.10195230814E+01  0.10192308943E+01 0.  0.
     999903    2    3    3    0    0 -0.45282000595E-01 -0.94011876515E-01  0.70344979949E-01  0.12752125444E+00  0.20604893249E-01 0.  0.
         14    1    1    2    0    0 -0.16727955929E-01 -0.48637309038E-02  0.17094364170E-01  0.24406918573E-01  0.00000000000E+00 0. -1.
     999901    1    3    3    0    0  0.62009956524E-01  0.98875607418E-01 -0.87439344119E-01  0.89200182699E+00  0.88000000000E+00 0.  1.
        -11    1    4    4    0    0 -0.10611131103E-01 -0.36066841341E-01  0.16084897767E-01  0.40894965519E-01  0.51100000000E-03 0. -1.
         11    1    4    4    0    0 -0.34670869492E-01 -0.57945035174E-01  0.54260082182E-01  0.86626288920E-01  0.51100000000E-03 0.  1.
</event>
<event>
 8    1  0.1145101E+005  0.1043930E+01  0.7957747E-01            NaN
         13   -1    0    0    0    0  0.00000000000E+00  0.00000000000E+00  0.74505805969E-08  0.10566000000E+00  0.10566000000E+00 0.  1.
     999900   -1    0    0    0    0 -0.00000000000E+00 -0.00000000000E+00 -0.74505805969E-08  0.93827000000E+00  0.93827000000E+00 0. -1.
     999902    2    1    2    0    0  0.15193890685E-01 -0.54219542211E-02 -0.18565453225E-01  0.10193347168E+01  0.10190379468E+01 0.  0.
     999903    2    3    3    0    0 -0.37454246727E-01 -0.80054457117E-01  0.90298229648E-01  0.12793517771E+00  0.20052498984E-01 0.  0.
         14    1    1    2    0    0 -0.15193890685E-01  0.54219542211E-02  0.18565453225E-01  0.24595283190E-01  0.00000000000E+00 0.  1.
     999901    1    3    3    0    0  0.52648137412E-01  0.74632502896E-01 -0.10886368287E+00  0.89139953910E+00  0.88000000000E+00 0. -1.
        -11    1    4    4    0    0 -0.23921250059E-01 -0.41478784495E-01  0.35709794859E-01  0.59734130423E-01  0.51100000000E-03 0.  1.
         11    1    4    4    0    0 -0.13532996668E-01 -0.38575672623E-01  0.54588434789E-01  0.68201047285E-01  0.51100000000E-03 0. -1.
</event>
<event>
 8    1  0.1145101E+005  0.1043930E+01  0.7957747E-01            NaN
         13   -1    0    0    0    0  0.00000000000E+00  0.00000000000E+00  0.74505805969E-08  0.10566000000E+00  0.10566000000E+00 0. -1.
     999900   -1    0    0    0    0 -0.00000000000E+00 -0.00000000000E+00 -0.74505805969E-08  0.93827000000E+00  0.93827000000E+00 0. -1.
     999902    2    1    2    0    0 -0.31319341051E-01 -0.17399595966E-01 -0.49289706698E-02  0.10077645218E+01  0.10071153804E+01 0.  0.
     999903    2    3    3    0    0  0.85930152131E-01  0.24337700204E-01  0.71124112556E-01  0.11575918714E+00  0.19111130887E-01 0.  0.
         14    1    1    2    0    0  0.31319341051E-01  0.17399595966E-01  0.49289706698E-02  0.36165478229E-01  0.00000000000E+00 0.  1.
     999901    1    3    3    0    0 -0.11724949318E+00 -0.41737296170E-01 -0.76053083225E-01  0.89200533463E+00  0.88000000000E+00 0. -1.
        -11    1    4    4    0    0  0.26122474869E-01  0.14304077112E-01  0.16037415752E-01  0.33829722735E-01  0.51100000000E-03 0.  1.
         11    1    4    4    0    0  0.59807677262E-01  0.10033623092E-01  0.55086696804E-01  0.81929464404E-01  0.51100000000E-03 0. -1.
</event>
<event>
 7    1  0.1291729E+005  0.1043930E+01  0.7957747E-01            NaN
         13   -1    0    0    0    0  0.00000000000E+00  0.00000000000E+00  0.74505805969E-08  0.10566000000E+00  0.10566000000E+00 0.  1.
     999900   -1    0    0    0    0 -0.00000000000E+00 -0.00000000000E+00 -0.74505805969E-08  0.93827000000E+00  0.93827000000E+00 0.  1.
     999903    2    1    2    0    0  0.11360053553E-01  0.68781041741E-01  0.78070645937E-01  0.10676357469E+00  0.21060688571E-01 0.  0.
         14    1    1    2    0    0  0.36021211815E-02  0.45010524730E-01  0.68043825480E-02  0.45664233655E-01  0.00000000000E+00 0.  1.
     999901    1    1    2    0    0 -0.14962174734E-01 -0.11379156647E+00 -0.84875028485E-01  0.89150219166E+00  0.88000000000E+00 0.  1.
        -11    1    3    3    0    0  0.64486798472E-02  0.34872566513E-01  0.55037258754E-01  0.65475509461E-01  0.51100000000E-03 0. -1.
         11    1    3    3    0    0  0.49113737058E-02  0.33908475227E-01  0.23033387183E-01  0.41288065225E-01  0.51100000000E-03 0.  1.
</event>
<event>
 8    1  0.1145101E+005  0.1043930E+01  0.7957747E-01            NaN
         13   -1    0    0    0    0  0.00000000000E+00  0.00000000000E+00  0.74505805969E-08  0.10566000000E+00  0.10566000000E+00 0. -1.
     999900   -1    0    0    0    0 -0.00000000000E+00 -0.00000000000E+00 -0.74505805969E-08  0.93827000000E+00  0.93827000000E+00 0. -1.
     999902    2    1    2    0    0  0.11771757806E-01 -0.65898207948E-02 -0.18690594298E-01  0.10208792227E+01  0.10206189539E+01 0.  0.
     999903    2    3    3    0    0  0.41818653967E-01 -0.21153866166E-01 -0.12455542437E+00  0.13390555360E+00  0.14844449227E-01 0.  0.
         14    1    1    2    0    0 -0.11771757806E-01  0.65898207948E-02  0.18690594298E-01  0.23050777322E-01  0.00000000000E+00 0. -1.
     999901    1    3    3    0    0 -0.30046896161E-01  0.14564045371E-01  0.10586483007E+00  0.88697366907E+00  0.88000000000E+00 0.  1.
        -11    1    4    4    0    0  0.21942623138E-01 -0.14004359122E-01 -0.49457803269E-01  0.55892183799E-01  0.51100000000E-03 0. -1.
         11    1    4    4    0    0  0.19876030829E-01 -0.71495070439E-02 -0.75097621099E-01  0.78013369804E-01  0.51100000000E-03 0.  1.
</event>
<event>
 8    1  0.1145101E+005  0.1043930E+01  0.7957747E-01            NaN
         13   -1    0    0    0    0  0.00000000000E+00  0.00000000000E+00  0.74505805969E-08  0.10566000000E+00  0.10566000000E+00 0.  1.
     999900   -1    0    0    0    0 -0.00000000000E+00 -0.00000000000E+00 -0.74505805969E-08  0.93827000000E+00  0.93827000000E+00 0.  1.
     999902    2    1    2    0    0 -0.11332814126E-01 -0.67626660735E-02  0.20254957343E-01  0.10197550207E+01  0.10194684265E+01 0.  0.
     999903    2    3    3    0    0 -0.68290944990E-01 -0.10596225200E+00  0.36261619599E-01  0.13220727562E+00  0.16498686455E-01 0.  0.
         14    1    1    2    0    0  0.11332814126E-01  0.67626660735E-02 -0.20254957343E-01  0.24174979326E-01  0.00000000000E+00 0. -1.
     999901    1    3    3    0    0  0.56958130863E-01  0.99199585922E-01 -0.16006662257E-01  0.88754774506E+00  0.88000000000E+00 0.  1.
        -11    1    4    4    0    0 -0.40058757573E-01 -0.47462997043E-01  0.15544186976E-01  0.64025955802E-01  0.51100000000E-03 0.  1.
         11    1    4    4    0    0 -0.28232187417E-01 -0.58499254953E-01  0.20717432623E-01  0.68181319816E-01  0.51100000000E-03 0. -1.
</event>
<event>
 8    1  0.1145101E+005  0.1043930E+01  0.7957747E-01            NaN
         13   -1    0    0    0    0  0.00000000000E+00  0.00000000000E+00  0.74505805969E-08  0.10566000000E+00  0.10566000000E+00 0. -1.
     999900   -1    0    0    0    0 -0.00000000000E+00 -0.00000000000E+00 -0.74505805969E-08  0.93827000000E+00  0.93827000000E+00 0.  1.
     999902    2    1    2    0    0  0.18216061830E-01  0.22350870295E-02  0.14114651477E-01  0.10207773779E+01  0.10205147776E+01 0.  0.
     999903    2    3    3    0    0 -0.30764904005E-01 -0.10541560203E+00  0.68840862145E-01  0.13118041075E+00  0.20256045879E-01 0.  0.
         14    1    1    2    0    0 -0.18216061830E-01 -0.22350870295E-02 -0.14114651477E-01  0.23152622075E-01  0.00000000000E+00 0. -1.
     999901    1    3    3    0    0  0.48980965835E-01  0.10765068906E+00 -0.54726210668E-01  0.88959696717E+00  0.88000000000E+00 0.  1.
        -11    1    4    4    0    0 -0.20126815680E-01 -0.86423002982E-01  0.62373269623E-01  0.10846524807E+00  0.51100000000E-03 0.  1.
         11    1    4    4    0    0 -0.10638088325E-01 -0.18992599048E-01  0.64675925220E-02  0.22715162686E-01  0.51100000000E-03 0. -1.
</event>
<event>
 8    1  0.1145101E+005  0.1043930E+01  0.7957747E-01            NaN
         13   -1    0    0    0    0  0.00000000000E+00  0.00000000000E+00  0.74505805969E-08  0.10566000000E+00  0.10566000000E+00 0.  1.
     999900   -1    0    0    0    0 -0.00000000000E+00 -0.00000000000E+00 -0.74505805969E-08  0.93827000000E+00  0.93827000000E+00 0. -1.
     999902    2    1    2    0    0  0.13023866865E-02 -0.13741716582E-01  0.19061596013E-01  0.10203954418E+01  0.10201240034E+01 0.  0.
     999903    2    3    3    0    0  0.56000425768E-01  0.90866320008E-01 -0.68163313129E-01  0.12823912056E+00  0.20156859587E-01 0.  0.
         14    1    1    2    0    0 -0.13023866865E-02  0.13741716582E-01 -0.19061596013E-01  0.23534558170E-01  0.00000000000E+00 0. -1.
     999901    1    3    3    0    0 -0.54698039082E-01 -0.10460803659E+00  0.87224909142E-01  0.89215632127E+00  0.88000000000E+00 0.  1.
        -11    1    4    4    0    0  0.27318391851E-01  0.41968169319E-01 -0.20271468089E-01  0.54026061385E-01  0.51100000000E-03 0.  1.
         11    1    4    4    0    0  0.28682033917E-01  0.48898150689E-01 -0.47891845040E-01  0.74213059180E-01  0.51100000000E-03 0. -1.
</event>
<event>
 8    1  0.1145101E+005  0.1043930E+01  0.7957747E-01            NaN
         13   -1    0    0    0    0  0.00000000000E+00  0.00000000000E+00  0.74505805969E-08  0.10566000000E+00  0.10566000000E+00 0. -1.
     999900   -1    0    0    0    0 -0.00000000000E+00 -0.00000000000E+00 -0.74505805969E-08  0.93827000000E+00  0.93827000000E+00 0.  1.
     999902    2    1    2    0    0  0.12866015609E-01  0.97516399096E-03  0.18383668872E-01  0.10214701562E+01  0.10212232055E+01 0.  0.
     999903    2    3    3    0    0  0.43222102334E-02  0.93384543549E-01 -0.87448070960E-01  0.13028395388E+00  0.24236110447E-01 0.  0.
         14    1    1    2    0    0 -0.12866015609E-01 -0.97516399096E-03 -0.18383668872E-01  0.22459843803E-01  0.00000000000E+00 0.  1.
     999901    1    3    3    0    0  0.85438053752E-02 -0.92409379558E-01  0.10583173983E+00  0.89118620231E+00  0.88000000000E+00 0.  1.
        -11    1    4    4    0    0 -0.47686687397E-02  0.34178922800E-01 -0.19269542656E-01  0.39528665048E-01  0.51100000000E-03 0. -1.
         11    1    4    4    0    0  0.90908789731E-02  0.59205620749E-01 -0.68178528304E-01  0.90755288835E-01  0.51100000000E-03 0.  1.
</event>
<event>
 8    1  0.1145101E+005  0.1043930E+01  0.7957747E-01            NaN
         13   -1    0    0    0    0  0.00000000000E+00  0.00000000000E+00  0.74505805969E-08  0.10566000000E+00  0.10566000000E+00 0.  1.
     999900   -1    0    0    0    0 -0.00000000000E+00 -0.00000000000E+00 -0.74505805969E-08  0.93827000000E+00  0.93827000000E+00 0. -1.
     999902    2    1    2    0    0 -0.14047845391E-01 -0.17726232730E-01 -0.61985141716E-02  0.10204782865E+01  0.10202087779E+01 0.  0.
     999903    2    3    3    0    0  0.33720886505E-02 -0.93081578360E-01  0.90723233894E-01  0.13178502816E+00  0.21471778391E-01 0.  0.
         14    1    1    2    0    0  0.14047845391E-01  0.17726232730E-01  0.61985141716E-02  0.23451713474E-01  0.00000000000E+00 0. -1.
     999901    1    3    3    0    0 -0.17419934042E-01  0.75355345630E-01 -0.96921748066E-01  0.88869325837E+00  0.88000000000E+00 0. -1.
        -11    1    4    4    0    0 -0.90732163726E-02 -0.34749746509E-01  0.35417468847E-01  0.50443298448E-01  0.51100000000E-03 0.  1.
         11    1    4    4    0    0  0.12445305023E-01 -0.58331831851E-01  0.55305765048E-01  0.81341729713E-01  0.51100000000E-03 0. -1.
</event>
<event>
 8    1  0.1145101E+005  0.1043930E+01  0.7957747E-01            NaN
         13   -1    0    0    0    0  0.00000000000E+00  0.00000000000E+00  0.74505805969E-08  0.10566000000E+00  0.10566000000E+00 0. -1.
     999900   -1    0    0    0    0 -0.00000000000E+00 -0.00000000000E+00 -0.74505805969E-08  0.93827000000E+00  0.93827000000E+00 0. -1.
     999902    2    1    2    0    0  0.38978250397E-02 -0.15107638468E-01 -0.20484549559E-01  0.10181802320E+01  0.10178545743E+01 0.  0.
     999903    2    3    3    0    0 -0.10374190214E+00 -0.55900684994E-01  0.46089500364E-01  0.12819007049E+00  0.20522750409E-01 0.  0.
         14    1    1    2    0    0 -0.38978250397E-02  0.15107638468E-01  0.20484549559E-01  0.25749767975E-01  0.00000000000E+00 0. -1.
     999901    1    3    3    0    0  0.10763972718E+00  0.40793046526E-01 -0.66574049923E-01  0.88999016154E+00  0.88000000000E+00 0. -1.
        -11    1    4    4    0    0 -0.33050540461E-01 -0.15557884498E-01  0.45700458760E-02  0.36817556072E-01  0.51100000000E-03 0. -1.
         11    1    4    4    0    0 -0.70691361683E-01 -0.40342800496E-01  0.41519454488E-01  0.91372514415E-01  0.51100000000E-03 0.  1.
</event>
<event>
 8    1  0.1145101E+005  0.1043930E+01  0.7957747E-01            NaN
         13   -1    0    0    0    0  0.00000000000E+00  0.00000000000E+00  0.74505805969E-08  0.10566000000E+00  0.10566000000E+00 0. -1.
     999900   -1    0    0    0    0 -0.00000000000E+00 -0.00000000000E+00 -0.74505805969E-08  0.93827000000E+00  0.93827000000E+00 0.  1.
     999902    2    1    2    0    0 -0.70458916011E-02  0.16246874668E-01  0.15167610878E-01  0.10206134405E+01  0.10203470650E+01 0.  0.
     999903    2    3    3    0    0  0.41594074473E-01  0.11393259406E+00  0.50634226664E-01  0.13316415923E+00  0.21404797910E-01 0.  0.
         14    1    1    2    0    0  0.70458916011E-02 -0.16246874668E-01 -0.15167610878E-01  0.23316559452E-01  0.00000000000E+00 0. -1.
     999901    1    3    3    0    0 -0.48639966074E-01 -0.97685719392E-01 -0.35466615787E-01  0.88744928132E+00  0.88000000000E+00 0.  1.
        -11    1    4    4    0    0  0.10192797404E-01  0.40212063619E-01  0.74946519848E-02  0.42158440541E-01  0.51100000000E-03 0.  1.
         11    1    4    4    0    0  0.31401277069E-01  0.73720530441E-01  0.43139574679E-01  0.91005718691E-01  0.51100000000E-03 0. -1.
</event>
<event>
 8    1  0.1381914E+005  0.1043930E+01  0.7957747E-01            NaN
         13   -1    0    0    0    0  0.00000000000E+00  0.00000000000E+00  0.74505805969E-08  0.10566000000E+00  0.10566000000E+00 0.  1.
     999900   -1    0    0    0    0 -0.00000000000E+00 -0.00000000000E+00 -0.74505805969E-08  0.93827000000E+00  0.93827000000E+00 0.  1.
     999902    2    1    2    0    0  0.88387050421E-02  0.16160825985E-01 -0.14345630053E-01  0.10205827924E+01  0.10203157080E+01 0.  0.
     999903    2    3    3    0    0 -0.93806706316E-01  0.10208800229E-01  0.85353838918E-01  0.12900470200E+00  0.21284209354E-01 0.  0.
         14    1    1    2    0    0 -0.88387050421E-02 -0.16160825985E-01  0.14345630053E-01  0.23347207648E-01  0.00000000000E+00 0.  1.
     999901    1    3    3    0    0  0.10264541136E+00  0.59520257567E-02 -0.99699468971E-01  0.89157809035E+00  0.88000000000E+00 0.  1.
        -11    1    4    4    0    0 -0.41934766289E-01  0.15221712783E-01  0.39522238423E-01  0.59602798716E-01  0.51100000000E-03 0. -1.
         11    1    4    4    0    0 -0.51871940027E-01 -0.50129125540E-02  0.45831600495E-01  0.69401903283E-01  0.51100000000E-03 0.  1.
</event>
<event>
 8    1  0.1193068E+005  0.1043930E+01  0.7957747E-01            NaN
         13   -1    0    0    0    0  0.00000000000E+00  0.00000000000E+00  0.74505805969E-08  0.10566000000E+00  0.10566000000E+00 0.  1.
     999900   -1    0    0    0    0 -0.00000000000E+00 -0.00000000000E+00 -0.74505805969E-08  0.93827000000E+00  0.93827000000E+00 0. -1.
     999902    2    1    2    0    0 -0.14624984035E-01  0.68175765455E-02 -0.17633513727E-01  0.10200279015E+01  0.10197478166E+01 0.  0.
     999903    2    3    3    0    0 -0.15906992442E-01  0.93707743272E-01  0.85945142101E-01  0.12970207203E+00  0.20047106525E-01 0.  0.
         14    1    1    2    0    0  0.14624984035E-01 -0.68175765455E-02  0.17633513727E-01  0.23902098534E-01  0.00000000000E+00 0.  1.
     999901    1    3    3    0    0  0.12820084078E-02 -0.86890166727E-01 -0.10357865583E+00  0.89032582944E+00  0.88000000000E+00 0. -1.
        -11    1    4    4    0    0 -0.85543200103E-02  0.44205320963E-01  0.54075546724E-01  0.70368406738E-01  0.51100000000E-03 0.  1.
         11    1    4    4    0    0 -0.73526724320E-02  0.49502422309E-01  0.31869595377E-01  0.59333665291E-01  0.51100000000E-03 0. -1.
</event>
<event>
 8    1  0.1145101E+005  0.1043930E+01  0.7957747E-01            NaN
         13   -1    0    0    0    0  0.00000000000E+00  0.00000000000E+00  0.74505805969E-08  0.10566000000E+00  0.10566000000E+00 0. -1.
     999900   -1    0    0    0    0 -0.00000000000E+00 -0.00000000000E+00 -0.74505805969E-08  0.93827000000E+00  0.93827000000E+00 0. -1.
     999902    2    1    2    0    0 -0.10155653374E-01 -0.79414163629E-02 -0.19813131146E-01  0.10202918200E+01  0.10200179579E+01 0.  0.
     999903    2    3    3    0    0  0.50916264122E-01  0.46436141082E-01 -0.11050373414E+00  0.13185978355E+00  0.20667513353E-01 0.  0.
         14    1    1    2    0    0  0.10155653374E-01  0.79414163629E-02  0.19813131146E-01  0.23638180029E-01  0.00000000000E+00 0. -1.
     999901    1    3    3    0    0 -0.61071917496E-01 -0.54377557444E-01  0.90690602999E-01  0.88843203642E+00  0.88000000000E+00 0.  1.
        -11    1    4    4    0    0  0.23172804200E-01  0.34474446626E-01 -0.68598814779E-01  0.80196788183E-01  0.51100000000E-03 0.  1.
         11    1    4    4    0    0  0.27743459922E-01  0.11961694455E-01 -0.41904919365E-01  0.51662995371E-01  0.51100000000E-03 0. -1.
</event>
<event>
 8    1  0.1145101E+005  0.1043930E+01  0.7957747E-01            NaN
         13   -1    0    0    0    0  0.00000000000E+00  0.00000000000E+00  0.74505805969E-08  0.10566000000E+00  0.10566000000E+00 0.  1.
     999900   -1    0    0    0    0 -0.00000000000E+00 -0.00000000000E+00 -0.74505805969E-08  0.93827000000E+00  0.93827000000E+00 0.  1.
     999902    2    1    2    0    0 -0.18030054624E-01 -0.14255473404E-01 -0.85496326137E-02  0.10194065906E+01  0.10191115735E+01 0.  0.
     999903    2    3    3    0    0 -0.40970984076E-01  0.18541771188E-01  0.11952568467E+00  0.12923512822E+00  0.19821963999E-01 0.  0.
         14    1    1    2    0    0  0.18030054624E-01  0.14255473404E-01  0.85496326137E-02  0.24523409419E-01  0.00000000000E+00 0.  1.
     999901    1    3    3    0    0  0.22940929451E-01 -0.32797244593E-01 -0.12807531728E+00  0.89017146236E+00  0.88000000000E+00 0.  1.
        -11    1    4    4    0    0 -0.52168437300E-02  0.71436925449E-02  0.44179009177E-01  0.45058781325E-01  0.51100000000E-03 0. -1.
         11    1    4    4    0    0 -0.35754140346E-01  0.11398078644E-01  0.75346675491E-01  0.84176346899E-01  0.51100000000E-03 0.  1.
</event>
<event>
 8    1  0.1145101E+005  0.1043930E+01  0.7957747E-01            NaN
         13   -1    0    0    0    0  0.00000000000E+00  0.00000000000E+00  0.74505805969E-08  0.10566000000E+00  0.10566000000E+00 0. -1.
     999900   -1    0    0    0    0 -0.00000000000E+00 -0.00000000000E+00 -0.74505805969E-08  0.93827000000E+00  0.93827000000E+00 0.  1.
     999902    2    1    2    0    0 -0.14995066464E-02  0.15324217199E-01  0.17101282812E-01  0.10209183937E+01  0.10206590187E+01 0.  0.
     999903    2    3    3    0    0 -0.29498164193E-01 -0.68522806591E-01 -0.10269796630E+00  0.12841287080E+00  0.19428751705E-01 0.  0.
         14    1    1    2    0    0  0.14995066464E-02 -0.15324217199E-01 -0.17101282812E-01  0.23011606349E-01  0.00000000000E+00 0.  1.
     999901    1    3    3    0    0  0.27998657546E-01  0.83847023790E-01  0.11979924911E+00  0.89250552285E+00  0.88000000000E+00 0. -1.
        -11    1    4    4    0    0 -0.16679912946E-01 -0.38249781471E-01 -0.73104505585E-01  0.84177165171E-01  0.51100000000E-03 0. -1.
         11    1    4    4    0    0 -0.12818251247E-01 -0.30273025120E-01 -0.29593460713E-01  0.44235705634E-01  0.51100000000E-03 0.  1.
</event>
<event>
 8    1  0.1145101E+005  0.1043930E+01  0.7957747E-01            NaN
         13   -1    0    0    0    0  0.00000000000E+00  0.00000000000E+00  0.74505805969E-08  0.10566000000E+00  0.10566000000E+00 0. -1.
     999900   -1    0    0    0    0 -0.00000000000E+00 -0.00000000000E+00 -0.74505805969E-08  0.93827000000E+00  0.93827000000E+00 0. -1.
     999902    2    1    2    0    0  0.73265026057E-02 -0.20381020669E-01 -0.98624082761E-02  0.10201322955E+01  0.10198546806E+01 0.  0.
     999903    2    3    3    0    0 -0.45743078050E-01 -0.11825147557E+00 -0.33948012179E-01  0.13279069121E+00  0.20126089485E-01 0.  0.
         14    1    1    2    0    0 -0.73265026057E-02  0.20381020669E-01  0.98624082761E-02  0.23797704531E-01  0.00000000000E+00 0. -1.
     999901    1    3    3    0    0  0.53069580656E-01  0.97870454897E-01  0.24085603903E-01  0.88734160426E+00  0.88000000000E+00 0.  1.
        -11    1    4    4    0    0  0.31582524568E-03 -0.10432080330E-01  0.86505934484E-03  0.10485108214E-01  0.51100000000E-03 0.  1.
         11    1    4    4    0    0 -0.46058903296E-01 -0.10781939524E+00 -0.34813071524E-01  0.12230558300E+00  0.51100000000E-03 0. -1.
</event>
<event>
 7    1  0.1145101E+005  0.1043930E+01  0.7957747E-01            NaN
         13   -1    0    0    0    0  0.00000000000E+00  0.00000000000E+00  0.74505805969E-08  0.10566000000E+00  0.10566000000E+00 0. -1.
     999900   -1    0    0    0    0 -0.00000000000E+00 -0.00000000000E+00 -0.74505805969E-08  0.93827000000E+00  0.93827000000E+00 0.  1.
     999903    2    1    2    0    0 -0.58361452077E-02  0.10060743967E+00  0.21170871944E-01  0.10467879003E+00  0.18802280577E-01 0.  0.
         14    1    1    2    0    0 -0.37050616879E-01  0.21215402014E-01  0.23440581121E-01  0.48706286422E-01  0.00000000000E+00 0. -1.
     999901    1    1    2    0    0  0.42886762087E-01 -0.12182284168E+00 -0.44611453065E-01  0.89054492355E+00  0.88000000000E+00 0.  1.
        -11    1    3    3    0    0 -0.10357578015E-01  0.67402594714E-01  0.79790534911E-02  0.68660873954E-01  0.51100000000E-03 0. -1.
         11    1    3    3    0    0  0.45214328071E-02  0.33204844955E-01  0.13191818453E-01  0.36017916073E-01  0.51100000000E-03 0.  1.
</event>
<event>
 8    1  0.1145101E+005  0.1043930E+01  0.7957747E-01            NaN
         13   -1    0    0    0    0  0.00000000000E+00  0.00000000000E+00  0.74505805969E-08  0.10566000000E+00  0.10566000000E+00 0.  1.
     999900   -1    0    0    0    0 -0.00000000000E+00 -0.00000000000E+00 -0.74505805969E-08  0.93827000000E+00  0.93827000000E+00 0. -1.
     999902    2    1    2    0    0 -0.44910426274E-02 -0.14427090071E-02 -0.23356341830E-01  0.10201020841E+01  0.10198237555E+01 0.  0.
     999903    2    3    3    0    0  0.48162968889E-01  0.68984125787E-01  0.94050653153E-01  0.12796039889E+00  0.21209836006E-01 0.  0.
         14    1    1    2    0    0  0.44910426274E-02  0.14427090071E-02  0.23356341830E-01  0.23827915915E-01  0.00000000000E+00 0.  1.
     999901    1    3    3    0    0 -0.52654011516E-01 -0.70426834794E-01 -0.11740699498E+00  0.89214168519E+00  0.88000000000E+00 0. -1.
        -11    1    4    4    0    0  0.18623893106E-01  0.22950692830E-01  0.19181393910E-01  0.35238766850E-01  0.51100000000E-03 0.  1.
         11    1    4    4    0    0  0.29539075783E-01  0.46033432957E-01  0.74869259243E-01  0.92721632042E-01  0.51100000000E-03 0. -1.
</event>
<event>
 8    1  0.1145101E+005  0.1043930E+01  0.7957747E-01            NaN
         13   -1    0    0    0    0  0.00000000000E+00  0.00000000000E+00  0.74505805969E-08  0.10566000000E+00  0.10566000000E+00 0. -1.
     999900   -1    0    0    0    0 -0.00000000000E+00 -0.00000000000E+00 -0.74505805969E-08  0.93827000000E+00  0.93827000000E+00 0.  1.
     999902    2    1    2    0    0  0.71821588630E-02 -0.14086063470E-01  0.16823726793E-01  0.10208423762E+01  0.10205812651E+01 0.  0.
     999903    2    3    3    0    0  0.64280232043E-01  0.90896824764E-01 -0.62421036406E-01  0.12923633691E+00  0.20284575625E-01 0.  0.
         14    1    1    2    0    0 -0.71821588630E-02  0.14086063470E-01 -0.16823726793E-01  0.23087623811E-01  0.00000000000E+00 0.  1.
     999901    1    3    3    0    0 -0.57098073180E-01 -0.10498288823E+00  0.79244763199E-01  0.89160603928E+00  0.88000000000E+00 0. -1.
        -11    1    4    4    0    0  0.13228140965E-01  0.26901715521E-01 -0.25793493973E-01  0.39550619006E-01  0.51100000000E-03 0. -1.
         11    1    4    4    0    0  0.51052091078E-01  0.63995109243E-01 -0.36627542433E-01  0.89685717905E-01  0.51100000000E-03 0.  1.
</event>
<event>
 8    1  0.1145101E+005  0.1043930E+01  0.7957747E-01            NaN
         13   -1    0    0    0    0  0.00000000000E+00  0.00000000000E+00  0.74505805969E-08  0.10566000000E+00  0.10566000000E+00 0. -1.
     999900   -1    0    0    0    0 -0.00000000000E+00 -0.00000000000E+00 -0.74505805969E-08  0.93827000000E+00  0.93827000000E+00 0. -1.
     999902    2    1    2    0    0  0.14782524446E-02  0.15524247221E-01  0.29767174329E-01  0.10103253552E+01  0.10097663350E+01 0.  0.
     999903    2    3    3    0    0  0.76519208658E-01  0.60281634025E-01 -0.68199467714E-01  0.12058840999E+00  0.20033285634E-01 0.  0.
         14    1    1    2    0    0 -0.14782524446E-02 -0.15524247221E-01 -0.29767174329E-01  0.33604644762E-01  0.00000000000E+00 0.  1.
     999901    1    3    3    0    0 -0.75040956214E-01 -0.44757386804E-01  0.97966642043E-01  0.88973694525E+00  0.88000000000E+00 0.  1.
        -11    1    4    4    0    0  0.94607115498E-02  0.35398229418E-02 -0.14335856293E-01  0.17544609034E-01  0.51100000000E-03 0. -1.
         11    1    4    4    0    0  0.67058497109E-01  0.56741811083E-01 -0.53863611421E-01  0.10304380096E+00  0.51100000000E-03 0.  1.
</event>
<event>
 8    1  0.1145101E+005  0.1043930E+01  0.7957747E-01            NaN
         13   -1    0    0    0    0  0.00000000000E+00  0.00000000000E+00  0.74505805969E-08  0.10566000000E+00  0.10566000000E+00 0. -1.
     999900   -1    0    0    0    0 -0.00000000000E+00 -0.00000000000E+00 -0.74505805969E-08  0.93827000000E+00  0.93827000000E+00 0. -1.
     999902    2    1    2    0    0 -0.19757245121E-02 -0.21110870116E-01  0.10198551985E-01  0.10204016599E+01  0.10201303666E+01 0.  0.
     999903    2    3    3    0    0  0.34156257759E-01 -0.11565053437E+00 -0.51084759722E-01  0.13248335706E+00  0.20012275653E-01 0.  0.
         14    1    1    2    0    0  0.19757245121E-02  0.21110870116E-01 -0.10198551985E-01  0.23528340082E-01  0.00000000000E+00 0.  1.
     999901    1    3    3    0    0 -0.36131982271E-01  0.94539664256E-01  0.61283311707E-01  0.88791830286E+00  0.88000000000E+00 0. -1.
        -11    1    4    4    0    0  0.30710402308E-01 -0.10931570992E+00 -0.52530072709E-01  0.12511084248E+00  0.51100000000E-03 0. -1.
         11    1    4    4    0    0  0.34458554513E-02 -0.63348244486E-02  0.14453129869E-02  0.73725145789E-02  0.51100000000E-03 0.  1.
</event>
<event>
 8    1  0.1145101E+005  0.1043930E+01  0.7957747E-01            NaN
         13   -1    0    0    0    0  0.00000000000E+00  0.00000000000E+00  0.74505805969E-08  0.10566000000E+00  0.10566000000E+00 0.  1.
     999900   -1    0    0    0    0 -0.00000000000E+00 -0.00000000000E+00 -0.74505805969E-08  0.93827000000E+00  0.93827000000E+00 0. -1.
     999902    2    1    2    0    0  0.43049455298E-02 -0.12150534452E-01  0.20107203502E-01  0.10200455348E+01  0.10197658680E+01 0.  0.
     999903    2    3    3    0    0 -0.81205780103E-01  0.61994838743E-01  0.79307707218E-01  0.13082434739E+00  0.19686510433E-01 0.  0.
         14    1    1    2    0    0 -0.43049455298E-02  0.12150534452E-01 -0.20107203502E-01  0.23884465163E-01  0.00000000000E+00 0. -1.
     999901    1    3    3    0    0  0.85510725633E-01 -0.74145373194E-01 -0.59200503716E-01  0.88922118745E+00  0.88000000000E+00 0. -1.
        -11    1    4    4    0    0 -0.62964536369E-01  0.55516670387E-01  0.58009421953E-01  0.10203914782E+00  0.51100000000E-03 0.  1.
         11    1    4    4    0    0 -0.18241243734E-01  0.64781683557E-02  0.21298285265E-01  0.28785199573E-01  0.51100000000E-03 0. -1.
</event>
<event>
 8    1  0.1145101E+005  0.1043930E+01  0.7957747E-01            NaN
         13   -1    0    0    0    0  0.00000000000E+00  0.00000000000E+00  0.74505805969E-08  0.10566000000E+00  0.10566000000E+00 0. -1.
     999900   -1    0    0    0    0 -0.00000000000E+00 -0.00000000000E+00 -0.74505805969E-08  0.93827000000E+00  0.93827000000E+00 0. -1.
     999902    2    1    2    0    0 -0.16051560731E-01  0.89505153366E-02  0.15452034166E-01  0.10199189674E+01  0.10196362932E+01 0.  0.
     999903    2    3    3    0    0 -0.94265959050E-01  0.37137198032E-01  0.84297799186E-01  0.13332338849E+00  0.20093891034E-01 0.  0.
         14    1    1    2    0    0  0.16051560731E-01 -0.89505153366E-02 -0.15452034166E-01  0.24011032600E-01  0.00000000000E+00 0.  1.
     999901    1    3    3    0    0  0.78214398320E-01 -0.28186682696E-01 -0.68845765020E-01  0.88659557891E+00  0.88000000000E+00 0. -1.
        -11    1    4    4    0    0 -0.56734110336E-01  0.17578662762E-01  0.37596339137E-01  0.70295906692E-01  0.51100000000E-03 0.  1.
         11    1    4    4    0    0 -0.37531848714E-01  0.19558535271E-01  0.46701460048E-01  0.63027481795E-01  0.51100000000E-03 0. -1.
</event>
<event>
 8    1  0.1145101E+005  0.1043930E+01  0.7957747E-01            NaN
         13   -1    0    0    0    0  0.00000000000E+00  0.00000000000E+00  0.74505805969E-08  0.10566000000E+00  0.10566000000E+00 0.  1.
     999900   -1    0    0    0    0 -0.00000000000E+00 -0.00000000000E+00 -0.74505805969E-08  0.93827000000E+00  0.93827000000E+00 0.  1.
     999902    2    1    2    0    0  0.63533167660E-02 -0.13074519604E-01  0.19391960148E-01  0.10196945752E+01  0.10194065288E+01 0.  0.
     999903    2    3    3    0    0  0.60946724226E-01 -0.78887204745E-02  0.11602874652E+00  0.13270753971E+00  0.19284345281E-01 0.  0.
         14    1    1    2    0    0 -0.63533167660E-02  0.13074519604E-01 -0.19391960148E-01  0.24235424799E-01  0.00000000000E+00 0.  1.
     999901    1    3    3    0    0 -0.54593407460E-01 -0.51857991296E-02 -0.96636786369E-01  0.88698703549E+00  0.88000000000E+00 0.  1.
        -11    1    4    4    0    0  0.36394803583E-01  0.12684622150E-02  0.82254540655E-01  0.89956996969E-01  0.51100000000E-03 0.  1.
         11    1    4    4    0    0  0.24551920642E-01 -0.91571826895E-02  0.33774205861E-01  0.42750542741E-01  0.51100000000E-03 0. -1.
</event>
<event>
 8    1  0.1145101E+005  0.1043930E+01  0.7957747E-01            NaN
         13   -1    0    0    0    0  0.00000000000E+00  0.00000000000E+00  0.74505805969E-08  0.10566000000E+00  0.10566000000E+00 0.  1.
     999900   -1    0    0    0    0 -0.00000000000E+00 -0.00000000000E+00 -0.74505805969E-08  0.93827000000E+00  0.93827000000E+00 0.  1.
     999902    2    1    2    0    0 -0.22096993582E-01  0.64778675466E-02  0.13316622262E-01  0.10173297684E+01  0.10169819494E+01 0.  0.
     999903    2    3    3    0    0 -0.49039893739E-01 -0.30143262571E-02 -0.11571975156E+00  0.12746100987E+00  0.21005970496E-01 0.  0.
         14    1    1    2    0    0  0.22096993582E-01 -0.64778675466E-02 -0.13316622262E-01  0.26600231612E-01  0.00000000000E+00 0. -1.
     999901    1    3    3    0    0  0.26942900156E-01  0.94921938037E-02  0.12903637382E+00  0.88986875851E+00  0.88000000000E+00 0. -1.
        -11    1    4    4    0    0 -0.51063697904E-01 -0.26196722069E-02 -0.11281641845E+00  0.12386351084E+00  0.51100000000E-03 0.  1.
         11    1    4    4    0    0  0.20238041650E-02 -0.39465405016E-03 -0.29033331105E-02  0.35974990296E-02  0.51100000000E-03 0. -1.
</event>
<event>
 8    1  0.1145101E+005  0.1043930E+01  0.7957747E-01            NaN
         13   -1    0    0    0    0  0.00000000000E+00  0.00000000000E+00  0.74505805969E-08  0.10566000000E+00  0.10566000000E+00 0.  1.
     999900   -1    0    0    0    0 -0.00000000000E+00 -0.00000000000E+00 -0.74505805969E-08  0.93827000000E+00  0.93827000000E+00 0.  1.
     999902    2    1    2    0    0 -0.14994872242E-01  0.97399754305E-02  0.15226111889E-01  0.10204449452E+01  0.10201746607E+01 0.  0.
     999903    2    3    3    0    0  0.54279040964E-01  0.11759983183E+00  0.46797011778E-02  0.13109470462E+00  0.19697391728E-01 0.  0.
         14    1    1    2    0    0  0.14994872242E-01 -0.97399754305E-02 -0.15226111889E-01  0.23485054784E-01  0.00000000000E+00 0. -1.
     999901    1    3    3    0    0 -0.69273913206E-01 -0.10785985640E+00  0.10546410711E-01  0.88935024060E+00  0.88000000000E+00 0.  1.
        -11    1    4    4    0    0  0.12026328905E-01  0.45023216953E-01  0.67303681396E-02  0.47088020005E-01  0.51100000000E-03 0.  1.
         11    1    4    4    0    0  0.42252712059E-01  0.72576614879E-01 -0.20506669618E-02  0.84006684613E-01  0.51100000000E-03 0. -1.
</event>
<event>
 8    1  0.1145101E+005  0.1043930E+01  0.7957747E-01            NaN
         13   -1    0    0    0    0  0.00000000000E+00  0.00000000000E+00  0.74505805969E-08  0.10566000000E+00  0.10566000000E+00 0.  1.
     999900   -1    0    0    0    0 -0.00000000000E+00 -0.00000000000E+00 -0.74505805969E-08  0.93827000000E+00  0.93827000000E+00 0.  1.
     999902    2    1    2    0    0  0.97121075471E-02 -0.22399477750E-01  0.77146173367E-02  0.10183257629E+01  0.10180038224E+01 0.  0.
     999903    2    3    3    0    0  0.14970574757E-02  0.12001624052E+00  0.34512437667E-01  0.12643572090E+00  0.19716591912E-01 0.  0.
         14    1    1    2    0    0 -0.97121075471E-02  0.22399477750E-01 -0.77146173367E-02  0.25604237094E-01  0.00000000000E+00 0.  1.
     999901    1    3    3    0    0  0.82150500714E-02 -0.14241571827E+00 -0.26797820330E-01  0.89189004201E+00  0.88000000000E+00 0.  1.
        -11    1    4    4    0    0  0.87696732604E-02  0.98959813365E-01  0.28498398270E-01  0.10335555938E+00  0.51100000000E-03 0. -1.
         11    1    4    4    0    0 -0.72726157847E-02  0.21056427152E-01  0.60140393971E-02  0.23080161517E-01  0.51100000000E-03 0.  1.
</event>
<event>
 8    1  0.1145101E+005  0.1043930E+01  0.7957747E-01            NaN
         13   -1    0    0    0    0  0.00000000000E+00  0.00000000000E+00  0.74505805969E-08  0.10566000000E+00  0.10566000000E+00 0.  1.
     999900   -1    0    0    0    0 -0.00000000000E+00 -0.00000000000E+00 -0.74505805969E-08  0.93827000000E+00  0.93827000000E+00 0. -1.
     999902    2    1    2    0    0  0.73849408568E-02 -0.15084848099E-01 -0.16657528940E-01  0.10202749104E+01  0.10200006517E+01 0.  0.
     999903    2    3    3    0    0 -0.95476038981E-01 -0.31520617265E-01 -0.82543981742E-01  0.13168527488E+00  0.20451879304E-01 0.  0.
         14    1    1    2    0    0 -0.73849408568E-02  0.15084848099E-01  0.16657528940E-01  0.23655089601E-01  0.00000000000E+00 0.  1.
     999901    1    3    3    0    0  0.10286097984E+00  0.16435769165E-01  0.65886452802E-01  0.88858963551E+00  0.88000000000E+00 0.  1.
        -11    1    4    4    0    0 -0.37185470625E-01 -0.45296404805E-02 -0.22189606504E-01  0.43542124734E-01  0.51100000000E-03 0. -1.
         11    1    4    4    0    0 -0.58290568356E-01 -0.26990976784E-01 -0.60354375238E-01  0.88143150150E-01  0.51100000000E-03 0.  1.
</event>
<event>
 8    1  0.1145101E+005  0.1043930E+01  0.7957747E-01            NaN
         13   -1    0    0    0    0  0.00000000000E+00  0.00000000000E+00  0.74505805969E-08  0.10566000000E+00  0.10566000000E+00 0. -1.
     999900   -1    0    0    0    0 -0.00000000000E+00 -0.00000000000E+00 -0.74505805969E-08  0.93827000000E+00  0.93827000000E+00 0. -1.
     999902    2    1    2    0    0 -0.74995841240E-02 -0.12086440905E-01 -0.19448512413E-01  0.10198349704E+01  0.10195502913E+01 0.  0.
     999903    2    3    3    0    0 -0.46890053005E-01  0.18690912971E-01 -0.12096793532E+00  0.13258920526E+00  0.19965687481E-01 0.  0.
         14    1    1    2    0    0  0.74995841240E-02  0.12086440905E-01  0.19448512413E-01  0.24095029588E-01  0.00000000000E+00 0. -1.
     999901    1    3    3    0    0  0.39390468881E-01 -0.30777353876E-01  0.10151942291E+00  0.88724576515E+00  0.88000000000E+00 0.  1.
        -11    1    4    4    0    0 -0.29999709117E-01  0.21059181890E-01 -0.90970198440E-01  0.98078080193E-01  0.51100000000E-03 0. -1.
         11    1    4    4    0    0 -0.16890343887E-01 -0.23682689193E-02 -0.29997736884E-01  0.34511125068E-01  0.51100000000E-03 0.  1.
</event>
<event>
 8    1  0.1145101E+005  0.1043930E+01  0.7957747E-01            NaN
         13   -1    0    0    0    0  0.00000000000E+00  0.00000000000E+00  0.74505805969E-08  0.10566000000E+00  0.10566000000E+00 0.  1.
     999900   -1    0    0    0    0 -0.00000000000E+00 -0.00000000000E+00 -0.74505805969E-08  0.93827000000E+00  0.93827000000E+00 0.  1.
     999902    2    1    2    0    0  0.13905935945E-01 -0.18530756869E-01  0.14346173501E-02  0.10207174575E+01  0.10204534805E+01 0.  0.
     999903    2    3    3    0    0  0.87233983468E-01 -0.39356356930E-02 -0.97045188182E-01  0.13207338235E+00  0.20008814953E-01 0.  0.
         14    1    1    2    0    0 -0.13905935945E-01  0.18530756869E-01 -0.14346173501E-02  0.23212542549E-01  0.00000000000E+00 0. -1.
     999901    1    3    3    0    0 -0.73328047523E-01 -0.14595121176E-01  0.98479805533E-01  0.88864407510E+00  0.88000000000E+00 0. -1.
        -11    1    4    4    0    0  0.53864426959E-01 -0.11493110008E-01 -0.54639777673E-01  0.77583725706E-01  0.51100000000E-03 0. -1.
         11    1    4    4    0    0  0.33369556509E-01  0.75574743149E-02 -0.42405410510E-01  0.54489656643E-01  0.51100000000E-03 0.  1.
</event>
<event>
 8    1  0.1145101E+005  0.1043930E+01  0.7957747E-01            NaN
         13   -1    0    0    0    0  0.00000000000E+00  0.00000000000E+00  0.74505805969E-08  0.10566000000E+00  0.10566000000E+00 0. -1.
     999900   -1    0    0    0    0 -0.00000000000E+00 -0.00000000000E+00 -0.74505805969E-08  0.93827000000E+00  0.93827000000E+00 0.  1.
     999902    2    1    2    0    0  0.19835986040E-01 -0.12158199049E-01 -0.64534413350E-03  0.10206554513E+01  0.10203900459E+01 0.  0.
     999903    2    3    3    0    0  0.46325069910E-01 -0.93506891174E-01 -0.79925926233E-01  0.13295916771E+00  0.20010891885E-01 0.  0.
         14    1    1    2    0    0 -0.19835986040E-01  0.12158199049E-01  0.64534413350E-03  0.23274548661E-01  0.00000000000E+00 0.  1.
     999901    1    3    3    0    0 -0.26489083870E-01  0.81348692125E-01  0.79280582100E-01  0.88769628363E+00  0.88000000000E+00 0. -1.
        -11    1    4    4    0    0  0.19035633305E-01 -0.31832922847E-01 -0.40139069985E-01  0.54654335350E-01  0.51100000000E-03 0. -1.
         11    1    4    4    0    0  0.27289436606E-01 -0.61673968327E-01 -0.39786856248E-01  0.78304832358E-01  0.51100000000E-03 0.  1.
</event>
<event>
 8    1  0.1145101E+005  0.1043930E+01  0.7957747E-01            NaN
         13   -1    0    0    0    0  0.00000000000E+00  0.00000000000E+00  0.74505805969E-08  0.10566000000E+00  0.10566000000E+00 0.  1.
     999900   -1    0    0    0    0 -0.00000000000E+00 -0.00000000000E+00 -0.74505805969E-08  0.93827000000E+00  0.93827000000E+00 0.  1.
     999902    2    1    2    0    0  0.17235118230E-01 -0.25866863225E-02 -0.75411510395E-02  0.10249402868E+01  0.10247643546E+01 0.  0.
     999903    2    3    3    0    0  0.59431022403E-01  0.11309460783E+00 -0.41154987361E-01  0.13573134282E+00  0.20169970175E-01 0.  0.
         14    1    1    2    0    0 -0.17235118230E-01  0.25866863225E-02  0.75411510395E-02  0.18989713150E-01  0.00000000000E+00 0. -1.
     999901    1    3    3    0    0 -0.42195904174E-01 -0.11568129415E+00  0.33613836322E-01  0.88920894403E+00  0.88000000000E+00 0. -1.
        -11    1    4    4    0    0  0.45965654759E-01  0.10181728325E+00 -0.36928840519E-01  0.11765883294E+00  0.51100000000E-03 0.  1.
         11    1    4    4    0    0  0.13465367644E-01  0.11277324580E-01 -0.42261468419E-02  0.18072509887E-01  0.51100000000E-03 0. -1.
</event>
<event>
 8    1  0.1145101E+005  0.1043930E+01  0.7957747E-01            NaN
         13   -1    0    0    0    0  0.00000000000E+00  0.00000000000E+00  0.74505805969E-08  0.10566000000E+00  0.10566000000E+00 0.  1.
     999900   -1    0    0    0    0 -0.00000000000E+00 -0.00000000000E+00 -0.74505805969E-08  0.93827000000E+00  0.93827000000E+00 0.  1.
     999902    2    1    2    0    0 -0.21653542079E-01 -0.22840079151E-02  0.13802974639E-01  0.10181498781E+01  0.10178234422E+01 0.  0.
     999903    2    3    3    0    0  0.74640664716E-02  0.76662706264E-01  0.10244574525E+00  0.12970294125E+00  0.19870566891E-01 0.  0.
         14    1    1    2    0    0  0.21653542079E-01  0.22840079151E-02 -0.13802974639E-01  0.25780121908E-01  0.00000000000E+00 0. -1.
     999901    1    3    3    0    0 -0.29117608551E-01 -0.78946714179E-01 -0.88642770609E-01  0.88844693684E+00  0.88000000000E+00 0.  1.
        -11    1    4    4    0    0  0.75196537392E-02  0.48838707242E-01  0.49816694548E-01  0.70169285974E-01  0.51100000000E-03 0.  1.
         11    1    4    4    0    0 -0.55587267619E-04  0.27823999022E-01  0.52629050700E-01  0.59533655272E-01  0.51100000000E-03 0. -1.
</event>
<event>
 8    1  0.1145101E+005  0.1043930E+01  0.7957747E-01            NaN
         13   -1    0    0    0    0  0.00000000000E+00  0.00000000000E+00  0.74505805969E-08  0.10566000000E+00  0.10566000000E+00 0. -1.
     999900   -1    0    0    0    0 -0.00000000000E+00 -0.00000000000E+00 -0.74505805969E-08  0.93827000000E+00  0.93827000000E+00 0.  1.
     999902    2    1    2    0    0  0.10339283922E-01 -0.24496151768E-02 -0.62600298626E-02  0.10315975477E+01  0.10315238296E+01 0.  0.
     999903    2    3    3    0    0 -0.47844380681E-02 -0.13187946539E+00 -0.45541347482E-01  0.14113483930E+00  0.20735098094E-01 0.  0.
         14    1    1    2    0    0 -0.10339283922E-01  0.24496151768E-02  0.62600298626E-02  0.12332452328E-01  0.00000000000E+00 0. -1.
     999901    1    3    3    0    0  0.15123721990E-01  0.12942985022E+00  0.39281317619E-01  0.89046270838E+00  0.88000000000E+00 0. -1.
        -11    1    4    4    0    0 -0.11698464449E-01 -0.70402898256E-01 -0.19301803286E-01  0.73934044150E-01  0.51100000000E-03 0.  1.
         11    1    4    4    0    0  0.69140263812E-02 -0.61476567137E-01 -0.26239544196E-01  0.67200795147E-01  0.51100000000E-03 0. -1.
</event>
<event>
 8    1  0.1145101E+005  0.1043930E+01  0.7957747E-01            NaN
         13   -1    0    0    0    0  0.00000000000E+00  0.00000000000E+00  0.74505805969E-08  0.10566000000E+00  0.10566000000E+00 0. -1.
     999900   -1    0    0    0    0 -0.00000000000E+00 -0.00000000000E+00 -0.74505805969E-08  0.93827000000E+00  0.93827000000E+00 0.  1.
     999902    2    1    2    0    0  0.20267149205E-01  0.73503597133E-03 -0.10063818924E-02  0.10236245717E+01  0.10234231546E+01 0.  0.
     999903    2    3    3    0    0  0.12779297536E+00  0.42090436716E-01  0.40984477796E-02  0.13610097664E+00  0.20100476491E-01 0.  0.
         14    1    1    2    0    0 -0.20267149205E-01 -0.73503597133E-03  0.10063818924E-02  0.20305428321E-01  0.00000000000E+00 0.  1.
     999901    1    3    3    0    0 -0.10752582615E+00 -0.41355400744E-01 -0.51048296720E-02  0.88752359504E+00  0.88000000000E+00 0. -1.
        -11    1    4    4    0    0  0.41815958881E-01  0.11988571785E-01 -0.79110518739E-02  0.44217034425E-01  0.51100000000E-03 0.  1.
         11    1    4    4    0    0  0.85977016477E-01  0.30101864931E-01  0.12009499653E-01  0.91883942218E-01  0.51100000000E-03 0. -1.
</event>
<event>
 8    1  0.1145101E+005  0.1043930E+01  0.7957747E-01            NaN
         13   -1    0    0    0    0  0.00000000000E+00  0.00000000000E+00  0.74505805969E-08  0.10566000000E+00  0.10566000000E+00 0.  1.
     999900   -1    0    0    0    0 -0.00000000000E+00 -0.00000000000E+00 -0.74505805969E-08  0.93827000000E+00  0.93827000000E+00 0. -1.
     999902    2    1    2    0    0  0.71550560102E-02  0.10475069482E-01 -0.20946782062E-01  0.10194414397E+01  0.10191472707E+01 0.  0.
     999903    2    3    3    0    0 -0.10714360833E-01 -0.99732069624E-01 -0.80972337001E-01  0.13035876816E+00  0.19380553091E-01 0.  0.
         14    1    1    2    0    0 -0.71550560102E-02 -0.10475069482E-01  0.20946782062E-01  0.24488560307E-01  0.00000000000E+00 0.  1.
     999901    1    3    3    0    0  0.17869416843E-01  0.11020713911E+00  0.60025554939E-01  0.88908267153E+00  0.88000000000E+00 0. -1.
        -11    1    4    4    0    0 -0.22737004483E-02 -0.84586858656E-01 -0.64056828316E-01  0.10613031964E+00  0.51100000000E-03 0.  1.
         11    1    4    4    0    0 -0.84406603848E-02 -0.15145210968E-01 -0.16915508685E-01  0.24228448528E-01  0.51100000000E-03 0. -1.
</event>
<event>
 8    1  0.1145101E+005  0.1043930E+01  0.7957747E-01            NaN
         13   -1    0    0    0    0  0.00000000000E+00  0.00000000000E+00  0.74505805969E-08  0.10566000000E+00  0.10566000000E+00 0.  1.
     999900   -1    0    0    0    0 -0.00000000000E+00 -0.00000000000E+00 -0.74505805969E-08  0.93827000000E+00  0.93827000000E+00 0. -1.
     999902    2    1    2    0    0 -0.36266195278E-02  0.16617994718E-01  0.15596426592E-01  0.10208527679E+01  0.10205918945E+01 0.  0.
     999903    2    3    3    0    0 -0.91410009683E-02  0.67670739780E-01  0.11344555639E+00  0.13394169945E+00  0.20189048196E-01 0.  0.
         14    1    1    2    0    0  0.36266195278E-02 -0.16617994718E-01 -0.15596426592E-01  0.23077232071E-01  0.00000000000E+00 0. -1.
     999901    1    3    3    0    0  0.55143814405E-02 -0.51052745062E-01 -0.97849129798E-01  0.88691106847E+00  0.88000000000E+00 0. -1.
        -11    1    4    4    0    0 -0.26793437493E-02  0.23546468397E-01  0.22656019044E-01  0.32789805990E-01  0.51100000000E-03 0. -1.
         11    1    4    4    0    0 -0.64616572190E-02  0.44124271383E-01  0.90789537345E-01  0.10115189346E+00  0.51100000000E-03 0.  1.
</event>
<event>
 8    1  0.1145101E+005  0.1043930E+01  0.7957747E-01            NaN
         13   -1    0    0    0    0  0.00000000000E+00  0.00000000000E+00  0.74505805969E-08  0.10566000000E+00  0.10566000000E+00 0.  1.
     999900   -1    0    0    0    0 -0.00000000000E+00 -0.00000000000E+00 -0.74505805969E-08  0.93827000000E+00  0.93827000000E+00 0. -1.
     999902    2    1    2    0    0  0.70628856431E-02 -0.12470168694E-02  0.27847505413E-01  0.10151737318E+01  0.10147663685E+01 0.  0.
     999903    2    3    3    0    0 -0.85548430789E-01  0.65382461971E-01  0.64638917071E-01  0.12704651602E+00  0.19215287916E-01 0.  0.
         14    1    1    2    0    0 -0.70628856431E-02  0.12470168694E-02 -0.27847505413E-01  0.28756268228E-01  0.00000000000E+00 0. -1.
     999901    1    3    3    0    0  0.92611316432E-01 -0.66629478840E-01 -0.36791411658E-01  0.88812721575E+00  0.88000000000E+00 0. -1.
        -11    1    4    4    0    0 -0.44325196536E-01  0.41702341271E-01  0.44596062408E-01  0.75451164463E-01  0.51100000000E-03 0.  1.
         11    1    4    4    0    0 -0.41223234253E-01  0.23680120700E-01  0.20042854662E-01  0.51595351561E-01  0.51100000000E-03 0. -1.
</event>
<event>
 8    1  0.1145101E+005  0.1043930E+01  0.7957747E-01            NaN
         13   -1    0    0    0    0  0.00000000000E+00  0.00000000000E+00  0.74505805969E-08  0.10566000000E+00  0.10566000000E+00 0.  1.
     999900   -1    0    0    0    0 -0.00000000000E+00 -0.00000000000E+00 -0.74505805969E-08  0.93827000000E+00  0.93827000000E+00 0. -1.
     999902    2    1    2    0    0  0.11666006161E-01 -0.85944431164E-02  0.18341228190E-01  0.10205556379E+01  0.10202879247E+01 0.  0.
     999903    2    3    3    0    0  0.48060490665E-01  0.60454519292E-01 -0.10137182508E+00  0.12902687625E+00  0.20177418316E-01 0.  0.
         14    1    1    2    0    0 -0.11666006161E-01  0.85944431164E-02 -0.18341228190E-01  0.23374362104E-01  0.00000000000E+00 0.  1.
     999901    1    3    3    0    0 -0.36394484504E-01 -0.69048962409E-01  0.11971305327E+00  0.89152876164E+00  0.88000000000E+00 0.  1.
        -11    1    4    4    0    0  0.16593257898E-01  0.18518827864E-01 -0.18642107294E-01  0.31081706492E-01  0.51100000000E-03 0.  1.
         11    1    4    4    0    0  0.31467232767E-01  0.41935691429E-01 -0.82729717787E-01  0.97945169762E-01  0.51100000000E-03 0. -1.
</event>
<event>
 8    1  0.1145101E+005  0.1043930E+01  0.7957747E-01            NaN
         13   -1    0    0    0    0  0.00000000000E+00  0.00000000000E+00  0.74505805969E-08  0.10566000000E+00  0.10566000000E+00 0.  1.
     999900   -1    0    0    0    0 -0.00000000000E+00 -0.00000000000E+00 -0.74505805969E-08  0.93827000000E+00  0.93827000000E+00 0. -1.
     999902    2    1    2    0    0  0.22238476687E-02  0.21855646821E-01  0.24632952187E-02  0.10218238330E+01  0.10215846823E+01 0.  0.
     999903    2    3    3    0    0  0.33073111691E-01  0.37886781976E-01  0.12161590257E+00  0.13311352124E+00  0.19988567065E-01 0.  0.
         14    1    1    2    0    0 -0.22238476687E-02 -0.21855646821E-01 -0.24632952187E-02  0.22106167007E-01  0.00000000000E+00 0.  1.
     999901    1    3    3    0    0 -0.30849264022E-01 -0.16031135156E-01 -0.11915260735E+00  0.88871031176E+00  0.88000000000E+00 0. -1.
        -11    1    4    4    0    0  0.24419012305E-01  0.21322541620E-01  0.54237627448E-01  0.63189558436E-01  0.51100000000E-03 0. -1.
         11    1    4    4    0    0  0.86540993862E-02  0.16564240356E-01  0.67378275118E-01  0.69923962800E-01  0.51100000000E-03 0.  1.
</event>
<event>
 8    1  0.1145101E+005  0.1043930E+01  0.7957747E-01            NaN
         13   -1    0    0    0    0  0.00000000000E+00  0.00000000000E+00  0.74505805969E-08  0.10566000000E+00  0.10566000000E+00 0. -1.
     999900   -1    0    0    0    0 -0.00000000000E+00 -0.00000000000E+00 -0.74505805969E-08  0.93827000000E+00  0.93827000000E+00 0.  1.
     999902    2    1    2    0    0 -0.10070527253E-01 -0.15937738679E-01  0.13813996577E-01  0.10205579326E+01  0.10202902725E+01 0.  0.
     999903    2    3    3    0    0  0.61934777050E-01  0.29392868513E-01 -0.10649635698E+00  0.12830560900E+00  0.20518233904E-01 0.  0.
         14    1    1    2    0    0  0.10070527253E-01  0.15937738679E-01 -0.13813996577E-01  0.23372067405E-01  0.00000000000E+00 0.  1.
     999901    1    3    3    0    0 -0.72005304303E-01 -0.45330607192E-01  0.12031035355E+00  0.89225232360E+00  0.88000000000E+00 0. -1.
        -11    1    4    4    0    0  0.86186093633E-02  0.53924578678E-02 -0.32137017263E-01  0.33710651563E-01  0.51100000000E-03 0. -1.
         11    1    4    4    0    0  0.53316167687E-01  0.24000410645E-01 -0.74359339715E-01  0.94594957433E-01  0.51100000000E-03 0.  1.
</event>
<event>
 8    1  0.1145101E+005  0.1043930E+01  0.7957747E-01            NaN
         13   -1    0    0    0    0  0.00000000000E+00  0.00000000000E+00  0.74505805969E-08  0.10566000000E+00  0.10566000000E+00 0. -1.
     999900   -1    0    0    0    0 -0.00000000000E+00 -0.00000000000E+00 -0.74505805969E-08  0.93827000000E+00  0.93827000000E+00 0.  1.
     999902    2    1    2    0    0 -0.18593083127E-01  0.10568110032E-01 -0.95586776760E-02  0.10205044582E+01  0.10202355577E+01 0.  0.
     999903    2    3    3    0    0  0.54834167395E-01  0.11406284560E+00 -0.28459455413E-01  0.13120138230E+00  0.19665794022E-01 0.  0.
         14    1    1    2    0    0  0.18593083127E-01 -0.10568110032E-01  0.95586776760E-02  0.23425541803E-01  0.00000000000E+00 0. -1.
     999901    1    3    3    0    0 -0.73427250522E-01 -0.10349473556E+00  0.18900777737E-01  0.88930307590E+00  0.88000000000E+00 0.  1.
        -11    1    4    4    0    0  0.19454893224E-01  0.48866845612E-01 -0.21043665446E-01  0.56652965031E-01  0.51100000000E-03 0.  1.
         11    1    4    4    0    0  0.35379274171E-01  0.65195999984E-01 -0.74157899664E-02  0.74548417264E-01  0.51100000000E-03 0. -1.
</event>
<event>
 8    1  0.1145101E+005  0.1043930E+01  0.7957747E-01            NaN
         13   -1    0    0    0    0  0.00000000000E+00  0.00000000000E+00  0.74505805969E-08  0.10566000000E+00  0.10566000000E+00 0.  1.
     999900   -1    0    0    0    0 -0.00000000000E+00 -0.00000000000E+00 -0.74505805969E-08  0.93827000000E+00  0.93827000000E+00 0.  1.
     999902    2    1    2    0    0  0.59426652383E-02  0.32526818300E-02 -0.22543652984E-01  0.10203904270E+01  0.10201188715E+01 0.  0.
     999903    2    3    3    0    0  0.66286658289E-01  0.13852636501E-02  0.10842139344E+00  0.12865238912E+00  0.20009963685E-01 0.  0.
         14    1    1    2    0    0 -0.59426652383E-02 -0.32526818300E-02  0.22543652984E-01  0.23539573044E-01  0.00000000000E+00 0.  1.
     999901    1    3    3    0    0 -0.60343993050E-01  0.18674181798E-02 -0.13096504643E+00  0.89173803784E+00  0.88000000000E+00 0.  1.
        -11    1    4    4    0    0  0.27155476312E-01 -0.88174261162E-02  0.39490658161E-01  0.48733357160E-01  0.51100000000E-03 0. -1.
         11    1    4    4    0    0  0.39131181977E-01  0.10202689766E-01  0.68930735280E-01  0.79919031955E-01  0.51100000000E-03 0.  1.
</event>
<event>
 8    1  0.1145101E+005  0.1043930E+01  0.7957747E-01            NaN
         13   -1    0    0    0    0  0.00000000000E+00  0.00000000000E+00  0.74505805969E-08  0.10566000000E+00  0.10566000000E+00 0.  1.
     999900   -1    0    0    0    0 -0.00000000000E+00 -0.00000000000E+00 -0.74505805969E-08  0.93827000000E+00  0.93827000000E+00 0. -1.
     999902    2    1    2    0    0  0.31570962333E-02 -0.11809667439E-01  0.19620245325E-01  0.10208131333E+01  0.10205513527E+01 0.  0.
     999903    2    3    3    0    0 -0.11491906825E+00 -0.68645028266E-02 -0.54848407545E-01  0.12979572852E+00  0.24188213776E-01 0.  0.
         14    1    1    2    0    0 -0.31570962333E-02  0.11809667439E-01 -0.19620245325E-01  0.23116866748E-01  0.00000000000E+00 0. -1.
     999901    1    3    3    0    0  0.11807616448E+00 -0.49451646121E-02  0.74468652870E-01  0.89101740473E+00  0.88000000000E+00 0.  1.
        -11    1    4    4    0    0 -0.30080647226E-01  0.15458551757E-02 -0.25994617570E-01  0.39789650279E-01  0.51100000000E-03 0. -1.
         11    1    4    4    0    0 -0.84838421024E-01 -0.84103580023E-02 -0.28853789975E-01  0.90006078242E-01  0.51100000000E-03 0.  1.
</event>
<event>
 8    1  0.1145101E+005  0.1043930E+01  0.7957747E-01            NaN
         13   -1    0    0    0    0  0.00000000000E+00  0.00000000000E+00  0.74505805969E-08  0.10566000000E+00  0.10566000000E+00 0.  1.
     999900   -1    0    0    0    0 -0.00000000000E+00 -0.00000000000E+00 -0.74505805969E-08  0.93827000000E+00  0.93827000000E+00 0. -1.
     999902    2    1    2    0    0  0.48422759358E-02  0.11432930074E-01 -0.18326491964E-01  0.10217936084E+01  0.10215537961E+01 0.  0.
     999903    2    3    3    0    0 -0.28644207746E-01 -0.86167521209E-01  0.89747037516E-01  0.12919791017E+00  0.19804971635E-01 0.  0.
         14    1    1    2    0    0 -0.48422759358E-02 -0.11432930074E-01  0.18326491964E-01  0.22136391621E-01  0.00000000000E+00 0.  1.
     999901    1    3    3    0    0  0.33486483681E-01  0.97600451283E-01 -0.10807352948E+00  0.89259569821E+00  0.88000000000E+00 0. -1.
        -11    1    4    4    0    0 -0.20493296649E-02 -0.36366893808E-01  0.33116437861E-01  0.49231192297E-01  0.51100000000E-03 0.  1.
         11    1    4    4    0    0 -0.26594878081E-01 -0.49800627401E-01  0.56630599655E-01  0.79966717877E-01  0.51100000000E-03 0. -1.
</event>
<event>
 8    1  0.1145101E+005  0.1043930E+01  0.7957747E-01            NaN
         13   -1    0    0    0    0  0.00000000000E+00  0.00000000000E+00  0.74505805969E-08  0.10566000000E+00  0.10566000000E+00 0. -1.
     999900   -1    0    0    0    0 -0.00000000000E+00 -0.00000000000E+00 -0.74505805969E-08  0.93827000000E+00  0.93827000000E+00 0. -1.
     999902    2    1    2    0    0  0.86128050000E-02 -0.20645346709E-01 -0.78718307926E-02  0.10202155219E+01  0.10199398682E+01 0.  0.
     999903    2    3    3    0    0  0.11330548444E+00 -0.48527823142E-01 -0.44861738602E-01  0.13280003698E+00  0.20741065744E-01 0.  0.
         14    1    1    2    0    0 -0.86128050000E-02  0.20645346709E-01  0.78718307926E-02  0.23714478083E-01  0.00000000000E+00 0. -1.
     999901    1    3    3    0    0 -0.10469267944E+00  0.27882476432E-01  0.36989907809E-01  0.88741548493E+00  0.88000000000E+00 0.  1.
        -11    1    4    4    0    0  0.91128100463E-01 -0.47530714324E-01 -0.37437223280E-01  0.10938604256E+00  0.51100000000E-03 0.  1.
         11    1    4    4    0    0  0.22177383982E-01 -0.99710881783E-03 -0.74245153219E-02  0.23413994427E-01  0.51100000000E-03 0. -1.
</event>
<event>
 8    1  0.1145101E+005  0.1043930E+01  0.7957747E-01            NaN
         13   -1    0    0    0    0  0.00000000000E+00  0.00000000000E+00  0.74505805969E-08  0.10566000000E+00  0.10566000000E+00 0.  1.
     999900   -1    0    0    0    0 -0.00000000000E+00 -0.00000000000E+00 -0.74505805969E-08  0.93827000000E+00  0.93827000000E+00 0. -1.
     999902    2    1    2    0    0 -0.46008544677E-02 -0.19767506658E-01 -0.10227514436E-01  0.10212028305E+01  0.10209498993E+01 0.  0.
     999903    2    3    3    0    0  0.91940877513E-02 -0.12661351632E+00  0.35849279410E-01  0.13343628398E+00  0.20113609436E-01 0.  0.
         14    1    1    2    0    0  0.46008544677E-02  0.19767506658E-01  0.10227514436E-01  0.22727169486E-01  0.00000000000E+00 0. -1.
     999901    1    3    3    0    0 -0.13794942219E-01  0.10684600966E+00 -0.46076793846E-01  0.88776654653E+00  0.88000000000E+00 0. -1.
        -11    1    4    4    0    0 -0.55526792455E-02 -0.50273799384E-01  0.17737889291E-01  0.53602061423E-01  0.51100000000E-03 0.  1.
         11    1    4    4    0    0  0.14746766997E-01 -0.76339716934E-01  0.18111390119E-01  0.79834222558E-01  0.51100000000E-03 0. -1.
</event>
<event>
 8    1  0.1145101E+005  0.1043930E+01  0.7957747E-01            NaN
         13   -1    0    0    0    0  0.00000000000E+00  0.00000000000E+00  0.74505805969E-08  0.10566000000E+00  0.10566000000E+00 0.  1.
     999900   -1    0    0    0    0 -0.00000000000E+00 -0.00000000000E+00 -0.74505805969E-08  0.93827000000E+00  0.93827000000E+00 0.  1.
     999902    2    1    2    0    0 -0.15443565844E-02  0.20228623130E-01  0.80737229812E-02  0.10220949998E+01  0.10218617428E+01 0.  0.
     999903    2    3    3    0    0  0.54894126797E-01 -0.72054056978E-01  0.92936010394E-01  0.13141941168E+00  0.20707666537E-01 0.  0.
         14    1    1    2    0    0  0.15443565844E-02 -0.20228623130E-01 -0.80737229812E-02  0.21835000201E-01  0.00000000000E+00 0.  1.
     999901    1    3    3    0    0 -0.56438483382E-01  0.92282680108E-01 -0.84862287413E-01  0.89067558812E+00  0.88000000000E+00 0.  1.
        -11    1    4    4    0    0  0.35816772033E-01 -0.60713754908E-01  0.74480212662E-01  0.10255030177E+00  0.51100000000E-03 0.  1.
         11    1    4    4    0    0  0.19077354764E-01 -0.11340302070E-01  0.18455797732E-01  0.28869109906E-01  0.51100000000E-03 0. -1.
</event>
<event>
 7    1  0.1145101E+005  0.1043930E+01  0.7957747E-01            NaN
         13   -1    0    0    0    0  0.00000000000E+00  0.00000000000E+00  0.74505805969E-08  0.10566000000E+00  0.10566000000E+00 0. -1.
     999900   -1    0    0    0    0 -0.00000000000E+00 -0.00000000000E+00 -0.74505805969E-08  0.93827000000E+00  0.93827000000E+00 0. -1.
     999903    2    1    2    0    0  0.94808889230E-01  0.99982382880E-02 -0.52258412605E-01  0.11046916328E+00  0.19590918878E-01 0.  0.
         14    1    1    2    0    0  0.29917968332E-01  0.11405635413E-01 -0.25615470368E-01  0.41003971398E-01  0.00000000000E+00 0. -1.
     999901    1    1    2    0    0 -0.12472685756E+00 -0.21403873701E-01  0.77873882973E-01  0.89245686532E+00  0.88000000000E+00 0.  1.
        -11    1    3    3    0    0  0.13154370074E-01  0.16641756539E-02 -0.15864756029E-01  0.20682324277E-01  0.51100000000E-03 0.  1.
         11    1    3    3    0    0  0.81654519156E-01  0.83340626341E-02 -0.36393656576E-01  0.89786839005E-01  0.51100000000E-03 0. -1.
</event>
<event>
 8    1  0.1145101E+005  0.1043930E+01  0.7957747E-01            NaN
         13   -1    0    0    0    0  0.00000000000E+00  0.00000000000E+00  0.74505805969E-08  0.10566000000E+00  0.10566000000E+00 0.  1.
     999900   -1    0    0    0    0 -0.00000000000E+00 -0.00000000000E+00 -0.74505805969E-08  0.93827000000E+00  0.93827000000E+00 0. -1.
     999902    2    1    2    0    0 -0.89634928436E-03 -0.99893461385E-02  0.19732419403E-01  0.10217949858E+01  0.10215552037E+01 0.  0.
     999903    2    3    3    0    0 -0.27638784665E-01  0.12544495862E+00  0.15854958555E-01  0.13102417158E+00  0.20386607511E-01 0.  0.
         14    1    1    2    0    0  0.89634928436E-03  0.99893461385E-02 -0.19732419403E-01  0.22135014204E-01  0.00000000000E+00 0. -1.
     999901    1    3    3    0    0  0.26742435380E-01 -0.13543430476E+00  0.38774608476E-02  0.89077081422E+00  0.88000000000E+00 0.  1.
        -11    1    4    4    0    0 -0.55497551085E-02  0.44726708827E-01  0.14423906458E-01  0.47324290409E-01  0.51100000000E-03 0. -1.
         11    1    4    4    0    0 -0.22089029556E-01  0.80718249797E-01  0.14310520970E-02  0.83699881171E-01  0.51100000000E-03 0.  1.
</event>
<event>
 8    1  0.1208774E+005  0.1043930E+01  0.7957747E-01            NaN
         13   -1    0    0    0    0  0.00000000000E+00  0.00000000000E+00  0.74505805969E-08  0.10566000000E+00  0.10566000000E+00 0.  1.
     999900   -1    0    0    0    0 -0.00000000000E+00 -0.00000000000E+00 -0.74505805969E-08  0.93827000000E+00  0.93827000000E+00 0. -1.
     999902    2    1    2    0    0 -0.34810607781E-03  0.27132557835E-02  0.26877081986E-01  0.10169140701E+01  0.10165551463E+01 0.  0.
     999903    2    3    3    0    0  0.10729609024E-01  0.12720284259E-01 -0.12200298050E+00  0.12428417508E+00  0.16878944969E-01 0.  0.
         14    1    1    2    0    0  0.34810607781E-03 -0.27132557835E-02 -0.26877081986E-01  0.27015929946E-01  0.00000000000E+00 0. -1.
     999901    1    3    3    0    0 -0.11077715102E-01 -0.10007028476E-01  0.14888006249E+00  0.89262989497E+00  0.88000000000E+00 0.  1.
        -11    1    4    4    0    0 -0.14434631180E-02  0.26972881686E-04 -0.54636993429E-01  0.54658453008E-01  0.51100000000E-03 0.  1.
         11    1    4    4    0    0  0.12173072142E-01  0.12693311378E-01 -0.67365987073E-01  0.69625722074E-01  0.51100000000E-03 0. -1.
</event>
<event>
 8    1  0.1145101E+005  0.1043930E+01  0.7957747E-01            NaN
         13   -1    0    0    0    0  0.00000000000E+00  0.00000000000E+00  0.74505805969E-08  0.10566000000E+00  0.10566000000E+00 0. -1.
     999900   -1    0    0    0    0 -0.00000000000E+00 -0.00000000000E+00 -0.74505805969E-08  0.93827000000E+00  0.93827000000E+00 0. -1.
     999902    2    1    2    0    0 -0.70112591422E-02 -0.17858135971E-01  0.10082284733E-01  0.10222569005E+01  0.10220271266E+01 0.  0.
     999903    2    3    3    0    0  0.59549744508E-01  0.97372880918E-01  0.61283570510E-01  0.13078052613E+00  0.17894691668E-01 0.  0.
         14    1    1    2    0    0  0.70112591422E-02  0.17858135971E-01 -0.10082284733E-01  0.21673099468E-01  0.00000000000E+00 0.  1.
     999901    1    3    3    0    0 -0.66561003650E-01 -0.11523101689E+00 -0.51201285777E-01  0.89147637441E+00  0.88000000000E+00 0. -1.
        -11    1    4    4    0    0  0.39247433956E-01  0.78504754118E-01  0.45060309245E-01  0.98661289681E-01  0.51100000000E-03 0. -1.
         11    1    4    4    0    0  0.20302310551E-01  0.18868126800E-01  0.16223261265E-01  0.32119236444E-01  0.51100000000E-03 0.  1.
</event>
<event>
 8    1  0.1145101E+005  0.1043930E+01  0.7957747E-01            NaN
         13   -1    0    0    0    0  0.00000000000E+00  0.00000000000E+00  0.74505805969E-08  0.10566000000E+00  0.10566000000E+00 0.  1.
     999900   -1    0    0    0    0 -0.00000000000E+00 -0.00000000000E+00 -0.74505805969E-08  0.93827000000E+00  0.93827000000E+00 0. -1.
     999902    2    1    2    0    0 -0.14565025393E-01  0.90477982550E-02 -0.16509991361E-01  0.10201270079E+01  0.10198492682E+01 0.  0.
     999903    2    3    3    0    0 -0.11137178133E+00  0.52268323741E-01 -0.47249047553E-01  0.13323104366E+00  0.19554722094E-01 0.  0.
         14    1    1    2    0    0  0.14565025393E-01 -0.90477982550E-02  0.16509991361E-01  0.23802992096E-01  0.00000000000E+00 0.  1.
     999901    1    3    3    0    0  0.96806755939E-01 -0.43220525486E-01  0.30739056192E-01  0.88689596425E+00  0.88000000000E+00 0. -1.
        -11    1    4    4    0    0 -0.15059275140E-01  0.14712149965E-01 -0.10358147755E-01  0.23468733887E-01  0.51100000000E-03 0.  1.
         11    1    4    4    0    0 -0.96312506192E-01  0.37556173775E-01 -0.36890899797E-01  0.10976230977E+00  0.51100000000E-03 0. -1.
</event>
<event>
 8    1  0.1145101E+005  0.1043930E+01  0.7957747E-01            NaN
         13   -1    0    0    0    0  0.00000000000E+00  0.00000000000E+00  0.74505805969E-08  0.10566000000E+00  0.10566000000E+00 0. -1.
     999900   -1    0    0    0    0 -0.00000000000E+00 -0.00000000000E+00 -0.74505805969E-08  0.93827000000E+00  0.93827000000E+00 0. -1.
     999902    2    1    2    0    0 -0.16667272846E-02 -0.23840481465E-01 -0.19590136493E-03  0.10200305248E+01  0.10197505022E+01 0.  0.
     999903    2    3    3    0    0  0.99709347641E-01  0.74674555185E-01 -0.24326902792E-01  0.12842263666E+00  0.19553317035E-01 0.  0.
         14    1    1    2    0    0  0.16667272846E-02  0.23840481465E-01  0.19590136493E-03  0.23899475176E-01  0.00000000000E+00 0. -1.
     999901    1    3    3    0    0 -0.10137607493E+00 -0.98515036650E-01  0.24131001427E-01  0.89160788817E+00  0.88000000000E+00 0.  1.
        -11    1    4    4    0    0  0.14263331177E-01  0.16009304366E-01 -0.10423336846E-01  0.23846331260E-01  0.51100000000E-03 0. -1.
         11    1    4    4    0    0  0.85446016464E-01  0.58665250819E-01 -0.13903565946E-01  0.10457630540E+00  0.51100000000E-03 0.  1.
</event>
<event>
 8    1  0.1145101E+005  0.1043930E+01  0.7957747E-01            NaN
         13   -1    0    0    0    0  0.00000000000E+00  0.00000000000E+00  0.74505805969E-08  0.10566000000E+00  0.10566000000E+00 0. -1.
     999900   -1    0    0    0    0 -0.00000000000E+00 -0.00000000000E+00 -0.74505805969E-08  0.93827000000E+00  0.93827000000E+00 0.  1.
     999902    2    1    2    0    0  0.38555146060E-02  0.15349208276E-01  0.83746398869E-02  0.10260247555E+01  0.10258685106E+01 0.  0.
     999903    2    3    3    0    0 -0.88403986217E-01 -0.58322745848E-01 -0.79097662960E-01  0.13384160385E+00  0.20983974181E-01 0.  0.
         14    1    1    2    0    0 -0.38555146060E-02 -0.15349208276E-01 -0.83746398869E-02  0.17905244506E-01  0.00000000000E+00 0.  1.
     999901    1    3    3    0    0  0.92259500823E-01  0.73671954124E-01  0.87472302847E-01  0.89218315165E+00  0.88000000000E+00 0. -1.
        -11    1    4    4    0    0 -0.88615158936E-02 -0.54351063911E-03 -0.25796648954E-02  0.92594632522E-02  0.51100000000E-03 0.  1.
         11    1    4    4    0    0 -0.79542470324E-01 -0.57779235209E-01 -0.76517998065E-01  0.12458214060E+00  0.51100000000E-03 0. -1.
</event>
<event>
 8    1  0.1145101E+005  0.1043930E+01  0.7957747E-01            NaN
         13   -1    0    0    0    0  0.00000000000E+00  0.00000000000E+00  0.74505805969E-08  0.10566000000E+00  0.10566000000E+00 0. -1.
     999900   -1    0    0    0    0 -0.00000000000E+00 -0.00000000000E+00 -0.74505805969E-08  0.93827000000E+00  0.93827000000E+00 0.  1.
     999902    2    1    2    0    0 -0.18601469336E-01  0.91800781936E-02 -0.10763138190E-01  0.10205604976E+01  0.10202928970E+01 0.  0.
     999903    2    3    3    0    0  0.11951775880E+00  0.32366759454E-01  0.29220589718E-01  0.12858894996E+00  0.18686182084E-01 0.  0.
         14    1    1    2    0    0  0.18601469336E-01 -0.91800781936E-02  0.10763138190E-01  0.23369502365E-01  0.00000000000E+00 0.  1.
     999901    1    3    3    0    0 -0.13811922814E+00 -0.23186681260E-01 -0.39983727908E-01  0.89197154768E+00  0.88000000000E+00 0.  1.
        -11    1    4    4    0    0  0.83422561604E-01  0.25165949924E-01  0.12033866224E-01  0.87964332985E-01  0.51100000000E-03 0.  1.
         11    1    4    4    0    0  0.36095197198E-01  0.72008095299E-02  0.17186723494E-01  0.40624616972E-01  0.51100000000E-03 0. -1.
</event>
<event>
 8    1  0.1145101E+005  0.1043930E+01  0.7957747E-01            NaN
         13   -1    0    0    0    0  0.00000000000E+00  0.00000000000E+00  0.74505805969E-08  0.10566000000E+00  0.10566000000E+00 0.  1.
     999900   -1    0    0    0    0 -0.00000000000E+00 -0.00000000000E+00 -0.74505805969E-08  0.93827000000E+00  0.93827000000E+00 0.  1.
     999902    2    1    2    0    0 -0.11375997363E-01 -0.14687738777E-01 -0.13455473903E-01  0.10209911080E+01  0.10207333883E+01 0.  0.
     999903    2    3    3    0    0 -0.10174379291E+00  0.15327657340E-01 -0.82597754616E-01  0.13315783684E+00  0.17941125079E-01 0.  0.
         14    1    1    2    0    0  0.11375997363E-01  0.14687738777E-01  0.13455473903E-01  0.22938891960E-01  0.00000000000E+00 0.  1.
     999901    1    3    3    0    0  0.90367795542E-01 -0.30015396117E-01  0.69142280713E-01  0.88783327120E+00  0.88000000000E+00 0. -1.
        -11    1    4    4    0    0 -0.72310601553E-01  0.87957162578E-02 -0.47872490082E-01  0.87167793073E-01  0.51100000000E-03 0. -1.
         11    1    4    4    0    0 -0.29433191352E-01  0.65319410819E-02 -0.34725264533E-01  0.45990043764E-01  0.51100000000E-03 0.  1.
</event>
<event>
 8    1  0.1145101E+005  0.1043930E+01  0.7957747E-01            NaN
         13   -1    0    0    0    0  0.00000000000E+00  0.00000000000E+00  0.74505805969E-08  0.10566000000E+00  0.10566000000E+00 0. -1.
     999900   -1    0    0    0    0 -0.00000000000E+00 -0.00000000000E+00 -0.74505805969E-08  0.93827000000E+00  0.93827000000E+00 0.  1.
     999902    2    1    2    0    0 -0.41130868914E-02  0.12910991043E-02 -0.23921463925E-01  0.10196231932E+01  0.10193334269E+01 0.  0.
     999903    2    3    3    0    0  0.10654602355E-01  0.12893039595E+00  0.61132741853E-02  0.12978502800E+00  0.83793687826E-02 0.  0.
         14    1    1    2    0    0  0.41130868914E-02 -0.12910991043E-02  0.23921463925E-01  0.24306806804E-01  0.00000000000E+00 0. -1.
     999901    1    3    3    0    0 -0.14767689246E-01 -0.12763929684E+00 -0.30034738111E-01  0.88983816520E+00  0.88000000000E+00 0.  1.
        -11    1    4    4    0    0  0.45840045818E-02  0.25356161814E-01  0.34071913436E-02  0.25996501953E-01  0.51100000000E-03 0.  1.
         11    1    4    4    0    0  0.60705977732E-02  0.10357423413E+00  0.27060828417E-02  0.10378852605E+00  0.51100000000E-03 0. -1.
</event>
<event>
 7    1  0.1145101E+005  0.1043930E+01  0.7957747E-01            NaN
         13   -1    0    0    0    0  0.00000000000E+00  0.00000000000E+00  0.74505805969E-08  0.10566000000E+00  0.10566000000E+00 0.  1.
     999900   -1    0    0    0    0 -0.00000000000E+00 -0.00000000000E+00 -0.74505805969E-08  0.93827000000E+00  0.93827000000E+00 0. -1.
     999903    2    1    2    0    0  0.27804198193E-01  0.93801424451E-01  0.37840509685E-01  0.10573401560E+00  0.13266394233E-01 0.  0.
         14    1    1    2    0    0  0.35419637793E-01  0.30131241344E-01 -0.20464140344E-02  0.46547075706E-01  0.00000000000E+00 0.  1.
     999901    1    1    2    0    0 -0.63223835986E-01 -0.12393266580E+00 -0.35794095651E-01  0.89164890869E+00  0.88000000000E+00 0. -1.
        -11    1    3    3    0    0  0.72858531628E-02  0.46358057527E-01  0.15536626920E-01  0.49434816183E-01  0.51100000000E-03 0.  1.
         11    1    3    3    0    0  0.20518345030E-01  0.47443366924E-01  0.22303882765E-01  0.56299199420E-01  0.51100000000E-03 0. -1.
</event>
<event>
 8    1  0.1145101E+005  0.1043930E+01  0.7957747E-01            NaN
         13   -1    0    0    0    0  0.00000000000E+00  0.00000000000E+00  0.74505805969E-08  0.10566000000E+00  0.10566000000E+00 0.  1.
     999900   -1    0    0    0    0 -0.00000000000E+00 -0.00000000000E+00 -0.74505805969E-08  0.93827000000E+00  0.93827000000E+00 0. -1.
     999902    2    1    2    0    0  0.20383500111E-01  0.10810334440E-01  0.19595475338E-02  0.10207742181E+01  0.10205115453E+01 0.  0.
     999903    2    3    3    0    0 -0.12452167947E+00  0.25405618856E-01  0.16912365448E-01  0.12867886439E+00  0.11005812533E-01 0.  0.
         14    1    1    2    0    0 -0.20383500111E-01 -0.10810334440E-01 -0.19595475338E-02  0.23155781870E-01  0.00000000000E+00 0. -1.
     999901    1    3    3    0    0  0.14490517958E+00 -0.14595284416E-01 -0.14952817914E-01  0.89209535374E+00  0.88000000000E+00 0. -1.
        -11    1    4    4    0    0 -0.42076105711E-01  0.37104255300E-02  0.36535850646E-02  0.42400185545E-01  0.51100000000E-03 0. -1.
         11    1    4    4    0    0 -0.82445573756E-01  0.21695193326E-01  0.13258780383E-01  0.86278678848E-01  0.51100000000E-03 0.  1.
</event>
<event>
 8    1  0.1145101E+005  0.1043930E+01  0.7957747E-01            NaN
         13   -1    0    0    0    0  0.00000000000E+00  0.00000000000E+00  0.74505805969E-08  0.10566000000E+00  0.10566000000E+00 0. -1.
     999900   -1    0    0    0    0 -0.00000000000E+00 -0.00000000000E+00 -0.74505805969E-08  0.93827000000E+00  0.93827000000E+00 0.  1.
     999902    2    1    2    0    0 -0.13517286292E-01  0.14663470049E-01  0.10261749999E-01  0.10215014937E+01  0.10212552393E+01 0.  0.
     999903    2    3    3    0    0 -0.55853436002E-01 -0.11057189229E-01 -0.11630177278E+00  0.13106776387E+00  0.20267921141E-01 0.  0.
         14    1    1    2    0    0  0.13517286292E-01 -0.14663470049E-01 -0.10261749999E-01  0.22428506317E-01  0.00000000000E+00 0. -1.
     999901    1    3    3    0    0  0.42336149709E-01  0.25720659278E-01  0.12656352278E+00  0.89043372981E+00  0.88000000000E+00 0. -1.
        -11    1    4    4    0    0 -0.34374616758E-01 -0.10059039784E-01 -0.51053699167E-01  0.62366175754E-01  0.51100000000E-03 0.  1.
         11    1    4    4    0    0 -0.21478819244E-01 -0.99814944557E-03 -0.65248073615E-01  0.68701588118E-01  0.51100000000E-03 0. -1.
</event>
<event>
 8    1  0.1145101E+005  0.1043930E+01  0.7957747E-01            NaN
         13   -1    0    0    0    0  0.00000000000E+00  0.00000000000E+00  0.74505805969E-08  0.10566000000E+00  0.10566000000E+00 0. -1.
     999900   -1    0    0    0    0 -0.00000000000E+00 -0.00000000000E+00 -0.74505805969E-08  0.93827000000E+00  0.93827000000E+00 0.  1.
     999902    2    1    2    0    0  0.21358475491E-01 -0.86474100943E-02  0.56207119544E-02  0.10202117669E+01  0.10199360249E+01 0.  0.
     999903    2    3    3    0    0 -0.48483259956E-01  0.14836504737E-02  0.11913663848E+00  0.13011830445E+00  0.19606295109E-01 0.  0.
         14    1    1    2    0    0 -0.21358475491E-01  0.86474100943E-02 -0.56207119544E-02  0.23718233060E-01  0.00000000000E+00 0.  1.
     999901    1    3    3    0    0  0.69841735447E-01 -0.10131060568E-01 -0.11351592653E+00  0.89009346249E+00  0.88000000000E+00 0.  1.
        -11    1    4    4    0    0 -0.25705298402E-01  0.52328016548E-02  0.41303904104E-01  0.48932792628E-01  0.51100000000E-03 0. -1.
         11    1    4    4    0    0 -0.22777961554E-01 -0.37491511811E-02  0.77832734380E-01  0.81185511818E-01  0.51100000000E-03 0.  1.
</event>
<event>
 8    1  0.1145101E+005  0.1043930E+01  0.7957747E-01            NaN
         13   -1    0    0    0    0  0.00000000000E+00  0.00000000000E+00  0.74505805969E-08  0.10566000000E+00  0.10566000000E+00 0.  1.
     999900   -1    0    0    0    0 -0.00000000000E+00 -0.00000000000E+00 -0.74505805969E-08  0.93827000000E+00  0.93827000000E+00 0. -1.
     999902    2    1    2    0    0 -0.11354478978E-01 -0.97268496657E-02  0.18088837111E-01  0.10204621108E+01  0.10201922258E+01 0.  0.
     999903    2    3    3    0    0 -0.79536133875E-01  0.28505531119E-01 -0.96297027253E-01  0.12962285536E+00  0.19758675986E-01 0.  0.
         14    1    1    2    0    0  0.11354478978E-01  0.97268496657E-02 -0.18088837111E-01  0.23467889239E-01  0.00000000000E+00 0. -1.
     999901    1    3    3    0    0  0.68181654897E-01 -0.38232380784E-01  0.11438586436E+00  0.89083925541E+00  0.88000000000E+00 0.  1.
        -11    1    4    4    0    0 -0.15289590483E-01  0.10229955873E-01 -0.11596563176E-01  0.21752355569E-01  0.51100000000E-03 0.  1.
         11    1    4    4    0    0 -0.64246543392E-01  0.18275575245E-01 -0.84700464077E-01  0.10787049979E+00  0.51100000000E-03 0. -1.
</event>
<event>
 8    1  0.1145101E+005  0.1043930E+01  0.7957747E-01            NaN
         13   -1    0    0    0    0  0.00000000000E+00  0.00000000000E+00  0.74505805969E-08  0.10566000000E+00  0.10566000000E+00 0. -1.
     999900   -1    0    0    0    0 -0.00000000000E+00 -0.00000000000E+00 -0.74505805969E-08  0.93827000000E+00  0.93827000000E+00 0.  1.
     999902    2    1    2    0    0  0.36978848126E-02 -0.23134587001E-01  0.42705562871E-02  0.10201156951E+01  0.10198376882E+01 0.  0.
     999903    2    3    3    0    0  0.54821246109E-01  0.44879546205E-01 -0.10630090810E+00  0.12912435442E+00  0.18806199776E-01 0.  0.
         14    1    1    2    0    0 -0.36978848126E-02  0.23134587001E-01 -0.42705562871E-02  0.23814304920E-01  0.00000000000E+00 0.  1.
     999901    1    3    3    0    0 -0.51123361297E-01 -0.68014133207E-01  0.11057146439E+00  0.89099134066E+00  0.88000000000E+00 0. -1.
        -11    1    4    4    0    0  0.35100863135E-01  0.31872372287E-01 -0.54825240979E-01  0.72484390578E-01  0.51100000000E-03 0.  1.
         11    1    4    4    0    0  0.19720382975E-01  0.13007173919E-01 -0.51475667121E-01  0.56639963847E-01  0.51100000000E-03 0. -1.
</event>
<event>
 8    1  0.1145101E+005  0.1043930E+01  0.7957747E-01            NaN
         13   -1    0    0    0    0  0.00000000000E+00  0.00000000000E+00  0.74505805969E-08  0.10566000000E+00  0.10566000000E+00 0. -1.
     999900   -1    0    0    0    0 -0.00000000000E+00 -0.00000000000E+00 -0.74505805969E-08  0.93827000000E+00  0.93827000000E+00 0. -1.
     999902    2    1    2    0    0  0.73350241168E-02 -0.20233102453E-01 -0.78511971707E-02  0.10210209994E+01  0.10207639584E+01 0.  0.
     999903    2    3    3    0    0 -0.94727522144E-03 -0.85325374298E-01 -0.10073024399E+00  0.13370362790E+00  0.21183985235E-01 0.  0.
         14    1    1    2    0    0 -0.73350241168E-02  0.20233102453E-01  0.78511971707E-02  0.22909000648E-01  0.00000000000E+00 0. -1.
     999901    1    3    3    0    0  0.82822993383E-02  0.65092271844E-01  0.92879046821E-01  0.88731737145E+00  0.88000000000E+00 0. -1.
        -11    1    4    4    0    0 -0.31168453980E-02 -0.41267047632E-01 -0.33281503572E-01  0.53109354605E-01  0.51100000000E-03 0. -1.
         11    1    4    4    0    0  0.21695701766E-02 -0.44058326666E-01 -0.67448740420E-01  0.80594273299E-01  0.51100000000E-03 0.  1.
</event>
<event>
 7    1  0.1145101E+005  0.1043930E+01  0.7957747E-01            NaN
         13   -1    0    0    0    0  0.00000000000E+00  0.00000000000E+00  0.74505805969E-08  0.10566000000E+00  0.10566000000E+00 0. -1.
     999900   -1    0    0    0    0 -0.00000000000E+00 -0.00000000000E+00 -0.74505805969E-08  0.93827000000E+00  0.93827000000E+00 0. -1.
     999903    2    1    2    0    0 -0.12033886552E-01  0.79546287050E-01 -0.79960212787E-01  0.11459799720E+00  0.16329088302E-01 0.  0.
         14    1    1    2    0    0 -0.32884650833E-02 -0.20536950893E-01 -0.34035502758E-01  0.39887288734E-01  0.00000000000E+00 0.  1.
     999901    1    1    2    0    0  0.15322351635E-01 -0.59009336157E-01  0.11399571554E+00  0.88944471406E+00  0.88000000000E+00 0.  1.
        -11    1    3    3    0    0 -0.15380625767E-01  0.60192455431E-01 -0.56294618126E-01  0.83839373153E-01  0.51100000000E-03 0.  1.
         11    1    3    3    0    0  0.33467392146E-02  0.19353831619E-01 -0.23665594661E-01  0.30758624049E-01  0.51100000000E-03 0. -1.
</event>
<event>
 8    1  0.1145101E+005  0.1043930E+01  0.7957747E-01            NaN
         13   -1    0    0    0    0  0.00000000000E+00  0.00000000000E+00  0.74505805969E-08  0.10566000000E+00  0.10566000000E+00 0. -1.
     999900   -1    0    0    0    0 -0.00000000000E+00 -0.00000000000E+00 -0.74505805969E-08  0.93827000000E+00  0.93827000000E+00 0.  1.
     999902    2    1    2    0    0  0.15621254384E-01 -0.10787993992E-01 -0.13930596345E-01  0.10203829000E+01  0.10201111688E+01 0.  0.
     999903    2    3    3    0    0  0.73543019384E-01 -0.87852727794E-01  0.61872331752E-01  0.13187854552E+00  0.20906646105E-01 0.  0.
         14    1    1    2    0    0 -0.15621254384E-01  0.10787993992E-01  0.13930596345E-01  0.23547099979E-01  0.00000000000E+00 0. -1.
     999901    1    3    3    0    0 -0.57921765001E-01  0.77064733803E-01 -0.75802928097E-01  0.88850435450E+00  0.88000000000E+00 0.  1.
        -11    1    4    4    0    0  0.67732913937E-01 -0.80400529524E-01  0.49226842145E-01  0.11608417587E+00  0.51100000000E-03 0.  1.
         11    1    4    4    0    0  0.58101054468E-02 -0.74521982704E-02  0.12645489608E-01  0.15794369655E-01  0.51100000000E-03 0. -1.
</event>
<event>
 8    1  0.1145101E+005  0.1043930E+01  0.7957747E-01            NaN
         13   -1    0    0    0    0  0.00000000000E+00  0.00000000000E+00  0.74505805969E-08  0.10566000000E+00  0.10566000000E+00 0. -1.
     999900   -1    0    0    0    0 -0.00000000000E+00 -0.00000000000E+00 -0.74505805969E-08  0.93827000000E+00  0.93827000000E+00 0. -1.
     999902    2    1    2    0    0  0.39636868963E-02 -0.23163745783E-01 -0.17021209448E-02  0.10203680148E+01  0.10200959359E+01 0.  0.
     999903    2    3    3    0    0  0.14189389996E-01 -0.10914806894E+00  0.71856783717E-01  0.13306379338E+00  0.20686614040E-01 0.  0.
         14    1    1    2    0    0 -0.39636868963E-02  0.23163745783E-01  0.17021209448E-02  0.23561985235E-01  0.00000000000E+00 0. -1.
     999901    1    3    3    0    0 -0.10225703099E-01  0.85984323157E-01 -0.73558904662E-01  0.88730422139E+00  0.88000000000E+00 0. -1.
        -11    1    4    4    0    0  0.93865111965E-02 -0.48562175692E-01  0.20693560979E-01  0.53617870970E-01  0.51100000000E-03 0. -1.
         11    1    4    4    0    0  0.48028787991E-02 -0.60585893249E-01  0.51163222738E-01  0.79445922409E-01  0.51100000000E-03 0.  1.
</event>
<event>
 8    1  0.1145101E+005  0.1043930E+01  0.7957747E-01            NaN
         13   -1    0    0    0    0  0.00000000000E+00  0.00000000000E+00  0.74505805969E-08  0.10566000000E+00  0.10566000000E+00 0. -1.
     999900   -1    0    0    0    0 -0.00000000000E+00 -0.00000000000E+00 -0.74505805969E-08  0.93827000000E+00  0.93827000000E+00 0.  1.
     999902    2    1    2    0    0  0.18932479992E-01 -0.95962973566E-02 -0.10347490852E-01  0.10203164808E+01  0.10200431965E+01 0.  0.
     999903    2    3    3    0    0  0.42511052755E-01 -0.52540382545E-01  0.11046406883E+00  0.13071231237E+00  0.17768418590E-01 0.  0.
         14    1    1    2    0    0 -0.18932479992E-01  0.95962973566E-02  0.10347490852E-01  0.23613519190E-01  0.00000000000E+00 0. -1.
     999901    1    3    3    0    0 -0.23578572762E-01  0.42944085189E-01 -0.12081155968E+00  0.88960416844E+00  0.88000000000E+00 0.  1.
        -11    1    4    4    0    0  0.20316901607E-01 -0.31411198750E-01  0.75192527897E-01  0.83985815888E-01  0.51100000000E-03 0. -1.
         11    1    4    4    0    0  0.22194151147E-01 -0.21129183795E-01  0.35271540933E-01  0.46726496486E-01  0.51100000000E-03 0.  1.
</event>
<event>
 8    1  0.1145101E+005  0.1043930E+01  0.7957747E-01            NaN
         13   -1    0    0    0    0  0.00000000000E+00  0.00000000000E+00  0.74505805969E-08  0.10566000000E+00  0.10566000000E+00 0.  1.
     999900   -1    0    0    0    0 -0.00000000000E+00 -0.00000000000E+00 -0.74505805969E-08  0.93827000000E+00  0.93827000000E+00 0.  1.
     999902    2    1    2    0    0 -0.16982505545E-01 -0.82009266167E-02 -0.16051815944E-01  0.10191646717E+01  0.10188637330E+01 0.  0.
     999903    2    3    3    0    0  0.10911395717E+00 -0.64409003682E-01 -0.16143974874E-03  0.12825941864E+00  0.19901683401E-01 0.  0.
         14    1    1    2    0    0  0.16982505545E-01  0.82009266167E-02  0.16051815944E-01  0.24765328325E-01  0.00000000000E+00 0.  1.
     999901    1    3    3    0    0 -0.12609646271E+00  0.56208077065E-01 -0.15890376196E-01  0.89090525304E+00  0.88000000000E+00 0.  1.
        -11    1    4    4    0    0  0.93763006127E-01 -0.54361020769E-01 -0.71527799538E-02  0.10861880721E+00  0.51100000000E-03 0.  1.
         11    1    4    4    0    0  0.15350951040E-01 -0.10047982913E-01  0.69913402051E-02  0.19640611429E-01  0.51100000000E-03 0. -1.
</event>
<event>
 8    1  0.1145101E+005  0.1043930E+01  0.7957747E-01            NaN
         13   -1    0    0    0    0  0.00000000000E+00  0.00000000000E+00  0.74505805969E-08  0.10566000000E+00  0.10566000000E+00 0.  1.
     999900   -1    0    0    0    0 -0.00000000000E+00 -0.00000000000E+00 -0.74505805969E-08  0.93827000000E+00  0.93827000000E+00 0.  1.
     999902    2    1    2    0    0 -0.11151113010E-01  0.13825390819E-01 -0.91952739122E-02  0.10239289547E+01  0.10237335895E+01 0.  0.
     999903    2    3    3    0    0 -0.16266723840E-01  0.60028015058E-01 -0.11918312712E+00  0.13586466654E+00  0.19662678561E-01 0.  0.
         14    1    1    2    0    0  0.11151113010E-01 -0.13825390819E-01  0.91952739122E-02  0.20001045347E-01  0.00000000000E+00 0.  1.
     999901    1    3    3    0    0  0.51156108305E-02 -0.46202624239E-01  0.10998785321E+00  0.88806428811E+00  0.88000000000E+00 0. -1.
        -11    1    4    4    0    0 -0.20460436390E-01  0.54140661103E-01 -0.10339883469E+00  0.11849650112E+00  0.51100000000E-03 0.  1.
         11    1    4    4    0    0  0.41937125495E-02  0.58873539545E-02 -0.15784292432E-01  0.17368165422E-01  0.51100000000E-03 0. -1.
</event>
<event>
 8    1  0.1145101E+005  0.1043930E+01  0.7957747E-01            NaN
         13   -1    0    0    0    0  0.00000000000E+00  0.00000000000E+00  0.74505805969E-08  0.10566000000E+00  0.10566000000E+00 0.  1.
     999900   -1    0    0    0    0 -0.00000000000E+00 -0.00000000000E+00 -0.74505805969E-08  0.93827000000E+00  0.93827000000E+00 0. -1.
     999902    2    1    2    0    0 -0.17229994259E-01  0.16100388493E-01 -0.67677041778E-02  0.10193964101E+01  0.10191011451E+01 0.  0.
     999903    2    3    3    0    0 -0.12836795671E+00  0.69622342645E-02 -0.24248140124E-01  0.13218689813E+00  0.18936703010E-01 0.  0.
         14    1    1    2    0    0  0.17229994259E-01 -0.16100388493E-01  0.67677041778E-02  0.24533589864E-01  0.00000000000E+00 0.  1.
     999901    1    3    3    0    0  0.11113796245E+00  0.91381542280E-02  0.17480435946E-01  0.88720951201E+00  0.88000000000E+00 0.  1.
        -11    1    4    4    0    0 -0.11157929473E+00  0.13851673458E-02 -0.16252380517E-01  0.11276638991E+00  0.51100000000E-03 0.  1.
         11    1    4    4    0    0 -0.16788661983E-01  0.55770669187E-02 -0.79957596070E-02  0.19420508214E-01  0.51100000000E-03 0. -1.
</event>
<event>
 8    1  0.1145101E+005  0.1043930E+01  0.7957747E-01            NaN
         13   -1    0    0    0    0  0.00000000000E+00  0.00000000000E+00  0.74505805969E-08  0.10566000000E+00  0.10566000000E+00 0. -1.
     999900   -1    0    0    0    0 -0.00000000000E+00 -0.00000000000E+00 -0.74505805969E-08  0.93827000000E+00  0.93827000000E+00 0. -1.
     999902    2    1    2    0    0  0.11341873285E-01 -0.75339095894E-02 -0.13627724926E-01  0.10246657126E+01  0.10244846069E+01 0.  0.
     999903    2    3    3    0    0 -0.12717050398E+00 -0.74472173872E-02 -0.34692595474E-01  0.13358243087E+00  0.20319732457E-01 0.  0.
         14    1    1    2    0    0 -0.11341873285E-01  0.75339095894E-02  0.13627724926E-01  0.19264287424E-01  0.00000000000E+00 0. -1.
     999901    1    3    3    0    0  0.13851237726E+00 -0.86692202131E-04  0.21064870549E-01  0.89108328171E+00  0.88000000000E+00 0. -1.
        -11    1    4    4    0    0 -0.52670076832E-01 -0.12691552291E-01 -0.17576880090E-01  0.56959813269E-01  0.51100000000E-03 0. -1.
         11    1    4    4    0    0 -0.74500427145E-01  0.52443349039E-02 -0.17115715385E-01  0.76622617597E-01  0.51100000000E-03 0.  1.
</event>
<event>
 8    1  0.1145101E+005  0.1043930E+01  0.7957747E-01            NaN
         13   -1    0    0    0    0  0.00000000000E+00  0.00000000000E+00  0.74505805969E-08  0.10566000000E+00  0.10566000000E+00 0. -1.
     999900   -1    0    0    0    0 -0.00000000000E+00 -0.00000000000E+00 -0.74505805969E-08  0.93827000000E+00  0.93827000000E+00 0.  1.
     999902    2    1    2    0    0  0.20028985087E-01  0.12655097872E-01  0.75227075431E-03  0.10202260413E+01  0.10199506349E+01 0.  0.
     999903    2    3    3    0    0 -0.38661128226E-01  0.10044719430E+00 -0.71891847290E-01  0.13094028889E+00  0.19814133052E-01 0.  0.
         14    1    1    2    0    0 -0.20028985087E-01 -0.12655097872E-01 -0.75227075431E-03  0.23703958679E-01  0.00000000000E+00 0. -1.
     999901    1    3    3    0    0  0.58690113313E-01 -0.87792096429E-01  0.72644118044E-01  0.88928575243E+00  0.88000000000E+00 0. -1.
        -11    1    4    4    0    0 -0.46594404949E-02  0.37223411753E-01 -0.27767497373E-01  0.46675344665E-01  0.51100000000E-03 0. -1.
         11    1    4    4    0    0 -0.34001687731E-01  0.63223782547E-01 -0.44124349917E-01  0.84264944222E-01  0.51100000000E-03 0.  1.
</event>
<event>
 8    1  0.1145101E+005  0.1043930E+01  0.7957747E-01            NaN
         13   -1    0    0    0    0  0.00000000000E+00  0.00000000000E+00  0.74505805969E-08  0.10566000000E+00  0.10566000000E+00 0.  1.
     999900   -1    0    0    0    0 -0.00000000000E+00 -0.00000000000E+00 -0.74505805969E-08  0.93827000000E+00  0.93827000000E+00 0.  1.
     999902    2    1    2    0    0 -0.10200016817E-01 -0.20492725654E-01 -0.60840305721E-02  0.10202444015E+01  0.10199694266E+01 0.  0.
     999903    2    3    3    0    0  0.37672479328E-01 -0.91915575804E-01 -0.85379428708E-01  0.13250527340E+00  0.20007794941E-01 0.  0.
         14    1    1    2    0    0  0.10200016817E-01  0.20492725654E-01  0.60840305721E-02  0.23685598490E-01  0.00000000000E+00 0. -1.
     999901    1    3    3    0    0 -0.47872496145E-01  0.71422850150E-01  0.79295398136E-01  0.88773912811E+00  0.88000000000E+00 0. -1.
        -11    1    4    4    0    0  0.16207985876E-02 -0.13114184587E-01 -0.19888103045E-01  0.23883186327E-01  0.51100000000E-03 0. -1.
         11    1    4    4    0    0  0.36051680741E-01 -0.78801391218E-01 -0.65491325663E-01  0.10862208707E+00  0.51100000000E-03 0.  1.
</event>
<event>
 8    1  0.1145101E+005  0.1043930E+01  0.7957747E-01            NaN
         13   -1    0    0    0    0  0.00000000000E+00  0.00000000000E+00  0.74505805969E-08  0.10566000000E+00  0.10566000000E+00 0. -1.
     999900   -1    0    0    0    0 -0.00000000000E+00 -0.00000000000E+00 -0.74505805969E-08  0.93827000000E+00  0.93827000000E+00 0.  1.
     999902    2    1    2    0    0  0.45258283703E-02  0.10949035517E-01 -0.19499107364E-01  0.10211137845E+01  0.10208588449E+01 0.  0.
     999903    2    3    3    0    0  0.41949751424E-01  0.10216111471E+00 -0.72980513977E-01  0.13399459621E+00  0.20777906271E-01 0.  0.
         14    1    1    2    0    0 -0.45258283703E-02 -0.10949035517E-01  0.19499107364E-01  0.22816215488E-01  0.00000000000E+00 0. -1.
     999901    1    3    3    0    0 -0.37423923054E-01 -0.91212079192E-01  0.53481406613E-01  0.88711918831E+00  0.88000000000E+00 0. -1.
        -11    1    4    4    0    0  0.90872099270E-02  0.47960922097E-01 -0.28086091495E-01  0.56319775293E-01  0.51100000000E-03 0. -1.
         11    1    4    4    0    0  0.32862541497E-01  0.54200192612E-01 -0.44894422482E-01  0.77674820913E-01  0.51100000000E-03 0.  1.
</event>
<event>
 8    1  0.1145101E+005  0.1043930E+01  0.7957747E-01            NaN
         13   -1    0    0    0    0  0.00000000000E+00  0.00000000000E+00  0.74505805969E-08  0.10566000000E+00  0.10566000000E+00 0.  1.
     999900   -1    0    0    0    0 -0.00000000000E+00 -0.00000000000E+00 -0.74505805969E-08  0.93827000000E+00  0.93827000000E+00 0.  1.
     999902    2    1    2    0    0 -0.60161870220E-02  0.21845936662E-01  0.86253963888E-02  0.10196846516E+01  0.10193963664E+01 0.  0.
     999903    2    3    3    0    0  0.20044939775E-01  0.19199123836E-01 -0.12481217403E+00  0.12923994635E+00  0.18827612189E-01 0.  0.
         14    1    1    2    0    0  0.60161870220E-02 -0.21845936662E-01 -0.86253963888E-02  0.24245348374E-01  0.00000000000E+00 0. -1.
     999901    1    3    3    0    0 -0.26061126797E-01  0.26468128261E-02  0.13343757042E+00  0.89044470527E+00  0.88000000000E+00 0. -1.
        -11    1    4    4    0    0  0.75625553811E-02 -0.25121673882E-02 -0.40752211545E-01  0.41527185020E-01  0.51100000000E-03 0.  1.
         11    1    4    4    0    0  0.12482384394E-01  0.21711291224E-01 -0.84059962485E-01  0.87712761333E-01  0.51100000000E-03 0. -1.
</event>
<event>
 8    1  0.1145101E+005  0.1043930E+01  0.7957747E-01            NaN
         13   -1    0    0    0    0  0.00000000000E+00  0.00000000000E+00  0.74505805969E-08  0.10566000000E+00  0.10566000000E+00 0.  1.
     999900   -1    0    0    0    0 -0.00000000000E+00 -0.00000000000E+00 -0.74505805969E-08  0.93827000000E+00  0.93827000000E+00 0.  1.
     999902    2    1    2    0    0  0.18170742667E-01 -0.24128026648E-02  0.11802672656E-01  0.10221286104E+01  0.10218960787E+01 0.  0.
     999903    2    3    3    0    0  0.85508916227E-01  0.93174199178E-01 -0.36765070426E-01  0.13306723447E+00  0.19026621854E-01 0.  0.
         14    1    1    2    0    0 -0.18170742667E-01  0.24128026648E-02 -0.11802672656E-01  0.21801389580E-01  0.00000000000E+00 0. -1.
     999901    1    3    3    0    0 -0.67338173560E-01 -0.95587001843E-01  0.48567743083E-01  0.88906137595E+00  0.88000000000E+00 0. -1.
        -11    1    4    4    0    0  0.27811414221E-01  0.21739269100E-01 -0.16790140932E-01  0.39092717167E-01  0.51100000000E-03 0. -1.
         11    1    4    4    0    0  0.57697502006E-01  0.71434930078E-01 -0.19974929494E-01  0.93974517302E-01  0.51100000000E-03 0.  1.
</event>
<event>
 8    1  0.1145101E+005  0.1043930E+01  0.7957747E-01            NaN
         13   -1    0    0    0    0  0.00000000000E+00  0.00000000000E+00  0.74505805969E-08  0.10566000000E+00  0.10566000000E+00 0.  1.
     999900   -1    0    0    0    0 -0.00000000000E+00 -0.00000000000E+00 -0.74505805969E-08  0.93827000000E+00  0.93827000000E+00 0. -1.
     999902    2    1    2    0    0  0.36779845443E-02  0.79870724549E-02 -0.21385992229E-01  0.10208068177E+01  0.10205448924E+01 0.  0.
     999903    2    3    3    0    0 -0.10075743796E+00 -0.64547242336E-01  0.44572861797E-01  0.12922476610E+00  0.19846721821E-01 0.  0.
         14    1    1    2    0    0 -0.36779845443E-02 -0.79870724549E-02  0.21385992229E-01  0.23123182314E-01  0.00000000000E+00 0.  1.
     999901    1    3    3    0    0  0.10443542250E+00  0.72534314791E-01 -0.65958854025E-01  0.89158205159E+00  0.88000000000E+00 0. -1.
        -11    1    4    4    0    0 -0.13329422097E-01 -0.12501522916E-01  0.35867446298E-03  0.18285276510E-01  0.51100000000E-03 0. -1.
         11    1    4    4    0    0 -0.87428015859E-01 -0.52045719419E-01  0.44214187334E-01  0.11093948959E+00  0.51100000000E-03 0.  1.
</event>
<event>
 8    1  0.1145101E+005  0.1043930E+01  0.7957747E-01            NaN
         13   -1    0    0    0    0  0.00000000000E+00  0.00000000000E+00  0.74505805969E-08  0.10566000000E+00  0.10566000000E+00 0. -1.
     999900   -1    0    0    0    0 -0.00000000000E+00 -0.00000000000E+00 -0.74505805969E-08  0.93827000000E+00  0.93827000000E+00 0.  1.
     999902    2    1    2    0    0  0.48727386215E-02 -0.21931169253E-01  0.72496630041E-02  0.10203232768E+01  0.10200501516E+01 0.  0.
     999903    2    3    3    0    0 -0.12821463970E+00 -0.16536264403E-02 -0.81558178192E-02  0.12995214191E+00  0.19475972573E-01 0.  0.
         14    1    1    2    0    0 -0.48727386215E-02  0.21931169253E-01 -0.72496630041E-02  0.23606723198E-01  0.00000000000E+00 0.  1.
     999901    1    3    3    0    0  0.13308737832E+00 -0.20277542813E-01  0.15405480823E-01  0.89037113489E+00  0.88000000000E+00 0. -1.
        -11    1    4    4    0    0 -0.20562056567E-01  0.65624112395E-02  0.87991754723E-03  0.21607840878E-01  0.51100000000E-03 0.  1.
         11    1    4    4    0    0 -0.10765258314E+00 -0.82160376797E-02 -0.90357353664E-02  0.10834430103E+00  0.51100000000E-03 0. -1.
</event>
<event>
 8    1  0.1145101E+005  0.1043930E+01  0.7957747E-01            NaN
         13   -1    0    0    0    0  0.00000000000E+00  0.00000000000E+00  0.74505805969E-08  0.10566000000E+00  0.10566000000E+00 0.  1.
     999900   -1    0    0    0    0 -0.00000000000E+00 -0.00000000000E+00 -0.74505805969E-08  0.93827000000E+00  0.93827000000E+00 0. -1.
     999902    2    1    2    0    0 -0.14457994360E-01 -0.11949427296E-01 -0.15605367749E-01  0.10195302066E+01  0.10192381921E+01 0.  0.
     999903    2    3    3    0    0  0.48716286747E-01  0.50393071838E-01 -0.10793539902E+00  0.13025948764E+00  0.20118287065E-01 0.  0.
         14    1    1    2    0    0  0.14457994360E-01  0.11949427296E-01  0.15605367749E-01  0.24399793364E-01  0.00000000000E+00 0.  1.
     999901    1    3    3    0    0 -0.63174281107E-01 -0.62342499135E-01  0.92330031271E-01  0.88927071900E+00  0.88000000000E+00 0.  1.
        -11    1    4    4    0    0  0.10400940407E-01  0.23071735942E-01 -0.45590266390E-01  0.52146122303E-01  0.51100000000E-03 0. -1.
         11    1    4    4    0    0  0.38315346340E-01  0.27321335896E-01 -0.62345132630E-01  0.78113365335E-01  0.51100000000E-03 0.  1.
</event>
<event>
 8    1  0.1145101E+005  0.1043930E+01  0.7957747E-01            NaN
         13   -1    0    0    0    0  0.00000000000E+00  0.00000000000E+00  0.74505805969E-08  0.10566000000E+00  0.10566000000E+00 0.  1.
     999900   -1    0    0    0    0 -0.00000000000E+00 -0.00000000000E+00 -0.74505805969E-08  0.93827000000E+00  0.93827000000E+00 0.  1.
     999902    2    1    2    0    0 -0.52375841305E-03 -0.18588348706E-01  0.11347787272E-01  0.10221452965E+01  0.10219131244E+01 0.  0.
     999903    2    3    3    0    0 -0.54696307246E-01 -0.96689879667E-01  0.73875898481E-01  0.13482107229E+00  0.19453901936E-01 0.  0.
         14    1    1    2    0    0  0.52375841305E-03  0.18588348706E-01 -0.11347787272E-01  0.21784703497E-01  0.00000000000E+00 0. -1.
     999901    1    3    3    0    0  0.54172548833E-01  0.78101530962E-01 -0.62528111209E-01  0.88732422421E+00  0.88000000000E+00 0.  1.
        -11    1    4    4    0    0 -0.31255094066E-01 -0.61154191446E-01  0.34625733320E-01  0.76915008714E-01  0.51100000000E-03 0. -1.
         11    1    4    4    0    0 -0.23441213180E-01 -0.35535688222E-01  0.39250165160E-01  0.57906063576E-01  0.51100000000E-03 0.  1.
</event>
<event>
 8    1  0.1145101E+005  0.1043930E+01  0.7957747E-01            NaN
         13   -1    0    0    0    0  0.00000000000E+00  0.00000000000E+00  0.74505805969E-08  0.10566000000E+00  0.10566000000E+00 0.  1.
     999900   -1    0    0    0    0 -0.00000000000E+00 -0.00000000000E+00 -0.74505805969E-08  0.93827000000E+00  0.93827000000E+00 0. -1.
     999902    2    1    2    0    0 -0.79966187243E-02 -0.75023001854E-02 -0.20847046275E-01  0.10203751755E+01  0.10201032639E+01 0.  0.
     999903    2    3    3    0    0  0.97854096477E-01 -0.72744721687E-01  0.39004381933E-01  0.12962092154E+00  0.20322961428E-01 0.  0.
         14    1    1    2    0    0  0.79966187243E-02  0.75023001854E-02  0.20847046275E-01  0.23554824506E-01  0.00000000000E+00 0.  1.
     999901    1    3    3    0    0 -0.10585071520E+00  0.65242421502E-01 -0.59851428208E-01  0.89075425395E+00  0.88000000000E+00 0.  1.
        -11    1    4    4    0    0  0.27741881201E-01 -0.11804664477E-01  0.43208074811E-02  0.30461329162E-01  0.51100000000E-03 0. -1.
         11    1    4    4    0    0  0.70112215276E-01 -0.60940057210E-01  0.34683574452E-01  0.99159592382E-01  0.51100000000E-03 0.  1.
</event>
<event>
 8    1  0.1145101E+005  0.1043930E+01  0.7957747E-01            NaN
         13   -1    0    0    0    0  0.00000000000E+00  0.00000000000E+00  0.74505805969E-08  0.10566000000E+00  0.10566000000E+00 0.  1.
     999900   -1    0    0    0    0 -0.00000000000E+00 -0.00000000000E+00 -0.74505805969E-08  0.93827000000E+00  0.93827000000E+00 0.  1.
     999902    2    1    2    0    0  0.21548862830E-01 -0.14842299513E-02  0.83382090560E-02  0.10207765519E+01  0.10205139327E+01 0.  0.
     999903    2    3    3    0    0  0.41210688675E-01  0.29973848496E-01 -0.11870908478E+00  0.13087924719E+00  0.20994715506E-01 0.  0.
         14    1    1    2    0    0 -0.21548862830E-01  0.14842299513E-02 -0.83382090560E-02  0.23153448082E-01  0.00000000000E+00 0. -1.
     999901    1    3    3    0    0 -0.19661825845E-01 -0.31458078447E-01  0.12704729384E+00  0.88989730473E+00  0.88000000000E+00 0. -1.
        -11    1    4    4    0    0  0.22811435670E-01  0.23337894473E-01 -0.93070915859E-01  0.98627964674E-01  0.51100000000E-03 0.  1.
         11    1    4    4    0    0  0.18399253005E-01  0.66359540222E-02 -0.25638168925E-01  0.32251282513E-01  0.51100000000E-03 0. -1.
</event>
<event>
 8    1  0.1164029E+005  0.1043930E+01  0.7957747E-01            NaN
         13   -1    0    0    0    0  0.00000000000E+00  0.00000000000E+00  0.74505805969E-08  0.10566000000E+00  0.10566000000E+00 0. -1.
     999900   -1    0    0    0    0 -0.00000000000E+00 -0.00000000000E+00 -0.74505805969E-08  0.93827000000E+00  0.93827000000E+00 0.  1.
     999902    2    1    2    0    0 -0.17496175464E-01  0.10621477430E-01  0.11729445800E-01  0.10203394969E+01  0.10200667513E+01 0.  0.
     999903    2    3    3    0    0 -0.17416411870E-01  0.74200865905E-01  0.10740023517E+00  0.13287386659E+00  0.17650892499E-01 0.  0.
         14    1    1    2    0    0  0.17496175464E-01 -0.10621477430E-01 -0.11729445800E-01  0.23590503119E-01  0.00000000000E+00 0.  1.
     999901    1    3    3    0    0 -0.79763593707E-04 -0.63579388476E-01 -0.95670789368E-01  0.88746563029E+00  0.88000000000E+00 0.  1.
        -11    1    4    4    0    0 -0.11505925847E-01  0.54718366915E-01  0.64357933614E-01  0.85256617030E-01  0.51100000000E-03 0. -1.
         11    1    4    4    0    0 -0.59104860232E-02  0.19482498991E-01  0.43042301555E-01  0.47617249565E-01  0.51100000000E-03 0.  1.
</event>
<event>
 8    1  0.1145101E+005  0.1043930E+01  0.7957747E-01            NaN
         13   -1    0    0    0    0  0.00000000000E+00  0.00000000000E+00  0.74505805969E-08  0.10566000000E+00  0.10566000000E+00 0.  1.
     999900   -1    0    0    0    0 -0.00000000000E+00 -0.00000000000E+00 -0.74505805969E-08  0.93827000000E+00  0.93827000000E+00 0. -1.
     999902    2    1    2    0    0  0.34392694912E-02  0.10946204311E-01 -0.20355938641E-01  0.10205630960E+01  0.10202955556E+01 0.  0.
     999903    2    3    3    0    0 -0.40386454337E-01 -0.12011849899E+00  0.13618741105E-01  0.12913001980E+00  0.20726128699E-01 0.  0.
         14    1    1    2    0    0 -0.34392694912E-02 -0.10946204311E-01  0.20355938641E-01  0.23366903976E-01  0.00000000000E+00 0.  1.
     999901    1    3    3    0    0  0.43825723828E-01  0.13106470330E+00 -0.33974679746E-01  0.89143307622E+00  0.88000000000E+00 0. -1.
        -11    1    4    4    0    0 -0.73352794372E-02 -0.46161281158E-01  0.11295275108E-01  0.48088611577E-01  0.51100000000E-03 0.  1.
         11    1    4    4    0    0 -0.33051174900E-01 -0.73957217833E-01  0.23234659964E-02  0.81041408225E-01  0.51100000000E-03 0. -1.
</event>
<event>
 8    1  0.1145101E+005  0.1043930E+01  0.7957747E-01            NaN
         13   -1    0    0    0    0  0.00000000000E+00  0.00000000000E+00  0.74505805969E-08  0.10566000000E+00  0.10566000000E+00 0.  1.
     999900   -1    0    0    0    0 -0.00000000000E+00 -0.00000000000E+00 -0.74505805969E-08  0.93827000000E+00  0.93827000000E+00 0.  1.
     999902    2    1    2    0    0 -0.88328763028E-02 -0.17715233702E-01  0.14448489275E-01  0.10194226939E+01  0.10191280689E+01 0.  0.
     999903    2    3    3    0    0 -0.11510040056E+00  0.51040985787E-01 -0.23948667727E-01  0.12953812495E+00  0.18796347762E-01 0.  0.
         14    1    1    2    0    0  0.88328763028E-02  0.17715233702E-01 -0.14448489275E-01  0.24507306079E-01  0.00000000000E+00 0. -1.
     999901    1    3    3    0    0  0.10626752426E+00 -0.68756219488E-01  0.38397157003E-01  0.88988456897E+00  0.88000000000E+00 0. -1.
        -11    1    4    4    0    0 -0.93462448402E-01  0.35034719918E-01 -0.23824126978E-01  0.10261827814E+00  0.51100000000E-03 0.  1.
         11    1    4    4    0    0 -0.21637952161E-01  0.16006265868E-01 -0.12454074885E-03  0.26919846808E-01  0.51100000000E-03 0. -1.
</event>
<event>
 8    1  0.1145101E+005  0.1043930E+01  0.7957747E-01            NaN
         13   -1    0    0    0    0  0.00000000000E+00  0.00000000000E+00  0.74505805969E-08  0.10566000000E+00  0.10566000000E+00 0. -1.
     999900   -1    0    0    0    0 -0.00000000000E+00 -0.00000000000E+00 -0.74505805969E-08  0.93827000000E+00  0.93827000000E+00 0. -1.
     999902    2    1    2    0    0 -0.11136985094E-01  0.15484915228E-01 -0.14797236395E-01  0.10197893032E+01  0.10195035310E+01 0.  0.
     999903    2    3    3    0    0  0.17113889153E-01  0.12908518194E+00 -0.19430948794E-02  0.13194451866E+00  0.21206390312E-01 0.  0.
         14    1    1    2    0    0  0.11136985094E-01 -0.15484915228E-01  0.14797236395E-01  0.24140696790E-01  0.00000000000E+00 0. -1.
     999901    1    3    3    0    0 -0.28250874247E-01 -0.11360026671E+00 -0.12854141515E-01  0.88784478455E+00  0.88000000000E+00 0.  1.
        -11    1    4    4    0    0  0.17062924714E-01  0.75410268652E-01  0.65673853499E-02  0.77596673185E-01  0.51100000000E-03 0. -1.
         11    1    4    4    0    0  0.50964438960E-04  0.53674913284E-01 -0.85104802292E-02  0.54347845478E-01  0.51100000000E-03 0.  1.
</event>
<event>
 8    1  0.1145101E+005  0.1043930E+01  0.7957747E-01            NaN
         13   -1    0    0    0    0  0.00000000000E+00  0.00000000000E+00  0.74505805969E-08  0.10566000000E+00  0.10566000000E+00 0. -1.
     999900   -1    0    0    0    0 -0.00000000000E+00 -0.00000000000E+00 -0.74505805969E-08  0.93827000000E+00  0.93827000000E+00 0.  1.
     999902    2    1    2    0    0 -0.84728881578E-02  0.15535885882E-01  0.18439954010E-01  0.10183725062E+01  0.10180517550E+01 0.  0.
     999903    2    3    3    0    0 -0.12619607206E+00  0.24102442369E-01  0.69171971805E-02  0.13041704122E+00  0.21316207254E-01 0.  0.
         14    1    1    2    0    0  0.84728881578E-02 -0.15535885882E-01 -0.18439954010E-01  0.25557493769E-01  0.00000000000E+00 0.  1.
     999901    1    3    3    0    0  0.11772318390E+00 -0.85665564867E-02  0.11522756829E-01  0.88795546501E+00  0.88000000000E+00 0. -1.
        -11    1    4    4    0    0 -0.10545214038E+00  0.14288930378E-01  0.11412315642E-01  0.10702723724E+00  0.51100000000E-03 0. -1.
         11    1    4    4    0    0 -0.20743931685E-01  0.98135119903E-02 -0.44951184615E-02  0.23389803982E-01  0.51100000000E-03 0.  1.
</event>
<event>
 8    1  0.1145101E+005  0.1043930E+01  0.7957747E-01            NaN
         13   -1    0    0    0    0  0.00000000000E+00  0.00000000000E+00  0.74505805969E-08  0.10566000000E+00  0.10566000000E+00 0. -1.
     999900   -1    0    0    0    0 -0.00000000000E+00 -0.00000000000E+00 -0.74505805969E-08  0.93827000000E+00  0.93827000000E+00 0. -1.
     999902    2    1    2    0    0  0.22756648882E-01  0.69207565058E-03 -0.43114034159E-02  0.10207582017E+01  0.10204951612E+01 0.  0.
     999903    2    3    3    0    0 -0.85332403775E-02  0.72079793649E-01  0.10428142936E+00  0.13066401186E+00  0.30498436712E-01 0.  0.
         14    1    1    2    0    0 -0.22756648882E-01 -0.69207565058E-03  0.43114034159E-02  0.23171798300E-01  0.00000000000E+00 0. -1.
     999901    1    3    3    0    0  0.31289889259E-01 -0.71387717998E-01 -0.10859283278E+00  0.89009418984E+00  0.88000000000E+00 0. -1.
        -11    1    4    4    0    0 -0.15083471421E-01  0.43380435227E-01  0.44137489705E-01  0.63700489708E-01  0.51100000000E-03 0. -1.
         11    1    4    4    0    0  0.65502310436E-02  0.28699358422E-01  0.60143939660E-01  0.66963522155E-01  0.51100000000E-03 0.  1.
</event>
<event>
 8    1  0.1145101E+005  0.1043930E+01  0.7957747E-01            NaN
         13   -1    0    0    0    0  0.00000000000E+00  0.00000000000E+00  0.74505805969E-08  0.10566000000E+00  0.10566000000E+00 0. -1.
     999900   -1    0    0    0    0 -0.00000000000E+00 -0.00000000000E+00 -0.74505805969E-08  0.93827000000E+00  0.93827000000E+00 0. -1.
     999902    2    1    2    0    0  0.19846521221E-01 -0.10345912472E-01  0.71062591043E-02  0.10204476401E+01  0.10201774183E+01 0.  0.
     999903    2    3    3    0    0 -0.99017103986E-01 -0.80181612097E-01 -0.11118296590E-01  0.12952804731E+00  0.20504163468E-01 0.  0.
         14    1    1    2    0    0 -0.19846521221E-01  0.10345912472E-01 -0.71062591043E-02  0.23482359931E-01  0.00000000000E+00 0. -1.
     999901    1    3    3    0    0  0.11886362521E+00  0.69835699625E-01  0.18224555695E-01  0.89091959276E+00  0.88000000000E+00 0.  1.
        -11    1    4    4    0    0 -0.93667139458E-01 -0.73831500268E-01 -0.53181972683E-02  0.11938663153E+00  0.51100000000E-03 0. -1.
         11    1    4    4    0    0 -0.53499645281E-02 -0.63501118294E-02 -0.58000993219E-02  0.10141415771E-01  0.51100000000E-03 0.  1.
</event>
<event>
 8    1  0.1145101E+005  0.1043930E+01  0.7957747E-01            NaN
         13   -1    0    0    0    0  0.00000000000E+00  0.00000000000E+00  0.74505805969E-08  0.10566000000E+00  0.10566000000E+00 0.  1.
     999900   -1    0    0    0    0 -0.00000000000E+00 -0.00000000000E+00 -0.74505805969E-08  0.93827000000E+00  0.93827000000E+00 0.  1.
     999902    2    1    2    0    0 -0.45572081126E-02  0.21434138844E-01  0.30564358790E-02  0.10218046242E+01  0.10215650531E+01 0.  0.
     999903    2    3    3    0    0  0.11379972015E-01  0.13272786622E+00 -0.51187426105E-02  0.13461404659E+00  0.18669487927E-01 0.  0.
         14    1    1    2    0    0  0.45572081126E-02 -0.21434138844E-01 -0.30564358790E-02  0.22125375794E-01  0.00000000000E+00 0.  1.
     999901    1    3    3    0    0 -0.15937180128E-01 -0.11129372738E+00  0.81751784895E-02  0.88719057761E+00  0.88000000000E+00 0.  1.
        -11    1    4    4    0    0  0.69578001865E-03  0.10152170226E+00 -0.34850841556E-02  0.10158517152E+00  0.51100000000E-03 0.  1.
         11    1    4    4    0    0  0.10684191996E-01  0.31206163955E-01 -0.16336584549E-02  0.33028875070E-01  0.51100000000E-03 0. -1.
</event>
<event>
 8    1  0.1145101E+005  0.1043930E+01  0.7957747E-01            NaN
         13   -1    0    0    0    0  0.00000000000E+00  0.00000000000E+00  0.74505805969E-08  0.10566000000E+00  0.10566000000E+00 0. -1.
     999900   -1    0    0    0    0 -0.00000000000E+00 -0.00000000000E+00 -0.74505805969E-08  0.93827000000E+00  0.93827000000E+00 0. -1.
     999902    2    1    2    0    0 -0.16142168589E-01  0.15897657356E-01 -0.71699529084E-02  0.10201663020E+01  0.10198894893E+01 0.  0.
     999903    2    3    3    0    0  0.28998055420E-01  0.11205932152E+00  0.58453921865E-01  0.13135181160E+00  0.20934628481E-01 0.  0.
         14    1    1    2    0    0  0.16142168589E-01 -0.15897657356E-01  0.71699529084E-02  0.23763697963E-01  0.00000000000E+00 0. -1.
     999901    1    3    3    0    0 -0.45140224009E-01 -0.96161664166E-01 -0.65623874774E-01  0.88881449044E+00  0.88000000000E+00 0.  1.
        -11    1    4    4    0    0  0.20662857898E-01  0.63257432070E-01  0.43980664539E-01  0.79768517492E-01  0.51100000000E-03 0.  1.
         11    1    4    4    0    0  0.83351975221E-02  0.48801889453E-01  0.14473257326E-01  0.51583294103E-01  0.51100000000E-03 0. -1.
</event>
<event>
 8    1  0.1145101E+005  0.1043930E+01  0.7957747E-01            NaN
         13   -1    0    0    0    0  0.00000000000E+00  0.00000000000E+00  0.74505805969E-08  0.10566000000E+00  0.10566000000E+00 0.  1.
     999900   -1    0    0    0    0 -0.00000000000E+00 -0.00000000000E+00 -0.74505805969E-08  0.93827000000E+00  0.93827000000E+00 0.  1.
     999902    2    1    2    0    0  0.35941711874E-02  0.19483139358E-01  0.11176817873E-01  0.10211828674E+01  0.10209294866E+01 0.  0.
     999903    2    3    3    0    0  0.12420630419E+00  0.37015263140E-01  0.19872348446E-01  0.13274025568E+00  0.20681623232E-01 0.  0.
         14    1    1    2    0    0 -0.35941711874E-02 -0.19483139358E-01 -0.11176817873E-01  0.22747132644E-01  0.00000000000E+00 0. -1.
     999901    1    3    3    0    0 -0.12061213300E+00 -0.17532123783E-01 -0.86955305733E-02  0.88844261168E+00  0.88000000000E+00 0. -1.
        -11    1    4    4    0    0  0.53615528058E-01  0.17643024562E-01  0.18916720023E-01  0.59531542749E-01  0.51100000000E-03 0. -1.
         11    1    4    4    0    0  0.70590776130E-01  0.19372238579E-01  0.95562842315E-03  0.73208712930E-01  0.51100000000E-03 0.  1.
</event>
<event>
 8    1  0.1145101E+005  0.1043930E+01  0.7957747E-01            NaN
         13   -1    0    0    0    0  0.00000000000E+00  0.00000000000E+00  0.74505805969E-08  0.10566000000E+00  0.10566000000E+00 0.  1.
     999900   -1    0    0    0    0 -0.00000000000E+00 -0.00000000000E+00 -0.74505805969E-08  0.93827000000E+00  0.93827000000E+00 0.  1.
     999902    2    1    2    0    0  0.17395475125E-01  0.12537757774E-01 -0.10523896791E-01  0.10200438046E+01  0.10197640968E+01 0.  0.
     999903    2    3    3    0    0  0.11306044552E+00 -0.56670216465E-01 -0.31693975855E-01  0.13190546942E+00  0.20009172421E-01 0.  0.
         14    1    1    2    0    0 -0.17395475125E-01 -0.12537757774E-01  0.10523896791E-01  0.23886195354E-01  0.00000000000E+00 0.  1.
     999901    1    3    3    0    0 -0.95664970394E-01  0.69207974239E-01  0.21170079064E-01  0.88813833523E+00  0.88000000000E+00 0.  1.
        -11    1    4    4    0    0  0.26803627479E-01 -0.51148344123E-02 -0.33721281970E-02  0.27499606300E-01  0.51100000000E-03 0.  1.
         11    1    4    4    0    0  0.86256818041E-01 -0.51555382053E-01 -0.28321847658E-01  0.10440586312E+00  0.51100000000E-03 0. -1.
</event>
<event>
 8    1  0.1145101E+005  0.1043930E+01  0.7957747E-01            NaN
         13   -1    0    0    0    0  0.00000000000E+00  0.00000000000E+00  0.74505805969E-08  0.10566000000E+00  0.10566000000E+00 0.  1.
     999900   -1    0    0    0    0 -0.00000000000E+00 -0.00000000000E+00 -0.74505805969E-08  0.93827000000E+00  0.93827000000E+00 0.  1.
     999902    2    1    2    0    0 -0.47005641154E-02  0.22587480677E-01 -0.30779057254E-02  0.10206541952E+01  0.10203887607E+01 0.  0.
     999903    2    3    3    0    0 -0.50143671361E-01  0.11960964117E+00 -0.25720944570E-01  0.13386725187E+00  0.20928929619E-01 0.  0.
         14    1    1    2    0    0  0.47005641154E-02 -0.22587480677E-01  0.30779057254E-02  0.23275804819E-01  0.00000000000E+00 0.  1.
     999901    1    3    3    0    0  0.45443107245E-01 -0.97022160492E-01  0.22643038845E-01  0.88678694331E+00  0.88000000000E+00 0.  1.
        -11    1    4    4    0    0 -0.12922862476E-01  0.52306238170E-01 -0.44304901709E-02  0.54063234182E-01  0.51100000000E-03 0.  1.
         11    1    4    4    0    0 -0.37220808885E-01  0.67303402998E-01 -0.21290454399E-01  0.79804017685E-01  0.51100000000E-03 0. -1.
</event>
<event>
 8    1  0.1145101E+005  0.1043930E+01  0.7957747E-01            NaN
         13   -1    0    0    0    0  0.00000000000E+00  0.00000000000E+00  0.74505805969E-08  0.10566000000E+00  0.10566000000E+00 0. -1.
     999900   -1    0    0    0    0 -0.00000000000E+00 -0.00000000000E+00 -0.74505805969E-08  0.93827000000E+00  0.93827000000E+00 0.  1.
     999902    2    1    2    0    0  0.43832978507E-02  0.22305085168E-01  0.77066482816E-02  0.10199274470E+01  0.10196449747E+01 0.  0.
     999903    2    3    3    0    0  0.82809882143E-02 -0.11151882570E+00 -0.57665624270E-01  0.12740430154E+00  0.20037678935E-01 0.  0.
         14    1    1    2    0    0 -0.43832978507E-02 -0.22305085168E-01 -0.77066482816E-02  0.24002553034E-01  0.00000000000E+00 0. -1.
     999901    1    3    3    0    0 -0.38976903636E-02  0.13382391086E+00  0.65372272552E-01  0.89252314543E+00  0.88000000000E+00 0. -1.
        -11    1    4    4    0    0  0.55074392618E-02 -0.11199914418E-01 -0.11335270364E-01  0.16867704213E-01  0.51100000000E-03 0. -1.
         11    1    4    4    0    0  0.27735489525E-02 -0.10031891128E+00 -0.46330353906E-01  0.11053659732E+00  0.51100000000E-03 0.  1.
</event>
<event>
 8    1  0.1145101E+005  0.1043930E+01  0.7957747E-01            NaN
         13   -1    0    0    0    0  0.00000000000E+00  0.00000000000E+00  0.74505805969E-08  0.10566000000E+00  0.10566000000E+00 0. -1.
     999900   -1    0    0    0    0 -0.00000000000E+00 -0.00000000000E+00 -0.74505805969E-08  0.93827000000E+00  0.93827000000E+00 0.  1.
     999902    2    1    2    0    0  0.12544194246E-01 -0.14262109184E-01 -0.21075224353E-01  0.10155587179E+01  0.10151623416E+01 0.  0.
     999903    2    3    3    0    0  0.96025537626E-01  0.21886510232E-01  0.75156577550E-01  0.12565062314E+00  0.20967707091E-01 0.  0.
         14    1    1    2    0    0 -0.12544194246E-01  0.14262109184E-01  0.21075224353E-01  0.28371282121E-01  0.00000000000E+00 0. -1.
     999901    1    3    3    0    0 -0.83481343380E-01 -0.36148619416E-01 -0.96231801904E-01  0.88990809474E+00  0.88000000000E+00 0.  1.
        -11    1    4    4    0    0  0.58317727745E-01  0.26968120523E-02  0.43698721572E-01  0.72925095493E-01  0.51100000000E-03 0.  1.
         11    1    4    4    0    0  0.37707809881E-01  0.19189698180E-01  0.31457855978E-01  0.52725527650E-01  0.51100000000E-03 0. -1.
</event>
<event>
 8    1  0.1145101E+005  0.1043930E+01  0.7957747E-01            NaN
         13   -1    0    0    0    0  0.00000000000E+00  0.00000000000E+00  0.74505805969E-08  0.10566000000E+00  0.10566000000E+00 0.  1.
     999900   -1    0    0    0    0 -0.00000000000E+00 -0.00000000000E+00 -0.74505805969E-08  0.93827000000E+00  0.93827000000E+00 0. -1.
     999902    2    1    2    0    0 -0.22130448437E-01  0.25686059570E-02 -0.84070702976E-02  0.10201175386E+01  0.10198395753E+01 0.  0.
     999903    2    3    3    0    0  0.74880624427E-01 -0.35894749195E-01 -0.97844619528E-01  0.12944944494E+00  0.16971985418E-01 0.  0.
         14    1    1    2    0    0  0.22130448437E-01 -0.25686059570E-02  0.84070702976E-02  0.23812461351E-01  0.00000000000E+00 0. -1.
     999901    1    3    3    0    0 -0.97011072864E-01  0.38463355152E-01  0.89437549231E-01  0.89066809371E+00  0.88000000000E+00 0.  1.
        -11    1    4    4    0    0  0.31528028649E-01 -0.88242420872E-02 -0.47613610116E-01  0.57785818573E-01  0.51100000000E-03 0. -1.
         11    1    4    4    0    0  0.43352595778E-01 -0.27070507108E-01 -0.50231009413E-01  0.71663626362E-01  0.51100000000E-03 0.  1.
</event>
<event>
 8    1  0.1145101E+005  0.1043930E+01  0.7957747E-01            NaN
         13   -1    0    0    0    0  0.00000000000E+00  0.00000000000E+00  0.74505805969E-08  0.10566000000E+00  0.10566000000E+00 0.  1.
     999900   -1    0    0    0    0 -0.00000000000E+00 -0.00000000000E+00 -0.74505805969E-08  0.93827000000E+00  0.93827000000E+00 0.  1.
     999902    2    1    2    0    0  0.28816106281E-01 -0.16852456989E-01 -0.12639429090E-02  0.10105238503E+01  0.10099715249E+01 0.  0.
     999903    2    3    3    0    0  0.70735237455E-01  0.86023428902E-01 -0.43775985214E-01  0.12252163451E+00  0.26300378411E-01 0.  0.
         14    1    1    2    0    0 -0.28816106281E-01  0.16852456989E-01  0.12639429090E-02  0.33406149725E-01  0.00000000000E+00 0. -1.
     999901    1    3    3    0    0 -0.41919131175E-01 -0.10287588589E+00  0.42512042305E-01  0.88800221576E+00  0.88000000000E+00 0.  1.
        -11    1    4    4    0    0  0.49262986624E-01  0.72610174114E-01 -0.41594280924E-01  0.97105224178E-01  0.51100000000E-03 0.  1.
         11    1    4    4    0    0  0.21472250831E-01  0.13413254788E-01 -0.21817042896E-02  0.25416410336E-01  0.51100000000E-03 0. -1.
</event>
<event>
 8    1  0.1145101E+005  0.1043930E+01  0.7957747E-01            NaN
         13   -1    0    0    0    0  0.00000000000E+00  0.00000000000E+00  0.74505805969E-08  0.10566000000E+00  0.10566000000E+00 0. -1.
     999900   -1    0    0    0    0 -0.00000000000E+00 -0.00000000000E+00 -0.74505805969E-08  0.93827000000E+00  0.93827000000E+00 0. -1.
     999902    2    1    2    0    0  0.25213821524E-02  0.16216780066E-01  0.17336854894E-01  0.10200572569E+01  0.10197778678E+01 0.  0.
     999903    2    3    3    0    0  0.74137979940E-01 -0.10317068815E+00 -0.59012919693E-02  0.12880963921E+00  0.20407521711E-01 0.  0.
         14    1    1    2    0    0 -0.25213821524E-02 -0.16216780066E-01 -0.17336854894E-01  0.23872743061E-01  0.00000000000E+00 0.  1.
     999901    1    3    3    0    0 -0.71616597787E-01  0.11938746822E+00  0.23238146863E-01  0.89124761773E+00  0.88000000000E+00 0. -1.
        -11    1    4    4    0    0  0.40622622585E-01 -0.39861592533E-01  0.18974422885E-03  0.56916088664E-01  0.51100000000E-03 0.  1.
         11    1    4    4    0    0  0.33515357355E-01 -0.63309095617E-01 -0.60910361981E-02  0.71893550541E-01  0.51100000000E-03 0. -1.
</event>
<event>
 8    1  0.1145101E+005  0.1043930E+01  0.7957747E-01            NaN
         13   -1    0    0    0    0  0.00000000000E+00  0.00000000000E+00  0.74505805969E-08  0.10566000000E+00  0.10566000000E+00 0. -1.
     999900   -1    0    0    0    0 -0.00000000000E+00 -0.00000000000E+00 -0.74505805969E-08  0.93827000000E+00  0.93827000000E+00 0. -1.
     999902    2    1    2    0    0  0.11181843208E-01  0.37085653553E-02  0.30330233432E-01  0.10113921738E+01  0.10108686458E+01 0.  0.
     999903    2    3    3    0    0 -0.65135681167E-01  0.98913905024E-01 -0.23228204661E-01  0.12136019261E+00  0.12733000056E-01 0.  0.
         14    1    1    2    0    0 -0.11181843208E-01 -0.37085653553E-02 -0.30330233432E-01  0.32537826212E-01  0.00000000000E+00 0.  1.
     999901    1    3    3    0    0  0.76317524375E-01 -0.95205339669E-01  0.53558438093E-01  0.89003198118E+00  0.88000000000E+00 0. -1.
        -11    1    4    4    0    0 -0.46790179765E-01  0.64425512682E-01 -0.10747737416E-01  0.80347635854E-01  0.51100000000E-03 0. -1.
         11    1    4    4    0    0 -0.18345501402E-01  0.34488392343E-01 -0.12480467245E-01  0.41012556757E-01  0.51100000000E-03 0.  1.
</event>
<event>
 8    1  0.1145101E+005  0.1043930E+01  0.7957747E-01            NaN
         13   -1    0    0    0    0  0.00000000000E+00  0.00000000000E+00  0.74505805969E-08  0.10566000000E+00  0.10566000000E+00 0. -1.
     999900   -1    0    0    0    0 -0.00000000000E+00 -0.00000000000E+00 -0.74505805969E-08  0.93827000000E+00  0.93827000000E+00 0.  1.
     999902    2    1    2    0    0 -0.16466974261E-01  0.16530080653E-01  0.36250583661E-02  0.10203175911E+01  0.10200443327E+01 0.  0.
     999903    2    3    3    0    0 -0.10274638670E+00  0.67548437540E-01 -0.47323461257E-01  0.13316328577E+00  0.19321989963E-01 0.  0.
         14    1    1    2    0    0  0.16466974261E-01 -0.16530080653E-01 -0.36250583661E-02  0.23612408939E-01  0.00000000000E+00 0.  1.
     999901    1    3    3    0    0  0.86279412442E-01 -0.51018356887E-01  0.50948519623E-01  0.88715430529E+00  0.88000000000E+00 0.  1.
        -11    1    4    4    0    0 -0.49289164985E-01  0.41960274254E-01 -0.18922626235E-01  0.67441925425E-01  0.51100000000E-03 0. -1.
         11    1    4    4    0    0 -0.53457221719E-01  0.25588163286E-01 -0.28400835022E-01  0.65721360342E-01  0.51100000000E-03 0.  1.
</event>
<event>
 8    1  0.1145101E+005  0.1043930E+01  0.7957747E-01            NaN
         13   -1    0    0    0    0  0.00000000000E+00  0.00000000000E+00  0.74505805969E-08  0.10566000000E+00  0.10566000000E+00 0.  1.
     999900   -1    0    0    0    0 -0.00000000000E+00 -0.00000000000E+00 -0.74505805969E-08  0.93827000000E+00  0.93827000000E+00 0.  1.
     999902    2    1    2    0    0  0.17887006538E-01 -0.52746896484E-02 -0.11898950242E-01  0.10218086897E+01  0.10215692076E+01 0.  0.
     999903    2    3    3    0    0 -0.52886302673E-01  0.11740464984E+00  0.37283783410E-02  0.13034736408E+00  0.19892755034E-01 0.  0.
         14    1    1    2    0    0 -0.17887006538E-01  0.52746896484E-02  0.11898950242E-01  0.22121310328E-01  0.00000000000E+00 0.  1.
     999901    1    3    3    0    0  0.70773309211E-01 -0.12267933949E+00 -0.15627328583E-01  0.89146132560E+00  0.88000000000E+00 0.  1.
        -11    1    4    4    0    0 -0.34247701226E-01  0.92260637552E-01  0.80745184008E-02  0.98744059311E-01  0.51100000000E-03 0.  1.
         11    1    4    4    0    0 -0.18638601447E-01  0.25144012285E-01 -0.43461400597E-02  0.31603304766E-01  0.51100000000E-03 0. -1.
</event>
<event>
 8    1  0.1145101E+005  0.1043930E+01  0.7957747E-01            NaN
         13   -1    0    0    0    0  0.00000000000E+00  0.00000000000E+00  0.74505805969E-08  0.10566000000E+00  0.10566000000E+00 0. -1.
     999900   -1    0    0    0    0 -0.00000000000E+00 -0.00000000000E+00 -0.74505805969E-08  0.93827000000E+00  0.93827000000E+00 0.  1.
     999902    2    1    2    0    0 -0.35952145460E-02 -0.22472769360E-01 -0.40401892692E-03  0.10211678788E+01  0.10209141602E+01 0.  0.
     999903    2    3    3    0    0 -0.98758763083E-01  0.70835445478E-01 -0.42238717057E-01  0.13015010911E+00  0.19595613327E-01 0.  0.
         14    1    1    2    0    0  0.35952145460E-02  0.22472769360E-01  0.40401892692E-03  0.22762121203E-01  0.00000000000E+00 0.  1.
     999901    1    3    3    0    0  0.95163548537E-01 -0.93308214838E-01  0.41834698130E-01  0.89101776968E+00  0.88000000000E+00 0.  1.
        -11    1    4    4    0    0 -0.32027170798E-01  0.34080512134E-01 -0.12971266102E-01  0.48535923211E-01  0.51100000000E-03 0.  1.
         11    1    4    4    0    0 -0.66731592285E-01  0.36754933344E-01 -0.29267450955E-01  0.81614185901E-01  0.51100000000E-03 0. -1.
</event>
<event>
 8    1  0.1145101E+005  0.1043930E+01  0.7957747E-01            NaN
         13   -1    0    0    0    0  0.00000000000E+00  0.00000000000E+00  0.74505805969E-08  0.10566000000E+00  0.10566000000E+00 0.  1.
     999900   -1    0    0    0    0 -0.00000000000E+00 -0.00000000000E+00 -0.74505805969E-08  0.93827000000E+00  0.93827000000E+00 0.  1.
     999902    2    1    2    0    0  0.92430774275E-02  0.10052814998E-01 -0.19519613383E-01  0.10201075552E+01  0.10198293560E+01 0.  0.
     999903    2    3    3    0    0  0.12078938267E+00 -0.46210514935E-01  0.32417986865E-02  0.13099213953E+00  0.20565619445E-01 0.  0.
         14    1    1    2    0    0 -0.92430774275E-02 -0.10052814998E-01  0.19519613383E-01  0.23822444802E-01  0.00000000000E+00 0.  1.
     999901    1    3    3    0    0 -0.11154630524E+00  0.56263329933E-01 -0.22761412069E-01  0.88911541567E+00  0.88000000000E+00 0.  1.
        -11    1    4    4    0    0  0.19563802435E-01 -0.89123906595E-03  0.43943757365E-02  0.20077557916E-01  0.51100000000E-03 0. -1.
         11    1    4    4    0    0  0.10122558023E+00 -0.45319275869E-01 -0.11525770500E-02  0.11091458161E+00  0.51100000000E-03 0.  1.
</event>
<event>
 8    1  0.1145101E+005  0.1043930E+01  0.7957747E-01            NaN
         13   -1    0    0    0    0  0.00000000000E+00  0.00000000000E+00  0.74505805969E-08  0.10566000000E+00  0.10566000000E+00 0.  1.
     999900   -1    0    0    0    0 -0.00000000000E+00 -0.00000000000E+00 -0.74505805969E-08  0.93827000000E+00  0.93827000000E+00 0. -1.
     999902    2    1    2    0    0 -0.14306474307E-01 -0.63730955586E-02  0.17927290509E-01  0.10201249732E+01  0.10198471855E+01 0.  0.
     999903    2    3    3    0    0 -0.25919071319E-02 -0.52556470728E-01 -0.11581839188E+00  0.12874511999E+00  0.19811749667E-01 0.  0.
         14    1    1    2    0    0  0.14306474307E-01  0.63730955586E-02 -0.17927290509E-01  0.23805026761E-01  0.00000000000E+00 0. -1.
     999901    1    3    3    0    0 -0.11714567175E-01  0.46183375170E-01  0.13374568239E+00  0.89137985325E+00  0.88000000000E+00 0.  1.
        -11    1    4    4    0    0 -0.10502070940E-01 -0.24385195822E-01 -0.62848673870E-01  0.68228646459E-01  0.51100000000E-03 0. -1.
         11    1    4    4    0    0  0.79101638080E-02 -0.28171274906E-01 -0.52969718009E-01  0.60516473528E-01  0.51100000000E-03 0.  1.
</event>
<event>
 8    1  0.1145101E+005  0.1043930E+01  0.7957747E-01            NaN
         13   -1    0    0    0    0  0.00000000000E+00  0.00000000000E+00  0.74505805969E-08  0.10566000000E+00  0.10566000000E+00 0. -1.
     999900   -1    0    0    0    0 -0.00000000000E+00 -0.00000000000E+00 -0.74505805969E-08  0.93827000000E+00  0.93827000000E+00 0.  1.
     999902    2    1    2    0    0  0.63204890523E-02 -0.12686873012E-01  0.19197883842E-01  0.10200665536E+01  0.10197873846E+01 0.  0.
     999903    2    3    3    0    0  0.12895018333E+00 -0.76448003230E-02 -0.10277274302E-01  0.13106022668E+00  0.19610402761E-01 0.  0.
         14    1    1    2    0    0 -0.63204890523E-02  0.12686873012E-01 -0.19197883842E-01  0.23863446371E-01  0.00000000000E+00 0.  1.
     999901    1    3    3    0    0 -0.12262969428E+00 -0.50420726892E-02  0.29475158145E-01  0.88900632695E+00  0.88000000000E+00 0. -1.
        -11    1    4    4    0    0  0.73292722767E-01 -0.12595288858E-01 -0.10987852983E-01  0.75176183371E-01  0.51100000000E-03 0.  1.
         11    1    4    4    0    0  0.55657460562E-01  0.49504885353E-02  0.71057868100E-03  0.55884043304E-01  0.51100000000E-03 0. -1.
</event>
<event>
 8    1  0.1145101E+005  0.1043930E+01  0.7957747E-01            NaN
         13   -1    0    0    0    0  0.00000000000E+00  0.00000000000E+00  0.74505805969E-08  0.10566000000E+00  0.10566000000E+00 0.  1.
     999900   -1    0    0    0    0 -0.00000000000E+00 -0.00000000000E+00 -0.74505805969E-08  0.93827000000E+00  0.93827000000E+00 0.  1.
     999902    2    1    2    0    0 -0.89861567406E-02 -0.20623048372E-01  0.14719097427E-01  0.10170466787E+01  0.10166913168E+01 0.  0.
     999903    2    3    3    0    0  0.69160175481E-01  0.61445048424E-01 -0.81076076515E-01  0.12462372003E+00  0.19977926854E-01 0.  0.
         14    1    1    2    0    0  0.89861567406E-02  0.20623048372E-01 -0.14719097427E-01  0.26883321338E-01  0.00000000000E+00 0. -1.
     999901    1    3    3    0    0 -0.78146332222E-01 -0.82068096796E-01  0.95795173941E-01  0.89242295864E+00  0.88000000000E+00 0. -1.
        -11    1    4    4    0    0  0.53499940389E-01  0.56532628957E-01 -0.62442373956E-01  0.99787238385E-01  0.51100000000E-03 0.  1.
         11    1    4    4    0    0  0.15660235093E-01  0.49124194679E-02 -0.18633702559E-01  0.24836481640E-01  0.51100000000E-03 0. -1.
</event>
<event>
 8    1  0.1145101E+005  0.1043930E+01  0.7957747E-01            NaN
         13   -1    0    0    0    0  0.00000000000E+00  0.00000000000E+00  0.74505805969E-08  0.10566000000E+00  0.10566000000E+00 0.  1.
     999900   -1    0    0    0    0 -0.00000000000E+00 -0.00000000000E+00 -0.74505805969E-08  0.93827000000E+00  0.93827000000E+00 0.  1.
     999902    2    1    2    0    0 -0.15769879753E-01 -0.13153236180E-01  0.10847330475E-01  0.10207058465E+01  0.10204416023E+01 0.  0.
     999903    2    3    3    0    0  0.12705614129E+00 -0.34880796861E-02  0.49180978293E-02  0.12911858582E+00  0.22180887682E-01 0.  0.
         14    1    1    2    0    0  0.15769879753E-01  0.13153236180E-01 -0.10847330475E-01  0.23224153545E-01  0.00000000000E+00 0. -1.
     999901    1    3    3    0    0 -0.14282602104E+00 -0.96651564935E-02  0.59292326462E-02  0.89158726064E+00  0.88000000000E+00 0.  1.
        -11    1    4    4    0    0  0.10262676085E+00 -0.11178122612E-01  0.66109862724E-02  0.10344645344E+00  0.51100000000E-03 0. -1.
         11    1    4    4    0    0  0.24429380432E-01  0.76900429263E-02 -0.16928884431E-02  0.25672132377E-01  0.51100000000E-03 0.  1.
</event>
<event>
 8    1  0.1145101E+005  0.1043930E+01  0.7957747E-01            NaN
         13   -1    0    0    0    0  0.00000000000E+00  0.00000000000E+00  0.74505805969E-08  0.10566000000E+00  0.10566000000E+00 0.  1.
     999900   -1    0    0    0    0 -0.00000000000E+00 -0.00000000000E+00 -0.74505805969E-08  0.93827000000E+00  0.93827000000E+00 0.  1.
     999902    2    1    2    0    0  0.74641740782E-02  0.28219248191E-01  0.10532057709E-01  0.10128983371E+01  0.10124228747E+01 0.  0.
     999903    2    3    3    0    0 -0.52152908665E-01  0.85588564099E-01 -0.72730916327E-01  0.12510435322E+00  0.17775961786E-01 0.  0.
         14    1    1    2    0    0 -0.74641740782E-02 -0.28219248191E-01 -0.10532057709E-01  0.31031662906E-01  0.00000000000E+00 0.  1.
     999901    1    3    3    0    0  0.59617082743E-01 -0.57369315908E-01  0.83262974036E-01  0.88779398388E+00  0.88000000000E+00 0. -1.
        -11    1    4    4    0    0 -0.61792340519E-02  0.24376863879E-01 -0.20185840452E-01  0.32251258918E-01  0.51100000000E-03 0. -1.
         11    1    4    4    0    0 -0.45973674613E-01  0.61211700220E-01 -0.52545075876E-01  0.92853094300E-01  0.51100000000E-03 0.  1.
</event>
<event>
 8    1  0.1145101E+005  0.1043930E+01  0.7957747E-01            NaN
         13   -1    0    0    0    0  0.00000000000E+00  0.00000000000E+00  0.74505805969E-08  0.10566000000E+00  0.10566000000E+00 0.  1.
     999900   -1    0    0    0    0 -0.00000000000E+00 -0.00000000000E+00 -0.74505805969E-08  0.93827000000E+00  0.93827000000E+00 0. -1.
     999902    2    1    2    0    0 -0.23485485062E-01 -0.38479303847E-03 -0.29067004108E-02  0.10202621953E+01  0.10199876382E+01 0.  0.
     999903    2    3    3    0    0 -0.91586594806E-01 -0.45493148732E-01  0.81663050537E-01  0.13244207401E+00  0.20354808186E-01 0.  0.
         14    1    1    2    0    0  0.23485485062E-01  0.38479303847E-03  0.29067004108E-02  0.23667804747E-01  0.00000000000E+00 0. -1.
     999901    1    3    3    0    0  0.68101109744E-01  0.45108355694E-01 -0.84569750948E-01  0.88782012124E+00  0.88000000000E+00 0. -1.
        -11    1    4    4    0    0 -0.31406992944E-01 -0.66046442457E-02  0.19318669105E-01  0.37463217005E-01  0.51100000000E-03 0.  1.
         11    1    4    4    0    0 -0.60179601862E-01 -0.38888504487E-01  0.62344381432E-01  0.94978857009E-01  0.51100000000E-03 0. -1.
</event>
<event>
 8    1  0.1145101E+005  0.1043930E+01  0.7957747E-01            NaN
         13   -1    0    0    0    0  0.00000000000E+00  0.00000000000E+00  0.74505805969E-08  0.10566000000E+00  0.10566000000E+00 0. -1.
     999900   -1    0    0    0    0 -0.00000000000E+00 -0.00000000000E+00 -0.74505805969E-08  0.93827000000E+00  0.93827000000E+00 0. -1.
     999902    2    1    2    0    0  0.81350822229E-02 -0.67637889822E-02  0.21996021788E-01  0.10195219403E+01  0.10192297255E+01 0.  0.
     999903    2    3    3    0    0 -0.10943581921E+00 -0.37223953619E-03  0.68213420543E-01  0.13047761254E+00  0.19874595384E-01 0.  0.
         14    1    1    2    0    0 -0.81350822229E-02  0.67637889822E-02 -0.21996021788E-01  0.24408059708E-01  0.00000000000E+00 0.  1.
     999901    1    3    3    0    0  0.11757090144E+00 -0.63915494460E-02 -0.46217398754E-01  0.88904432776E+00  0.88000000000E+00 0.  1.
        -11    1    4    4    0    0 -0.82956442009E-01 -0.80471846917E-02  0.46984099063E-01  0.95678080761E-01  0.51100000000E-03 0. -1.
         11    1    4    4    0    0 -0.26479377204E-01  0.76749451555E-02  0.21229321480E-01  0.34799531775E-01  0.51100000000E-03 0.  1.
</event>
<event>
 8    1  0.1145101E+005  0.1043930E+01  0.7957747E-01            NaN
         13   -1    0    0    0    0  0.00000000000E+00  0.00000000000E+00  0.74505805969E-08  0.10566000000E+00  0.10566000000E+00 0.  1.
     999900   -1    0    0    0    0 -0.00000000000E+00 -0.00000000000E+00 -0.74505805969E-08  0.93827000000E+00  0.93827000000E+00 0. -1.
     999902    2    1    2    0    0  0.19744043922E-01  0.13580948289E-01  0.19255223485E-02  0.10198888465E+01  0.10196054541E+01 0.  0.
     999903    2    3    3    0    0  0.70177477038E-01  0.11095849296E+00 -0.56898586546E-03  0.13307875408E+00  0.21747772312E-01 0.  0.
         14    1    1    2    0    0 -0.19744043922E-01 -0.13580948289E-01 -0.19255223485E-02  0.24041153532E-01  0.00000000000E+00 0.  1.
     999901    1    3    3    0    0 -0.50433433115E-01 -0.97377544671E-01  0.24945082139E-02  0.88681009238E+00  0.88000000000E+00 0.  1.
        -11    1    4    4    0    0  0.27702674158E-01  0.36268347930E-01 -0.97329454458E-02  0.46667146529E-01  0.51100000000E-03 0. -1.
         11    1    4    4    0    0  0.42474802880E-01  0.74690145029E-01  0.91639595803E-02  0.86411607556E-01  0.51100000000E-03 0.  1.
</event>
<event>
 8    1  0.1145101E+005  0.1043930E+01  0.7957747E-01            NaN
         13   -1    0    0    0    0  0.00000000000E+00  0.00000000000E+00  0.74505805969E-08  0.10566000000E+00  0.10566000000E+00 0.  1.
     999900   -1    0    0    0    0 -0.00000000000E+00 -0.00000000000E+00 -0.74505805969E-08  0.93827000000E+00  0.93827000000E+00 0. -1.
     999902    2    1    2    0    0  0.18798976349E-02  0.55781363324E-02 -0.22745509723E-01  0.10204351531E+01  0.10201646405E+01 0.  0.
     999903    2    3    3    0    0 -0.63002010999E-01 -0.30372231246E-01  0.10538621316E+00  0.12806761140E+00  0.20083160759E-01 0.  0.
         14    1    1    2    0    0 -0.18798976349E-02 -0.55781363324E-02  0.22745509723E-01  0.23494846937E-01  0.00000000000E+00 0.  1.
     999901    1    3    3    0    0  0.64881908634E-01  0.35950367578E-01 -0.12813172288E+00  0.89236754166E+00  0.88000000000E+00 0. -1.
        -11    1    4    4    0    0 -0.32667306411E-01 -0.76854495368E-02  0.37498101344E-01  0.50324822584E-01  0.51100000000E-03 0.  1.
         11    1    4    4    0    0 -0.30334704589E-01 -0.22686781709E-01  0.67888111815E-01  0.77742788820E-01  0.51100000000E-03 0. -1.
</event>
<event>
 8    1  0.1145101E+005  0.1043930E+01  0.7957747E-01            NaN
         13   -1    0    0    0    0  0.00000000000E+00  0.00000000000E+00  0.74505805969E-08  0.10566000000E+00  0.10566000000E+00 0. -1.
     999900   -1    0    0    0    0 -0.00000000000E+00 -0.00000000000E+00 -0.74505805969E-08  0.93827000000E+00  0.93827000000E+00 0.  1.
     999902    2    1    2    0    0 -0.11946540536E-01 -0.85242409464E-02 -0.18614026264E-01  0.10202263191E+01  0.10199509193E+01 0.  0.
     999903    2    3    3    0    0 -0.31962952717E-01 -0.49675888712E-01  0.11346524987E+00  0.12919374391E+00  0.18092436823E-01 0.  0.
         14    1    1    2    0    0  0.11946540536E-01  0.85242409464E-02  0.18614026264E-01  0.23703680901E-01  0.00000000000E+00 0. -1.
     999901    1    3    3    0    0  0.20016412181E-01  0.41151647766E-01 -0.13207927614E+00  0.89103257519E+00  0.88000000000E+00 0.  1.
        -11    1    4    4    0    0 -0.31596012043E-01 -0.43707349803E-01  0.89555657125E-01  0.10454241841E+00  0.51100000000E-03 0.  1.
         11    1    4    4    0    0 -0.36694067407E-03 -0.59685389095E-02  0.23909592747E-01  0.24651325492E-01  0.51100000000E-03 0. -1.
</event>
<event>
 8    1  0.1145101E+005  0.1043930E+01  0.7957747E-01            NaN
         13   -1    0    0    0    0  0.00000000000E+00  0.00000000000E+00  0.74505805969E-08  0.10566000000E+00  0.10566000000E+00 0.  1.
     999900   -1    0    0    0    0 -0.00000000000E+00 -0.00000000000E+00 -0.74505805969E-08  0.93827000000E+00  0.93827000000E+00 0. -1.
     999902    2    1    2    0    0 -0.91001111413E-02 -0.26492447654E-02  0.22372072486E-01  0.10196330836E+01  0.10193435559E+01 0.  0.
     999903    2    3    3    0    0 -0.80044480629E-01 -0.71471432177E-01  0.75015001366E-01  0.13253620329E+00  0.20574505011E-01 0.  0.
         14    1    1    2    0    0  0.91001111413E-02  0.26492447654E-02 -0.22372072486E-01  0.24296916428E-01  0.00000000000E+00 0. -1.
     999901    1    3    3    0    0  0.70944369488E-01  0.68822187411E-01 -0.52642928881E-01  0.88709688028E+00  0.88000000000E+00 0. -1.
        -11    1    4    4    0    0 -0.32093701482E-01 -0.39188363062E-01  0.27080673313E-01  0.57440033621E-01  0.51100000000E-03 0. -1.
         11    1    4    4    0    0 -0.47950779147E-01 -0.32283069114E-01  0.47934328053E-01  0.75096169670E-01  0.51100000000E-03 0.  1.
</event>
<event>
 8    1  0.1145101E+005  0.1043930E+01  0.7957747E-01            NaN
         13   -1    0    0    0    0  0.00000000000E+00  0.00000000000E+00  0.74505805969E-08  0.10566000000E+00  0.10566000000E+00 0. -1.
     999900   -1    0    0    0    0 -0.00000000000E+00 -0.00000000000E+00 -0.74505805969E-08  0.93827000000E+00  0.93827000000E+00 0. -1.
     999902    2    1    2    0    0  0.43172837635E-02  0.58130085443E-02  0.23046805722E-01  0.10197724906E+01  0.10194863154E+01 0.  0.
     999903    2    3    3    0    0  0.12688090033E+00 -0.78756803860E-02  0.25509994045E-01  0.13116949283E+00  0.19846582645E-01 0.  0.
         14    1    1    2    0    0 -0.43172837635E-02 -0.58130085443E-02 -0.23046805722E-01  0.24157509420E-01  0.00000000000E+00 0.  1.
     999901    1    3    3    0    0 -0.12256361657E+00  0.13688688930E-01 -0.24631883237E-02  0.88860299775E+00  0.88000000000E+00 0. -1.
        -11    1    4    4    0    0  0.30913245167E-01 -0.80825572083E-02  0.12535462777E-01  0.34327181735E-01  0.51100000000E-03 0. -1.
         11    1    4    4    0    0  0.95967655165E-01  0.20687682235E-03  0.12974531268E-01  0.96842311096E-01  0.51100000000E-03 0.  1.
</event>
<event>
 8    1  0.1145101E+005  0.1043930E+01  0.7957747E-01            NaN
         13   -1    0    0    0    0  0.00000000000E+00  0.00000000000E+00  0.74505805969E-08  0.10566000000E+00  0.10566000000E+00 0.  1.
     999900   -1    0    0    0    0 -0.00000000000E+00 -0.00000000000E+00 -0.74505805969E-08  0.93827000000E+00  0.93827000000E+00 0.  1.
     999902    2    1    2    0    0 -0.31978927907E-02  0.21653558659E-01  0.92668667803E-02  0.10201607354E+01  0.10198837914E+01 0.  0.
     999903    2    3    3    0    0  0.47114647855E-01  0.66913740495E-01 -0.10088785001E+00  0.13071489810E+00  0.14518526005E-01 0.  0.
         14    1    1    2    0    0  0.31978927907E-02 -0.21653558659E-01 -0.92668667803E-02  0.23769264625E-01  0.00000000000E+00 0. -1.
     999901    1    3    3    0    0 -0.50312540645E-01 -0.45260181837E-01  0.11015471679E+00  0.88944583727E+00  0.88000000000E+00 0.  1.
        -11    1    4    4    0    0  0.67564732027E-02  0.11287516510E-01 -0.25526881112E-01  0.28721781620E-01  0.51100000000E-03 0. -1.
         11    1    4    4    0    0  0.40358174652E-01  0.55626223985E-01 -0.75360968898E-01  0.10199311649E+00  0.51100000000E-03 0.  1.
</event>
<event>
 8    1  0.1145101E+005  0.1043930E+01  0.7957747E-01            NaN
         13   -1    0    0    0    0  0.00000000000E+00  0.00000000000E+00  0.74505805969E-08  0.10566000000E+00  0.10566000000E+00 0. -1.
     999900   -1    0    0    0    0 -0.00000000000E+00 -0.00000000000E+00 -0.74505805969E-08  0.93827000000E+00  0.93827000000E+00 0.  1.
     999902    2    1    2    0    0  0.17337284637E-02  0.48813950365E-02  0.23146330319E-01  0.10202110953E+01  0.10199353374E+01 0.  0.
     999903    2    3    3    0    0 -0.44164861195E-01 -0.81451611206E-01 -0.86093442174E-01  0.12808251917E+00  0.20202747291E-01 0.  0.
         14    1    1    2    0    0 -0.17337284637E-02 -0.48813950365E-02 -0.23146330319E-01  0.23718904678E-01  0.00000000000E+00 0.  1.
     999901    1    3    3    0    0  0.45898589659E-01  0.86333006242E-01  0.10923977249E+00  0.89212857616E+00  0.88000000000E+00 0. -1.
        -11    1    4    4    0    0 -0.27342982129E-01 -0.46079318739E-01 -0.62617927075E-01  0.82414854240E-01  0.51100000000E-03 0. -1.
         11    1    4    4    0    0 -0.16821879066E-01 -0.35372292467E-01 -0.23475515099E-01  0.45667664926E-01  0.51100000000E-03 0.  1.
</event>
<event>
 8    1  0.1145101E+005  0.1043930E+01  0.7957747E-01            NaN
         13   -1    0    0    0    0  0.00000000000E+00  0.00000000000E+00  0.74505805969E-08  0.10566000000E+00  0.10566000000E+00 0. -1.
     999900   -1    0    0    0    0 -0.00000000000E+00 -0.00000000000E+00 -0.74505805969E-08  0.93827000000E+00  0.93827000000E+00 0. -1.
     999902    2    1    2    0    0 -0.26749491728E-01 -0.12437225754E-01 -0.22832886911E-01  0.10066263726E+01  0.10059349350E+01 0.  0.
     999903    2    3    3    0    0 -0.58557413052E-01 -0.10378128394E+00  0.24755542427E-02  0.12096503890E+00  0.20661237788E-01 0.  0.
         14    1    1    2    0    0  0.26749491728E-01  0.12437225754E-01  0.22832886911E-01  0.37303627396E-01  0.00000000000E+00 0. -1.
     999901    1    3    3    0    0  0.31807921324E-01  0.91344058190E-01 -0.25308441154E-01  0.88566133370E+00  0.88000000000E+00 0. -1.
        -11    1    4    4    0    0 -0.30893150263E-01 -0.71017438697E-01 -0.42151735753E-02  0.77562182419E-01  0.51100000000E-03 0.  1.
         11    1    4    4    0    0 -0.27664262789E-01 -0.32763845246E-01  0.66907278181E-02  0.43402856481E-01  0.51100000000E-03 0. -1.
</event>
<event>
 8    1  0.1145101E+005  0.1043930E+01  0.7957747E-01            NaN
         13   -1    0    0    0    0  0.00000000000E+00  0.00000000000E+00  0.74505805969E-08  0.10566000000E+00  0.10566000000E+00 0. -1.
     999900   -1    0    0    0    0 -0.00000000000E+00 -0.00000000000E+00 -0.74505805969E-08  0.93827000000E+00  0.93827000000E+00 0. -1.
     999902    2    1    2    0    0  0.20390757743E-01  0.11235744013E-01 -0.44582796343E-02  0.10202255447E+01  0.10199501266E+01 0.  0.
     999903    2    3    3    0    0 -0.53183251260E-01  0.26197615360E-01 -0.11427407602E+00  0.13022751011E+00  0.19643489344E-01 0.  0.
         14    1    1    2    0    0 -0.20390757743E-01 -0.11235744013E-01  0.44582796343E-02  0.23704455323E-01  0.00000000000E+00 0. -1.
     999901    1    3    3    0    0  0.73574009003E-01 -0.14961871347E-01  0.10981579639E+00  0.88999803457E+00  0.88000000000E+00 0.  1.
        -11    1    4    4    0    0 -0.13195260708E-01 -0.21965429120E-02 -0.23096416309E-01  0.26695416708E-01  0.51100000000E-03 0.  1.
         11    1    4    4    0    0 -0.39987990552E-01  0.28394158272E-01 -0.91177659714E-01  0.10353209340E+00  0.51100000000E-03 0. -1.
</event>
<event>
 8    1  0.1145101E+005  0.1043930E+01  0.7957747E-01            NaN
         13   -1    0    0    0    0  0.00000000000E+00  0.00000000000E+00  0.74505805969E-08  0.10566000000E+00  0.10566000000E+00 0. -1.
     999900   -1    0    0    0    0 -0.00000000000E+00 -0.00000000000E+00 -0.74505805969E-08  0.93827000000E+00  0.93827000000E+00 0. -1.
     999902    2    1    2    0    0  0.20238366405E-01  0.12053538837E-02 -0.10495061735E-01  0.10211003992E+01  0.10208451570E+01 0.  0.
     999903    2    3    3    0    0 -0.11301887955E+00  0.38662788283E-01  0.43809179623E-01  0.12862658801E+00  0.18907051411E-01 0.  0.
         14    1    1    2    0    0 -0.20238366405E-01 -0.12053538837E-02  0.10495061735E-01  0.22829600819E-01  0.00000000000E+00 0. -1.
     999901    1    3    3    0    0  0.13325724595E+00 -0.37457434400E-01 -0.54304241358E-01  0.89247381117E+00  0.88000000000E+00 0.  1.
        -11    1    4    4    0    0 -0.42690890511E-01  0.17334924564E-01  0.76121259946E-02  0.46703504423E-01  0.51100000000E-03 0.  1.
         11    1    4    4    0    0 -0.70327989035E-01  0.21327863719E-01  0.36197053629E-01  0.81923083590E-01  0.51100000000E-03 0. -1.
</event>
<event>
 8    1  0.1145101E+005  0.1043930E+01  0.7957747E-01            NaN
         13   -1    0    0    0    0  0.00000000000E+00  0.00000000000E+00  0.74505805969E-08  0.10566000000E+00  0.10566000000E+00 0. -1.
     999900   -1    0    0    0    0 -0.00000000000E+00 -0.00000000000E+00 -0.74505805969E-08  0.93827000000E+00  0.93827000000E+00 0. -1.
     999902    2    1    2    0    0  0.11502477273E-01  0.15040470060E-01 -0.14345335584E-01  0.10201747611E+01  0.10198981477E+01 0.  0.
     999903    2    3    3    0    0 -0.24939308817E-01 -0.11926352669E+00  0.33740085511E-01  0.12794285455E+00  0.19627091886E-01 0.  0.
         14    1    1    2    0    0 -0.11502477273E-01 -0.15040470060E-01  0.14345335584E-01  0.23755238918E-01  0.00000000000E+00 0. -1.
     999901    1    3    3    0    0  0.36441786090E-01  0.13430399675E+00 -0.48085421095E-01  0.89223190653E+00  0.88000000000E+00 0. -1.
        -11    1    4    4    0    0 -0.76353820399E-02 -0.80201555919E-01  0.19331840851E-01  0.82852699548E-01  0.51100000000E-03 0.  1.
         11    1    4    4    0    0 -0.17303926777E-01 -0.39061970773E-01  0.14408244661E-01  0.45090154999E-01  0.51100000000E-03 0. -1.
</event>
<event>
 8    1  0.1145101E+005  0.1043930E+01  0.7957747E-01            NaN
         13   -1    0    0    0    0  0.00000000000E+00  0.00000000000E+00  0.74505805969E-08  0.10566000000E+00  0.10566000000E+00 0.  1.
     999900   -1    0    0    0    0 -0.00000000000E+00 -0.00000000000E+00 -0.74505805969E-08  0.93827000000E+00  0.93827000000E+00 0.  1.
     999902    2    1    2    0    0  0.18301226954E-01 -0.12089589441E-01  0.55648137550E-02  0.10213012521E+01  0.10210505312E+01 0.  0.
     999903    2    3    3    0    0  0.37524075926E-01 -0.38080085466E-01 -0.11912136827E+00  0.13192412857E+00  0.18866004857E-01 0.  0.
         14    1    1    2    0    0 -0.18301226954E-01  0.12089589441E-01 -0.55648137550E-02  0.22628747932E-01  0.00000000000E+00 0. -1.
     999901    1    3    3    0    0 -0.19222848972E-01  0.25990496026E-01  0.12468618202E+00  0.88937712349E+00  0.88000000000E+00 0. -1.
        -11    1    4    4    0    0  0.37750597561E-01 -0.31893553860E-01 -0.95895515195E-01  0.10788196026E+00  0.51100000000E-03 0. -1.
         11    1    4    4    0    0 -0.22652163520E-03 -0.61865316064E-02 -0.23225853071E-01  0.24042168314E-01  0.51100000000E-03 0.  1.
</event>
<event>
 8    1  0.1145101E+005  0.1043930E+01  0.7957747E-01            NaN
         13   -1    0    0    0    0  0.00000000000E+00  0.00000000000E+00  0.74505805969E-08  0.10566000000E+00  0.10566000000E+00 0.  1.
     999900   -1    0    0    0    0 -0.00000000000E+00 -0.00000000000E+00 -0.74505805969E-08  0.93827000000E+00  0.93827000000E+00 0.  1.
     999902    2    1    2    0    0  0.16165928251E-01  0.16730081901E-01 -0.23162966088E-02  0.10205505623E+01  0.10202827315E+01 0.  0.
     999903    2    3    3    0    0 -0.30707933124E-01  0.89464247875E-01 -0.90019293948E-01  0.13196785174E+00  0.19110515589E-01 0.  0.
         14    1    1    2    0    0 -0.16165928251E-01 -0.16730081901E-01  0.23162966088E-02  0.23379437688E-01  0.00000000000E+00 0. -1.
     999901    1    3    3    0    0  0.46873861376E-01 -0.72734165974E-01  0.87702997339E-01  0.88858271057E+00  0.88000000000E+00 0. -1.
        -11    1    4    4    0    0 -0.19515034162E-01  0.56868571964E-01 -0.69318584991E-01  0.91761638944E-01  0.51100000000E-03 0. -1.
         11    1    4    4    0    0 -0.11192898962E-01  0.32595675911E-01 -0.20700708957E-01  0.40206212798E-01  0.51100000000E-03 0.  1.
</event>
<event>
 8    1  0.1145101E+005  0.1043930E+01  0.7957747E-01            NaN
         13   -1    0    0    0    0  0.00000000000E+00  0.00000000000E+00  0.74505805969E-08  0.10566000000E+00  0.10566000000E+00 0.  1.
     999900   -1    0    0    0    0 -0.00000000000E+00 -0.00000000000E+00 -0.74505805969E-08  0.93827000000E+00  0.93827000000E+00 0. -1.
     999902    2    1    2    0    0  0.14502517527E-01  0.44995726973E-02  0.20203475203E-01  0.10186565044E+01  0.10183429306E+01 0.  0.
     999903    2    3    3    0    0  0.21655888964E-01 -0.17577072333E-01 -0.12207658624E+00  0.12692663227E+00  0.20730317723E-01 0.  0.
         14    1    1    2    0    0 -0.14502517527E-01 -0.44995726973E-02 -0.20203475203E-01  0.25273495590E-01  0.00000000000E+00 0. -1.
     999901    1    3    3    0    0 -0.71533714370E-02  0.22076645031E-01  0.14228006144E+00  0.89172987214E+00  0.88000000000E+00 0.  1.
        -11    1    4    4    0    0  0.15116258857E-01 -0.14730107030E-01 -0.47167174709E-01  0.51676695192E-01  0.51100000000E-03 0.  1.
         11    1    4    4    0    0  0.65396301067E-02 -0.28469653031E-02 -0.74909411532E-01  0.75249937079E-01  0.51100000000E-03 0. -1.
</event>
<event>
 8    1  0.1145101E+005  0.1043930E+01  0.7957747E-01            NaN
         13   -1    0    0    0    0  0.00000000000E+00  0.00000000000E+00  0.74505805969E-08  0.10566000000E+00  0.10566000000E+00 0.  1.
     999900   -1    0    0    0    0 -0.00000000000E+00 -0.00000000000E+00 -0.74505805969E-08  0.93827000000E+00  0.93827000000E+00 0.  1.
     999902    2    1    2    0    0  0.16059379073E-01  0.12148723723E-01  0.12387855728E-01  0.10202877896E+01  0.10200138330E+01 0.  0.
     999903    2    3    3    0    0  0.39516693303E-01  0.11152445505E+00  0.57876562328E-01  0.13321676424E+00  0.19943336808E-01 0.  0.
         14    1    1    2    0    0 -0.16059379073E-01 -0.12148723723E-01 -0.12387855728E-01  0.23642210426E-01  0.00000000000E+00 0. -1.
     999901    1    3    3    0    0 -0.23457314230E-01 -0.99375731325E-01 -0.45488706599E-01  0.88707102534E+00  0.88000000000E+00 0.  1.
        -11    1    4    4    0    0  0.26600848028E-01  0.92125367872E-01  0.52389984522E-01  0.10926875180E+00  0.51100000000E-03 0. -1.
         11    1    4    4    0    0  0.12915845275E-01  0.19399087177E-01  0.54865778052E-02  0.23948012432E-01  0.51100000000E-03 0.  1.
</event>
<event>
 8    1  0.1145101E+005  0.1043930E+01  0.7957747E-01            NaN
         13   -1    0    0    0    0  0.00000000000E+00  0.00000000000E+00  0.74505805969E-08  0.10566000000E+00  0.10566000000E+00 0. -1.
     999900   -1    0    0    0    0 -0.00000000000E+00 -0.00000000000E+00 -0.74505805969E-08  0.93827000000E+00  0.93827000000E+00 0.  1.
     999902    2    1    2    0    0  0.61492184908E-02  0.13609382238E-01 -0.18090842485E-01  0.10204713821E+01  0.10202017128E+01 0.  0.
     999903    2    3    3    0    0  0.77484811342E-01 -0.82521092930E-01 -0.63119743588E-01  0.13122595083E+00  0.20555324698E-01 0.  0.
         14    1    1    2    0    0 -0.61492184908E-02 -0.13609382238E-01  0.18090842485E-01  0.23458617921E-01  0.00000000000E+00 0. -1.
     999901    1    3    3    0    0 -0.71335592851E-01  0.96130475168E-01  0.45028901104E-01  0.88924543125E+00  0.88000000000E+00 0. -1.
        -11    1    4    4    0    0  0.42522626101E-01 -0.37462929579E-01 -0.41450852127E-01  0.70214521904E-01  0.51100000000E-03 0. -1.
         11    1    4    4    0    0  0.34962185241E-01 -0.45058163351E-01 -0.21668891461E-01  0.61011428925E-01  0.51100000000E-03 0.  1.
</event>
<event>
 8    1  0.1145101E+005  0.1043930E+01  0.7957747E-01            NaN
         13   -1    0    0    0    0  0.00000000000E+00  0.00000000000E+00  0.74505805969E-08  0.10566000000E+00  0.10566000000E+00 0.  1.
     999900   -1    0    0    0    0 -0.00000000000E+00 -0.00000000000E+00 -0.74505805969E-08  0.93827000000E+00  0.93827000000E+00 0. -1.
     999902    2    1    2    0    0  0.13029684190E-01 -0.22734098436E-02 -0.18780066555E-01  0.10209597592E+01  0.10207013265E+01 0.  0.
     999903    2    3    3    0    0 -0.10549682138E+00  0.44921812355E-01 -0.59068910772E-01  0.13084790528E+00  0.22011123342E-01 0.  0.
         14    1    1    2    0    0 -0.13029684190E-01  0.22734098436E-02  0.18780066555E-01  0.22970240796E-01  0.00000000000E+00 0.  1.
     999901    1    3    3    0    0  0.11852650557E+00 -0.47195222198E-01  0.40288844217E-01  0.89011185392E+00  0.88000000000E+00 0.  1.
        -11    1    4    4    0    0 -0.52496237250E-01  0.32749691210E-01 -0.25401682917E-01  0.66887247034E-01  0.51100000000E-03 0. -1.
         11    1    4    4    0    0 -0.53000584131E-01  0.12172121145E-01 -0.33667227855E-01  0.63960658250E-01  0.51100000000E-03 0.  1.
</event>
<event>
 8    1  0.1145101E+005  0.1043930E+01  0.7957747E-01            NaN
         13   -1    0    0    0    0  0.00000000000E+00  0.00000000000E+00  0.74505805969E-08  0.10566000000E+00  0.10566000000E+00 0.  1.
     999900   -1    0    0    0    0 -0.00000000000E+00 -0.00000000000E+00 -0.74505805969E-08  0.93827000000E+00  0.93827000000E+00 0.  1.
     999902    2    1    2    0    0  0.41940411583E-03  0.21875683814E-01  0.94740106973E-02  0.10200872166E+01  0.10198085365E+01 0.  0.
     999903    2    3    3    0    0  0.34072180766E-01  0.10346011121E+00  0.74187241176E-01  0.13330859124E+00  0.20063041427E-01 0.  0.
         14    1    1    2    0    0 -0.41940411583E-03 -0.21875683814E-01 -0.94740106973E-02  0.23842783412E-01  0.00000000000E+00 0. -1.
     999901    1    3    3    0    0 -0.33652776651E-01 -0.81584427400E-01 -0.64713230479E-01  0.88677862535E+00  0.88000000000E+00 0.  1.
        -11    1    4    4    0    0  0.32111001741E-01  0.70271617341E-01  0.47728599952E-01  0.90815731076E-01  0.51100000000E-03 0. -1.
         11    1    4    4    0    0  0.19611790254E-02  0.33188493873E-01  0.26458641225E-01  0.42492860167E-01  0.51100000000E-03 0.  1.
</event>
<event>
 8    1  0.1145101E+005  0.1043930E+01  0.7957747E-01            NaN
         13   -1    0    0    0    0  0.00000000000E+00  0.00000000000E+00  0.74505805969E-08  0.10566000000E+00  0.10566000000E+00 0.  1.
     999900   -1    0    0    0    0 -0.00000000000E+00 -0.00000000000E+00 -0.74505805969E-08  0.93827000000E+00  0.93827000000E+00 0. -1.
     999902    2    1    2    0    0 -0.39682665059E-02  0.10621145363E-01  0.19569507694E-01  0.10213131589E+01  0.10210627048E+01 0.  0.
     999903    2    3    3    0    0 -0.11368304609E+00 -0.62734328727E-01 -0.66441443544E-02  0.13108537125E+00  0.16727191362E-01 0.  0.
         14    1    1    2    0    0  0.39682665059E-02 -0.10621145363E-01 -0.19569507694E-01  0.22616841054E-01  0.00000000000E+00 0. -1.
     999901    1    3    3    0    0  0.10971477959E+00  0.73355474090E-01  0.26213652048E-01  0.89022778770E+00  0.88000000000E+00 0.  1.
        -11    1    4    4    0    0 -0.59753348732E-01 -0.25091011391E-01  0.14039364546E-02  0.64824792293E-01  0.51100000000E-03 0.  1.
         11    1    4    4    0    0 -0.53929697361E-01 -0.37643317336E-01 -0.80480808090E-02  0.66260578953E-01  0.51100000000E-03 0. -1.
</event>
<event>
 8    1  0.1145101E+005  0.1043930E+01  0.7957747E-01            NaN
         13   -1    0    0    0    0  0.00000000000E+00  0.00000000000E+00  0.74505805969E-08  0.10566000000E+00  0.10566000000E+00 0.  1.
     999900   -1    0    0    0    0 -0.00000000000E+00 -0.00000000000E+00 -0.74505805969E-08  0.93827000000E+00  0.93827000000E+00 0.  1.
     999902    2    1    2    0    0  0.18487050545E-01  0.11630643434E-01 -0.96390030197E-02  0.10200563056E+01  0.10197768939E+01 0.  0.
     999903    2    3    3    0    0  0.65903837021E-01  0.52635885844E-02  0.11076930238E+00  0.13056934616E+00  0.20186498156E-01 0.  0.
         14    1    1    2    0    0 -0.18487050545E-01 -0.11630643434E-01  0.96390030197E-02  0.23873694389E-01  0.00000000000E+00 0.  1.
     999901    1    3    3    0    0 -0.47416786476E-01  0.63670548492E-02 -0.12040830540E+00  0.88948695945E+00  0.88000000000E+00 0.  1.
        -11    1    4    4    0    0  0.67641428782E-02  0.45686557728E-02  0.25619481064E-01  0.26893218019E-01  0.51100000000E-03 0.  1.
         11    1    4    4    0    0  0.59139694143E-01  0.69493281161E-03  0.85149821316E-01  0.10367612814E+00  0.51100000000E-03 0. -1.
</event>
<event>
 8    1  0.1145101E+005  0.1043930E+01  0.7957747E-01            NaN
         13   -1    0    0    0    0  0.00000000000E+00  0.00000000000E+00  0.74505805969E-08  0.10566000000E+00  0.10566000000E+00 0.  1.
     999900   -1    0    0    0    0 -0.00000000000E+00 -0.00000000000E+00 -0.74505805969E-08  0.93827000000E+00  0.93827000000E+00 0.  1.
     999902    2    1    2    0    0 -0.48108324782E-02 -0.22549189176E-01 -0.64313545396E-02  0.10199931589E+01  0.10197122495E+01 0.  0.
     999903    2    3    3    0    0  0.68966087544E-01  0.61519267330E-01 -0.87710695109E-01  0.12919751985E+00  0.21398402168E-01 0.  0.
         14    1    1    2    0    0  0.48108324782E-02  0.22549189176E-01  0.64313545396E-02  0.23936841121E-01  0.00000000000E+00 0. -1.
     999901    1    3    3    0    0 -0.73776920022E-01 -0.84068456506E-01  0.81279340570E-01  0.89079563903E+00  0.88000000000E+00 0.  1.
        -11    1    4    4    0    0  0.27651815380E-01  0.32854995844E-01 -0.28633324688E-01  0.51615908879E-01  0.51100000000E-03 0.  1.
         11    1    4    4    0    0  0.41314272164E-01  0.28664271487E-01 -0.59077370421E-01  0.77581610973E-01  0.51100000000E-03 0. -1.
</event>
<event>
 8    1  0.1145101E+005  0.1043930E+01  0.7957747E-01            NaN
         13   -1    0    0    0    0  0.00000000000E+00  0.00000000000E+00  0.74505805969E-08  0.10566000000E+00  0.10566000000E+00 0. -1.
     999900   -1    0    0    0    0 -0.00000000000E+00 -0.00000000000E+00 -0.74505805969E-08  0.93827000000E+00  0.93827000000E+00 0.  1.
     999902    2    1    2    0    0 -0.18928024252E-01  0.36409219094E-02  0.11129399193E-01  0.10216726430E+01  0.10214301736E+01 0.  0.
     999903    2    3    3    0    0 -0.10742185627E+00 -0.59212933220E-01  0.49707394043E-01  0.13416488128E+00  0.21994628520E-01 0.  0.
         14    1    1    2    0    0  0.18928024252E-01 -0.36409219094E-02 -0.11129399193E-01  0.22257357005E-01  0.00000000000E+00 0.  1.
     999901    1    3    3    0    0  0.88493832013E-01  0.62853855129E-01 -0.38577994849E-01  0.88750776171E+00  0.88000000000E+00 0.  1.
        -11    1    4    4    0    0 -0.25701588506E-01 -0.11118840570E-01  0.21269201957E-01  0.35168740954E-01  0.51100000000E-03 0. -1.
         11    1    4    4    0    0 -0.81720267759E-01 -0.48094092650E-01  0.28438192086E-01  0.98996140331E-01  0.51100000000E-03 0.  1.
</event>
<event>
 8    1  0.1145101E+005  0.1043930E+01  0.7957747E-01            NaN
         13   -1    0    0    0    0  0.00000000000E+00  0.00000000000E+00  0.74505805969E-08  0.10566000000E+00  0.10566000000E+00 0. -1.
     999900   -1    0    0    0    0 -0.00000000000E+00 -0.00000000000E+00 -0.74505805969E-08  0.93827000000E+00  0.93827000000E+00 0.  1.
     999902    2    1    2    0    0 -0.16248897791E-01 -0.14985061653E-01 -0.89810833091E-02  0.10200712781E+01  0.10197922209E+01 0.  0.
     999903    2    3    3    0    0 -0.20499865032E-01 -0.44909525788E-01 -0.12128287663E+00  0.13241974905E+00  0.19706440618E-01 0.  0.
         14    1    1    2    0    0  0.16248897791E-01  0.14985061653E-01  0.89810833091E-02  0.23858721876E-01  0.00000000000E+00 0. -1.
     999901    1    3    3    0    0  0.42509672409E-02  0.29924464135E-01  0.11230179333E+00  0.88765152907E+00  0.88000000000E+00 0. -1.
        -11    1    4    4    0    0  0.58078531396E-03 -0.19969816979E-02 -0.23248479481E-01  0.23346909146E-01  0.51100000000E-03 0.  1.
         11    1    4    4    0    0 -0.21080650345E-01 -0.42912544090E-01 -0.98034397153E-01  0.10907283991E+00  0.51100000000E-03 0. -1.
</event>
<event>
 8    1  0.1145101E+005  0.1043930E+01  0.7957747E-01            NaN
         13   -1    0    0    0    0  0.00000000000E+00  0.00000000000E+00  0.74505805969E-08  0.10566000000E+00  0.10566000000E+00 0. -1.
     999900   -1    0    0    0    0 -0.00000000000E+00 -0.00000000000E+00 -0.74505805969E-08  0.93827000000E+00  0.93827000000E+00 0.  1.
     999902    2    1    2    0    0 -0.71817875159E-03  0.90669720287E-03  0.24063387743E-01  0.10198388292E+01  0.10195542423E+01 0.  0.
     999903    2    3    3    0    0  0.68803669934E-01 -0.88921216158E-01 -0.59195621087E-01  0.12864053252E+00  0.20083260993E-01 0.  0.
         14    1    1    2    0    0  0.71817875159E-03 -0.90669720287E-03 -0.24063387743E-01  0.24091170793E-01  0.00000000000E+00 0.  1.
     999901    1    3    3    0    0 -0.69521848685E-01  0.89827913361E-01  0.83259008830E-01  0.89119829669E+00  0.88000000000E+00 0. -1.
        -11    1    4    4    0    0  0.63676646136E-01 -0.84905269430E-01 -0.49894810147E-01  0.11727477666E+00  0.51100000000E-03 0. -1.
         11    1    4    4    0    0  0.51270237978E-02 -0.40159467279E-02 -0.93008109406E-02  0.11365755861E-01  0.51100000000E-03 0.  1.
</event>
<event>
 8    1  0.1145101E+005  0.1043930E+01  0.7957747E-01            NaN
         13   -1    0    0    0    0  0.00000000000E+00  0.00000000000E+00  0.74505805969E-08  0.10566000000E+00  0.10566000000E+00 0.  1.
     999900   -1    0    0    0    0 -0.00000000000E+00 -0.00000000000E+00 -0.74505805969E-08  0.93827000000E+00  0.93827000000E+00 0.  1.
     999902    2    1    2    0    0 -0.13209399804E-01  0.76200913982E-02 -0.20639282512E-01  0.10182680823E+01  0.10179446711E+01 0.  0.
     999903    2    3    3    0    0 -0.16229270583E-01  0.10031784519E+00  0.76445613883E-01  0.12808412927E+00  0.15315123234E-01 0.  0.
         14    1    1    2    0    0  0.13209399804E-01 -0.76200913982E-02  0.20639282512E-01  0.25661917674E-01  0.00000000000E+00 0.  1.
     999901    1    3    3    0    0  0.30198707790E-02 -0.92697753796E-01 -0.97084896396E-01  0.89018395306E+00  0.88000000000E+00 0.  1.
        -11    1    4    4    0    0 -0.59130335645E-02  0.19155472523E-01  0.22207507640E-01  0.29922075631E-01  0.51100000000E-03 0. -1.
         11    1    4    4    0    0 -0.10316237018E-01  0.81162372671E-01  0.54238106243E-01  0.98162053634E-01  0.51100000000E-03 0.  1.
</event>
<event>
 8    1  0.1145101E+005  0.1043930E+01  0.7957747E-01            NaN
         13   -1    0    0    0    0  0.00000000000E+00  0.00000000000E+00  0.74505805969E-08  0.10566000000E+00  0.10566000000E+00 0.  1.
     999900   -1    0    0    0    0 -0.00000000000E+00 -0.00000000000E+00 -0.74505805969E-08  0.93827000000E+00  0.93827000000E+00 0. -1.
     999902    2    1    2    0    0  0.15650700672E-01 -0.85156371609E-02 -0.19143384849E-01  0.10177779505E+01  0.10174419035E+01 0.  0.
     999903    2    3    3    0    0 -0.32019290094E-01  0.10736520728E+00 -0.58630344848E-01  0.12802516569E+00  0.20010073481E-01 0.  0.
         14    1    1    2    0    0 -0.15650700672E-01  0.85156371609E-02  0.19143384849E-01  0.26152049466E-01  0.00000000000E+00 0.  1.
     999901    1    3    3    0    0  0.47669990766E-01 -0.11588084444E+00  0.39486959999E-01  0.88975278484E+00  0.88000000000E+00 0.  1.
        -11    1    4    4    0    0 -0.23065349728E-01  0.71684040833E-01 -0.49502787869E-01  0.90118806006E-01  0.51100000000E-03 0. -1.
         11    1    4    4    0    0 -0.89539403656E-02  0.35681166447E-01 -0.91275569786E-02  0.37906359684E-01  0.51100000000E-03 0.  1.
</event>
<event>
 8    1  0.1145101E+005  0.1043930E+01  0.7957747E-01            NaN
         13   -1    0    0    0    0  0.00000000000E+00  0.00000000000E+00  0.74505805969E-08  0.10566000000E+00  0.10566000000E+00 0.  1.
     999900   -1    0    0    0    0 -0.00000000000E+00 -0.00000000000E+00 -0.74505805969E-08  0.93827000000E+00  0.93827000000E+00 0.  1.
     999902    2    1    2    0    0  0.21111878275E-01  0.99111772617E-02  0.35586174632E-02  0.10203374885E+01  0.10200646959E+01 0.  0.
     999903    2    3    3    0    0  0.15438639164E-01 -0.12655733230E+00  0.14029709989E-01  0.12973910345E+00  0.19501083626E-01 0.  0.
         14    1    1    2    0    0 -0.21111878275E-01 -0.99111772617E-02 -0.35586174632E-02  0.23592511466E-01  0.00000000000E+00 0. -1.
     999901    1    3    3    0    0  0.56732391115E-02  0.13646850956E+00 -0.10471092526E-01  0.89059838509E+00  0.88000000000E+00 0. -1.
        -11    1    4    4    0    0  0.11423520567E-01 -0.60312137311E-01  0.15651862656E-01  0.63350553705E-01  0.51100000000E-03 0. -1.
         11    1    4    4    0    0  0.40151185964E-02 -0.66245194988E-01 -0.16221526664E-02  0.66388549741E-01  0.51100000000E-03 0.  1.
</event>
<event>
 8    1  0.1145101E+005  0.1043930E+01  0.7957747E-01            NaN
         13   -1    0    0    0    0  0.00000000000E+00  0.00000000000E+00  0.74505805969E-08  0.10566000000E+00  0.10566000000E+00 0. -1.
     999900   -1    0    0    0    0 -0.00000000000E+00 -0.00000000000E+00 -0.74505805969E-08  0.93827000000E+00  0.93827000000E+00 0. -1.
     999902    2    1    2    0    0  0.18547169915E-01  0.19544526441E-01  0.65614320524E-03  0.10169778841E+01  0.10166206767E+01 0.  0.
     999903    2    3    3    0    0  0.12210703634E+00  0.13341094905E-02  0.39735548808E-01  0.12985699882E+00  0.19287771548E-01 0.  0.
         14    1    1    2    0    0 -0.18547169915E-01 -0.19544526441E-01 -0.65614320524E-03  0.26952115864E-01  0.00000000000E+00 0.  1.
     999901    1    3    3    0    0 -0.10355986643E+00  0.18210416950E-01 -0.39079405603E-01  0.88712088532E+00  0.88000000000E+00 0. -1.
        -11    1    4    4    0    0  0.81152949869E-01 -0.53593623048E-02  0.33192465983E-01  0.87843753083E-01  0.51100000000E-03 0.  1.
         11    1    4    4    0    0  0.40954086474E-01  0.66934717953E-02  0.65430828248E-02  0.42013245738E-01  0.51100000000E-03 0. -1.
</event>
<event>
 8    1  0.1145101E+005  0.1043930E+01  0.7957747E-01            NaN
         13   -1    0    0    0    0  0.00000000000E+00  0.00000000000E+00  0.74505805969E-08  0.10566000000E+00  0.10566000000E+00 0. -1.
     999900   -1    0    0    0    0 -0.00000000000E+00 -0.00000000000E+00 -0.74505805969E-08  0.93827000000E+00  0.93827000000E+00 0.  1.
     999902    2    1    2    0    0  0.24023310412E-01  0.22440266493E-02 -0.57910424962E-03  0.10197951609E+01  0.10195095290E+01 0.  0.
     999903    2    3    3    0    0 -0.12458052848E+00 -0.14478638549E-01  0.65194744652E-02  0.12715125745E+00  0.19874598709E-01 0.  0.
         14    1    1    2    0    0 -0.24023310412E-01 -0.22440266493E-02  0.57910424962E-03  0.24134839143E-01  0.00000000000E+00 0. -1.
     999901    1    3    3    0    0  0.14860383889E+00  0.16722665198E-01 -0.70985787148E-02  0.89264390340E+00  0.88000000000E+00 0.  1.
        -11    1    4    4    0    0 -0.97358051455E-01 -0.19483093650E-01  0.44082042041E-02  0.99387496732E-01  0.51100000000E-03 0.  1.
         11    1    4    4    0    0 -0.27222477025E-01  0.50044551012E-02  0.21112702610E-02  0.27763760721E-01  0.51100000000E-03 0. -1.
</event>
<event>
 8    1  0.1145101E+005  0.1043930E+01  0.7957747E-01            NaN
         13   -1    0    0    0    0  0.00000000000E+00  0.00000000000E+00  0.74505805969E-08  0.10566000000E+00  0.10566000000E+00 0.  1.
     999900   -1    0    0    0    0 -0.00000000000E+00 -0.00000000000E+00 -0.74505805969E-08  0.93827000000E+00  0.93827000000E+00 0.  1.
     999902    2    1    2    0    0 -0.13590687254E-02 -0.22366041591E-01 -0.36931773561E-02  0.10212203887E+01  0.10209678526E+01 0.  0.
     999903    2    3    3    0    0 -0.49625697858E-03  0.44358977384E-01  0.12047172342E+00  0.13000218023E+00  0.20473533585E-01 0.  0.
         14    1    1    2    0    0  0.13590687254E-02  0.22366041591E-01  0.36931773561E-02  0.22709611253E-01  0.00000000000E+00 0.  1.
     999901    1    3    3    0    0 -0.86281174682E-03 -0.66725018976E-01 -0.12416490077E+00  0.89121820851E+00  0.88000000000E+00 0.  1.
        -11    1    4    4    0    0  0.19558593842E-02  0.32124147802E-01  0.58364604103E-01  0.66651889628E-01  0.51100000000E-03 0.  1.
         11    1    4    4    0    0 -0.24521163628E-02  0.12234829582E-01  0.62107119312E-01  0.63350290606E-01  0.51100000000E-03 0. -1.
</event>
<event>
 8    1  0.1145101E+005  0.1043930E+01  0.7957747E-01            NaN
         13   -1    0    0    0    0  0.00000000000E+00  0.00000000000E+00  0.74505805969E-08  0.10566000000E+00  0.10566000000E+00 0.  1.
     999900   -1    0    0    0    0 -0.00000000000E+00 -0.00000000000E+00 -0.74505805969E-08  0.93827000000E+00  0.93827000000E+00 0.  1.
     999902    2    1    2    0    0  0.13985309570E-01 -0.18676127935E-01 -0.60659953296E-02  0.10198222639E+01  0.10195372809E+01 0.  0.
     999903    2    3    3    0    0 -0.40180708139E-01 -0.12036673103E+00  0.28779571148E-01  0.13162794414E+00  0.19874926816E-01 0.  0.
         14    1    1    2    0    0 -0.13985309570E-01  0.18676127935E-01  0.60659953296E-02  0.24107736056E-01  0.00000000000E+00 0. -1.
     999901    1    3    3    0    0  0.54166017709E-01  0.10169060310E+00 -0.34845566477E-01  0.88819431981E+00  0.88000000000E+00 0.  1.
        -11    1    4    4    0    0 -0.16008386280E-01 -0.75142633549E-01  0.21873402699E-01  0.79883607045E-01  0.51100000000E-03 0. -1.
         11    1    4    4    0    0 -0.24172321860E-01 -0.45224097486E-01  0.69061684485E-02  0.51744337092E-01  0.51100000000E-03 0.  1.
</event>
<event>
 8    1  0.1145101E+005  0.1043930E+01  0.7957747E-01            NaN
         13   -1    0    0    0    0  0.00000000000E+00  0.00000000000E+00  0.74505805969E-08  0.10566000000E+00  0.10566000000E+00 0. -1.
     999900   -1    0    0    0    0 -0.00000000000E+00 -0.00000000000E+00 -0.74505805969E-08  0.93827000000E+00  0.93827000000E+00 0. -1.
     999902    2    1    2    0    0  0.20050188744E-01  0.11720690227E-02 -0.12560399850E-01  0.10202414488E+01  0.10199664045E+01 0.  0.
     999903    2    3    3    0    0  0.44150408835E-01  0.11309651130E+00 -0.48335920145E-01  0.13210419067E+00  0.19366893139E-01 0.  0.
         14    1    1    2    0    0 -0.20050188744E-01 -0.11720690227E-02  0.12560399850E-01  0.23688551219E-01  0.00000000000E+00 0. -1.
     999901    1    3    3    0    0 -0.24100220091E-01 -0.11192444227E+00  0.35775520294E-01  0.88813725811E+00  0.88000000000E+00 0.  1.
        -11    1    4    4    0    0  0.21298818514E-01  0.60909154534E-01 -0.15565958031E-01  0.66378648273E-01  0.51100000000E-03 0.  1.
         11    1    4    4    0    0  0.22851590321E-01  0.52187356761E-01 -0.32769962113E-01  0.65725542400E-01  0.51100000000E-03 0. -1.
</event>
<event>
 8    1  0.1145101E+005  0.1043930E+01  0.7957747E-01            NaN
         13   -1    0    0    0    0  0.00000000000E+00  0.00000000000E+00  0.74505805969E-08  0.10566000000E+00  0.10566000000E+00 0.  1.
     999900   -1    0    0    0    0 -0.00000000000E+00 -0.00000000000E+00 -0.74505805969E-08  0.93827000000E+00  0.93827000000E+00 0.  1.
     999902    2    1    2    0    0  0.13090283569E-01  0.39052826394E-02 -0.19114645645E-01  0.10204358213E+01  0.10201653243E+01 0.  0.
     999903    2    3    3    0    0 -0.58301653789E-01  0.60430989018E-01 -0.99526275245E-01  0.13209017098E+00  0.22166337927E-01 0.  0.
         14    1    1    2    0    0 -0.13090283569E-01 -0.39052826394E-02  0.19114645645E-01  0.23494178737E-01  0.00000000000E+00 0.  1.
     999901    1    3    3    0    0  0.71391937358E-01 -0.56525706379E-01  0.80411629600E-01  0.88834565028E+00  0.88000000000E+00 0. -1.
        -11    1    4    4    0    0 -0.34710122969E-01  0.36844338542E-01 -0.75803167715E-01  0.91151957060E-01  0.51100000000E-03 0.  1.
         11    1    4    4    0    0 -0.23591530820E-01  0.23586650476E-01 -0.23723107530E-01  0.40938213920E-01  0.51100000000E-03 0. -1.
</event>
<event>
 8    1  0.1145101E+005  0.1043930E+01  0.7957747E-01            NaN
         13   -1    0    0    0    0  0.00000000000E+00  0.00000000000E+00  0.74505805969E-08  0.10566000000E+00  0.10566000000E+00 0. -1.
     999900   -1    0    0    0    0 -0.00000000000E+00 -0.00000000000E+00 -0.74505805969E-08  0.93827000000E+00  0.93827000000E+00 0.  1.
     999902    2    1    2    0    0  0.20982146777E-01 -0.98047802677E-02  0.22440854534E-02  0.10206615639E+01  0.10203962994E+01 0.  0.
     999903    2    3    3    0    0 -0.10376669393E+00  0.37332169407E-01  0.62962111596E-01  0.12854562749E+00  0.19963296504E-01 0.  0.
         14    1    1    2    0    0 -0.20982146777E-01  0.98047802677E-02 -0.22440854534E-02  0.23268436110E-01  0.00000000000E+00 0.  1.
     999901    1    3    3    0    0  0.12474884071E+00 -0.47136949675E-01 -0.60718026143E-01  0.89211593640E+00  0.88000000000E+00 0.  1.
        -11    1    4    4    0    0 -0.36605770075E-01  0.23309622003E-01  0.22372071192E-01  0.48827160179E-01  0.51100000000E-03 0.  1.
         11    1    4    4    0    0 -0.67160923858E-01  0.14022547404E-01  0.40590040404E-01  0.79718467310E-01  0.51100000000E-03 0. -1.
</event>
<event>
 8    1  0.1145101E+005  0.1043930E+01  0.7957747E-01            NaN
         13   -1    0    0    0    0  0.00000000000E+00  0.00000000000E+00  0.74505805969E-08  0.10566000000E+00  0.10566000000E+00 0.  1.
     999900   -1    0    0    0    0 -0.00000000000E+00 -0.00000000000E+00 -0.74505805969E-08  0.93827000000E+00  0.93827000000E+00 0.  1.
     999902    2    1    2    0    0  0.11406086743E-01  0.64460388125E-02  0.19255068616E-01  0.10206403478E+01  0.10203745938E+01 0.  0.
     999903    2    3    3    0    0  0.12336701834E+00 -0.39155510846E-01  0.22028659445E-01  0.13237099434E+00  0.16859509502E-01 0.  0.
         14    1    1    2    0    0 -0.11406086743E-01 -0.64460388125E-02 -0.19255068616E-01  0.23289652178E-01  0.00000000000E+00 0. -1.
     999901    1    3    3    0    0 -0.11196093160E+00  0.45601549659E-01 -0.27735908291E-02  0.88826935349E+00  0.88000000000E+00 0.  1.
        -11    1    4    4    0    0  0.10442058045E+00 -0.26576344502E-01  0.19199627167E-01  0.10944791690E+00  0.51100000000E-03 0.  1.
         11    1    4    4    0    0  0.18946437890E-01 -0.12579166345E-01  0.28290322782E-02  0.22923077439E-01  0.51100000000E-03 0. -1.
</event>
<event>
 8    1  0.1145101E+005  0.1043930E+01  0.7957747E-01            NaN
         13   -1    0    0    0    0  0.00000000000E+00  0.00000000000E+00  0.74505805969E-08  0.10566000000E+00  0.10566000000E+00 0. -1.
     999900   -1    0    0    0    0 -0.00000000000E+00 -0.00000000000E+00 -0.74505805969E-08  0.93827000000E+00  0.93827000000E+00 0.  1.
     999902    2    1    2    0    0 -0.17196371759E-01  0.16861924654E-01  0.57275816758E-03  0.10198391769E+01  0.10195545984E+01 0.  0.
     999903    2    3    3    0    0 -0.11154047379E+00  0.28878779024E-01 -0.62071404672E-01  0.13250073782E+00  0.20696015877E-01 0.  0.
         14    1    1    2    0    0  0.17196371759E-01 -0.16861924654E-01 -0.57275816758E-03  0.24090823079E-01  0.00000000000E+00 0. -1.
     999901    1    3    3    0    0  0.94344102028E-01 -0.12016854370E-01  0.62644162839E-01  0.88733843911E+00  0.88000000000E+00 0.  1.
        -11    1    4    4    0    0 -0.32982810202E-01  0.18289067283E-01 -0.22241184765E-01  0.43786837882E-01  0.51100000000E-03 0. -1.
         11    1    4    4    0    0 -0.78557663585E-01  0.10589711741E-01 -0.39830219907E-01  0.88713899934E-01  0.51100000000E-03 0.  1.
</event>
<event>
 8    1  0.1145101E+005  0.1043930E+01  0.7957747E-01            NaN
         13   -1    0    0    0    0  0.00000000000E+00  0.00000000000E+00  0.74505805969E-08  0.10566000000E+00  0.10566000000E+00 0.  1.
     999900   -1    0    0    0    0 -0.00000000000E+00 -0.00000000000E+00 -0.74505805969E-08  0.93827000000E+00  0.93827000000E+00 0.  1.
     999902    2    1    2    0    0 -0.25132281945E-01 -0.19569780560E-02 -0.47753844883E-02  0.10182733117E+01  0.10179500339E+01 0.  0.
     999903    2    3    3    0    0 -0.11820224658E+00  0.33669746498E-01  0.41932253025E-01  0.13141769478E+00  0.20171111314E-01 0.  0.
         14    1    1    2    0    0  0.25132281945E-01  0.19569780560E-02  0.47753844883E-02  0.25656688327E-01  0.00000000000E+00 0.  1.
     999901    1    3    3    0    0  0.93069964631E-01 -0.35626724554E-01 -0.46707637513E-01  0.88685561690E+00  0.88000000000E+00 0.  1.
        -11    1    4    4    0    0 -0.59659436947E-01  0.90793421342E-02  0.27394024436E-01  0.66275007101E-01  0.51100000000E-03 0.  1.
         11    1    4    4    0    0 -0.58542809630E-01  0.24590404364E-01  0.14538228589E-01  0.65142687676E-01  0.51100000000E-03 0. -1.
</event>
<event>
 8    1  0.1145101E+005  0.1043930E+01  0.7957747E-01            NaN
         13   -1    0    0    0    0  0.00000000000E+00  0.00000000000E+00  0.74505805969E-08  0.10566000000E+00  0.10566000000E+00 0. -1.
     999900   -1    0    0    0    0 -0.00000000000E+00 -0.00000000000E+00 -0.74505805969E-08  0.93827000000E+00  0.93827000000E+00 0. -1.
     999902    2    1    2    0    0  0.41126910201E-02  0.21015932836E-01 -0.92434441932E-02  0.10206056582E+01  0.10203391028E+01 0.  0.
     999903    2    3    3    0    0  0.10667608840E+00  0.76187984379E-01 -0.79733868629E-02  0.13293183363E+00  0.20564549499E-01 0.  0.
         14    1    1    2    0    0 -0.41126910201E-02 -0.21015932836E-01  0.92434441932E-02  0.23324341812E-01  0.00000000000E+00 0. -1.
     999901    1    3    3    0    0 -0.10256339738E+00 -0.55172051542E-01 -0.12700573303E-02  0.88767382455E+00  0.88000000000E+00 0. -1.
        -11    1    4    4    0    0  0.48334159147E-01  0.46333067598E-01 -0.41108537936E-03  0.66958003298E-01  0.51100000000E-03 0.  1.
         11    1    4    4    0    0  0.58341929249E-01  0.29854916781E-01 -0.75623014836E-02  0.65973830336E-01  0.51100000000E-03 0. -1.
</event>
<event>
 8    1  0.1145101E+005  0.1043930E+01  0.7957747E-01            NaN
         13   -1    0    0    0    0  0.00000000000E+00  0.00000000000E+00  0.74505805969E-08  0.10566000000E+00  0.10566000000E+00 0. -1.
     999900   -1    0    0    0    0 -0.00000000000E+00 -0.00000000000E+00 -0.74505805969E-08  0.93827000000E+00  0.93827000000E+00 0. -1.
     999902    2    1    2    0    0 -0.74259401801E-02 -0.20713979316E-01 -0.14544839575E-02  0.10218771306E+01  0.10216391442E+01 0.  0.
     999903    2    3    3    0    0 -0.23614530202E-01 -0.63519293442E-01  0.11312026877E+00  0.13327050257E+00  0.19299869735E-01 0.  0.
         14    1    1    2    0    0  0.74259401801E-02  0.20713979316E-01  0.14544839575E-02  0.22052869433E-01  0.00000000000E+00 0. -1.
     999901    1    3    3    0    0  0.16188590022E-01  0.42805314127E-01 -0.11457475273E+00  0.88860662800E+00  0.88000000000E+00 0. -1.
        -11    1    4    4    0    0 -0.18591487629E-02 -0.29280559773E-01  0.39427353038E-01  0.49148600217E-01  0.51100000000E-03 0.  1.
         11    1    4    4    0    0 -0.21755381439E-01 -0.34238733669E-01  0.73692915732E-01  0.84121902349E-01  0.51100000000E-03 0. -1.
</event>
<event>
 8    1  0.1145101E+005  0.1043930E+01  0.7957747E-01            NaN
         13   -1    0    0    0    0  0.00000000000E+00  0.00000000000E+00  0.74505805969E-08  0.10566000000E+00  0.10566000000E+00 0. -1.
     999900   -1    0    0    0    0 -0.00000000000E+00 -0.00000000000E+00 -0.74505805969E-08  0.93827000000E+00  0.93827000000E+00 0.  1.
     999902    2    1    2    0    0 -0.11465295488E-01 -0.80623115063E-02 -0.18179211929E-01  0.10209748783E+01  0.10207167895E+01 0.  0.
     999903    2    3    3    0    0  0.69907289173E-01 -0.10825335355E+00 -0.18362825475E-01  0.13155946568E+00  0.19101885138E-01 0.  0.
         14    1    1    2    0    0  0.11465295488E-01  0.80623115063E-02  0.18179211929E-01  0.22955121734E-01  0.00000000000E+00 0. -1.
     999901    1    3    3    0    0 -0.81372584660E-01  0.10019104204E+00  0.18361354579E-03  0.88941541259E+00  0.88000000000E+00 0.  1.
        -11    1    4    4    0    0  0.48114464339E-01 -0.73448866393E-01 -0.34706199334E-02  0.87875161319E-01  0.51100000000E-03 0.  1.
         11    1    4    4    0    0  0.21792824833E-01 -0.34804487154E-01 -0.14892205542E-01  0.43684304357E-01  0.51100000000E-03 0. -1.
</event>
<event>
 8    1  0.1145101E+005  0.1043930E+01  0.7957747E-01            NaN
         13   -1    0    0    0    0  0.00000000000E+00  0.00000000000E+00  0.74505805969E-08  0.10566000000E+00  0.10566000000E+00 0.  1.
     999900   -1    0    0    0    0 -0.00000000000E+00 -0.00000000000E+00 -0.74505805969E-08  0.93827000000E+00  0.93827000000E+00 0. -1.
     999902    2    1    2    0    0 -0.17938947803E-01 -0.14174632580E-01  0.71253180544E-02  0.10199822190E+01  0.10197010498E+01 0.  0.
     999903    2    3    3    0    0  0.39526425718E-02 -0.10396461428E+00  0.80237515237E-01  0.13212700788E+00  0.13972220831E-01 0.  0.
         14    1    1    2    0    0  0.17938947803E-01  0.14174632580E-01 -0.71253180544E-02  0.23947780992E-01  0.00000000000E+00 0.  1.
     999901    1    3    3    0    0 -0.21891590375E-01  0.89789981702E-01 -0.73112197182E-01  0.88785521112E+00  0.88000000000E+00 0.  1.
        -11    1    4    4    0    0  0.86156991178E-02 -0.84577121695E-01  0.65716175077E-01  0.10745416033E+00  0.51100000000E-03 0. -1.
         11    1    4    4    0    0 -0.46630565460E-02 -0.19387492587E-01  0.14521340160E-01  0.24672847549E-01  0.51100000000E-03 0.  1.
</event>
<event>
 8    1  0.1145101E+005  0.1043930E+01  0.7957747E-01            NaN
         13   -1    0    0    0    0  0.00000000000E+00  0.00000000000E+00  0.74505805969E-08  0.10566000000E+00  0.10566000000E+00 0.  1.
     999900   -1    0    0    0    0 -0.00000000000E+00 -0.00000000000E+00 -0.74505805969E-08  0.93827000000E+00  0.93827000000E+00 0.  1.
     999902    2    1    2    0    0 -0.98796419426E-02  0.10627260711E-01 -0.19615391440E-01  0.10195310333E+01  0.10192390388E+01 0.  0.
     999903    2    3    3    0    0 -0.67854806804E-02  0.11968682389E+00  0.47244095926E-01  0.13027642790E+00  0.19208448815E-01 0.  0.
         14    1    1    2    0    0  0.98796419426E-02 -0.10627260711E-01  0.19615391440E-01  0.24398966710E-01  0.00000000000E+00 0.  1.
     999901    1    3    3    0    0 -0.30941612621E-02 -0.10905956318E+00 -0.66859487366E-01  0.88925460539E+00  0.88000000000E+00 0.  1.
        -11    1    4    4    0    0  0.31371515042E-02  0.73196932914E-01  0.34936773687E-01  0.81169403006E-01  0.51100000000E-03 0.  1.
         11    1    4    4    0    0 -0.99226321846E-02  0.46489890976E-01  0.12307322239E-01  0.49107024896E-01  0.51100000000E-03 0. -1.
</event>
<event>
 8    1  0.1145101E+005  0.1043930E+01  0.7957747E-01            NaN
         13   -1    0    0    0    0  0.00000000000E+00  0.00000000000E+00  0.74505805969E-08  0.10566000000E+00  0.10566000000E+00 0.  1.
     999900   -1    0    0    0    0 -0.00000000000E+00 -0.00000000000E+00 -0.74505805969E-08  0.93827000000E+00  0.93827000000E+00 0.  1.
     999902    2    1    2    0    0 -0.97006542086E-02 -0.81826043986E-02  0.19532708161E-01  0.10206365590E+01  0.10203707175E+01 0.  0.
     999903    2    3    3    0    0 -0.12082980496E+00  0.27541398848E-01  0.42856398043E-01  0.13262198304E+00  0.19838072388E-01 0.  0.
         14    1    1    2    0    0  0.97006542086E-02  0.81826043986E-02 -0.19532708161E-01  0.23293441028E-01  0.00000000000E+00 0. -1.
     999901    1    3    3    0    0  0.11112915075E+00 -0.35724003247E-01 -0.23323689882E-01  0.88801457593E+00  0.88000000000E+00 0.  1.
        -11    1    4    4    0    0 -0.63762763541E-01  0.14777704934E-01  0.33052452276E-01  0.73326641134E-01  0.51100000000E-03 0. -1.
         11    1    4    4    0    0 -0.57067041416E-01  0.12763693914E-01  0.98039457672E-02  0.59295341908E-01  0.51100000000E-03 0.  1.
</event>
<event>
 8    1  0.1145101E+005  0.1043930E+01  0.7957747E-01            NaN
         13   -1    0    0    0    0  0.00000000000E+00  0.00000000000E+00  0.74505805969E-08  0.10566000000E+00  0.10566000000E+00 0.  1.
     999900   -1    0    0    0    0 -0.00000000000E+00 -0.00000000000E+00 -0.74505805969E-08  0.93827000000E+00  0.93827000000E+00 0. -1.
     999902    2    1    2    0    0  0.17830597076E-01 -0.15733436258E-01  0.49823664389E-02  0.10196340089E+01  0.10193445035E+01 0.  0.
     999903    2    3    3    0    0 -0.33356167029E-01 -0.12545889509E+00 -0.20049657299E-02  0.13131616941E+00  0.19681164226E-01 0.  0.
         14    1    1    2    0    0 -0.17830597076E-01  0.15733436258E-01 -0.49823664389E-02  0.24295991107E-01  0.00000000000E+00 0. -1.
     999901    1    3    3    0    0  0.51186764104E-01  0.10972545883E+00  0.69873321688E-02  0.88831783948E+00  0.88000000000E+00 0. -1.
        -11    1    4    4    0    0 -0.13178553316E-01 -0.66228896218E-01 -0.98789095140E-02  0.68248039795E-01  0.51100000000E-03 0. -1.
         11    1    4    4    0    0 -0.20177613713E-01 -0.59229998869E-01  0.78739437841E-02  0.63068129613E-01  0.51100000000E-03 0.  1.
</event>
<event>
 8    1  0.1145101E+005  0.1043930E+01  0.7957747E-01            NaN
         13   -1    0    0    0    0  0.00000000000E+00  0.00000000000E+00  0.74505805969E-08  0.10566000000E+00  0.10566000000E+00 0.  1.
     999900   -1    0    0    0    0 -0.00000000000E+00 -0.00000000000E+00 -0.74505805969E-08  0.93827000000E+00  0.93827000000E+00 0. -1.
     999902    2    1    2    0    0 -0.96587060283E-02  0.82703254590E-02  0.20707616792E-01  0.10196299120E+01  0.10193403078E+01 0.  0.
     999903    2    3    3    0    0 -0.93572484921E-01  0.88515034250E-01 -0.15757057039E-01  0.13125476147E+00  0.19718172824E-01 0.  0.
         14    1    1    2    0    0  0.96587060283E-02 -0.82703254590E-02 -0.20707616792E-01  0.24300088036E-01  0.00000000000E+00 0. -1.
     999901    1    3    3    0    0  0.83913778893E-01 -0.80244708791E-01  0.36464673832E-01  0.88837515049E+00  0.88000000000E+00 0.  1.
        -11    1    4    4    0    0 -0.25086218015E-01  0.13431952821E-01 -0.32349026982E-03  0.28462281319E-01  0.51100000000E-03 0. -1.
         11    1    4    4    0    0 -0.68486266906E-01  0.75083081429E-01 -0.15433566770E-01  0.10279248015E+00  0.51100000000E-03 0.  1.
</event>
<event>
 8    1  0.1145101E+005  0.1043930E+01  0.7957747E-01            NaN
         13   -1    0    0    0    0  0.00000000000E+00  0.00000000000E+00  0.74505805969E-08  0.10566000000E+00  0.10566000000E+00 0. -1.
     999900   -1    0    0    0    0 -0.00000000000E+00 -0.00000000000E+00 -0.74505805969E-08  0.93827000000E+00  0.93827000000E+00 0.  1.
     999902    2    1    2    0    0  0.91049501907E-02 -0.19053938540E-01  0.82810265020E-02  0.10212467883E+01  0.10209948455E+01 0.  0.
     999903    2    3    3    0    0 -0.43272988052E-01  0.92191240730E-01  0.78154954202E-01  0.12995485854E+00  0.20206237416E-01 0.  0.
         14    1    1    2    0    0 -0.91049501907E-02  0.19053938540E-01 -0.82810265020E-02  0.22683211672E-01  0.00000000000E+00 0.  1.
     999901    1    3    3    0    0  0.52377938242E-01 -0.11124517927E+00 -0.69873927700E-01  0.89129192978E+00  0.88000000000E+00 0.  1.
        -11    1    4    4    0    0 -0.35948732122E-02  0.24223774938E-01  0.12705185426E-01  0.27593427539E-01  0.51100000000E-03 0.  1.
         11    1    4    4    0    0 -0.39678114840E-01  0.67967465792E-01  0.65449768776E-01  0.10236143100E+00  0.51100000000E-03 0. -1.
</event>
<event>
 8    1  0.1145101E+005  0.1043930E+01  0.7957747E-01            NaN
         13   -1    0    0    0    0  0.00000000000E+00  0.00000000000E+00  0.74505805969E-08  0.10566000000E+00  0.10566000000E+00 0. -1.
     999900   -1    0    0    0    0 -0.00000000000E+00 -0.00000000000E+00 -0.74505805969E-08  0.93827000000E+00  0.93827000000E+00 0. -1.
     999902    2    1    2    0    0 -0.12367273766E-01 -0.17046020719E-01  0.10281585554E-01  0.10204944013E+01  0.10202252672E+01 0.  0.
     999903    2    3    3    0    0  0.11754256364E+00 -0.35773795126E-01 -0.35492733669E-01  0.12958330382E+00  0.20882523829E-01 0.  0.
         14    1    1    2    0    0  0.12367273766E-01  0.17046020719E-01 -0.10281585554E-01  0.23435598654E-01  0.00000000000E+00 0. -1.
     999901    1    3    3    0    0 -0.12990983741E+00  0.18727774407E-01  0.45774319223E-01  0.89091109752E+00  0.88000000000E+00 0.  1.
        -11    1    4    4    0    0  0.10563317272E+00 -0.30117499250E-01 -0.37845775785E-01  0.11618087108E+00  0.51100000000E-03 0. -1.
         11    1    4    4    0    0  0.11909390926E-01 -0.56562958764E-02  0.23530421162E-02  0.13402432744E-01  0.51100000000E-03 0.  1.
</event>
<event>
 8    1  0.1145101E+005  0.1043930E+01  0.7957747E-01            NaN
         13   -1    0    0    0    0  0.00000000000E+00  0.00000000000E+00  0.74505805969E-08  0.10566000000E+00  0.10566000000E+00 0.  1.
     999900   -1    0    0    0    0 -0.00000000000E+00 -0.00000000000E+00 -0.74505805969E-08  0.93827000000E+00  0.93827000000E+00 0. -1.
     999902    2    1    2    0    0  0.21569996073E-02 -0.57082737830E-02 -0.22244451821E-01  0.10208637330E+01  0.10206031103E+01 0.  0.
     999903    2    3    3    0    0 -0.44508131394E-01  0.91321560850E-01  0.76780043586E-01  0.12878847050E+00  0.19253410194E-01 0.  0.
         14    1    1    2    0    0 -0.21569996073E-02  0.57082737830E-02  0.22244451821E-01  0.23066267008E-01  0.00000000000E+00 0.  1.
     999901    1    3    3    0    0  0.46665131002E-01 -0.97029834633E-01 -0.99024495407E-01  0.89207526249E+00  0.88000000000E+00 0. -1.
        -11    1    4    4    0    0 -0.39906077986E-02  0.15417814131E-01  0.20541221884E-01  0.25996862516E-01  0.51100000000E-03 0. -1.
         11    1    4    4    0    0 -0.40517523596E-01  0.75903746720E-01  0.56238821702E-01  0.10279160798E+00  0.51100000000E-03 0.  1.
</event>
<event>
 8    1  0.1145101E+005  0.1043930E+01  0.7957747E-01            NaN
         13   -1    0    0    0    0  0.00000000000E+00  0.00000000000E+00  0.74505805969E-08  0.10566000000E+00  0.10566000000E+00 0. -1.
     999900   -1    0    0    0    0 -0.00000000000E+00 -0.00000000000E+00 -0.74505805969E-08  0.93827000000E+00  0.93827000000E+00 0.  1.
     999902    2    1    2    0    0  0.14948907048E-01  0.15934127097E-01  0.85734677989E-02  0.10204593677E+01  0.10201894190E+01 0.  0.
     999903    2    3    3    0    0  0.11051594109E+00  0.21983587953E-01 -0.65955536711E-01  0.13213272372E+00  0.20294641672E-01 0.  0.
         14    1    1    2    0    0 -0.14948907048E-01 -0.15934127097E-01 -0.85734677989E-02  0.23470632254E-01  0.00000000000E+00 0.  1.
     999901    1    3    3    0    0 -0.95567034043E-01 -0.60494608558E-02  0.74529004510E-01  0.88832664403E+00  0.88000000000E+00 0.  1.
        -11    1    4    4    0    0  0.53039574770E-01  0.38490675154E-03 -0.28662653523E-01  0.60292233936E-01  0.51100000000E-03 0.  1.
         11    1    4    4    0    0  0.57476366321E-01  0.21598681202E-01 -0.37292883188E-01  0.71840489785E-01  0.51100000000E-03 0. -1.
</event>
<event>
 8    1  0.1145101E+005  0.1043930E+01  0.7957747E-01            NaN
         13   -1    0    0    0    0  0.00000000000E+00  0.00000000000E+00  0.74505805969E-08  0.10566000000E+00  0.10566000000E+00 0.  1.
     999900   -1    0    0    0    0 -0.00000000000E+00 -0.00000000000E+00 -0.74505805969E-08  0.93827000000E+00  0.93827000000E+00 0.  1.
     999902    2    1    2    0    0 -0.12369316017E-01  0.15669462089E-01  0.11012832849E-01  0.10211305590E+01  0.10208759984E+01 0.  0.
     999903    2    3    3    0    0 -0.51878429731E-02  0.12880968774E+00 -0.26290424507E-01  0.13307435742E+00  0.19968695780E-01 0.  0.
         14    1    1    2    0    0  0.12369316017E-01 -0.15669462089E-01 -0.11012832849E-01  0.22799440964E-01  0.00000000000E+00 0. -1.
     999901    1    3    3    0    0 -0.71814730435E-02 -0.11314022565E+00  0.37303257357E-01  0.88805620161E+00  0.88000000000E+00 0. -1.
        -11    1    4    4    0    0  0.29796112138E-03  0.95696153012E-01 -0.11481664711E-01  0.96384294507E-01  0.51100000000E-03 0. -1.
         11    1    4    4    0    0 -0.54858040944E-02  0.33113534732E-01 -0.14808759796E-01  0.36690062915E-01  0.51100000000E-03 0.  1.
</event>
<event>
 8    1  0.1145101E+005  0.1043930E+01  0.7957747E-01            NaN
         13   -1    0    0    0    0  0.00000000000E+00  0.00000000000E+00  0.74505805969E-08  0.10566000000E+00  0.10566000000E+00 0. -1.
     999900   -1    0    0    0    0 -0.00000000000E+00 -0.00000000000E+00 -0.74505805969E-08  0.93827000000E+00  0.93827000000E+00 0. -1.
     999902    2    1    2    0    0  0.21023792412E-01  0.86343723789E-02  0.57089440126E-02  0.10204961724E+01  0.10202270794E+01 0.  0.
     999903    2    3    3    0    0 -0.39480361346E-01  0.75998117969E-01  0.97319936342E-01  0.13111931148E+00  0.19664459481E-01 0.  0.
         14    1    1    2    0    0 -0.21023792412E-01 -0.86343723789E-02 -0.57089440126E-02  0.23433827589E-01  0.00000000000E+00 0. -1.
     999901    1    3    3    0    0  0.60504153758E-01 -0.67363745590E-01 -0.91610992330E-01  0.88937686093E+00  0.88000000000E+00 0. -1.
        -11    1    4    4    0    0 -0.19522861726E-01  0.56926400485E-01  0.64134954528E-01  0.87950615208E-01  0.51100000000E-03 0.  1.
         11    1    4    4    0    0 -0.19957499620E-01  0.19071717484E-01  0.33184981814E-01  0.43168696273E-01  0.51100000000E-03 0. -1.
</event>
<event>
 8    1  0.1145101E+005  0.1043930E+01  0.7957747E-01            NaN
         13   -1    0    0    0    0  0.00000000000E+00  0.00000000000E+00  0.74505805969E-08  0.10566000000E+00  0.10566000000E+00 0.  1.
     999900   -1    0    0    0    0 -0.00000000000E+00 -0.00000000000E+00 -0.74505805969E-08  0.93827000000E+00  0.93827000000E+00 0.  1.
     999902    2    1    2    0    0 -0.43885606553E-02 -0.38479358400E-02  0.22041294328E-01  0.10211290191E+01  0.10208744237E+01 0.  0.
     999903    2    3    3    0    0 -0.77290281616E-01  0.85694320800E-01 -0.56852535039E-01  0.13008653247E+00  0.19312973379E-01 0.  0.
         14    1    1    2    0    0  0.43885606553E-02  0.38479358400E-02 -0.22041294328E-01  0.22800980911E-01  0.00000000000E+00 0. -1.
     999901    1    3    3    0    0  0.72901720961E-01 -0.89542256640E-01  0.78893829367E-01  0.89104248662E+00  0.88000000000E+00 0. -1.
        -11    1    4    4    0    0 -0.61765044613E-01  0.61937545338E-01 -0.50487417724E-01  0.10099713228E+00  0.51100000000E-03 0. -1.
         11    1    4    4    0    0 -0.15525237003E-01  0.23756775462E-01 -0.63651173144E-02  0.29089400196E-01  0.51100000000E-03 0.  1.
</event>
<event>
 8    1  0.1145101E+005  0.1043930E+01  0.7957747E-01            NaN
         13   -1    0    0    0    0  0.00000000000E+00  0.00000000000E+00  0.74505805969E-08  0.10566000000E+00  0.10566000000E+00 0.  1.
     999900   -1    0    0    0    0 -0.00000000000E+00 -0.00000000000E+00 -0.74505805969E-08  0.93827000000E+00  0.93827000000E+00 0.  1.
     999902    2    1    2    0    0 -0.32957353285E-02 -0.23516928768E-01 -0.18785408977E-02  0.10201090696E+01  0.10198309061E+01 0.  0.
     999903    2    3    3    0    0 -0.12161637996E+00 -0.17800380637E-01  0.40517673830E-01  0.13116031240E+00  0.21306060912E-01 0.  0.
         14    1    1    2    0    0  0.32957353285E-02  0.23516928768E-01  0.18785408977E-02  0.23820930417E-01  0.00000000000E+00 0.  1.
     999901    1    3    3    0    0  0.11832064463E+00 -0.57165481310E-02 -0.42396214728E-01  0.88894875718E+00  0.88000000000E+00 0.  1.
        -11    1    4    4    0    0 -0.87936930552E-01 -0.22391066826E-01  0.30053241995E-01  0.95591433214E-01  0.51100000000E-03 0. -1.
         11    1    4    4    0    0 -0.33679449408E-01  0.45906861888E-02  0.10464431835E-01  0.35568879189E-01  0.51100000000E-03 0.  1.
</event>
<event>
 8    1  0.1145101E+005  0.1043930E+01  0.7957747E-01            NaN
         13   -1    0    0    0    0  0.00000000000E+00  0.00000000000E+00  0.74505805969E-08  0.10566000000E+00  0.10566000000E+00 0. -1.
     999900   -1    0    0    0    0 -0.00000000000E+00 -0.00000000000E+00 -0.74505805969E-08  0.93827000000E+00  0.93827000000E+00 0.  1.
     999902    2    1    2    0    0 -0.19259030860E-01 -0.15359910685E-01  0.12704187568E-02  0.10192631986E+01  0.10189646790E+01 0.  0.
     999903    2    3    3    0    0 -0.91380285160E-01  0.82115504244E-01  0.38023995783E-01  0.13018853514E+00  0.20246428665E-01 0.  0.
         14    1    1    2    0    0  0.19259030860E-01  0.15359910685E-01 -0.12704187568E-02  0.24666801368E-01  0.00000000000E+00 0. -1.
     999901    1    3    3    0    0  0.72121254300E-01 -0.97475414929E-01 -0.36753577026E-01  0.88907466349E+00  0.88000000000E+00 0. -1.
        -11    1    4    4    0    0 -0.49674866710E-01  0.53050853792E-01  0.14229597018E-01  0.74058949648E-01  0.51100000000E-03 0.  1.
         11    1    4    4    0    0 -0.41705418451E-01  0.29064650451E-01  0.23794398765E-01  0.56129585493E-01  0.51100000000E-03 0. -1.
</event>
<event>
 8    1  0.1145101E+005  0.1043930E+01  0.7957747E-01            NaN
         13   -1    0    0    0    0  0.00000000000E+00  0.00000000000E+00  0.74505805969E-08  0.10566000000E+00  0.10566000000E+00 0. -1.
     999900   -1    0    0    0    0 -0.00000000000E+00 -0.00000000000E+00 -0.74505805969E-08  0.93827000000E+00  0.93827000000E+00 0. -1.
     999902    2    1    2    0    0 -0.22524115335E-01  0.47359838894E-02  0.24327857190E-02  0.10207851569E+01  0.10205227351E+01 0.  0.
     999903    2    3    3    0    0 -0.87642300501E-01  0.41760734272E-01  0.89272264658E-01  0.13334371925E+00  0.19643789423E-01 0.  0.
         14    1    1    2    0    0  0.22524115335E-01 -0.47359838894E-02 -0.24327857190E-02  0.23144843084E-01  0.00000000000E+00 0.  1.
     999901    1    3    3    0    0  0.65118185166E-01 -0.37024750383E-01 -0.86839478939E-01  0.88744143766E+00  0.88000000000E+00 0. -1.
        -11    1    4    4    0    0 -0.35543954006E-01  0.81361010392E-02  0.40121827244E-01  0.54217994696E-01  0.51100000000E-03 0.  1.
         11    1    4    4    0    0 -0.52098346495E-01  0.33624633233E-01  0.49150437414E-01  0.79125724556E-01  0.51100000000E-03 0. -1.
</event>
<event>
 8    1  0.1145101E+005  0.1043930E+01  0.7957747E-01            NaN
         13   -1    0    0    0    0  0.00000000000E+00  0.00000000000E+00  0.74505805969E-08  0.10566000000E+00  0.10566000000E+00 0.  1.
     999900   -1    0    0    0    0 -0.00000000000E+00 -0.00000000000E+00 -0.74505805969E-08  0.93827000000E+00  0.93827000000E+00 0.  1.
     999902    2    1    2    0    0 -0.98239317656E-02  0.20916673861E-01 -0.19948958067E-02  0.10207352487E+01  0.10204716808E+01 0.  0.
     999903    2    3    3    0    0 -0.26977024454E-01  0.11361470452E+00  0.61795248252E-01  0.13340423040E+00  0.18492567467E-01 0.  0.
         14    1    1    2    0    0  0.98239317656E-02 -0.20916673861E-01  0.19948958067E-02  0.23194751346E-01  0.00000000000E+00 0. -1.
     999901    1    3    3    0    0  0.17153092689E-01 -0.92698030655E-01 -0.63790144058E-01  0.88733101825E+00  0.88000000000E+00 0.  1.
        -11    1    4    4    0    0 -0.21245755667E-01  0.51241523938E-01  0.31988060368E-01  0.64035716881E-01  0.51100000000E-03 0.  1.
         11    1    4    4    0    0 -0.57312687874E-02  0.62373180578E-01  0.29807187884E-01  0.69368513519E-01  0.51100000000E-03 0. -1.
</event>
<event>
 8    1  0.1145101E+005  0.1043930E+01  0.7957747E-01            NaN
         13   -1    0    0    0    0  0.00000000000E+00  0.00000000000E+00  0.74505805969E-08  0.10566000000E+00  0.10566000000E+00 0. -1.
     999900   -1    0    0    0    0 -0.00000000000E+00 -0.00000000000E+00 -0.74505805969E-08  0.93827000000E+00  0.93827000000E+00 0. -1.
     999902    2    1    2    0    0  0.11923232668E-01 -0.14872506742E-01  0.10579815207E-01  0.10221289123E+01  0.10218963871E+01 0.  0.
     999903    2    3    3    0    0  0.65001726243E-01  0.85071307223E-01  0.75158799213E-01  0.13253544472E+00  0.21317769123E-01 0.  0.
         14    1    1    2    0    0 -0.11923232668E-01  0.14872506742E-01 -0.10579815207E-01  0.21801087677E-01  0.00000000000E+00 0. -1.
     999901    1    3    3    0    0 -0.53078493574E-01 -0.99943813965E-01 -0.64578984006E-01  0.88959346760E+00  0.88000000000E+00 0.  1.
        -11    1    4    4    0    0  0.54606727285E-01  0.57008172014E-01  0.58717767370E-01  0.98386298167E-01  0.51100000000E-03 0. -1.
         11    1    4    4    0    0  0.10394998957E-01  0.28063135209E-01  0.16441031844E-01  0.34149146551E-01  0.51100000000E-03 0.  1.
</event>
<event>
 8    1  0.1145101E+005  0.1043930E+01  0.7957747E-01            NaN
         13   -1    0    0    0    0  0.00000000000E+00  0.00000000000E+00  0.74505805969E-08  0.10566000000E+00  0.10566000000E+00 0. -1.
     999900   -1    0    0    0    0 -0.00000000000E+00 -0.00000000000E+00 -0.74505805969E-08  0.93827000000E+00  0.93827000000E+00 0.  1.
     999902    2    1    2    0    0 -0.42817045485E-02  0.17550564952E-01  0.14467893549E-01  0.10207853404E+01  0.10205229228E+01 0.  0.
     999903    2    3    3    0    0  0.17793004763E-01 -0.11694484679E+00  0.48995949415E-01  0.12962402212E+00  0.20226117785E-01 0.  0.
         14    1    1    2    0    0  0.42817045485E-02 -0.17550564952E-01 -0.14467893549E-01  0.23144659594E-01  0.00000000000E+00 0.  1.
     999901    1    3    3    0    0 -0.22074709311E-01  0.13449541175E+00 -0.34528055866E-01  0.89116131829E+00  0.88000000000E+00 0.  1.
        -11    1    4    4    0    0  0.37749798167E-03 -0.64385337823E-01  0.22191045916E-01  0.68105197093E-01  0.51100000000E-03 0. -1.
         11    1    4    4    0    0  0.17415506781E-01 -0.52559508972E-01  0.26804903499E-01  0.61518825024E-01  0.51100000000E-03 0.  1.
</event>
<event>
 8    1  0.1145101E+005  0.1043930E+01  0.7957747E-01            NaN
         13   -1    0    0    0    0  0.00000000000E+00  0.00000000000E+00  0.74505805969E-08  0.10566000000E+00  0.10566000000E+00 0.  1.
     999900   -1    0    0    0    0 -0.00000000000E+00 -0.00000000000E+00 -0.74505805969E-08  0.93827000000E+00  0.93827000000E+00 0.  1.
     999902    2    1    2    0    0  0.14631489413E-02 -0.19937702183E-01  0.11021568329E-01  0.10211017775E+01  0.10208465665E+01 0.  0.
     999903    2    3    3    0    0  0.65029025576E-01 -0.10125572355E+00  0.55553155704E-01  0.13395111188E+00  0.19371410535E-01 0.  0.
         14    1    1    2    0    0 -0.14631489413E-02  0.19937702183E-01 -0.11021568329E-01  0.22828222480E-01  0.00000000000E+00 0.  1.
     999901    1    3    3    0    0 -0.63565876634E-01  0.81318021368E-01 -0.44531587375E-01  0.88715066564E+00  0.88000000000E+00 0.  1.
        -11    1    4    4    0    0  0.27881711833E-01 -0.37119765947E-01  0.11884489483E-01  0.47924618830E-01  0.51100000000E-03 0.  1.
         11    1    4    4    0    0  0.37147313743E-01 -0.64135957603E-01  0.43668666221E-01  0.86026493050E-01  0.51100000000E-03 0. -1.
</event>
<event>
 8    1  0.1145101E+005  0.1043930E+01  0.7957747E-01            NaN
         13   -1    0    0    0    0  0.00000000000E+00  0.00000000000E+00  0.74505805969E-08  0.10566000000E+00  0.10566000000E+00 0. -1.
     999900   -1    0    0    0    0 -0.00000000000E+00 -0.00000000000E+00 -0.74505805969E-08  0.93827000000E+00  0.93827000000E+00 0.  1.
     999902    2    1    2    0    0 -0.42681119666E-02  0.11710593213E-01 -0.20252948205E-01  0.10201489848E+01  0.10198717638E+01 0.  0.
     999903    2    3    3    0    0  0.93228964342E-01 -0.83408440393E-01  0.22493949890E-01  0.12864429735E+00  0.19868813193E-01 0.  0.
         14    1    1    2    0    0  0.42681119666E-02 -0.11710593213E-01  0.20252948205E-01  0.23781015204E-01  0.00000000000E+00 0. -1.
     999901    1    3    3    0    0 -0.97497076309E-01  0.95119033605E-01 -0.42746898095E-01  0.89150468745E+00  0.88000000000E+00 0. -1.
        -11    1    4    4    0    0  0.68732735991E-01 -0.70791218119E-01  0.21935488542E-01  0.10107923792E+00  0.51100000000E-03 0. -1.
         11    1    4    4    0    0  0.24496228351E-01 -0.12617222274E-01  0.55846134790E-03  0.27565059431E-01  0.51100000000E-03 0.  1.
</event>
<event>
 8    1  0.1145101E+005  0.1043930E+01  0.7957747E-01            NaN
         13   -1    0    0    0    0  0.00000000000E+00  0.00000000000E+00  0.74505805969E-08  0.10566000000E+00  0.10566000000E+00 0. -1.
     999900   -1    0    0    0    0 -0.00000000000E+00 -0.00000000000E+00 -0.74505805969E-08  0.93827000000E+00  0.93827000000E+00 0.  1.
     999902    2    1    2    0    0  0.14182944741E-03  0.22472885322E-01  0.12601710182E-01  0.10181646397E+01  0.10178385824E+01 0.  0.
     999903    2    3    3    0    0  0.60909606101E-01 -0.89309259913E-01  0.65187723304E-01  0.12746083967E+00  0.17626751182E-01 0.  0.
         14    1    1    2    0    0 -0.14182944741E-03 -0.22472885322E-01 -0.12601710182E-01  0.25765360270E-01  0.00000000000E+00 0.  1.
     999901    1    3    3    0    0 -0.60767776653E-01  0.11178214524E+00 -0.52586013122E-01  0.89070380006E+00  0.88000000000E+00 0. -1.
        -11    1    4    4    0    0  0.44896463686E-01 -0.77314919772E-01  0.51016595327E-01  0.10293805609E+00  0.51100000000E-03 0.  1.
         11    1    4    4    0    0  0.16013142414E-01 -0.11994340142E-01  0.14171127977E-01  0.24522783581E-01  0.51100000000E-03 0. -1.
</event>
<event>
 8    1  0.1145101E+005  0.1043930E+01  0.7957747E-01            NaN
         13   -1    0    0    0    0  0.00000000000E+00  0.00000000000E+00  0.74505805969E-08  0.10566000000E+00  0.10566000000E+00 0.  1.
     999900   -1    0    0    0    0 -0.00000000000E+00 -0.00000000000E+00 -0.74505805969E-08  0.93827000000E+00  0.93827000000E+00 0. -1.
     999902    2    1    2    0    0 -0.22696971077E-01  0.43384763448E-02  0.58823324719E-02  0.10200851534E+01  0.10198064245E+01 0.  0.
     999903    2    3    3    0    0 -0.45626038124E-01  0.10204909990E+00 -0.66205513389E-01  0.13145150248E+00  0.20014328714E-01 0.  0.
         14    1    1    2    0    0  0.22696971077E-01 -0.43384763448E-02 -0.58823324719E-02  0.23844846579E-01  0.00000000000E+00 0.  1.
     999901    1    3    3    0    0  0.22929067047E-01 -0.97710623559E-01  0.72087845861E-01  0.88863365095E+00  0.88000000000E+00 0.  1.
        -11    1    4    4    0    0 -0.30781380846E-01  0.57853965194E-01 -0.48701299733E-01  0.81649570802E-01  0.51100000000E-03 0.  1.
         11    1    4    4    0    0 -0.14844657278E-01  0.44195134710E-01 -0.17504213657E-01  0.49801931674E-01  0.51100000000E-03 0. -1.
</event>
<event>
 8    1  0.1145101E+005  0.1043930E+01  0.7957747E-01            NaN
         13   -1    0    0    0    0  0.00000000000E+00  0.00000000000E+00  0.74505805969E-08  0.10566000000E+00  0.10566000000E+00 0. -1.
     999900   -1    0    0    0    0 -0.00000000000E+00 -0.00000000000E+00 -0.74505805969E-08  0.93827000000E+00  0.93827000000E+00 0.  1.
     999902    2    1    2    0    0  0.51282226066E-02 -0.44084458369E-02 -0.21524229467E-01  0.10213684062E+01  0.10211191878E+01 0.  0.
     999903    2    3    3    0    0  0.92839886670E-01  0.68431636311E-01  0.57846688569E-01  0.13047068129E+00  0.19344919024E-01 0.  0.
         14    1    1    2    0    0 -0.51282226066E-02  0.44084458369E-02  0.21524229467E-01  0.22561593825E-01  0.00000000000E+00 0. -1.
     999901    1    3    3    0    0 -0.87711664063E-01 -0.72840082148E-01 -0.79370918036E-01  0.89089772489E+00  0.88000000000E+00 0.  1.
        -11    1    4    4    0    0  0.48240771614E-01  0.35662517052E-01  0.19290038043E-01  0.63018678636E-01  0.51100000000E-03 0.  1.
         11    1    4    4    0    0  0.44599115056E-01  0.32769119259E-01  0.38556650526E-01  0.67452002651E-01  0.51100000000E-03 0. -1.
</event>
<event>
 8    1  0.1145101E+005  0.1043930E+01  0.7957747E-01            NaN
         13   -1    0    0    0    0  0.00000000000E+00  0.00000000000E+00  0.74505805969E-08  0.10566000000E+00  0.10566000000E+00 0. -1.
     999900   -1    0    0    0    0 -0.00000000000E+00 -0.00000000000E+00 -0.74505805969E-08  0.93827000000E+00  0.93827000000E+00 0.  1.
     999902    2    1    2    0    0  0.16379408269E-01  0.16953044844E-01 -0.40391644114E-02  0.10200133616E+01  0.10197329318E+01 0.  0.
     999903    2    3    3    0    0 -0.72980001404E-01 -0.86826698154E-01 -0.55548960220E-01  0.12793231244E+00  0.20396898459E-01 0.  0.
         14    1    1    2    0    0 -0.16379408269E-01 -0.16953044844E-01  0.40391644114E-02  0.23916638432E-01  0.00000000000E+00 0. -1.
     999901    1    3    3    0    0  0.89359409673E-01  0.10377974300E+00  0.51509795809E-01  0.89208104913E+00  0.88000000000E+00 0. -1.
        -11    1    4    4    0    0 -0.29230263578E-01 -0.49260517415E-01 -0.23119553279E-01  0.61772014292E-01  0.51100000000E-03 0.  1.
         11    1    4    4    0    0 -0.43749737826E-01 -0.37566180739E-01 -0.32429406941E-01  0.66160298145E-01  0.51100000000E-03 0. -1.
</event>
<event>
 8    1  0.1145101E+005  0.1043930E+01  0.7957747E-01            NaN
         13   -1    0    0    0    0  0.00000000000E+00  0.00000000000E+00  0.74505805969E-08  0.10566000000E+00  0.10566000000E+00 0. -1.
     999900   -1    0    0    0    0 -0.00000000000E+00 -0.00000000000E+00 -0.74505805969E-08  0.93827000000E+00  0.93827000000E+00 0. -1.
     999902    2    1    2    0    0  0.22979213468E-01 -0.63964460366E-02  0.67824826315E-02  0.10191315959E+01  0.10188298430E+01 0.  0.
     999903    2    3    3    0    0  0.11221631124E+00 -0.62009073612E-02 -0.65507064355E-01  0.13166944099E+00  0.20364539032E-01 0.  0.
         14    1    1    2    0    0 -0.22979213468E-01  0.63964460366E-02 -0.67824826315E-02  0.24798404065E-01  0.00000000000E+00 0. -1.
     999901    1    3    3    0    0 -0.89237097773E-01 -0.19553867539E-03  0.72289546986E-01  0.88746215494E+00  0.88000000000E+00 0. -1.
        -11    1    4    4    0    0  0.63070105465E-01  0.62773227393E-02 -0.33315850494E-01  0.71606214809E-01  0.51100000000E-03 0.  1.
         11    1    4    4    0    0  0.49146205776E-01 -0.12478230101E-01 -0.32191213860E-01  0.60063226182E-01  0.51100000000E-03 0. -1.
</event>
<event>
 8    1  0.1145101E+005  0.1043930E+01  0.7957747E-01            NaN
         13   -1    0    0    0    0  0.00000000000E+00  0.00000000000E+00  0.74505805969E-08  0.10566000000E+00  0.10566000000E+00 0. -1.
     999900   -1    0    0    0    0 -0.00000000000E+00 -0.00000000000E+00 -0.74505805969E-08  0.93827000000E+00  0.93827000000E+00 0. -1.
     999902    2    1    2    0    0 -0.24980313295E-02 -0.18606267503E-01 -0.15329509123E-01  0.10196931025E+01  0.10194050206E+01 0.  0.
     999903    2    3    3    0    0 -0.98281676857E-01 -0.77935728401E-01 -0.39655702117E-01  0.13217619823E+00  0.12833818647E-01 0.  0.
         14    1    1    2    0    0  0.24980313295E-02  0.18606267503E-01  0.15329509123E-01  0.24236897510E-01  0.00000000000E+00 0. -1.
     999901    1    3    3    0    0  0.95783645528E-01  0.59329460898E-01  0.24326192994E-01  0.88751690426E+00  0.88000000000E+00 0. -1.
        -11    1    4    4    0    0 -0.32476917533E-01 -0.32293602571E-01 -0.18014042321E-01  0.49217819752E-01  0.51100000000E-03 0.  1.
         11    1    4    4    0    0 -0.65804759324E-01 -0.45642125830E-01 -0.21641659796E-01  0.82958378478E-01  0.51100000000E-03 0. -1.
</event>
<event>
 8    1  0.1145101E+005  0.1043930E+01  0.7957747E-01            NaN
         13   -1    0    0    0    0  0.00000000000E+00  0.00000000000E+00  0.74505805969E-08  0.10566000000E+00  0.10566000000E+00 0.  1.
     999900   -1    0    0    0    0 -0.00000000000E+00 -0.00000000000E+00 -0.74505805969E-08  0.93827000000E+00  0.93827000000E+00 0.  1.
     999902    2    1    2    0    0 -0.88245789371E-02 -0.11688071143E-01 -0.21409807599E-01  0.10179903766E+01  0.10176598365E+01 0.  0.
     999903    2    3    3    0    0 -0.10990091523E+00  0.21992673960E-01  0.58371205693E-01  0.12798148427E+00  0.20252747651E-01 0.  0.
         14    1    1    2    0    0  0.88245789371E-02  0.11688071143E-01  0.21409807599E-01  0.25939623395E-01  0.00000000000E+00 0.  1.
     999901    1    3    3    0    0  0.10107633629E+00 -0.33680745103E-01 -0.79781013292E-01  0.89000889233E+00  0.88000000000E+00 0.  1.
        -11    1    4    4    0    0 -0.61874470994E-01  0.10842015230E-01  0.43749922246E-01  0.76552702582E-01  0.51100000000E-03 0. -1.
         11    1    4    4    0    0 -0.48026444232E-01  0.11150658730E-01  0.14621283447E-01  0.51428781692E-01  0.51100000000E-03 0.  1.
</event>
<event>
 8    1  0.1145101E+005  0.1043930E+01  0.7957747E-01            NaN
         13   -1    0    0    0    0  0.00000000000E+00  0.00000000000E+00  0.74505805969E-08  0.10566000000E+00  0.10566000000E+00 0.  1.
     999900   -1    0    0    0    0 -0.00000000000E+00 -0.00000000000E+00 -0.74505805969E-08  0.93827000000E+00  0.93827000000E+00 0. -1.
     999902    2    1    2    0    0  0.75853682342E-02 -0.19440221565E-01  0.11609518072E-01  0.10200502819E+01  0.10197707275E+01 0.  0.
     999903    2    3    3    0    0  0.88866451948E-01 -0.16109308572E-01  0.94738156826E-01  0.13239715139E+00  0.19923133137E-01 0.  0.
         14    1    1    2    0    0 -0.75853682342E-02  0.19440221565E-01 -0.11609518072E-01  0.23879718080E-01  0.00000000000E+00 0.  1.
     999901    1    3    3    0    0 -0.81281083714E-01 -0.33309129924E-02 -0.83128638754E-01  0.88765313053E+00  0.88000000000E+00 0.  1.
        -11    1    4    4    0    0  0.19934055410E-01 -0.38388335840E-02  0.34501593213E-01  0.40034038812E-01  0.51100000000E-03 0.  1.
         11    1    4    4    0    0  0.68932396538E-01 -0.12270474988E-01  0.60236563612E-01  0.92363112582E-01  0.51100000000E-03 0. -1.
</event>
<event>
 7    1  0.1145101E+005  0.1043930E+01  0.7957747E-01            NaN
         13   -1    0    0    0    0  0.00000000000E+00  0.00000000000E+00  0.74505805969E-08  0.10566000000E+00  0.10566000000E+00 0. -1.
     999900   -1    0    0    0    0 -0.00000000000E+00 -0.00000000000E+00 -0.74505805969E-08  0.93827000000E+00  0.93827000000E+00 0. -1.
     999902    2    1    2    0    0  0.31414358693E-02  0.35153104417E-02 -0.20193231394E-01  0.10231937366E+01  0.10229835922E+01 0.  0.
         14    1    1    2    0    0 -0.31414358693E-02 -0.35153104417E-02  0.20193231394E-01  0.20736263428E-01  0.00000000000E+00 0. -1.
     999901    1    3    3    0    0 -0.34971824629E-01 -0.50176079139E-01  0.91017465235E-01  0.88680598014E+00  0.88000000000E+00 0.  1.
        -11    1    3    3    0    0 -0.44261780509E-02  0.12678840172E-01 -0.40872607568E-02  0.14046738473E-01  0.51100000000E-03 0. -1.
         11    1    3    3    0    0  0.42539438549E-01  0.41012549409E-01 -0.10712343587E+00  0.12234101796E+00  0.51100000000E-03 0.  1.
</event>
<event>
 8    1  0.1145101E+005  0.1043930E+01  0.7957747E-01            NaN
         13   -1    0    0    0    0  0.00000000000E+00  0.00000000000E+00  0.74505805969E-08  0.10566000000E+00  0.10566000000E+00 0.  1.
     999900   -1    0    0    0    0 -0.00000000000E+00 -0.00000000000E+00 -0.74505805969E-08  0.93827000000E+00  0.93827000000E+00 0.  1.
     999902    2    1    2    0    0 -0.23434513028E-01 -0.24861690328E-02 -0.71518003641E-03  0.10203531274E+01  0.10200807006E+01 0.  0.
     999903    2    3    3    0    0 -0.47373800030E-01  0.16553266133E-01  0.12000169006E+00  0.13158535559E+00  0.19900066290E-01 0.  0.
         14    1    1    2    0    0  0.23434513028E-01  0.24861690328E-02  0.71518003641E-03  0.23576872562E-01  0.00000000000E+00 0. -1.
     999901    1    3    3    0    0  0.23939287001E-01 -0.19039435166E-01 -0.12071687010E+00  0.88876777185E+00  0.88000000000E+00 0.  1.
        -11    1    4    4    0    0 -0.61788128315E-02 -0.32730367170E-02  0.27797815086E-01  0.28668277623E-01  0.51100000000E-03 0.  1.
         11    1    4    4    0    0 -0.41194987198E-01  0.19826302850E-01  0.92203874977E-01  0.10291707796E+00  0.51100000000E-03 0. -1.
</event>
<event>
 8    1  0.1145101E+005  0.1043930E+01  0.7957747E-01            NaN
         13   -1    0    0    0    0  0.00000000000E+00  0.00000000000E+00  0.74505805969E-08  0.10566000000E+00  0.10566000000E+00 0. -1.
     999900   -1    0    0    0    0 -0.00000000000E+00 -0.00000000000E+00 -0.74505805969E-08  0.93827000000E+00  0.93827000000E+00 0. -1.
     999902    2    1    2    0    0  0.20748866596E-01  0.10125845284E-01  0.59215985507E-02  0.10200948676E+01  0.10198163684E+01 0.  0.
     999903    2    3    3    0    0 -0.59214809869E-01 -0.47541076099E-02  0.11391248549E+00  0.12977041313E+00  0.18311486176E-01 0.  0.
         14    1    1    2    0    0 -0.20748866596E-01 -0.10125845284E-01 -0.59215985507E-02  0.23835132413E-01  0.00000000000E+00 0.  1.
     999901    1    3    3    0    0  0.79963676465E-01  0.14879952894E-01 -0.10799088694E+00  0.89032445446E+00  0.88000000000E+00 0. -1.
        -11    1    4    4    0    0 -0.35637044332E-01 -0.10345498897E-01  0.78840810146E-01  0.87138755681E-01  0.51100000000E-03 0.  1.
         11    1    4    4    0    0 -0.23577765538E-01  0.55913912873E-02  0.35071675341E-01  0.42631657445E-01  0.51100000000E-03 0. -1.
</event>
<event>
 8    1  0.1145101E+005  0.1043930E+01  0.7957747E-01            NaN
         13   -1    0    0    0    0  0.00000000000E+00  0.00000000000E+00  0.74505805969E-08  0.10566000000E+00  0.10566000000E+00 0. -1.
     999900   -1    0    0    0    0 -0.00000000000E+00 -0.00000000000E+00 -0.74505805969E-08  0.93827000000E+00  0.93827000000E+00 0.  1.
     999902    2    1    2    0    0 -0.58196154050E-02 -0.22925521998E-01  0.16573946574E-02  0.10202193602E+01  0.10199437967E+01 0.  0.
     999903    2    3    3    0    0 -0.12219529919E+00 -0.43867319676E-01  0.14018873365E-01  0.13222461652E+00  0.20755421513E-01 0.  0.
         14    1    1    2    0    0  0.58196154050E-02  0.22925521998E-01 -0.16573946574E-02  0.23710639793E-01  0.00000000000E+00 0. -1.
     999901    1    3    3    0    0  0.11637568379E+00  0.20941797678E-01 -0.12361478707E-01  0.88799474369E+00  0.88000000000E+00 0. -1.
        -11    1    4    4    0    0 -0.11286853520E-01 -0.38838630370E-02  0.75867243101E-02  0.14152630895E-01  0.51100000000E-03 0.  1.
         11    1    4    4    0    0 -0.11090844567E+00 -0.39983456639E-01  0.64321490545E-02  0.11807198562E+00  0.51100000000E-03 0. -1.
</event>
<event>
 8    1  0.1145101E+005  0.1043930E+01  0.7957747E-01            NaN
         13   -1    0    0    0    0  0.00000000000E+00  0.00000000000E+00  0.74505805969E-08  0.10566000000E+00  0.10566000000E+00 0. -1.
     999900   -1    0    0    0    0 -0.00000000000E+00 -0.00000000000E+00 -0.74505805969E-08  0.93827000000E+00  0.93827000000E+00 0. -1.
     999902    2    1    2    0    0 -0.98195275377E-02  0.16108201287E-02  0.20201214179E-01  0.10214109655E+01  0.10211626968E+01 0.  0.
     999903    2    3    3    0    0  0.11844555234E+00  0.11159484091E-01 -0.45337846093E-01  0.12964951971E+00  0.24486623236E-01 0.  0.
         14    1    1    2    0    0  0.98195275377E-02 -0.16108201287E-02 -0.20201214179E-01  0.22519034545E-01  0.00000000000E+00 0.  1.
     999901    1    3    3    0    0 -0.12826507988E+00 -0.95486639620E-02  0.65539060272E-01  0.89176144575E+00  0.88000000000E+00 0.  1.
        -11    1    4    4    0    0  0.65747075103E-01  0.18255641136E-01 -0.27340944233E-01  0.73510099105E-01  0.51100000000E-03 0. -1.
         11    1    4    4    0    0  0.52698477238E-01 -0.70961570452E-02 -0.17996901860E-01  0.56139420603E-01  0.51100000000E-03 0.  1.
</event>
<event>
 8    1  0.1145101E+005  0.1043930E+01  0.7957747E-01            NaN
         13   -1    0    0    0    0  0.00000000000E+00  0.00000000000E+00  0.74505805969E-08  0.10566000000E+00  0.10566000000E+00 0. -1.
     999900   -1    0    0    0    0 -0.00000000000E+00 -0.00000000000E+00 -0.74505805969E-08  0.93827000000E+00  0.93827000000E+00 0. -1.
     999902    2    1    2    0    0  0.11777428455E-01 -0.22328852646E-01  0.30073364103E-02  0.10185069877E+01  0.10181896456E+01 0.  0.
     999903    2    3    3    0    0 -0.11742255369E+00 -0.49929383478E-01  0.20092321897E-02  0.12864440231E+00  0.16258714013E-01 0.  0.
         14    1    1    2    0    0 -0.11777428455E-01  0.22328852646E-01 -0.30073364103E-02  0.25423012287E-01  0.00000000000E+00 0.  1.
     999901    1    3    3    0    0  0.12919998215E+00  0.27600530832E-01  0.99810422060E-03  0.88986258540E+00  0.88000000000E+00 0. -1.
        -11    1    4    4    0    0 -0.16916214668E-01 -0.13051956278E-01  0.29903645135E-02  0.21580437491E-01  0.51100000000E-03 0.  1.
         11    1    4    4    0    0 -0.10050633902E+00 -0.36877427200E-01 -0.98113232389E-03  0.10706396482E+00  0.51100000000E-03 0. -1.
</event>
<event>
 8    1  0.1145101E+005  0.1043930E+01  0.7957747E-01            NaN
         13   -1    0    0    0    0  0.00000000000E+00  0.00000000000E+00  0.74505805969E-08  0.10566000000E+00  0.10566000000E+00 0. -1.
     999900   -1    0    0    0    0 -0.00000000000E+00 -0.00000000000E+00 -0.74505805969E-08  0.93827000000E+00  0.93827000000E+00 0. -1.
     999902    2    1    2    0    0 -0.13947273098E-01 -0.18229645244E-01 -0.52301433110E-02  0.10203885304E+01  0.10201169306E+01 0.  0.
     999903    2    3    3    0    0  0.11351721035E-01 -0.55806707804E-01  0.11681672667E+00  0.13081137622E+00  0.14906988772E-01 0.  0.
         14    1    1    2    0    0  0.13947273098E-01  0.18229645244E-01  0.52301433110E-02  0.23541469615E-01  0.00000000000E+00 0.  1.
     999901    1    3    3    0    0 -0.25298994132E-01  0.37577062560E-01 -0.12204686998E+00  0.88957715416E+00  0.88000000000E+00 0. -1.
        -11    1    4    4    0    0  0.60267785822E-02 -0.29921114361E-01  0.78821168110E-01  0.84525929796E-01  0.51100000000E-03 0.  1.
         11    1    4    4    0    0  0.53249424525E-02 -0.25885593443E-01  0.37995558555E-01  0.46285446427E-01  0.51100000000E-03 0. -1.
</event>
<event>
 8    1  0.1145101E+005  0.1043930E+01  0.7957747E-01            NaN
         13   -1    0    0    0    0  0.00000000000E+00  0.00000000000E+00  0.74505805969E-08  0.10566000000E+00  0.10566000000E+00 0.  1.
     999900   -1    0    0    0    0 -0.00000000000E+00 -0.00000000000E+00 -0.74505805969E-08  0.93827000000E+00  0.93827000000E+00 0. -1.
     999902    2    1    2    0    0  0.55284266498E-02  0.21046170110E-01  0.94068507991E-02  0.10202235954E+01  0.10199481315E+01 0.  0.
     999903    2    3    3    0    0  0.32571321019E-01 -0.71714606777E-01 -0.99575873116E-01  0.12825211940E+00  0.18148714736E-01 0.  0.
         14    1    1    2    0    0 -0.55284266498E-02 -0.21046170110E-01 -0.94068507991E-02  0.23706404609E-01  0.00000000000E+00 0. -1.
     999901    1    3    3    0    0 -0.27042894369E-01  0.92760776887E-01  0.10898272391E+00  0.89197147599E+00  0.88000000000E+00 0.  1.
        -11    1    4    4    0    0  0.14020098157E-01 -0.46470325900E-01 -0.69865725771E-01  0.85073703928E-01  0.51100000000E-03 0. -1.
         11    1    4    4    0    0  0.18551222862E-01 -0.25244280876E-01 -0.29710147345E-01  0.43178415475E-01  0.51100000000E-03 0.  1.
</event>
<event>
 8    1  0.1145101E+005  0.1043930E+01  0.7957747E-01            NaN
         13   -1    0    0    0    0  0.00000000000E+00  0.00000000000E+00  0.74505805969E-08  0.10566000000E+00  0.10566000000E+00 0.  1.
     999900   -1    0    0    0    0 -0.00000000000E+00 -0.00000000000E+00 -0.74505805969E-08  0.93827000000E+00  0.93827000000E+00 0.  1.
     999902    2    1    2    0    0  0.10728667162E-02  0.21892597467E-01  0.10090707020E-01  0.10197999516E+01  0.10195144345E+01 0.  0.
     999903    2    3    3    0    0  0.22218722577E-01 -0.93037341337E-01 -0.79108377121E-01  0.12760461725E+00  0.29583517312E-01 0.  0.
         14    1    1    2    0    0 -0.10728667162E-02 -0.21892597467E-01 -0.10090707020E-01  0.24130048384E-01  0.00000000000E+00 0.  1.
     999901    1    3    3    0    0 -0.21145855861E-01  0.11492993880E+00  0.89199084142E-01  0.89219533437E+00  0.88000000000E+00 0. -1.
        -11    1    4    4    0    0  0.25362597188E-01 -0.57296790100E-01 -0.39086411535E-01  0.73852502866E-01  0.51100000000E-03 0. -1.
         11    1    4    4    0    0 -0.31438746108E-02 -0.35740551237E-01 -0.40021965586E-01  0.53752114383E-01  0.51100000000E-03 0.  1.
</event>
<event>
 8    1  0.1145101E+005  0.1043930E+01  0.7957747E-01            NaN
         13   -1    0    0    0    0  0.00000000000E+00  0.00000000000E+00  0.74505805969E-08  0.10566000000E+00  0.10566000000E+00 0.  1.
     999900   -1    0    0    0    0 -0.00000000000E+00 -0.00000000000E+00 -0.74505805969E-08  0.93827000000E+00  0.93827000000E+00 0. -1.
     999902    2    1    2    0    0 -0.23304905937E-01  0.27752047877E-01  0.11632932583E-01  0.10058692601E+01  0.10051489186E+01 0.  0.
     999903    2    3    3    0    0 -0.27236666394E-02  0.52556552641E-01  0.10614158991E+00  0.12022218750E+00  0.20438387263E-01 0.  0.
         14    1    1    2    0    0  0.23304905937E-01 -0.27752047877E-01 -0.11632932583E-01  0.38060739911E-01  0.00000000000E+00 0.  1.
     999901    1    3    3    0    0 -0.20581239297E-01 -0.24804504764E-01 -0.94508657329E-01  0.88564707258E+00  0.88000000000E+00 0. -1.
        -11    1    4    4    0    0 -0.14021314609E-03  0.44175199488E-01  0.68066181254E-01  0.81146374294E-01  0.51100000000E-03 0. -1.
         11    1    4    4    0    0 -0.25834534933E-02  0.83813531534E-02  0.38075408658E-01  0.39075813211E-01  0.51100000000E-03 0.  1.
</event>
<event>
 8    1  0.1145101E+005  0.1043930E+01  0.7957747E-01            NaN
         13   -1    0    0    0    0  0.00000000000E+00  0.00000000000E+00  0.74505805969E-08  0.10566000000E+00  0.10566000000E+00 0.  1.
     999900   -1    0    0    0    0 -0.00000000000E+00 -0.00000000000E+00 -0.74505805969E-08  0.93827000000E+00  0.93827000000E+00 0. -1.
     999902    2    1    2    0    0  0.16979204431E-01  0.15248438093E-01 -0.69682899178E-02  0.10200686230E+01  0.10197895030E+01 0.  0.
     999903    2    3    3    0    0 -0.99789235064E-01  0.64588808665E-01  0.43006692522E-01  0.12958176769E+00  0.28500057487E-01 0.  0.
         14    1    1    2    0    0 -0.16979204431E-01 -0.15248438093E-01  0.69682899178E-02  0.23861376988E-01  0.00000000000E+00 0.  1.
     999901    1    3    3    0    0  0.11676843949E+00 -0.49340370573E-01 -0.49974982440E-01  0.89048685532E+00  0.88000000000E+00 0. -1.
        -11    1    4    4    0    0 -0.60185508944E-01  0.39242828926E-01  0.40530048470E-01  0.82493884980E-01  0.51100000000E-03 0.  1.
         11    1    4    4    0    0 -0.39603726120E-01  0.25345979739E-01  0.24766440521E-02  0.47087882711E-01  0.51100000000E-03 0. -1.
</event>
<event>
 8    1  0.1145101E+005  0.1043930E+01  0.7957747E-01            NaN
         13   -1    0    0    0    0  0.00000000000E+00  0.00000000000E+00  0.74505805969E-08  0.10566000000E+00  0.10566000000E+00 0.  1.
     999900   -1    0    0    0    0 -0.00000000000E+00 -0.00000000000E+00 -0.74505805969E-08  0.93827000000E+00  0.93827000000E+00 0.  1.
     999902    2    1    2    0    0  0.62972428502E-02  0.13175611404E-01 -0.19355057458E-01  0.10196839642E+01  0.10193956624E+01 0.  0.
     999903    2    3    3    0    0  0.57005352043E-01 -0.87545150751E-01 -0.75987709958E-01  0.13068270345E+00  0.19750274288E-01 0.  0.
         14    1    1    2    0    0 -0.62972428502E-02 -0.13175611404E-01  0.19355057458E-01  0.24246035812E-01  0.00000000000E+00 0.  1.
     999901    1    3    3    0    0 -0.50708109193E-01  0.10072076216E+00  0.56632652500E-01  0.88900126074E+00  0.88000000000E+00 0. -1.
        -11    1    4    4    0    0  0.12625682052E-01 -0.76075017825E-02 -0.83212572544E-02  0.16934768199E-01  0.51100000000E-03 0.  1.
         11    1    4    4    0    0  0.44379669991E-01 -0.79937648969E-01 -0.67666452703E-01  0.11374793525E+00  0.51100000000E-03 0. -1.
</event>
<event>
 8    1  0.1145101E+005  0.1043930E+01  0.7957747E-01            NaN
         13   -1    0    0    0    0  0.00000000000E+00  0.00000000000E+00  0.74505805969E-08  0.10566000000E+00  0.10566000000E+00 0. -1.
     999900   -1    0    0    0    0 -0.00000000000E+00 -0.00000000000E+00 -0.74505805969E-08  0.93827000000E+00  0.93827000000E+00 0. -1.
     999902    2    1    2    0    0  0.10197211512E-01  0.61528758626E-02  0.30259017647E-01  0.10114115567E+01  0.10108886625E+01 0.  0.
     999903    2    3    3    0    0  0.11601364206E+00 -0.29946386435E-01  0.26871681153E-01  0.12433109377E+00  0.19498267260E-01 0.  0.
         14    1    1    2    0    0 -0.10197211512E-01 -0.61528758626E-02 -0.30259017647E-01  0.32518443274E-01  0.00000000000E+00 0.  1.
     999901    1    3    3    0    0 -0.10581643054E+00  0.36099262298E-01  0.33873364940E-02  0.88708046296E+00  0.88000000000E+00 0. -1.
        -11    1    4    4    0    0  0.10409303382E+00 -0.27912244015E-01  0.17860971820E-01  0.10924160604E+00  0.51100000000E-03 0. -1.
         11    1    4    4    0    0  0.11920608236E-01 -0.20341424203E-02  0.90107093330E-02  0.15089487724E-01  0.51100000000E-03 0.  1.
</event>
<event>
 8    1  0.1145101E+005  0.1043930E+01  0.7957747E-01            NaN
         13   -1    0    0    0    0  0.00000000000E+00  0.00000000000E+00  0.74505805969E-08  0.10566000000E+00  0.10566000000E+00 0.  1.
     999900   -1    0    0    0    0 -0.00000000000E+00 -0.00000000000E+00 -0.74505805969E-08  0.93827000000E+00  0.93827000000E+00 0. -1.
     999902    2    1    2    0    0 -0.15473675073E-01 -0.16332899394E-01 -0.53719413528E-03  0.10214247384E+01  0.10211767768E+01 0.  0.
     999903    2    3    3    0    0  0.66581074209E-01 -0.94850122380E-01  0.59826682379E-01  0.13207568780E+00  0.20860734053E-01 0.  0.
         14    1    1    2    0    0  0.15473675073E-01  0.16332899394E-01  0.53719413528E-03  0.22505261616E-01  0.00000000000E+00 0. -1.
     999901    1    3    3    0    0 -0.82054749282E-01  0.78517222986E-01 -0.60363876514E-01  0.88934905058E+00  0.88000000000E+00 0. -1.
        -11    1    4    4    0    0  0.29923090190E-01 -0.49600490055E-01  0.40623122540E-01  0.70753792450E-01  0.51100000000E-03 0. -1.
         11    1    4    4    0    0  0.36657984019E-01 -0.45249632325E-01  0.19203559839E-01  0.61321895351E-01  0.51100000000E-03 0.  1.
</event>
<event>
 8    1  0.1145101E+005  0.1043930E+01  0.7957747E-01            NaN
         13   -1    0    0    0    0  0.00000000000E+00  0.00000000000E+00  0.74505805969E-08  0.10566000000E+00  0.10566000000E+00 0. -1.
     999900   -1    0    0    0    0 -0.00000000000E+00 -0.00000000000E+00 -0.74505805969E-08  0.93827000000E+00  0.93827000000E+00 0. -1.
     999902    2    1    2    0    0  0.18761404537E-01  0.12320121434E-01 -0.85485029746E-02  0.10199122442E+01  0.10196294097E+01 0.  0.
     999903    2    3    3    0    0 -0.88497229985E-01  0.89662229153E-01  0.17805116851E-01  0.12964221233E+00  0.24879830775E-01 0.  0.
         14    1    1    2    0    0 -0.18761404537E-01 -0.12320121434E-01  0.85485029746E-02  0.24017755837E-01  0.00000000000E+00 0. -1.
     999901    1    3    3    0    0  0.10725863452E+00 -0.77342107719E-01 -0.26353619826E-01  0.89027003184E+00  0.88000000000E+00 0. -1.
        -11    1    4    4    0    0 -0.40107222357E-01  0.38181092690E-01  0.20199835533E-01  0.58946412959E-01  0.51100000000E-03 0.  1.
         11    1    4    4    0    0 -0.48390007628E-01  0.51481136463E-01 -0.23947186818E-02  0.70695799369E-01  0.51100000000E-03 0. -1.
</event>
<event>
 8    1  0.1145101E+005  0.1043930E+01  0.7957747E-01            NaN
         13   -1    0    0    0    0  0.00000000000E+00  0.00000000000E+00  0.74505805969E-08  0.10566000000E+00  0.10566000000E+00 0. -1.
     999900   -1    0    0    0    0 -0.00000000000E+00 -0.00000000000E+00 -0.74505805969E-08  0.93827000000E+00  0.93827000000E+00 0. -1.
     999902    2    1    2    0    0  0.22094867091E-01  0.53996323059E-03  0.76584153612E-02  0.10205392745E+01  0.10202711820E+01 0.  0.
     999903    2    3    3    0    0  0.65329565557E-01 -0.59814139130E-01 -0.95032207708E-01  0.13146266316E+00  0.20140206743E-01 0.  0.
         14    1    1    2    0    0 -0.22094867091E-01 -0.53996323059E-03 -0.76584153612E-02  0.23390725467E-01  0.00000000000E+00 0.  1.
     999901    1    3    3    0    0 -0.43234698466E-01  0.60354102361E-01  0.10269062307E+00  0.88907661137E+00  0.88000000000E+00 0.  1.
        -11    1    4    4    0    0  0.13447102356E-01 -0.18101033217E-01 -0.13825425773E-01  0.26455159876E-01  0.51100000000E-03 0. -1.
         11    1    4    4    0    0  0.51882463201E-01 -0.41713105914E-01 -0.81206781934E-01  0.10500750328E+00  0.51100000000E-03 0.  1.
</event>
<event>
 8    1  0.1145101E+005  0.1043930E+01  0.7957747E-01            NaN
         13   -1    0    0    0    0  0.00000000000E+00  0.00000000000E+00  0.74505805969E-08  0.10566000000E+00  0.10566000000E+00 0. -1.
     999900   -1    0    0    0    0 -0.00000000000E+00 -0.00000000000E+00 -0.74505805969E-08  0.93827000000E+00  0.93827000000E+00 0.  1.
     999902    2    1    2    0    0  0.22996877521E-01 -0.64796224453E-02 -0.62039771639E-02  0.10192453648E+01  0.10189464080E+01 0.  0.
     999903    2    3    3    0    0  0.12598397636E+00  0.25371487088E-01 -0.26616210503E-01  0.13243225315E+00  0.17725810485E-01 0.  0.
         14    1    1    2    0    0 -0.22996877521E-01  0.64796224453E-02  0.62039771639E-02  0.24684635209E-01  0.00000000000E+00 0.  1.
     999901    1    3    3    0    0 -0.10298709884E+00 -0.31851109533E-01  0.20412233339E-01  0.88681311164E+00  0.88000000000E+00 0. -1.
        -11    1    4    4    0    0  0.48036886587E-01  0.39484218234E-02 -0.33800112186E-02  0.48319955554E-01  0.51100000000E-03 0. -1.
         11    1    4    4    0    0  0.77947089771E-01  0.21423065264E-01 -0.23236199284E-01  0.84112297598E-01  0.51100000000E-03 0.  1.
</event>
<event>
 8    1  0.1145101E+005  0.1043930E+01  0.7957747E-01            NaN
         13   -1    0    0    0    0  0.00000000000E+00  0.00000000000E+00  0.74505805969E-08  0.10566000000E+00  0.10566000000E+00 0.  1.
     999900   -1    0    0    0    0 -0.00000000000E+00 -0.00000000000E+00 -0.74505805969E-08  0.93827000000E+00  0.93827000000E+00 0.  1.
     999902    2    1    2    0    0 -0.18542059370E-01  0.12451775127E-01  0.73880618302E-02  0.10204047343E+01  0.10201335126E+01 0.  0.
     999903    2    3    3    0    0 -0.93098981480E-01  0.76621757016E-01  0.54302596225E-01  0.13368183802E+00  0.19589483404E-01 0.  0.
         14    1    1    2    0    0  0.18542059370E-01 -0.12451775127E-01 -0.73880618302E-02  0.23525265718E-01  0.00000000000E+00 0. -1.
     999901    1    3    3    0    0  0.74556922110E-01 -0.64169981889E-01 -0.46914534394E-01  0.88672289626E+00  0.88000000000E+00 0.  1.
        -11    1    4    4    0    0 -0.68002706425E-01  0.56014065845E-01  0.29829289899E-01  0.93016080924E-01  0.51100000000E-03 0. -1.
         11    1    4    4    0    0 -0.25096275055E-01  0.20607691171E-01  0.24473306326E-01  0.40665757101E-01  0.51100000000E-03 0.  1.
</event>
<event>
 8    1  0.1145101E+005  0.1043930E+01  0.7957747E-01            NaN
         13   -1    0    0    0    0  0.00000000000E+00  0.00000000000E+00  0.74505805969E-08  0.10566000000E+00  0.10566000000E+00 0.  1.
     999900   -1    0    0    0    0 -0.00000000000E+00 -0.00000000000E+00 -0.74505805969E-08  0.93827000000E+00  0.93827000000E+00 0.  1.
     999902    2    1    2    0    0 -0.24657910935E-02  0.99308522284E-02 -0.16529541202E-01  0.10244896378E+01  0.10243051743E+01 0.  0.
     999903    2    3    3    0    0 -0.78652964430E-01 -0.71023930116E-01 -0.81483302074E-01  0.13512067427E+00  0.19681987594E-01 0.  0.
         14    1    1    2    0    0  0.24657910935E-02 -0.99308522284E-02  0.16529541202E-01  0.19440362241E-01  0.00000000000E+00 0.  1.
     999901    1    3    3    0    0  0.76187173337E-01  0.80954782345E-01  0.64953760872E-01  0.88936896349E+00  0.88000000000E+00 0. -1.
        -11    1    4    4    0    0 -0.50282794605E-01 -0.50526841742E-01 -0.43694525930E-01  0.83610967504E-01  0.51100000000E-03 0. -1.
         11    1    4    4    0    0 -0.28370169826E-01 -0.20497088374E-01 -0.37788776144E-01  0.51509706767E-01  0.51100000000E-03 0.  1.
</event>
<event>
 8    1  0.1145101E+005  0.1043930E+01  0.7957747E-01            NaN
         13   -1    0    0    0    0  0.00000000000E+00  0.00000000000E+00  0.74505805969E-08  0.10566000000E+00  0.10566000000E+00 0.  1.
     999900   -1    0    0    0    0 -0.00000000000E+00 -0.00000000000E+00 -0.74505805969E-08  0.93827000000E+00  0.93827000000E+00 0. -1.
     999902    2    1    2    0    0 -0.24321057001E-01 -0.20802692191E-02  0.38665887493E-02  0.10192157968E+01  0.10189161146E+01 0.  0.
     999903    2    3    3    0    0  0.59813033184E-01  0.10519453857E+00  0.37335951089E-01  0.12808919086E+00  0.19219201019E-01 0.  0.
         14    1    1    2    0    0  0.24321057001E-01  0.20802692191E-02 -0.38665887493E-02  0.24714203249E-01  0.00000000000E+00 0. -1.
     999901    1    3    3    0    0 -0.84134090185E-01 -0.10727480779E+00 -0.33469362339E-01  0.89112660589E+00  0.88000000000E+00 0. -1.
        -11    1    4    4    0    0  0.41826238659E-01  0.61122232077E-01  0.15284378072E-01  0.75625622830E-01  0.51100000000E-03 0.  1.
         11    1    4    4    0    0  0.17986794525E-01  0.44072306490E-01  0.22051573016E-01  0.52463568027E-01  0.51100000000E-03 0. -1.
</event>
<event>
 8    1  0.1145101E+005  0.1043930E+01  0.7957747E-01            NaN
         13   -1    0    0    0    0  0.00000000000E+00  0.00000000000E+00  0.74505805969E-08  0.10566000000E+00  0.10566000000E+00 0. -1.
     999900   -1    0    0    0    0 -0.00000000000E+00 -0.00000000000E+00 -0.74505805969E-08  0.93827000000E+00  0.93827000000E+00 0.  1.
     999902    2    1    2    0    0  0.13860562027E-01 -0.17671072439E-01 -0.60090566842E-02  0.10206815432E+01  0.10204167393E+01 0.  0.
     999903    2    3    3    0    0  0.12325138557E+00 -0.38570502706E-01  0.25243295649E-01  0.13311191327E+00  0.20074106589E-01 0.  0.
         14    1    1    2    0    0 -0.13860562027E-01  0.17671072439E-01  0.60090566842E-02  0.23248456789E-01  0.00000000000E+00 0.  1.
     999901    1    3    3    0    0 -0.10939082355E+00  0.20899430268E-01 -0.31252352334E-01  0.88756962994E+00  0.88000000000E+00 0.  1.
        -11    1    4    4    0    0  0.26488904737E-01 -0.16726162282E-01  0.32128386364E-02  0.31496190753E-01  0.51100000000E-03 0. -1.
         11    1    4    4    0    0  0.96762480836E-01 -0.21844340424E-01  0.22030457013E-01  0.10161572252E+00  0.51100000000E-03 0.  1.
</event>
