<event>
 8    1  0.1148488E+005  0.1043930E+01  0.7957747E-01            NaN
         13   -1    0    0    0    0  0.00000000000E+00  0.00000000000E+00  0.74505805969E-08  0.10566000000E+00  0.10566000000E+00 0.  1.
     999900   -1    0    0    0    0 -0.00000000000E+00 -0.00000000000E+00 -0.74505805969E-08  0.93827000000E+00  0.93827000000E+00 0.  1.
     999902    2    1    2    0    0 -0.20053158364E-01 -0.56736493928E-02  0.10106950001E-01  0.10207681802E+01  0.10205053688E+01 0.  0.
     999903    2    3    3    0    0 -0.71631136290E-01 -0.18285984636E-01 -0.10690686842E+00  0.13143607547E+00  0.19518363168E-01 0.  0.
         14    1    1    2    0    0  0.20053158364E-01  0.56736493928E-02 -0.10106950001E-01  0.23161819794E-01  0.00000000000E+00 0. -1.
     999901    1    3    3    0    0  0.51577977926E-01  0.12612335243E-01  0.11701381842E+00  0.88933210473E+00  0.88000000000E+00 0. -1.
        -11    1    4    4    0    0 -0.43766162515E-01 -0.14854248721E-01 -0.50708905804E-01  0.68613263551E-01  0.51100000000E-03 0.  1.
         11    1    4    4    0    0 -0.27864973775E-01 -0.34317359147E-02 -0.56197962614E-01  0.62822811923E-01  0.51100000000E-03 0. -1.
</event>
<event>
 8    1  0.1148488E+005  0.1043930E+01  0.7957747E-01            NaN
         13   -1    0    0    0    0  0.00000000000E+00  0.00000000000E+00  0.74505805969E-08  0.10566000000E+00  0.10566000000E+00 0.  1.
     999900   -1    0    0    0    0 -0.00000000000E+00 -0.00000000000E+00 -0.74505805969E-08  0.93827000000E+00  0.93827000000E+00 0. -1.
     999902    2    1    2    0    0 -0.13631416150E-01  0.12188471670E-01  0.14887102426E-01  0.10203503442E+01  0.10200778523E+01 0.  0.
     999903    2    3    3    0    0 -0.53574329990E-01 -0.54362267731E-01 -0.10227102804E+00  0.12919914223E+00  0.20188863022E-01 0.  0.
         14    1    1    2    0    0  0.13631416150E-01 -0.12188471670E-01 -0.14887102426E-01  0.23579655777E-01  0.00000000000E+00 0. -1.
     999901    1    3    3    0    0  0.39942913839E-01  0.66550739401E-01  0.11715813046E+00  0.89115120199E+00  0.88000000000E+00 0.  1.
        -11    1    4    4    0    0 -0.22523594704E-01 -0.36930833840E-01 -0.53251938639E-01  0.68609247893E-01  0.51100000000E-03 0. -1.
         11    1    4    4    0    0 -0.31050735286E-01 -0.17431433891E-01 -0.49019089398E-01  0.60589894337E-01  0.51100000000E-03 0.  1.
</event>
<event>
 8    1  0.1148488E+005  0.1043930E+01  0.7957747E-01            NaN
         13   -1    0    0    0    0  0.00000000000E+00  0.00000000000E+00  0.74505805969E-08  0.10566000000E+00  0.10566000000E+00 0. -1.
     999900   -1    0    0    0    0 -0.00000000000E+00 -0.00000000000E+00 -0.74505805969E-08  0.93827000000E+00  0.93827000000E+00 0. -1.
     999902    2    1    2    0    0 -0.14431359155E-01  0.77980003637E-02 -0.10953401632E-01  0.10242056510E+01  0.10240157057E+01 0.  0.
     999903    2    3    3    0    0 -0.76106069693E-01  0.11090355483E+00 -0.20983469928E-03  0.13597710522E+00  0.19949857011E-01 0.  0.
         14    1    1    2    0    0  0.14431359155E-01 -0.77980003637E-02  0.10953401632E-01  0.19724349014E-01  0.00000000000E+00 0. -1.
     999901    1    3    3    0    0  0.61674710538E-01 -0.10310555447E+00 -0.10743566932E-01  0.88822854577E+00  0.88000000000E+00 0. -1.
        -11    1    4    4    0    0 -0.69714670099E-01  0.10729027176E+00  0.29068609924E-02  0.12798456392E+00  0.51100000000E-03 0.  1.
         11    1    4    4    0    0 -0.63913995935E-02  0.36132830762E-02 -0.31166956917E-02  0.79925412972E-02  0.51100000000E-03 0. -1.
</event>
<event>
 8    1  0.1148488E+005  0.1043930E+01  0.7957747E-01            NaN
         13   -1    0    0    0    0  0.00000000000E+00  0.00000000000E+00  0.74505805969E-08  0.10566000000E+00  0.10566000000E+00 0.  1.
     999900   -1    0    0    0    0 -0.00000000000E+00 -0.00000000000E+00 -0.74505805969E-08  0.93827000000E+00  0.93827000000E+00 0.  1.
     999902    2    1    2    0    0  0.22747312471E-03 -0.23139725977E-01 -0.84394021067E-02  0.10192982690E+01  0.10190006080E+01 0.  0.
     999903    2    3    3    0    0  0.88405553434E-01 -0.95380548044E-01 -0.67633109535E-02  0.13194438275E+00  0.21227033284E-01 0.  0.
         14    1    1    2    0    0 -0.22747312471E-03  0.23139725977E-01  0.84394021067E-02  0.24631730963E-01  0.00000000000E+00 0. -1.
     999901    1    3    3    0    0 -0.88178080309E-01  0.72240822067E-01 -0.16760911531E-02  0.88735388628E+00  0.88000000000E+00 0. -1.
        -11    1    4    4    0    0  0.54050969623E-01 -0.59907321503E-01 -0.14428014771E-01  0.81968428178E-01  0.51100000000E-03 0. -1.
         11    1    4    4    0    0  0.34354583812E-01 -0.35473226542E-01  0.76647038178E-02  0.49975954576E-01  0.51100000000E-03 0.  1.
</event>
<event>
 8    1  0.1148488E+005  0.1043930E+01  0.7957747E-01            NaN
         13   -1    0    0    0    0  0.00000000000E+00  0.00000000000E+00  0.74505805969E-08  0.10566000000E+00  0.10566000000E+00 0. -1.
     999900   -1    0    0    0    0 -0.00000000000E+00 -0.00000000000E+00 -0.74505805969E-08  0.93827000000E+00  0.93827000000E+00 0. -1.
     999902    2    1    2    0    0  0.39525534373E-02 -0.22399224669E-02 -0.22967020281E-01  0.10205179528E+01  0.10202493657E+01 0.  0.
     999903    2    3    3    0    0  0.10891427979E+00 -0.68492940966E-01  0.18872443516E-01  0.13082307976E+00  0.14314530058E-01 0.  0.
         14    1    1    2    0    0 -0.39525534373E-02  0.22399224669E-02  0.22967020281E-01  0.23412047154E-01  0.00000000000E+00 0. -1.
     999901    1    3    3    0    0 -0.10496172635E+00  0.66253018499E-01 -0.41839463797E-01  0.88969487308E+00  0.88000000000E+00 0. -1.
        -11    1    4    4    0    0  0.79329018637E-01 -0.46874982524E-01  0.19441836135E-01  0.94173262117E-01  0.51100000000E-03 0. -1.
         11    1    4    4    0    0  0.29585261150E-01 -0.21617958443E-01 -0.56939261926E-03  0.36649817646E-01  0.51100000000E-03 0.  1.
</event>
<event>
 8    1  0.1148488E+005  0.1043930E+01  0.7957747E-01            NaN
         13   -1    0    0    0    0  0.00000000000E+00  0.00000000000E+00  0.74505805969E-08  0.10566000000E+00  0.10566000000E+00 0.  1.
     999900   -1    0    0    0    0 -0.00000000000E+00 -0.00000000000E+00 -0.74505805969E-08  0.93827000000E+00  0.93827000000E+00 0. -1.
     999902    2    1    2    0    0 -0.66742818640E-02 -0.21851712871E-01 -0.72852951135E-02  0.10199483629E+01  0.10196663886E+01 0.  0.
     999903    2    3    3    0    0 -0.11203774782E+00  0.19059544537E-01  0.60089882344E-01  0.13016490300E+00  0.20405510037E-01 0.  0.
         14    1    1    2    0    0  0.66742818640E-02  0.21851712871E-01  0.72852951135E-02  0.23981637114E-01  0.00000000000E+00 0.  1.
     999901    1    3    3    0    0  0.10536346595E+00 -0.40911257407E-01 -0.67375177457E-01  0.88978345988E+00  0.88000000000E+00 0.  1.
        -11    1    4    4    0    0 -0.54875379832E-01  0.54504780393E-03  0.22674939417E-01  0.59380286184E-01  0.51100000000E-03 0. -1.
         11    1    4    4    0    0 -0.57162367987E-01  0.18514496733E-01  0.37414942927E-01  0.70784616820E-01  0.51100000000E-03 0.  1.
</event>
<event>
 8    1  0.1148488E+005  0.1043930E+01  0.7957747E-01            NaN
         13   -1    0    0    0    0  0.00000000000E+00  0.00000000000E+00  0.74505805969E-08  0.10566000000E+00  0.10566000000E+00 0. -1.
     999900   -1    0    0    0    0 -0.00000000000E+00 -0.00000000000E+00 -0.74505805969E-08  0.93827000000E+00  0.93827000000E+00 0.  1.
     999902    2    1    2    0    0  0.53723774232E-02 -0.23418370066E-01 -0.63474492654E-02  0.10190789918E+01  0.10187759415E+01 0.  0.
     999903    2    3    3    0    0  0.20560007599E-01  0.10846363446E+00  0.59118884676E-01  0.12671731171E+00  0.19369064237E-01 0.  0.
         14    1    1    2    0    0 -0.53723774232E-02  0.23418370066E-01  0.63474492654E-02  0.24851008187E-01  0.00000000000E+00 0. -1.
     999901    1    3    3    0    0 -0.15187630175E-01 -0.13188200453E+00 -0.65466333941E-01  0.89236168010E+00  0.88000000000E+00 0.  1.
        -11    1    4    4    0    0  0.41733636396E-02  0.70682342977E-02  0.97528815569E-02  0.12757614190E-01  0.51100000000E-03 0. -1.
         11    1    4    4    0    0  0.16386643959E-01  0.10139540017E+00  0.49366003119E-01  0.11395969752E+00  0.51100000000E-03 0.  1.
</event>
<event>
 8    1  0.1148488E+005  0.1043930E+01  0.7957747E-01            NaN
         13   -1    0    0    0    0  0.00000000000E+00  0.00000000000E+00  0.74505805969E-08  0.10566000000E+00  0.10566000000E+00 0.  1.
     999900   -1    0    0    0    0 -0.00000000000E+00 -0.00000000000E+00 -0.74505805969E-08  0.93827000000E+00  0.93827000000E+00 0.  1.
     999902    2    1    2    0    0 -0.97430216159E-02  0.22373905272E-01 -0.32016188956E-02  0.10193176358E+01  0.10190204484E+01 0.  0.
     999903    2    3    3    0    0  0.22603773121E-01 -0.48393996689E-01  0.11456884153E+00  0.12806890935E+00  0.20560073394E-01 0.  0.
         14    1    1    2    0    0  0.97430216159E-02 -0.22373905272E-01  0.32016188956E-02  0.24612364187E-01  0.00000000000E+00 0.  1.
     999901    1    3    3    0    0 -0.32346794737E-01  0.70767901962E-01 -0.11777046042E+00  0.89124872647E+00  0.88000000000E+00 0.  1.
        -11    1    4    4    0    0  0.12533885706E-02 -0.24093758966E-01  0.59391628739E-01  0.64106995634E-01  0.51100000000E-03 0.  1.
         11    1    4    4    0    0  0.21350384551E-01 -0.24300237724E-01  0.55177212787E-01  0.63961913713E-01  0.51100000000E-03 0. -1.
</event>
<event>
 8    1  0.1148488E+005  0.1043930E+01  0.7957747E-01            NaN
         13   -1    0    0    0    0  0.00000000000E+00  0.00000000000E+00  0.74505805969E-08  0.10566000000E+00  0.10566000000E+00 0. -1.
     999900   -1    0    0    0    0 -0.00000000000E+00 -0.00000000000E+00 -0.74505805969E-08  0.93827000000E+00  0.93827000000E+00 0.  1.
     999902    2    1    2    0    0 -0.47545242102E-03 -0.20698380907E-01 -0.12576748006E-01  0.10197055574E+01  0.10194177751E+01 0.  0.
     999903    2    3    3    0    0  0.99987212381E-01 -0.69603248216E-01 -0.46420503028E-01  0.13199511319E+00  0.20634728078E-01 0.  0.
         14    1    1    2    0    0  0.47545242102E-03  0.20698380907E-01  0.12576748006E-01  0.24224442565E-01  0.00000000000E+00 0.  1.
     999901    1    3    3    0    0 -0.10046266480E+00  0.48904867309E-01  0.33843755022E-01  0.88771044424E+00  0.88000000000E+00 0.  1.
        -11    1    4    4    0    0  0.43854561351E-01 -0.25777760041E-01 -0.94082833336E-02  0.51734827537E-01  0.51100000000E-03 0.  1.
         11    1    4    4    0    0  0.56132651030E-01 -0.43825488175E-01 -0.37012219694E-01  0.80260285654E-01  0.51100000000E-03 0. -1.
</event>
<event>
 8    1  0.1148488E+005  0.1043930E+01  0.7957747E-01            NaN
         13   -1    0    0    0    0  0.00000000000E+00  0.00000000000E+00  0.74505805969E-08  0.10566000000E+00  0.10566000000E+00 0.  1.
     999900   -1    0    0    0    0 -0.00000000000E+00 -0.00000000000E+00 -0.74505805969E-08  0.93827000000E+00  0.93827000000E+00 0.  1.
     999902    2    1    2    0    0  0.78660870791E-02 -0.16790093059E-01  0.14287383521E-01  0.10205224824E+01  0.10202540004E+01 0.  0.
     999903    2    3    3    0    0 -0.80524213515E-01 -0.10066012709E+00 -0.17119727552E-01  0.13157173325E+00  0.20035612524E-01 0.  0.
         14    1    1    2    0    0 -0.78660870791E-02  0.16790093059E-01 -0.14287383521E-01  0.23407517570E-01  0.00000000000E+00 0. -1.
     999901    1    3    3    0    0  0.88390300594E-01  0.83870034035E-01  0.31407111074E-01  0.88895074918E+00  0.88000000000E+00 0.  1.
        -11    1    4    4    0    0 -0.14409029153E-01 -0.31992086645E-01 -0.32068689471E-02  0.35237180058E-01  0.51100000000E-03 0.  1.
         11    1    4    4    0    0 -0.66115184363E-01 -0.68668040449E-01 -0.13912858605E-01  0.96334553188E-01  0.51100000000E-03 0. -1.
</event>
<event>
 8    1  0.1148488E+005  0.1043930E+01  0.7957747E-01            NaN
         13   -1    0    0    0    0  0.00000000000E+00  0.00000000000E+00  0.74505805969E-08  0.10566000000E+00  0.10566000000E+00 0.  1.
     999900   -1    0    0    0    0 -0.00000000000E+00 -0.00000000000E+00 -0.74505805969E-08  0.93827000000E+00  0.93827000000E+00 0.  1.
     999902    2    1    2    0    0 -0.16665723647E-01 -0.13060733289E-01  0.29531350381E-02  0.10225512698E+01  0.10223277602E+01 0.  0.
     999903    2    3    3    0    0 -0.74938652907E-01 -0.74829258073E-01  0.81452902507E-01  0.13498532946E+00  0.19267700446E-01 0.  0.
         14    1    1    2    0    0  0.16665723647E-01  0.13060733289E-01 -0.29531350381E-02  0.21378730207E-01  0.00000000000E+00 0. -1.
     999901    1    3    3    0    0  0.58272929260E-01  0.61768524784E-01 -0.78499767469E-01  0.88756594033E+00  0.88000000000E+00 0.  1.
        -11    1    4    4    0    0 -0.53959959430E-01 -0.40869756440E-01  0.52714333618E-01  0.85796714990E-01  0.51100000000E-03 0.  1.
         11    1    4    4    0    0 -0.20978693476E-01 -0.33959501633E-01  0.28738568889E-01  0.49188614475E-01  0.51100000000E-03 0. -1.
</event>
<event>
 8    1  0.1148488E+005  0.1043930E+01  0.7957747E-01            NaN
         13   -1    0    0    0    0  0.00000000000E+00  0.00000000000E+00  0.74505805969E-08  0.10566000000E+00  0.10566000000E+00 0.  1.
     999900   -1    0    0    0    0 -0.00000000000E+00 -0.00000000000E+00 -0.74505805969E-08  0.93827000000E+00  0.93827000000E+00 0. -1.
     999902    2    1    2    0    0 -0.11799001653E-01  0.19236139675E-01 -0.99436261911E-02  0.10192698862E+01  0.10189715304E+01 0.  0.
     999903    2    3    3    0    0 -0.37520842888E-01  0.11121722136E+00  0.56039693409E-01  0.13164613093E+00  0.20326646840E-01 0.  0.
         14    1    1    2    0    0  0.11799001653E-01 -0.19236139675E-01  0.99436261911E-02  0.24660113776E-01  0.00000000000E+00 0.  1.
     999901    1    3    3    0    0  0.25721841235E-01 -0.91981081687E-01 -0.65983319601E-01  0.88762375530E+00  0.88000000000E+00 0. -1.
        -11    1    4    4    0    0 -0.10071356357E-01  0.61449803209E-01  0.28313718358E-01  0.68406420032E-01  0.51100000000E-03 0. -1.
         11    1    4    4    0    0 -0.27449486530E-01  0.49767418154E-01  0.27725975051E-01  0.63239710894E-01  0.51100000000E-03 0.  1.
</event>
<event>
 8    1  0.1148488E+005  0.1043930E+01  0.7957747E-01            NaN
         13   -1    0    0    0    0  0.00000000000E+00  0.00000000000E+00  0.74505805969E-08  0.10566000000E+00  0.10566000000E+00 0.  1.
     999900   -1    0    0    0    0 -0.00000000000E+00 -0.00000000000E+00 -0.74505805969E-08  0.93827000000E+00  0.93827000000E+00 0. -1.
     999902    2    1    2    0    0  0.11156851284E-01 -0.13171989367E-01 -0.18974995364E-01  0.10182779614E+01  0.10179548023E+01 0.  0.
     999903    2    3    3    0    0  0.11663111587E-01  0.82153477234E-01  0.93553637585E-01  0.12600564081E+00  0.15489235542E-01 0.  0.
         14    1    1    2    0    0 -0.11156851284E-01  0.13171989367E-01  0.18974995364E-01  0.25652038584E-01  0.00000000000E+00 0.  1.
     999901    1    3    3    0    0 -0.50626030368E-03 -0.95325466601E-01 -0.11252863295E+00  0.89227232060E+00  0.88000000000E+00 0. -1.
        -11    1    4    4    0    0  0.40350313086E-02  0.55179203533E-01  0.52362237765E-01  0.76178022060E-01  0.51100000000E-03 0.  1.
         11    1    4    4    0    0  0.76280802787E-02  0.26974273701E-01  0.41191399820E-01  0.49827618752E-01  0.51100000000E-03 0. -1.
</event>
<event>
 8    1  0.1148488E+005  0.1043930E+01  0.7957747E-01            NaN
         13   -1    0    0    0    0  0.00000000000E+00  0.00000000000E+00  0.74505805969E-08  0.10566000000E+00  0.10566000000E+00 0. -1.
     999900   -1    0    0    0    0 -0.00000000000E+00 -0.00000000000E+00 -0.74505805969E-08  0.93827000000E+00  0.93827000000E+00 0. -1.
     999902    2    1    2    0    0  0.80592607701E-02  0.15299164472E-01  0.12906107550E-01  0.10223526107E+01  0.10221248832E+01 0.  0.
     999903    2    3    3    0    0  0.11080893780E+00 -0.27358424839E-01  0.66666728784E-01  0.13372030739E+00  0.20237682062E-01 0.  0.
         14    1    1    2    0    0 -0.80592607701E-02 -0.15299164472E-01 -0.12906107550E-01  0.21577389319E-01  0.00000000000E+00 0.  1.
     999901    1    3    3    0    0 -0.10274967703E+00  0.42657589311E-01 -0.53760621234E-01  0.88863230329E+00  0.88000000000E+00 0.  1.
        -11    1    4    4    0    0  0.20693222294E-01 -0.19797832262E-02  0.43202934851E-02  0.21238056581E-01  0.51100000000E-03 0.  1.
         11    1    4    4    0    0  0.90115715509E-01 -0.25378641613E-01  0.62346435299E-01  0.11248225081E+00  0.51100000000E-03 0. -1.
</event>
<event>
 8    1  0.1148488E+005  0.1043930E+01  0.7957747E-01            NaN
         13   -1    0    0    0    0  0.00000000000E+00  0.00000000000E+00  0.74505805969E-08  0.10566000000E+00  0.10566000000E+00 0. -1.
     999900   -1    0    0    0    0 -0.00000000000E+00 -0.00000000000E+00 -0.74505805969E-08  0.93827000000E+00  0.93827000000E+00 0. -1.
     999902    2    1    2    0    0  0.12591272938E-01 -0.16762754879E-01  0.10445082748E-01  0.10205071509E+01  0.10202383130E+01 0.  0.
     999903    2    3    3    0    0  0.12209186975E+00  0.19645856187E-01 -0.39739661286E-01  0.13155581581E+00  0.20864028169E-01 0.  0.
         14    1    1    2    0    0 -0.12591272938E-01  0.16762754879E-01 -0.10445082748E-01  0.23422849078E-01  0.00000000000E+00 0.  1.
     999901    1    3    3    0    0 -0.10950059681E+00 -0.36408611065E-01  0.50184744034E-01  0.88895133511E+00  0.88000000000E+00 0. -1.
        -11    1    4    4    0    0  0.69931706326E-01  0.21474522399E-01 -0.21200702731E-01  0.76166459673E-01  0.51100000000E-03 0. -1.
         11    1    4    4    0    0  0.52160163420E-01 -0.18286662124E-02 -0.18538958555E-01  0.55389356138E-01  0.51100000000E-03 0.  1.
</event>
<event>
 8    1  0.1148488E+005  0.1043930E+01  0.7957747E-01            NaN
         13   -1    0    0    0    0  0.00000000000E+00  0.00000000000E+00  0.74505805969E-08  0.10566000000E+00  0.10566000000E+00 0.  1.
     999900   -1    0    0    0    0 -0.00000000000E+00 -0.00000000000E+00 -0.74505805969E-08  0.93827000000E+00  0.93827000000E+00 0.  1.
     999902    2    1    2    0    0  0.16989287459E-01  0.15107805264E-02  0.15699308828E-01  0.10207483986E+01  0.10204851330E+01 0.  0.
     999903    2    3    3    0    0  0.42449460914E-01  0.90981562241E-01  0.85215235266E-01  0.13311913745E+00  0.19479913583E-01 0.  0.
         14    1    1    2    0    0 -0.16989287459E-01 -0.15107805264E-02 -0.15699308828E-01  0.23181601408E-01  0.00000000000E+00 0.  1.
     999901    1    3    3    0    0 -0.25460173455E-01 -0.89470781715E-01 -0.69515926438E-01  0.88762926115E+00  0.88000000000E+00 0.  1.
        -11    1    4    4    0    0  0.39762028472E-01  0.81513002626E-01  0.68278903857E-01  0.11352382278E+00  0.51100000000E-03 0.  1.
         11    1    4    4    0    0  0.26874324412E-02  0.94685596155E-02  0.16936331410E-01  0.19595314668E-01  0.51100000000E-03 0. -1.
</event>
<event>
 8    1  0.1148488E+005  0.1043930E+01  0.7957747E-01            NaN
         13   -1    0    0    0    0  0.00000000000E+00  0.00000000000E+00  0.74505805969E-08  0.10566000000E+00  0.10566000000E+00 0. -1.
     999900   -1    0    0    0    0 -0.00000000000E+00 -0.00000000000E+00 -0.74505805969E-08  0.93827000000E+00  0.93827000000E+00 0. -1.
     999902    2    1    2    0    0  0.72330198355E-02  0.21334559966E-01  0.74439505215E-02  0.10202046460E+01  0.10199287363E+01 0.  0.
     999903    2    3    3    0    0 -0.10404993307E+00  0.70166774116E-01 -0.31797623464E-01  0.13098679758E+00  0.19917015863E-01 0.  0.
         14    1    1    2    0    0 -0.72330198355E-02 -0.21334559966E-01 -0.74439505215E-02  0.23725354038E-01  0.00000000000E+00 0. -1.
     999901    1    3    3    0    0  0.11128295291E+00 -0.48832214150E-01  0.39241573985E-01  0.88921784838E+00  0.88000000000E+00 0.  1.
        -11    1    4    4    0    0 -0.84929414732E-01  0.61804802410E-01 -0.32933859302E-01  0.11008060364E+00  0.51100000000E-03 0. -1.
         11    1    4    4    0    0 -0.19120518340E-01  0.83619717057E-02  0.11362358376E-02  0.20906193945E-01  0.51100000000E-03 0.  1.
</event>
<event>
 8    1  0.1148488E+005  0.1043930E+01  0.7957747E-01            NaN
         13   -1    0    0    0    0  0.00000000000E+00  0.00000000000E+00  0.74505805969E-08  0.10566000000E+00  0.10566000000E+00 0.  1.
     999900   -1    0    0    0    0 -0.00000000000E+00 -0.00000000000E+00 -0.74505805969E-08  0.93827000000E+00  0.93827000000E+00 0.  1.
     999902    2    1    2    0    0  0.13093070253E-01 -0.18372658799E-01  0.48047175502E-02  0.10208633923E+01  0.10206027618E+01 0.  0.
     999903    2    3    3    0    0  0.10556006244E+00  0.34719865567E-01 -0.67389666289E-01  0.13149227188E+00  0.20011361594E-01 0.  0.
         14    1    1    2    0    0 -0.13093070253E-01  0.18372658799E-01 -0.48047175502E-02  0.23066607698E-01  0.00000000000E+00 0. -1.
     999901    1    3    3    0    0 -0.92466992190E-01 -0.53092524366E-01  0.72194383839E-01  0.88937112043E+00  0.88000000000E+00 0. -1.
        -11    1    4    4    0    0  0.39588372910E-01  0.11990089126E-01 -0.36552162952E-01  0.55202565560E-01  0.51100000000E-03 0. -1.
         11    1    4    4    0    0  0.65971689532E-01  0.22729776441E-01 -0.30837503337E-01  0.76289706316E-01  0.51100000000E-03 0.  1.
</event>
<event>
 8    1  0.1148488E+005  0.1043930E+01  0.7957747E-01            NaN
         13   -1    0    0    0    0  0.00000000000E+00  0.00000000000E+00  0.74505805969E-08  0.10566000000E+00  0.10566000000E+00 0.  1.
     999900   -1    0    0    0    0 -0.00000000000E+00 -0.00000000000E+00 -0.74505805969E-08  0.93827000000E+00  0.93827000000E+00 0.  1.
     999902    2    1    2    0    0  0.21685314173E-01 -0.79585577828E-02  0.98697399013E-04  0.10208301897E+01  0.10205687998E+01 0.  0.
     999903    2    3    3    0    0  0.10044652109E+00 -0.78138025447E-01  0.36532961185E-01  0.13378118266E+00  0.19175321659E-01 0.  0.
         14    1    1    2    0    0 -0.21685314173E-01  0.79585577828E-02 -0.98697399013E-04  0.23099810257E-01  0.00000000000E+00 0. -1.
     999901    1    3    3    0    0 -0.78761206914E-01  0.70179467664E-01 -0.36434263786E-01  0.88704900709E+00  0.88000000000E+00 0.  1.
        -11    1    4    4    0    0  0.23842742399E-01 -0.89619096490E-02  0.75894193675E-02  0.26582938080E-01  0.51100000000E-03 0. -1.
         11    1    4    4    0    0  0.76603778688E-01 -0.69176115798E-01  0.28943541817E-01  0.10719824458E+00  0.51100000000E-03 0.  1.
</event>
<event>
 8    1  0.1148488E+005  0.1043930E+01  0.7957747E-01            NaN
         13   -1    0    0    0    0  0.00000000000E+00  0.00000000000E+00  0.74505805969E-08  0.10566000000E+00  0.10566000000E+00 0. -1.
     999900   -1    0    0    0    0 -0.00000000000E+00 -0.00000000000E+00 -0.74505805969E-08  0.93827000000E+00  0.93827000000E+00 0.  1.
     999902    2    1    2    0    0 -0.13547086819E-02  0.14019441350E-01 -0.18535655618E-01  0.10206501697E+01  0.10203846423E+01 0.  0.
     999903    2    3    3    0    0 -0.10224732079E+00  0.17343787798E-01  0.76664491604E-01  0.12977787888E+00  0.14475219833E-01 0.  0.
         14    1    1    2    0    0  0.13547086819E-02 -0.14019441350E-01  0.18535655618E-01  0.23279830338E-01  0.00000000000E+00 0. -1.
     999901    1    3    3    0    0  0.10089261211E+00 -0.33243464480E-02 -0.95200147222E-01  0.89087229078E+00  0.88000000000E+00 0.  1.
        -11    1    4    4    0    0 -0.33172760920E-01  0.12196368052E-01  0.28578463871E-01  0.45455177691E-01  0.51100000000E-03 0.  1.
         11    1    4    4    0    0 -0.69074559869E-01  0.51474197456E-02  0.48086027734E-01  0.84322701187E-01  0.51100000000E-03 0. -1.
</event>
<event>
 8    1  0.1148488E+005  0.1043930E+01  0.7957747E-01            NaN
         13   -1    0    0    0    0  0.00000000000E+00  0.00000000000E+00  0.74505805969E-08  0.10566000000E+00  0.10566000000E+00 0. -1.
     999900   -1    0    0    0    0 -0.00000000000E+00 -0.00000000000E+00 -0.74505805969E-08  0.93827000000E+00  0.93827000000E+00 0.  1.
     999902    2    1    2    0    0  0.12553926361E-01 -0.65964254394E-02  0.34989429774E-01  0.10061758732E+01  0.10054673111E+01 0.  0.
     999903    2    3    3    0    0  0.23303067743E-02 -0.10613108511E+00  0.52921437806E-01  0.12032417691E+00  0.20198797347E-01 0.  0.
         14    1    1    2    0    0 -0.12553926361E-01  0.65964254394E-02 -0.34989429774E-01  0.37754126815E-01  0.00000000000E+00 0.  1.
     999901    1    3    3    0    0  0.10223619586E-01  0.99534659672E-01 -0.17932008032E-01  0.88585169627E+00  0.88000000000E+00 0.  1.
        -11    1    4    4    0    0 -0.42358981187E-02 -0.77403552150E-01  0.45665222838E-01  0.89971253277E-01  0.51100000000E-03 0.  1.
         11    1    4    4    0    0  0.65662048930E-02 -0.28727532961E-01  0.72562149678E-02  0.30352923638E-01  0.51100000000E-03 0. -1.
</event>
<event>
 8    1  0.1148488E+005  0.1043930E+01  0.7957747E-01            NaN
         13   -1    0    0    0    0  0.00000000000E+00  0.00000000000E+00  0.74505805969E-08  0.10566000000E+00  0.10566000000E+00 0. -1.
     999900   -1    0    0    0    0 -0.00000000000E+00 -0.00000000000E+00 -0.74505805969E-08  0.93827000000E+00  0.93827000000E+00 0. -1.
     999902    2    1    2    0    0  0.22199071189E-02  0.20962760283E-01 -0.59317380544E-02  0.10220313511E+01  0.10217967175E+01 0.  0.
     999903    2    3    3    0    0 -0.40298069151E-01 -0.12775465998E-01  0.12263405969E+00  0.13103459997E+00  0.18542030239E-01 0.  0.
         14    1    1    2    0    0 -0.22199071189E-02 -0.20962760283E-01  0.59317380544E-02  0.21898648877E-01  0.00000000000E+00 0. -1.
     999901    1    3    3    0    0  0.42517976270E-01  0.33738226281E-01 -0.12856579774E+00  0.89099675115E+00  0.88000000000E+00 0. -1.
        -11    1    4    4    0    0 -0.18452720185E-01 -0.97042755735E-02  0.83929323069E-01  0.86481606359E-01  0.51100000000E-03 0. -1.
         11    1    4    4    0    0 -0.21845348966E-01 -0.30711904249E-02  0.38704736616E-01  0.44552993610E-01  0.51100000000E-03 0.  1.
</event>
<event>
 8    1  0.1148488E+005  0.1043930E+01  0.7957747E-01            NaN
         13   -1    0    0    0    0  0.00000000000E+00  0.00000000000E+00  0.74505805969E-08  0.10566000000E+00  0.10566000000E+00 0.  1.
     999900   -1    0    0    0    0 -0.00000000000E+00 -0.00000000000E+00 -0.74505805969E-08  0.93827000000E+00  0.93827000000E+00 0. -1.
     999902    2    1    2    0    0  0.21897710491E-02 -0.11354576974E-01 -0.20189219513E-01  0.10206635843E+01  0.10203983664E+01 0.  0.
     999903    2    3    3    0    0  0.10132456347E+00 -0.20189971099E-01  0.76249421823E-01  0.12981781604E+00  0.19088974252E-01 0.  0.
         14    1    1    2    0    0 -0.21897710491E-02  0.11354576974E-01  0.20189219513E-01  0.23266415711E-01  0.00000000000E+00 0.  1.
     999901    1    3    3    0    0 -0.99134792424E-01  0.88353941258E-02 -0.96438641335E-01  0.89084576825E+00  0.88000000000E+00 0. -1.
        -11    1    4    4    0    0  0.16365657130E-01  0.36310652215E-02  0.13773948799E-01  0.21702584051E-01  0.51100000000E-03 0.  1.
         11    1    4    4    0    0  0.84958906343E-01 -0.23821036321E-01  0.62475473024E-01  0.10811523199E+00  0.51100000000E-03 0. -1.
</event>
<event>
 8    1  0.1148488E+005  0.1043930E+01  0.7957747E-01            NaN
         13   -1    0    0    0    0  0.00000000000E+00  0.00000000000E+00  0.74505805969E-08  0.10566000000E+00  0.10566000000E+00 0.  1.
     999900   -1    0    0    0    0 -0.00000000000E+00 -0.00000000000E+00 -0.74505805969E-08  0.93827000000E+00  0.93827000000E+00 0.  1.
     999902    2    1    2    0    0  0.52527714367E-02 -0.10570486378E-01  0.21158367779E-01  0.10197018487E+01  0.10194139772E+01 0.  0.
     999903    2    3    3    0    0  0.10907728198E-01  0.95784035200E-01  0.86359029806E-01  0.13088556330E+00  0.19483036683E-01 0.  0.
         14    1    1    2    0    0 -0.52527714367E-02  0.10570486378E-01 -0.21158367779E-01  0.24228151335E-01  0.00000000000E+00 0. -1.
     999901    1    3    3    0    0 -0.56549567617E-02 -0.10635452158E+00 -0.65200662027E-01  0.88881628536E+00  0.88000000000E+00 0. -1.
        -11    1    4    4    0    0  0.91009151022E-02  0.54070778685E-01  0.36592562073E-01  0.65922321586E-01  0.51100000000E-03 0. -1.
         11    1    4    4    0    0  0.18068130962E-02  0.41713256515E-01  0.49766467733E-01  0.64963241717E-01  0.51100000000E-03 0.  1.
</event>
<event>
 8    1  0.1148488E+005  0.1043930E+01  0.7957747E-01            NaN
         13   -1    0    0    0    0  0.00000000000E+00  0.00000000000E+00  0.74505805969E-08  0.10566000000E+00  0.10566000000E+00 0. -1.
     999900   -1    0    0    0    0 -0.00000000000E+00 -0.00000000000E+00 -0.74505805969E-08  0.93827000000E+00  0.93827000000E+00 0. -1.
     999902    2    1    2    0    0  0.18291652474E-01 -0.14696769423E-01 -0.70799355031E-03  0.10204548890E+01  0.10201848360E+01 0.  0.
     999903    2    3    3    0    0 -0.26177627338E-01 -0.12783077776E+00  0.32066111919E-02  0.13209001755E+00  0.20285819335E-01 0.  0.
         14    1    1    2    0    0 -0.18291652474E-01  0.14696769423E-01  0.70799355031E-03  0.23475111003E-01  0.00000000000E+00 0. -1.
     999901    1    3    3    0    0  0.44469279812E-01  0.11313400833E+00 -0.39146047422E-02  0.88836487145E+00  0.88000000000E+00 0.  1.
        -11    1    4    4    0    0 -0.18117034384E-01 -0.41057492590E-01  0.22534460280E-02  0.44936441477E-01  0.51100000000E-03 0. -1.
         11    1    4    4    0    0 -0.80605929533E-02 -0.86773285168E-01  0.95316516389E-03  0.87153576074E-01  0.51100000000E-03 0.  1.
</event>
<event>
 8    1  0.1148488E+005  0.1043930E+01  0.7957747E-01            NaN
         13   -1    0    0    0    0  0.00000000000E+00  0.00000000000E+00  0.74505805969E-08  0.10566000000E+00  0.10566000000E+00 0. -1.
     999900   -1    0    0    0    0 -0.00000000000E+00 -0.00000000000E+00 -0.74505805969E-08  0.93827000000E+00  0.93827000000E+00 0. -1.
     999902    2    1    2    0    0  0.23198563192E-02  0.98224590513E-02 -0.17813086311E-01  0.10234563956E+01  0.10232515942E+01 0.  0.
     999903    2    3    3    0    0 -0.11003345802E+00  0.52825744772E-01 -0.53235822278E-01  0.13456533358E+00  0.19386981015E-01 0.  0.
         14    1    1    2    0    0 -0.23198563192E-02 -0.98224590513E-02  0.17813086311E-01  0.20473604448E-01  0.00000000000E+00 0. -1.
     999901    1    3    3    0    0  0.11235331434E+00 -0.43003285721E-01  0.35422735966E-01  0.88889106197E+00  0.88000000000E+00 0.  1.
        -11    1    4    4    0    0 -0.79341927520E-01  0.39954457163E-01 -0.29209142157E-01  0.93514358343E-01  0.51100000000E-03 0.  1.
         11    1    4    4    0    0 -0.30691530504E-01  0.12871287609E-01 -0.24026680121E-01  0.41050975239E-01  0.51100000000E-03 0. -1.
</event>
<event>
 8    1  0.1148488E+005  0.1043930E+01  0.7957747E-01            NaN
         13   -1    0    0    0    0  0.00000000000E+00  0.00000000000E+00  0.74505805969E-08  0.10566000000E+00  0.10566000000E+00 0.  1.
     999900   -1    0    0    0    0 -0.00000000000E+00 -0.00000000000E+00 -0.74505805969E-08  0.93827000000E+00  0.93827000000E+00 0. -1.
     999902    2    1    2    0    0  0.20077271334E-01  0.13205182125E-01 -0.13913624573E-02  0.10198590725E+01  0.10195749694E+01 0.  0.
     999903    2    3    3    0    0 -0.29242867791E-01  0.83064710431E-01 -0.94718759694E-01  0.13080180054E+00  0.19559553984E-01 0.  0.
         14    1    1    2    0    0 -0.20077271334E-01 -0.13205182125E-01  0.13913624573E-02  0.24070927458E-01  0.00000000000E+00 0.  1.
     999901    1    3    3    0    0  0.49320139125E-01 -0.69859528305E-01  0.93327397236E-01  0.88905727200E+00  0.88000000000E+00 0.  1.
        -11    1    4    4    0    0 -0.16634260644E-01  0.33503921324E-01 -0.52611940961E-01  0.64556090526E-01  0.51100000000E-03 0.  1.
         11    1    4    4    0    0 -0.12608607147E-01  0.49560789106E-01 -0.42106818733E-01  0.66245710018E-01  0.51100000000E-03 0. -1.
</event>
<event>
 8    1  0.1148488E+005  0.1043930E+01  0.7957747E-01            NaN
         13   -1    0    0    0    0  0.00000000000E+00  0.00000000000E+00  0.74505805969E-08  0.10566000000E+00  0.10566000000E+00 0. -1.
     999900   -1    0    0    0    0 -0.00000000000E+00 -0.00000000000E+00 -0.74505805969E-08  0.93827000000E+00  0.93827000000E+00 0. -1.
     999902    2    1    2    0    0  0.10215993551E-01 -0.21123265676E-01  0.62377317192E-03  0.10204577191E+01  0.10201877320E+01 0.  0.
     999903    2    3    3    0    0 -0.12545042647E+00 -0.20922335098E-01  0.16995320461E-01  0.12991100756E+00  0.20309489395E-01 0.  0.
         14    1    1    2    0    0 -0.10215993551E-01  0.21123265676E-01 -0.62377317192E-03  0.23472280887E-01  0.00000000000E+00 0. -1.
     999901    1    3    3    0    0  0.13566642003E+00 -0.20093057786E-03 -0.16371547289E-01  0.89054671155E+00  0.88000000000E+00 0. -1.
        -11    1    4    4    0    0 -0.95821449363E-01 -0.18960180716E-01  0.47763936186E-02  0.97797309103E-01  0.51100000000E-03 0. -1.
         11    1    4    4    0    0 -0.29628977111E-01 -0.19621543819E-02  0.12218926843E-01  0.32113698458E-01  0.51100000000E-03 0.  1.
</event>
<event>
 8    1  0.1148488E+005  0.1043930E+01  0.7957747E-01            NaN
         13   -1    0    0    0    0  0.00000000000E+00  0.00000000000E+00  0.74505805969E-08  0.10566000000E+00  0.10566000000E+00 0.  1.
     999900   -1    0    0    0    0 -0.00000000000E+00 -0.00000000000E+00 -0.74505805969E-08  0.93827000000E+00  0.93827000000E+00 0. -1.
     999902    2    1    2    0    0  0.88666345891E-02  0.96383148190E-02  0.18695305060E-01  0.10211039457E+01  0.10208487837E+01 0.  0.
     999903    2    3    3    0    0  0.92133562884E-01  0.10878803857E-01 -0.89743228828E-01  0.13054578606E+00  0.19529806793E-01 0.  0.
         14    1    1    2    0    0 -0.88666345891E-02 -0.96383148190E-02 -0.18695305060E-01  0.22826054253E-01  0.00000000000E+00 0. -1.
     999901    1    3    3    0    0 -0.83266928294E-01 -0.12404890375E-02  0.10843853389E+00  0.89055815969E+00  0.88000000000E+00 0.  1.
        -11    1    4    4    0    0  0.73310906636E-01  0.14078230727E-02 -0.74514741693E-01  0.10454271303E+00  0.51100000000E-03 0.  1.
         11    1    4    4    0    0  0.18822656247E-01  0.94709807838E-02 -0.15228487135E-01  0.26003073023E-01  0.51100000000E-03 0. -1.
</event>
<event>
 8    1  0.1148488E+005  0.1043930E+01  0.7957747E-01            NaN
         13   -1    0    0    0    0  0.00000000000E+00  0.00000000000E+00  0.74505805969E-08  0.10566000000E+00  0.10566000000E+00 0. -1.
     999900   -1    0    0    0    0 -0.00000000000E+00 -0.00000000000E+00 -0.74505805969E-08  0.93827000000E+00  0.93827000000E+00 0.  1.
     999902    2    1    2    0    0  0.92332266316E-02  0.12300820776E-01  0.89056990063E-02  0.10261571516E+01  0.10260032289E+01 0.  0.
     999903    2    3    3    0    0  0.11325222714E+00 -0.72302685950E-01 -0.37546938958E-02  0.13591112303E+00  0.20099509711E-01 0.  0.
         14    1    1    2    0    0 -0.92332266316E-02 -0.12300820776E-01 -0.89056990063E-02  0.17772848409E-01  0.00000000000E+00 0.  1.
     999901    1    3    3    0    0 -0.10401900050E+00  0.84603506726E-01  0.12660392902E-01  0.89024602856E+00  0.88000000000E+00 0. -1.
        -11    1    4    4    0    0  0.59944421057E-01 -0.47556928353E-01  0.40219571921E-02  0.76625272012E-01  0.51100000000E-03 0. -1.
         11    1    4    4    0    0  0.53307806079E-01 -0.24745757597E-01 -0.77766510879E-02  0.59285851020E-01  0.51100000000E-03 0.  1.
</event>
<event>
 8    1  0.1148488E+005  0.1043930E+01  0.7957747E-01            NaN
         13   -1    0    0    0    0  0.00000000000E+00  0.00000000000E+00  0.74505805969E-08  0.10566000000E+00  0.10566000000E+00 0.  1.
     999900   -1    0    0    0    0 -0.00000000000E+00 -0.00000000000E+00 -0.74505805969E-08  0.93827000000E+00  0.93827000000E+00 0. -1.
     999902    2    1    2    0    0  0.22238612638E-02  0.15811774344E-01 -0.17450928544E-01  0.10202764025E+01  0.10200021789E+01 0.  0.
     999903    2    3    3    0    0 -0.12841406884E+00  0.10042633846E-01  0.14604105761E-02  0.13041282280E+00  0.20355441060E-01 0.  0.
         14    1    1    2    0    0 -0.22238612638E-02 -0.15811774344E-01  0.17450928544E-01  0.23653597483E-01  0.00000000000E+00 0.  1.
     999901    1    3    3    0    0  0.13063793010E+00  0.57691404975E-02 -0.18911339120E-01  0.88986357972E+00  0.88000000000E+00 0. -1.
        -11    1    4    4    0    0 -0.11494445726E+00  0.14140033378E-01 -0.22870659896E-02  0.11583462605E+00  0.51100000000E-03 0.  1.
         11    1    4    4    0    0 -0.13469611577E-01 -0.40973995315E-02  0.37474765657E-02  0.14578196753E-01  0.51100000000E-03 0. -1.
</event>
<event>
 8    1  0.1148488E+005  0.1043930E+01  0.7957747E-01            NaN
         13   -1    0    0    0    0  0.00000000000E+00  0.00000000000E+00  0.74505805969E-08  0.10566000000E+00  0.10566000000E+00 0. -1.
     999900   -1    0    0    0    0 -0.00000000000E+00 -0.00000000000E+00 -0.74505805969E-08  0.93827000000E+00  0.93827000000E+00 0. -1.
     999902    2    1    2    0    0  0.12803013390E-01  0.18840892350E-01 -0.41290091458E-02  0.10207795120E+01  0.10205169607E+01 0.  0.
     999903    2    3    3    0    0  0.84128356574E-01 -0.11921812458E-01  0.98343969648E-01  0.13143460708E+00  0.19591058682E-01 0.  0.
         14    1    1    2    0    0 -0.12803013390E-01 -0.18840892350E-01  0.41290091458E-02  0.23150487963E-01  0.00000000000E+00 0. -1.
     999901    1    3    3    0    0 -0.71325343185E-01  0.30762704807E-01 -0.10247297879E+00  0.88934490496E+00  0.88000000000E+00 0. -1.
        -11    1    4    4    0    0  0.38524685321E-01 -0.12861578363E-01  0.56112580881E-01  0.69270877223E-01  0.51100000000E-03 0. -1.
         11    1    4    4    0    0  0.45603671253E-01  0.93976590540E-03  0.42231388767E-01  0.62163729859E-01  0.51100000000E-03 0.  1.
</event>
<event>
 8    1  0.1148488E+005  0.1043930E+01  0.7957747E-01            NaN
         13   -1    0    0    0    0  0.00000000000E+00  0.00000000000E+00  0.74505805969E-08  0.10566000000E+00  0.10566000000E+00 0. -1.
     999900   -1    0    0    0    0 -0.00000000000E+00 -0.00000000000E+00 -0.74505805969E-08  0.93827000000E+00  0.93827000000E+00 0.  1.
     999902    2    1    2    0    0 -0.34947344496E-02 -0.17261675307E-01 -0.15245299477E-01  0.10206362721E+01  0.10203704240E+01 0.  0.
     999903    2    3    3    0    0 -0.46397216745E-01  0.11484099889E+00  0.28565924973E-01  0.12866588980E+00  0.19943479646E-01 0.  0.
         14    1    1    2    0    0  0.34947344496E-02  0.17261675307E-01  0.15245299477E-01  0.23293727899E-01  0.00000000000E+00 0.  1.
     999901    1    3    3    0    0  0.42902482295E-01 -0.13210267420E+00 -0.43811224450E-01  0.89197038230E+00  0.88000000000E+00 0. -1.
        -11    1    4    4    0    0 -0.36585064661E-01  0.86901134570E-01  0.30188166701E-01  0.99004346751E-01  0.51100000000E-03 0.  1.
         11    1    4    4    0    0 -0.98121520843E-02  0.27939864320E-01 -0.16222417288E-02  0.29661543048E-01  0.51100000000E-03 0. -1.
</event>
<event>
 8    1  0.1148488E+005  0.1043930E+01  0.7957747E-01            NaN
         13   -1    0    0    0    0  0.00000000000E+00  0.00000000000E+00  0.74505805969E-08  0.10566000000E+00  0.10566000000E+00 0. -1.
     999900   -1    0    0    0    0 -0.00000000000E+00 -0.00000000000E+00 -0.74505805969E-08  0.93827000000E+00  0.93827000000E+00 0.  1.
     999902    2    1    2    0    0 -0.13508809832E-01 -0.76278655095E-02 -0.18043006790E-01  0.10201345725E+01  0.10198570114E+01 0.  0.
     999903    2    3    3    0    0  0.47951730911E-01  0.55942479311E-01  0.10208559873E+00  0.12758235069E+00  0.20660523995E-01 0.  0.
         14    1    1    2    0    0  0.13508809832E-01  0.76278655095E-02  0.18043006790E-01  0.23795427488E-01  0.00000000000E+00 0. -1.
     999901    1    3    3    0    0 -0.61460540743E-01 -0.63570344820E-01 -0.12012860552E+00  0.89255222182E+00  0.88000000000E+00 0.  1.
        -11    1    4    4    0    0  0.23268062785E-01  0.22684405763E-01  0.61678579169E-01  0.69717237896E-01  0.51100000000E-03 0. -1.
         11    1    4    4    0    0  0.24683668126E-01  0.33258073548E-01  0.40407019561E-01  0.57865112797E-01  0.51100000000E-03 0.  1.
</event>
<event>
 8    1  0.1148488E+005  0.1043930E+01  0.7957747E-01            NaN
         13   -1    0    0    0    0  0.00000000000E+00  0.00000000000E+00  0.74505805969E-08  0.10566000000E+00  0.10566000000E+00 0.  1.
     999900   -1    0    0    0    0 -0.00000000000E+00 -0.00000000000E+00 -0.74505805969E-08  0.93827000000E+00  0.93827000000E+00 0.  1.
     999902    2    1    2    0    0 -0.15211014515E-01 -0.15851760776E-01  0.75067889253E-02  0.10207135153E+01  0.10204494476E+01 0.  0.
     999903    2    3    3    0    0  0.79895152858E-01 -0.80330518907E-01 -0.62348533109E-01  0.13049867642E+00  0.17502492665E-01 0.  0.
         14    1    1    2    0    0  0.15211014515E-01  0.15851760776E-01 -0.75067889253E-02  0.23216484709E-01  0.00000000000E+00 0. -1.
     999901    1    3    3    0    0 -0.95106167374E-01  0.64478758132E-01  0.69855322034E-01  0.89021483887E+00  0.88000000000E+00 0. -1.
        -11    1    4    4    0    0  0.56566876730E-01 -0.46608457914E-01 -0.35136536661E-01  0.81283437560E-01  0.51100000000E-03 0. -1.
         11    1    4    4    0    0  0.23328276128E-01 -0.33722060993E-01 -0.27211996448E-01  0.49215238864E-01  0.51100000000E-03 0.  1.
</event>
<event>
 8    1  0.1148488E+005  0.1043930E+01  0.7957747E-01            NaN
         13   -1    0    0    0    0  0.00000000000E+00  0.00000000000E+00  0.74505805969E-08  0.10566000000E+00  0.10566000000E+00 0. -1.
     999900   -1    0    0    0    0 -0.00000000000E+00 -0.00000000000E+00 -0.74505805969E-08  0.93827000000E+00  0.93827000000E+00 0. -1.
     999902    2    1    2    0    0  0.12526915853E-01  0.12680203553E-01 -0.15600393829E-01  0.10202427994E+01  0.10199677869E+01 0.  0.
     999903    2    3    3    0    0  0.54349989660E-02 -0.94262484114E-01  0.84159729344E-01  0.12814464570E+00  0.20572677319E-01 0.  0.
         14    1    1    2    0    0 -0.12526915853E-01 -0.12680203553E-01  0.15600393829E-01  0.23687200564E-01  0.00000000000E+00 0. -1.
     999901    1    3    3    0    0  0.70919168866E-02  0.10694268767E+00 -0.99760123173E-01  0.89209815374E+00  0.88000000000E+00 0. -1.
        -11    1    4    4    0    0 -0.11278974508E-02 -0.50782951852E-01  0.32510297882E-01  0.60310537561E-01  0.51100000000E-03 0.  1.
         11    1    4    4    0    0  0.65628964168E-02 -0.43479532262E-01  0.51649431463E-01  0.67834108135E-01  0.51100000000E-03 0. -1.
</event>
<event>
 8    1  0.1148488E+005  0.1043930E+01  0.7957747E-01            NaN
         13   -1    0    0    0    0  0.00000000000E+00  0.00000000000E+00  0.74505805969E-08  0.10566000000E+00  0.10566000000E+00 0.  1.
     999900   -1    0    0    0    0 -0.00000000000E+00 -0.00000000000E+00 -0.74505805969E-08  0.93827000000E+00  0.93827000000E+00 0.  1.
     999902    2    1    2    0    0  0.12600511286E-01 -0.18286513369E-01  0.51614556965E-02  0.10211306561E+01  0.10208760977E+01 0.  0.
     999903    2    3    3    0    0 -0.41660811429E-01 -0.10933975420E+00  0.58344520632E-01  0.13317602767E+00  0.25317310305E-01 0.  0.
         14    1    1    2    0    0 -0.12600511286E-01  0.18286513369E-01 -0.51614556965E-02  0.22799343867E-01  0.00000000000E+00 0.  1.
     999901    1    3    3    0    0  0.54261322715E-01  0.91053240833E-01 -0.53183064935E-01  0.88795462846E+00  0.88000000000E+00 0.  1.
        -11    1    4    4    0    0 -0.74734558866E-02 -0.32262556842E-02  0.51850020058E-02  0.96647108301E-02  0.51100000000E-03 0.  1.
         11    1    4    4    0    0 -0.34187355542E-01 -0.10611349852E+00  0.53159518626E-01  0.12351131684E+00  0.51100000000E-03 0. -1.
</event>
<event>
 8    1  0.1148488E+005  0.1043930E+01  0.7957747E-01            NaN
         13   -1    0    0    0    0  0.00000000000E+00  0.00000000000E+00  0.74505805969E-08  0.10566000000E+00  0.10566000000E+00 0.  1.
     999900   -1    0    0    0    0 -0.00000000000E+00 -0.00000000000E+00 -0.74505805969E-08  0.93827000000E+00  0.93827000000E+00 0. -1.
     999902    2    1    2    0    0  0.68105949107E-02  0.18183592908E-01 -0.13641933421E-01  0.10201996481E+01  0.10199236209E+01 0.  0.
     999903    2    3    3    0    0 -0.91173035573E-01  0.90042068048E-01 -0.11247428099E-01  0.13184714714E+00  0.28932147120E-01 0.  0.
         14    1    1    2    0    0 -0.68105949107E-02 -0.18183592908E-01  0.13641933421E-01  0.23730351905E-01  0.00000000000E+00 0. -1.
     999901    1    3    3    0    0  0.97983630484E-01 -0.71858475140E-01 -0.23945053216E-02  0.88835250095E+00  0.88000000000E+00 0. -1.
        -11    1    4    4    0    0 -0.25342479847E-01  0.43666678047E-01  0.33441205227E-03  0.50491514227E-01  0.51100000000E-03 0.  1.
         11    1    4    4    0    0 -0.65830555726E-01  0.46375390000E-01 -0.11581840151E-01  0.81355632916E-01  0.51100000000E-03 0. -1.
</event>
<event>
 8    1  0.1148488E+005  0.1043930E+01  0.7957747E-01            NaN
         13   -1    0    0    0    0  0.00000000000E+00  0.00000000000E+00  0.74505805969E-08  0.10566000000E+00  0.10566000000E+00 0.  1.
     999900   -1    0    0    0    0 -0.00000000000E+00 -0.00000000000E+00 -0.74505805969E-08  0.93827000000E+00  0.93827000000E+00 0.  1.
     999902    2    1    2    0    0  0.15601576868E-01 -0.17046807490E-01 -0.67559802315E-02  0.10198541591E+01  0.10195699386E+01 0.  0.
     999903    2    3    3    0    0 -0.75279944776E-01  0.18986340749E-01  0.99775946902E-01  0.12805435519E+00  0.20374667658E-01 0.  0.
         14    1    1    2    0    0 -0.15601576868E-01  0.17046807490E-01  0.67559802315E-02  0.24075840905E-01  0.00000000000E+00 0.  1.
     999901    1    3    3    0    0  0.90881521644E-01 -0.36033148239E-01 -0.10653192713E+00  0.89179980391E+00  0.88000000000E+00 0.  1.
        -11    1    4    4    0    0 -0.25242143532E-01  0.10779707330E-02  0.45767866241E-01  0.52280842880E-01  0.51100000000E-03 0. -1.
         11    1    4    4    0    0 -0.50037801244E-01  0.17908370016E-01  0.54008080661E-01  0.75773512309E-01  0.51100000000E-03 0.  1.
</event>
<event>
 8    1  0.1148488E+005  0.1043930E+01  0.7957747E-01            NaN
         13   -1    0    0    0    0  0.00000000000E+00  0.00000000000E+00  0.74505805969E-08  0.10566000000E+00  0.10566000000E+00 0.  1.
     999900   -1    0    0    0    0 -0.00000000000E+00 -0.00000000000E+00 -0.74505805969E-08  0.93827000000E+00  0.93827000000E+00 0. -1.
     999902    2    1    2    0    0  0.21362488074E-01  0.27193210183E-02  0.96103500729E-02  0.10203480274E+01  0.10200754813E+01 0.  0.
     999903    2    3    3    0    0  0.44271454285E-01 -0.85999224415E-01 -0.85265269419E-01  0.13051816488E+00  0.20223672546E-01 0.  0.
         14    1    1    2    0    0 -0.21362488074E-01 -0.27193210183E-02 -0.96103500729E-02  0.23581972607E-01  0.00000000000E+00 0. -1.
     999901    1    3    3    0    0 -0.22908966211E-01  0.88718545434E-01  0.94875619492E-01  0.88982986251E+00  0.88000000000E+00 0.  1.
        -11    1    4    4    0    0  0.31119492369E-01 -0.70397331831E-01 -0.57594560481E-01  0.96133249462E-01  0.51100000000E-03 0. -1.
         11    1    4    4    0    0  0.13151961917E-01 -0.15601892584E-01 -0.27670708938E-01  0.34384915422E-01  0.51100000000E-03 0.  1.
</event>
<event>
 8    1  0.1148488E+005  0.1043930E+01  0.7957747E-01            NaN
         13   -1    0    0    0    0  0.00000000000E+00  0.00000000000E+00  0.74505805969E-08  0.10566000000E+00  0.10566000000E+00 0.  1.
     999900   -1    0    0    0    0 -0.00000000000E+00 -0.00000000000E+00 -0.74505805969E-08  0.93827000000E+00  0.93827000000E+00 0. -1.
     999902    2    1    2    0    0 -0.73260396904E-02  0.14447787486E-01 -0.17261522604E-01  0.10202578733E+01  0.10199832148E+01 0.  0.
     999903    2    3    3    0    0 -0.80435316431E-01 -0.63612885066E-01  0.75461627186E-01  0.12894647009E+00  0.20403325619E-01 0.  0.
         14    1    1    2    0    0  0.73260396904E-02 -0.14447787486E-01  0.17261522604E-01  0.23672126719E-01  0.00000000000E+00 0.  1.
     999901    1    3    3    0    0  0.73109276740E-01  0.78060672552E-01 -0.92723149790E-01  0.89131140319E+00  0.88000000000E+00 0. -1.
        -11    1    4    4    0    0 -0.26317251306E-01 -0.24918782664E-01  0.38337189973E-01  0.52759309148E-01  0.51100000000E-03 0. -1.
         11    1    4    4    0    0 -0.54118065125E-01 -0.38694102402E-01  0.37124437212E-01  0.76187160945E-01  0.51100000000E-03 0.  1.
</event>
<event>
 8    1  0.1148488E+005  0.1043930E+01  0.7957747E-01            NaN
         13   -1    0    0    0    0  0.00000000000E+00  0.00000000000E+00  0.74505805969E-08  0.10566000000E+00  0.10566000000E+00 0. -1.
     999900   -1    0    0    0    0 -0.00000000000E+00 -0.00000000000E+00 -0.74505805969E-08  0.93827000000E+00  0.93827000000E+00 0.  1.
     999902    2    1    2    0    0 -0.29942264862E-03 -0.18901543652E-01  0.13238586639E-01  0.10208514779E+01  0.10205905750E+01 0.  0.
     999903    2    3    3    0    0  0.29591627264E-01  0.66855417759E-01 -0.10378278834E+00  0.12847166330E+00  0.19717754119E-01 0.  0.
         14    1    1    2    0    0  0.29942264862E-03  0.18901543652E-01 -0.13238586639E-01  0.23078522105E-01  0.00000000000E+00 0.  1.
     999901    1    3    3    0    0 -0.29891049913E-01 -0.85756961411E-01  0.11702137498E+00  0.89237981460E+00  0.88000000000E+00 0. -1.
        -11    1    4    4    0    0  0.24663416568E-02  0.14307117321E-01 -0.34170647074E-01  0.37130455015E-01  0.51100000000E-03 0.  1.
         11    1    4    4    0    0  0.27125285607E-01  0.52548300438E-01 -0.69612141267E-01  0.91341208285E-01  0.51100000000E-03 0. -1.
</event>
<event>
 8    1  0.1148488E+005  0.1043930E+01  0.7957747E-01            NaN
         13   -1    0    0    0    0  0.00000000000E+00  0.00000000000E+00  0.74505805969E-08  0.10566000000E+00  0.10566000000E+00 0.  1.
     999900   -1    0    0    0    0 -0.00000000000E+00 -0.00000000000E+00 -0.74505805969E-08  0.93827000000E+00  0.93827000000E+00 0.  1.
     999902    2    1    2    0    0  0.14524999343E-01  0.19915433709E-01  0.33708435719E-02  0.10190510392E+01  0.10187472983E+01 0.  0.
     999903    2    3    3    0    0 -0.87875013335E-01  0.61173329637E-01  0.69283840282E-01  0.12970718007E+00  0.23653917455E-01 0.  0.
         14    1    1    2    0    0 -0.14524999343E-01 -0.19915433709E-01 -0.33708435719E-02  0.24878960833E-01  0.00000000000E+00 0. -1.
     999901    1    3    3    0    0  0.10240001268E+00 -0.41257895928E-01 -0.65912996710E-01  0.88934385909E+00  0.88000000000E+00 0.  1.
        -11    1    4    4    0    0 -0.76026988783E-01  0.46465656164E-01  0.47863016723E-01  0.10114489467E+00  0.51100000000E-03 0. -1.
         11    1    4    4    0    0 -0.11848024552E-01  0.14707673473E-01  0.21420823559E-01  0.28562285407E-01  0.51100000000E-03 0.  1.
</event>
<event>
 8    1  0.1148488E+005  0.1043930E+01  0.7957747E-01            NaN
         13   -1    0    0    0    0  0.00000000000E+00  0.00000000000E+00  0.74505805969E-08  0.10566000000E+00  0.10566000000E+00 0. -1.
     999900   -1    0    0    0    0 -0.00000000000E+00 -0.00000000000E+00 -0.74505805969E-08  0.93827000000E+00  0.93827000000E+00 0.  1.
     999902    2    1    2    0    0  0.22903104487E-01  0.37996927144E-02  0.30893623280E-02  0.10205091969E+01  0.10202404064E+01 0.  0.
     999903    2    3    3    0    0  0.11569496823E+00 -0.41380557455E-01  0.47682709205E-01  0.13335636247E+00  0.20312617884E-01 0.  0.
         14    1    1    2    0    0 -0.22903104487E-01 -0.37996927144E-02 -0.30893623280E-02  0.23420803135E-01  0.00000000000E+00 0.  1.
     999901    1    3    3    0    0 -0.92791863746E-01  0.45180250169E-01 -0.44593346877E-01  0.88715283439E+00  0.88000000000E+00 0.  1.
        -11    1    4    4    0    0  0.88211792309E-01 -0.23125080669E-01  0.30543736392E-01  0.96173128327E-01  0.51100000000E-03 0. -1.
         11    1    4    4    0    0  0.27483175924E-01 -0.18255476785E-01  0.17138972814E-01  0.37183234147E-01  0.51100000000E-03 0.  1.
</event>
<event>
 8    1  0.1148488E+005  0.1043930E+01  0.7957747E-01            NaN
         13   -1    0    0    0    0  0.00000000000E+00  0.00000000000E+00  0.74505805969E-08  0.10566000000E+00  0.10566000000E+00 0.  1.
     999900   -1    0    0    0    0 -0.00000000000E+00 -0.00000000000E+00 -0.74505805969E-08  0.93827000000E+00  0.93827000000E+00 0. -1.
     999902    2    1    2    0    0 -0.20438923733E-01 -0.11808001080E-01 -0.10814716942E-02  0.10203006100E+01  0.10200269539E+01 0.  0.
     999903    2    3    3    0    0 -0.90849997683E-01 -0.83343698354E-01  0.46173351326E-01  0.13333494342E+00  0.21126633169E-01 0.  0.
         14    1    1    2    0    0  0.20438923733E-01  0.11808001080E-01  0.10814716942E-02  0.23629390045E-01  0.00000000000E+00 0.  1.
     999901    1    3    3    0    0  0.70411073950E-01  0.71535697274E-01 -0.47254823020E-01  0.88696566654E+00  0.88000000000E+00 0. -1.
        -11    1    4    4    0    0 -0.23897815560E-01 -0.21915795552E-01  0.25152367184E-02  0.32526838456E-01  0.51100000000E-03 0.  1.
         11    1    4    4    0    0 -0.66952182123E-01 -0.61427902802E-01  0.43658114608E-01  0.10080810496E+00  0.51100000000E-03 0. -1.
</event>
<event>
 8    1  0.1148488E+005  0.1043930E+01  0.7957747E-01            NaN
         13   -1    0    0    0    0  0.00000000000E+00  0.00000000000E+00  0.74505805969E-08  0.10566000000E+00  0.10566000000E+00 0.  1.
     999900   -1    0    0    0    0 -0.00000000000E+00 -0.00000000000E+00 -0.74505805969E-08  0.93827000000E+00  0.93827000000E+00 0.  1.
     999902    2    1    2    0    0 -0.14287816420E-01 -0.88086411048E-02  0.16705188111E-01  0.10202488437E+01  0.10199739731E+01 0.  0.
     999903    2    3    3    0    0  0.47549049430E-01  0.11813100138E+00 -0.19753504693E-02  0.12879697544E+00  0.19207115478E-01 0.  0.
         14    1    1    2    0    0  0.14287816420E-01  0.88086411048E-02 -0.16705188111E-01  0.23681156349E-01  0.00000000000E+00 0. -1.
     999901    1    3    3    0    0 -0.61836865851E-01 -0.12693964248E+00  0.18680538580E-01  0.89145186821E+00  0.88000000000E+00 0. -1.
        -11    1    4    4    0    0  0.10021081221E-01  0.14569718981E-01 -0.56863273130E-02  0.18582094051E-01  0.51100000000E-03 0. -1.
         11    1    4    4    0    0  0.37527968210E-01  0.10356128240E+00  0.37109768438E-02  0.11021488139E+00  0.51100000000E-03 0.  1.
</event>
<event>
 8    1  0.1148488E+005  0.1043930E+01  0.7957747E-01            NaN
         13   -1    0    0    0    0  0.00000000000E+00  0.00000000000E+00  0.74505805969E-08  0.10566000000E+00  0.10566000000E+00 0.  1.
     999900   -1    0    0    0    0 -0.00000000000E+00 -0.00000000000E+00 -0.74505805969E-08  0.93827000000E+00  0.93827000000E+00 0. -1.
     999902    2    1    2    0    0  0.22496420574E-01 -0.19388981091E-02 -0.32638478872E-02  0.10211155097E+01  0.10208606091E+01 0.  0.
     999903    2    3    3    0    0 -0.30318236824E-01  0.24651145803E-01 -0.12326596534E+00  0.13100488362E+00  0.20997781939E-01 0.  0.
         14    1    1    2    0    0 -0.22496420574E-01  0.19388981091E-02  0.32638478872E-02  0.22814490298E-01  0.00000000000E+00 0. -1.
     999901    1    3    3    0    0  0.52814657398E-01 -0.26590043912E-01  0.12000211746E+00  0.89011062608E+00  0.88000000000E+00 0.  1.
        -11    1    4    4    0    0 -0.10527772730E-01  0.11889880051E-01 -0.81687504078E-01  0.83218463635E-01  0.51100000000E-03 0. -1.
         11    1    4    4    0    0 -0.19790464094E-01  0.12761265752E-01 -0.41578461266E-01  0.47786419985E-01  0.51100000000E-03 0.  1.
</event>
<event>
 8    1  0.1148488E+005  0.1043930E+01  0.7957747E-01            NaN
         13   -1    0    0    0    0  0.00000000000E+00  0.00000000000E+00  0.74505805969E-08  0.10566000000E+00  0.10566000000E+00 0.  1.
     999900   -1    0    0    0    0 -0.00000000000E+00 -0.00000000000E+00 -0.74505805969E-08  0.93827000000E+00  0.93827000000E+00 0. -1.
     999902    2    1    2    0    0  0.24647788351E-01 -0.25393173022E-02 -0.10621097960E-02  0.10191289984E+01  0.10188271815E+01 0.  0.
     999903    2    3    3    0    0  0.86525549039E-01 -0.95687039187E-01  0.22435925106E-01  0.13174096997E+00  0.14478685325E-01 0.  0.
         14    1    1    2    0    0 -0.24647788351E-01  0.25393173022E-02  0.10621097960E-02  0.24801001596E-01  0.00000000000E+00 0.  1.
     999901    1    3    3    0    0 -0.61877760688E-01  0.93147721885E-01 -0.23498034902E-01  0.88738802843E+00  0.88000000000E+00 0. -1.
        -11    1    4    4    0    0  0.17213781572E-01 -0.13581224805E-01  0.78970237372E-02  0.23310685278E-01  0.51100000000E-03 0.  1.
         11    1    4    4    0    0  0.69311767468E-01 -0.82105814382E-01  0.14538901369E-01  0.10843028469E+00  0.51100000000E-03 0. -1.
</event>
<event>
 8    1  0.1148488E+005  0.1043930E+01  0.7957747E-01            NaN
         13   -1    0    0    0    0  0.00000000000E+00  0.00000000000E+00  0.74505805969E-08  0.10566000000E+00  0.10566000000E+00 0.  1.
     999900   -1    0    0    0    0 -0.00000000000E+00 -0.00000000000E+00 -0.74505805969E-08  0.93827000000E+00  0.93827000000E+00 0. -1.
     999902    2    1    2    0    0 -0.27162852407E-03 -0.25276540567E-01  0.15591339834E-02  0.10186039623E+01  0.10182890670E+01 0.  0.
     999903    2    3    3    0    0  0.11214466732E+00 -0.13745298868E-01  0.59593903473E-01  0.12948168302E+00  0.21182852922E-01 0.  0.
         14    1    1    2    0    0  0.27162852407E-03  0.25276540567E-01 -0.15591339834E-02  0.25326037666E-01  0.00000000000E+00 0.  1.
     999901    1    3    3    0    0 -0.11241629584E+00 -0.11531241699E-01 -0.58034769490E-01  0.88912227932E+00  0.88000000000E+00 0. -1.
        -11    1    4    4    0    0  0.92007092857E-01 -0.19368472656E-01  0.47986553252E-01  0.10556236679E+00  0.51100000000E-03 0.  1.
         11    1    4    4    0    0  0.20137574458E-01  0.56231737886E-02  0.11607350221E-01  0.23919316225E-01  0.51100000000E-03 0. -1.
</event>
<event>
 8    1  0.1148488E+005  0.1043930E+01  0.7957747E-01            NaN
         13   -1    0    0    0    0  0.00000000000E+00  0.00000000000E+00  0.74505805969E-08  0.10566000000E+00  0.10566000000E+00 0. -1.
     999900   -1    0    0    0    0 -0.00000000000E+00 -0.00000000000E+00 -0.74505805969E-08  0.93827000000E+00  0.93827000000E+00 0. -1.
     999902    2    1    2    0    0 -0.16738115636E-01  0.17767738521E-01  0.64546567821E-02  0.10186808487E+01  0.10183678863E+01 0.  0.
     999903    2    3    3    0    0 -0.10787326079E+00  0.71939652524E-01 -0.14040830997E-01  0.13208044493E+00  0.20884084842E-01 0.  0.
         14    1    1    2    0    0  0.16738115636E-01 -0.17767738521E-01 -0.64546567821E-02  0.25249151300E-01  0.00000000000E+00 0. -1.
     999901    1    3    3    0    0  0.91135145150E-01 -0.54171914003E-01  0.20495487779E-01  0.88660040377E+00  0.88000000000E+00 0. -1.
        -11    1    4    4    0    0 -0.29694204853E-01  0.12232489676E-01 -0.99412279780E-02  0.33622443996E-01  0.51100000000E-03 0.  1.
         11    1    4    4    0    0 -0.78179055933E-01  0.59707162848E-01 -0.40996030194E-02  0.98458000933E-01  0.51100000000E-03 0. -1.
</event>
<event>
 8    1  0.1148488E+005  0.1043930E+01  0.7957747E-01            NaN
         13   -1    0    0    0    0  0.00000000000E+00  0.00000000000E+00  0.74505805969E-08  0.10566000000E+00  0.10566000000E+00 0. -1.
     999900   -1    0    0    0    0 -0.00000000000E+00 -0.00000000000E+00 -0.74505805969E-08  0.93827000000E+00  0.93827000000E+00 0. -1.
     999902    2    1    2    0    0  0.14497888979E-01  0.46441246045E-02 -0.18082721128E-01  0.10202922869E+01  0.10200184357E+01 0.  0.
     999903    2    3    3    0    0 -0.73005148077E-01  0.21040219497E-01  0.10119253649E+00  0.12779455551E+00  0.17862712415E-01 0.  0.
         14    1    1    2    0    0 -0.14497888979E-01 -0.46441246045E-02  0.18082721128E-01  0.23637713121E-01  0.00000000000E+00 0. -1.
     999901    1    3    3    0    0  0.87503037056E-01 -0.16396094893E-01 -0.11927525761E+00  0.89249773137E+00  0.88000000000E+00 0.  1.
        -11    1    4    4    0    0 -0.30141054015E-01  0.16540762381E-01  0.52580886417E-01  0.62825875996E-01  0.51100000000E-03 0.  1.
         11    1    4    4    0    0 -0.42864094063E-01  0.44994571163E-02  0.48611650070E-01  0.64968679513E-01  0.51100000000E-03 0. -1.
</event>
<event>
 8    1  0.1148488E+005  0.1043930E+01  0.7957747E-01            NaN
         13   -1    0    0    0    0  0.00000000000E+00  0.00000000000E+00  0.74505805969E-08  0.10566000000E+00  0.10566000000E+00 0.  1.
     999900   -1    0    0    0    0 -0.00000000000E+00 -0.00000000000E+00 -0.74505805969E-08  0.93827000000E+00  0.93827000000E+00 0. -1.
     999902    2    1    2    0    0 -0.16557567268E-01 -0.91537463657E-02 -0.14145255990E-01  0.10203072912E+01  0.10200337916E+01 0.  0.
     999903    2    3    3    0    0  0.74172270528E-01 -0.94864218938E-01 -0.42703570985E-01  0.13104143330E+00  0.29112136945E-01 0.  0.
         14    1    1    2    0    0  0.16557567268E-01  0.91537463657E-02  0.14145255990E-01  0.23622708849E-01  0.00000000000E+00 0.  1.
     999901    1    3    3    0    0 -0.90729837797E-01  0.85710472573E-01  0.28558314995E-01  0.88926585785E+00  0.88000000000E+00 0.  1.
        -11    1    4    4    0    0  0.46278870639E-01 -0.40771784931E-01 -0.11859435226E-01  0.62809072903E-01  0.51100000000E-03 0.  1.
         11    1    4    4    0    0  0.27893399889E-01 -0.54092434008E-01 -0.30844135759E-01  0.68232360402E-01  0.51100000000E-03 0. -1.
</event>
<event>
 8    1  0.1148488E+005  0.1043930E+01  0.7957747E-01            NaN
         13   -1    0    0    0    0  0.00000000000E+00  0.00000000000E+00  0.74505805969E-08  0.10566000000E+00  0.10566000000E+00 0.  1.
     999900   -1    0    0    0    0 -0.00000000000E+00 -0.00000000000E+00 -0.74505805969E-08  0.93827000000E+00  0.93827000000E+00 0.  1.
     999902    2    1    2    0    0 -0.16972798330E-01  0.16243652312E-01  0.30534125169E-02  0.10202391695E+01  0.10199640716E+01 0.  0.
     999903    2    3    3    0    0  0.57507784868E-01 -0.78462946392E-01 -0.80878597269E-01  0.12807254860E+00  0.19941186823E-01 0.  0.
         14    1    1    2    0    0  0.16972798330E-01 -0.16243652312E-01 -0.30534125169E-02  0.23690830538E-01  0.00000000000E+00 0.  1.
     999901    1    3    3    0    0 -0.74480583199E-01  0.94706598704E-01  0.83932009786E-01  0.89216662086E+00  0.88000000000E+00 0. -1.
        -11    1    4    4    0    0  0.44485674639E-01 -0.49998911624E-01 -0.63547392885E-01  0.92289753902E-01  0.51100000000E-03 0.  1.
         11    1    4    4    0    0  0.13022110229E-01 -0.28464034768E-01 -0.17331204384E-01  0.35782794699E-01  0.51100000000E-03 0. -1.
</event>
<event>
 8    1  0.1148488E+005  0.1043930E+01  0.7957747E-01            NaN
         13   -1    0    0    0    0  0.00000000000E+00  0.00000000000E+00  0.74505805969E-08  0.10566000000E+00  0.10566000000E+00 0.  1.
     999900   -1    0    0    0    0 -0.00000000000E+00 -0.00000000000E+00 -0.74505805969E-08  0.93827000000E+00  0.93827000000E+00 0.  1.
     999902    2    1    2    0    0  0.18483292417E-02  0.98105909927E-02  0.21058699964E-01  0.10206247890E+01  0.10203586757E+01 0.  0.
     999903    2    3    3    0    0 -0.10784551603E+00  0.71402381569E-01  0.87652845470E-02  0.13159305927E+00  0.22604150369E-01 0.  0.
         14    1    1    2    0    0 -0.18483292417E-02 -0.98105909927E-02 -0.21058699964E-01  0.23305211022E-01  0.00000000000E+00 0. -1.
     999901    1    3    3    0    0  0.10969384527E+00 -0.61591790576E-01  0.12293415417E-01  0.88903172970E+00  0.88000000000E+00 0. -1.
        -11    1    4    4    0    0 -0.84246381245E-01  0.66107836254E-01  0.62348155749E-02  0.10726990637E+00  0.51100000000E-03 0.  1.
         11    1    4    4    0    0 -0.23599134788E-01  0.52945453145E-02  0.25304689721E-02  0.24323152901E-01  0.51100000000E-03 0. -1.
</event>
<event>
 8    1  0.1148488E+005  0.1043930E+01  0.7957747E-01            NaN
         13   -1    0    0    0    0  0.00000000000E+00  0.00000000000E+00  0.74505805969E-08  0.10566000000E+00  0.10566000000E+00 0.  1.
     999900   -1    0    0    0    0 -0.00000000000E+00 -0.00000000000E+00 -0.74505805969E-08  0.93827000000E+00  0.93827000000E+00 0.  1.
     999902    2    1    2    0    0  0.22278194800E-01 -0.57105582276E-02  0.64007038048E-02  0.10200574750E+01  0.10197780910E+01 0.  0.
     999903    2    3    3    0    0  0.77682259374E-02 -0.71132213480E-01  0.10865811813E+00  0.13160538800E+00  0.19830642629E-01 0.  0.
         14    1    1    2    0    0 -0.22278194800E-01  0.57105582276E-02 -0.64007038048E-02  0.23872524961E-01  0.00000000000E+00 0. -1.
     999901    1    3    3    0    0  0.14509968863E-01  0.65421655253E-01 -0.10225741433E+00  0.88845208704E+00  0.88000000000E+00 0.  1.
        -11    1    4    4    0    0  0.12824343531E-01 -0.41488646464E-01  0.54837376105E-01  0.69951200930E-01  0.51100000000E-03 0. -1.
         11    1    4    4    0    0 -0.50561175935E-02 -0.29643567016E-01  0.53820742026E-01  0.61654187074E-01  0.51100000000E-03 0.  1.
</event>
<event>
 8    1  0.1148488E+005  0.1043930E+01  0.7957747E-01            NaN
         13   -1    0    0    0    0  0.00000000000E+00  0.00000000000E+00  0.74505805969E-08  0.10566000000E+00  0.10566000000E+00 0.  1.
     999900   -1    0    0    0    0 -0.00000000000E+00 -0.00000000000E+00 -0.74505805969E-08  0.93827000000E+00  0.93827000000E+00 0. -1.
     999902    2    1    2    0    0 -0.37919129674E-02  0.12128825812E-01 -0.20042809144E-01  0.10201981392E+01  0.10199220764E+01 0.  0.
     999903    2    3    3    0    0 -0.33403702475E-01  0.91747494717E-01 -0.88661990051E-01  0.13344869176E+00  0.20351774524E-01 0.  0.
         14    1    1    2    0    0  0.37919129674E-02 -0.12128825812E-01  0.20042809144E-01  0.23731860819E-01  0.00000000000E+00 0. -1.
     999901    1    3    3    0    0  0.29611789508E-01 -0.79618668905E-01  0.68619180907E-01  0.88674944742E+00  0.88000000000E+00 0.  1.
        -11    1    4    4    0    0 -0.32647208742E-02  0.10254194703E-01 -0.19951941054E-01  0.22674831515E-01  0.51100000000E-03 0. -1.
         11    1    4    4    0    0 -0.30138981601E-01  0.81493300014E-01 -0.68710048998E-01  0.11077386024E+00  0.51100000000E-03 0.  1.
</event>
<event>
 8    1  0.1148488E+005  0.1043930E+01  0.7957747E-01            NaN
         13   -1    0    0    0    0  0.00000000000E+00  0.00000000000E+00  0.74505805969E-08  0.10566000000E+00  0.10566000000E+00 0. -1.
     999900   -1    0    0    0    0 -0.00000000000E+00 -0.00000000000E+00 -0.74505805969E-08  0.93827000000E+00  0.93827000000E+00 0. -1.
     999902    2    1    2    0    0 -0.34186839853E-02 -0.14588366934E-02 -0.23309797513E-01  0.10203257151E+01  0.10200526470E+01 0.  0.
     999903    2    3    3    0    0 -0.68222818137E-02  0.12315834959E+00 -0.41561781559E-01  0.13135205830E+00  0.17648199046E-01 0.  0.
         14    1    1    2    0    0  0.34186839853E-02  0.14588366934E-02  0.23309797513E-01  0.23604284882E-01  0.00000000000E+00 0. -1.
     999901    1    3    3    0    0  0.34035978285E-02 -0.12461718629E+00  0.18251984046E-01  0.88897365682E+00  0.88000000000E+00 0. -1.
        -11    1    4    4    0    0 -0.10389894941E-01  0.98554010177E-01 -0.27780211705E-01  0.10292154353E+00  0.51100000000E-03 0. -1.
         11    1    4    4    0    0  0.35676131270E-02  0.24604339416E-01 -0.13781569855E-01  0.28430514771E-01  0.51100000000E-03 0.  1.
</event>
<event>
 8    1  0.1148488E+005  0.1043930E+01  0.7957747E-01            NaN
         13   -1    0    0    0    0  0.00000000000E+00  0.00000000000E+00  0.74505805969E-08  0.10566000000E+00  0.10566000000E+00 0. -1.
     999900   -1    0    0    0    0 -0.00000000000E+00 -0.00000000000E+00 -0.74505805969E-08  0.93827000000E+00  0.93827000000E+00 0. -1.
     999902    2    1    2    0    0 -0.52721740786E-02 -0.24958424553E-02  0.22302724322E-01  0.10208770921E+01  0.10206167746E+01 0.  0.
     999903    2    3    3    0    0  0.96296787830E-01 -0.40490452981E-01 -0.73676649141E-01  0.12904084899E+00  0.17627930954E-01 0.  0.
         14    1    1    2    0    0  0.52721740786E-02  0.24958424553E-02 -0.22302724322E-01  0.23052907870E-01  0.00000000000E+00 0.  1.
     999901    1    3    3    0    0 -0.10156896191E+00  0.37994610525E-01  0.95979373464E-01  0.89183624314E+00  0.88000000000E+00 0. -1.
        -11    1    4    4    0    0  0.14275683029E-01 -0.90672811802E-02 -0.53064936885E-02  0.17732194174E-01  0.51100000000E-03 0.  1.
         11    1    4    4    0    0  0.82021104801E-01 -0.31423171800E-01 -0.68370155453E-01  0.11130865481E+00  0.51100000000E-03 0. -1.
</event>
<event>
 8    1  0.1148488E+005  0.1043930E+01  0.7957747E-01            NaN
         13   -1    0    0    0    0  0.00000000000E+00  0.00000000000E+00  0.74505805969E-08  0.10566000000E+00  0.10566000000E+00 0.  1.
     999900   -1    0    0    0    0 -0.00000000000E+00 -0.00000000000E+00 -0.74505805969E-08  0.93827000000E+00  0.93827000000E+00 0. -1.
     999902    2    1    2    0    0  0.11381599658E-01 -0.18161576685E-01  0.94082133606E-02  0.10205227755E+01  0.10202543003E+01 0.  0.
     999903    2    3    3    0    0 -0.57244359465E-01 -0.10406467753E+00 -0.52906128104E-01  0.13149412462E+00  0.19628362598E-01 0.  0.
         14    1    1    2    0    0 -0.11381599658E-01  0.18161576685E-01 -0.94082133606E-02  0.23407224464E-01  0.00000000000E+00 0.  1.
     999901    1    3    3    0    0  0.68625959123E-01  0.85903100844E-01  0.62314341465E-01  0.88902865092E+00  0.88000000000E+00 0.  1.
        -11    1    4    4    0    0 -0.31719616718E-01 -0.54581992038E-01 -0.17507875669E-01  0.65514233347E-01  0.51100000000E-03 0.  1.
         11    1    4    4    0    0 -0.25524742746E-01 -0.49482685492E-01 -0.35398252435E-01  0.65979891271E-01  0.51100000000E-03 0. -1.
</event>
<event>
 8    1  0.1148488E+005  0.1043930E+01  0.7957747E-01            NaN
         13   -1    0    0    0    0  0.00000000000E+00  0.00000000000E+00  0.74505805969E-08  0.10566000000E+00  0.10566000000E+00 0.  1.
     999900   -1    0    0    0    0 -0.00000000000E+00 -0.00000000000E+00 -0.74505805969E-08  0.93827000000E+00  0.93827000000E+00 0.  1.
     999902    2    1    2    0    0  0.97011344702E-02  0.96434981369E-02  0.21360523069E-01  0.10185650436E+01  0.10182491675E+01 0.  0.
     999903    2    3    3    0    0  0.87553752253E-01  0.94047641550E-01  0.16770326095E-01  0.13109326411E+00  0.19838892174E-01 0.  0.
         14    1    1    2    0    0 -0.97011344702E-02 -0.96434981369E-02 -0.21360523069E-01  0.25364956379E-01  0.00000000000E+00 0. -1.
     999901    1    3    3    0    0 -0.77852617783E-01 -0.84404143413E-01  0.45901969741E-02  0.88747177951E+00  0.88000000000E+00 0. -1.
        -11    1    4    4    0    0  0.34689935268E-01  0.39041471980E-01 -0.28877927276E-02  0.52308972568E-01  0.51100000000E-03 0. -1.
         11    1    4    4    0    0  0.52863816985E-01  0.55006169570E-01  0.19658118823E-01  0.78784291541E-01  0.51100000000E-03 0.  1.
</event>
<event>
 8    1  0.1148488E+005  0.1043930E+01  0.7957747E-01            NaN
         13   -1    0    0    0    0  0.00000000000E+00  0.00000000000E+00  0.74505805969E-08  0.10566000000E+00  0.10566000000E+00 0.  1.
     999900   -1    0    0    0    0 -0.00000000000E+00 -0.00000000000E+00 -0.74505805969E-08  0.93827000000E+00  0.93827000000E+00 0.  1.
     999902    2    1    2    0    0 -0.30748170107E-03 -0.89172594475E-02  0.21811866649E-01  0.10203637193E+01  0.10200915400E+01 0.  0.
     999903    2    3    3    0    0 -0.10572496213E+00  0.58250231264E-01  0.47244708067E-01  0.13116680833E+00  0.20045251478E-01 0.  0.
         14    1    1    2    0    0  0.30748170107E-03  0.89172594475E-02 -0.21811866649E-01  0.23566280737E-01  0.00000000000E+00 0. -1.
     999901    1    3    3    0    0  0.10541748043E+00 -0.67167490712E-01 -0.25432841418E-01  0.88919691093E+00  0.88000000000E+00 0.  1.
        -11    1    4    4    0    0 -0.37111003176E-01  0.30932130779E-01  0.22313855169E-01  0.53218347633E-01  0.51100000000E-03 0. -1.
         11    1    4    4    0    0 -0.68613958957E-01  0.27318100485E-01  0.24930852898E-01  0.77948460698E-01  0.51100000000E-03 0.  1.
</event>
<event>
 8    1  0.1148488E+005  0.1043930E+01  0.7957747E-01            NaN
         13   -1    0    0    0    0  0.00000000000E+00  0.00000000000E+00  0.74505805969E-08  0.10566000000E+00  0.10566000000E+00 0.  1.
     999900   -1    0    0    0    0 -0.00000000000E+00 -0.00000000000E+00 -0.74505805969E-08  0.93827000000E+00  0.93827000000E+00 0. -1.
     999902    2    1    2    0    0  0.21452646820E-01  0.20002130651E-02  0.17721377990E-01  0.10160326140E+01  0.10156495501E+01 0.  0.
     999903    2    3    3    0    0 -0.26784441034E-01 -0.10235176607E-01  0.12339328234E+00  0.12831471242E+00  0.20410736806E-01 0.  0.
         14    1    1    2    0    0 -0.21452646820E-01 -0.20002130651E-02 -0.17721377990E-01  0.27897386003E-01  0.00000000000E+00 0. -1.
     999901    1    3    3    0    0  0.48237087854E-01  0.12235389672E-01 -0.10567190435E+00  0.88771790157E+00  0.88000000000E+00 0. -1.
        -11    1    4    4    0    0 -0.12847839671E-02  0.30961552598E-02  0.39046534127E-01  0.39193491750E-01  0.51100000000E-03 0. -1.
         11    1    4    4    0    0 -0.25499657067E-01 -0.13331331867E-01  0.84346748210E-01  0.89121220675E-01  0.51100000000E-03 0.  1.
</event>
<event>
 8    1  0.1148488E+005  0.1043930E+01  0.7957747E-01            NaN
         13   -1    0    0    0    0  0.00000000000E+00  0.00000000000E+00  0.74505805969E-08  0.10566000000E+00  0.10566000000E+00 0.  1.
     999900   -1    0    0    0    0 -0.00000000000E+00 -0.00000000000E+00 -0.74505805969E-08  0.93827000000E+00  0.93827000000E+00 0.  1.
     999902    2    1    2    0    0  0.76487035905E-02 -0.18520050171E-01  0.13130378314E-01  0.10199737532E+01  0.10196923828E+01 0.  0.
     999903    2    3    3    0    0 -0.57376215775E-01  0.82430512448E-01  0.78975710832E-01  0.12938133014E+00  0.20384949584E-01 0.  0.
         14    1    1    2    0    0 -0.76487035905E-02  0.18520050171E-01 -0.13130378314E-01  0.23956246776E-01  0.00000000000E+00 0. -1.
     999901    1    3    3    0    0  0.65024919365E-01 -0.10095056262E+00 -0.65845332519E-01  0.89059242308E+00  0.88000000000E+00 0. -1.
        -11    1    4    4    0    0 -0.29901436429E-01  0.41723854636E-01  0.27508814064E-01  0.58240638033E-01  0.51100000000E-03 0.  1.
         11    1    4    4    0    0 -0.27474779346E-01  0.40706657811E-01  0.51466896768E-01  0.71140692112E-01  0.51100000000E-03 0. -1.
</event>
<event>
 8    1  0.1148488E+005  0.1043930E+01  0.7957747E-01            NaN
         13   -1    0    0    0    0  0.00000000000E+00  0.00000000000E+00  0.74505805969E-08  0.10566000000E+00  0.10566000000E+00 0.  1.
     999900   -1    0    0    0    0 -0.00000000000E+00 -0.00000000000E+00 -0.74505805969E-08  0.93827000000E+00  0.93827000000E+00 0.  1.
     999902    2    1    2    0    0 -0.19323824092E-01  0.28138820372E-02 -0.11556081347E-01  0.10212392282E+01  0.10209871155E+01 0.  0.
     999903    2    3    3    0    0  0.63795622003E-01  0.45628802140E-01  0.10081599032E+00  0.12918012577E+00  0.19281390446E-01 0.  0.
         14    1    1    2    0    0  0.19323824092E-01 -0.28138820372E-02  0.11556081347E-01  0.22690771820E-01  0.00000000000E+00 0.  1.
     999901    1    3    3    0    0 -0.83119446095E-01 -0.42814920103E-01 -0.11237207167E+00  0.89205910241E+00  0.88000000000E+00 0. -1.
        -11    1    4    4    0    0  0.24444190971E-01  0.25614726385E-01  0.33974259921E-01  0.49072845222E-01  0.51100000000E-03 0. -1.
         11    1    4    4    0    0  0.39351431032E-01  0.20014075756E-01  0.66841730402E-01  0.80107280548E-01  0.51100000000E-03 0.  1.
</event>
<event>
 8    1  0.1148488E+005  0.1043930E+01  0.7957747E-01            NaN
         13   -1    0    0    0    0  0.00000000000E+00  0.00000000000E+00  0.74505805969E-08  0.10566000000E+00  0.10566000000E+00 0. -1.
     999900   -1    0    0    0    0 -0.00000000000E+00 -0.00000000000E+00 -0.74505805969E-08  0.93827000000E+00  0.93827000000E+00 0. -1.
     999902    2    1    2    0    0 -0.53606830213E-03 -0.16076553852E-01  0.17673301079E-01  0.10200325415E+01  0.10197525666E+01 0.  0.
     999903    2    3    3    0    0  0.77664381023E-01  0.21041452722E-01 -0.97969372868E-01  0.12825550391E+00  0.19415907166E-01 0.  0.
         14    1    1    2    0    0  0.53606830213E-03  0.16076553852E-01 -0.17673301079E-01  0.23897458526E-01  0.00000000000E+00 0.  1.
     999901    1    3    3    0    0 -0.78200449325E-01 -0.37118006573E-01  0.11564267395E+00  0.89177703756E+00  0.88000000000E+00 0. -1.
        -11    1    4    4    0    0  0.52278271164E-01  0.14896104647E-01 -0.51158684606E-01  0.74648400526E-01  0.51100000000E-03 0. -1.
         11    1    4    4    0    0  0.25386109859E-01  0.61453480747E-02 -0.46810688263E-01  0.53607103385E-01  0.51100000000E-03 0.  1.
</event>
<event>
 8    1  0.1148488E+005  0.1043930E+01  0.7957747E-01            NaN
         13   -1    0    0    0    0  0.00000000000E+00  0.00000000000E+00  0.74505805969E-08  0.10566000000E+00  0.10566000000E+00 0. -1.
     999900   -1    0    0    0    0 -0.00000000000E+00 -0.00000000000E+00 -0.74505805969E-08  0.93827000000E+00  0.93827000000E+00 0.  1.
     999902    2    1    2    0    0  0.21637508809E-02  0.22905275202E-01  0.28491084873E-02  0.10207470134E+01  0.10204837159E+01 0.  0.
     999903    2    3    3    0    0 -0.50279356809E-01  0.58261485454E-01 -0.10544530482E+00  0.13185555706E+00  0.18567746532E-01 0.  0.
         14    1    1    2    0    0 -0.21637508809E-02 -0.22905275202E-01 -0.28491084873E-02  0.23182986631E-01  0.00000000000E+00 0.  1.
     999901    1    3    3    0    0  0.52443107689E-01 -0.35356210252E-01  0.10829441330E+00  0.88889145631E+00  0.88000000000E+00 0. -1.
        -11    1    4    4    0    0 -0.21458562100E-01  0.38586172218E-01 -0.62340981666E-01  0.76393858980E-01  0.51100000000E-03 0.  1.
         11    1    4    4    0    0 -0.28820794709E-01  0.19675313236E-01 -0.43104323150E-01  0.55461698079E-01  0.51100000000E-03 0. -1.
</event>
<event>
 8    1  0.1148488E+005  0.1043930E+01  0.7957747E-01            NaN
         13   -1    0    0    0    0  0.00000000000E+00  0.00000000000E+00  0.74505805969E-08  0.10566000000E+00  0.10566000000E+00 0.  1.
     999900   -1    0    0    0    0 -0.00000000000E+00 -0.00000000000E+00 -0.74505805969E-08  0.93827000000E+00  0.93827000000E+00 0.  1.
     999902    2    1    2    0    0 -0.55141060065E-02 -0.14900800163E-01  0.17863231688E-01  0.10200232173E+01  0.10197430214E+01 0.  0.
     999903    2    3    3    0    0  0.10875837872E+00 -0.52557258128E-01  0.47196375987E-01  0.13135193788E+00  0.20861048764E-01 0.  0.
         14    1    1    2    0    0  0.55141060065E-02  0.14900800163E-01 -0.17863231688E-01  0.23906782655E-01  0.00000000000E+00 0. -1.
     999901    1    3    3    0    0 -0.11427248472E+00  0.37656457965E-01 -0.29333144299E-01  0.88867127946E+00  0.88000000000E+00 0. -1.
        -11    1    4    4    0    0  0.63364057845E-01 -0.26184910347E-01  0.36857702261E-01  0.77842178114E-01  0.51100000000E-03 0. -1.
         11    1    4    4    0    0  0.45394320871E-01 -0.26372347781E-01  0.10338673726E-01  0.53509759766E-01  0.51100000000E-03 0.  1.
</event>
<event>
 8    1  0.1148488E+005  0.1043930E+01  0.7957747E-01            NaN
         13   -1    0    0    0    0  0.00000000000E+00  0.00000000000E+00  0.74505805969E-08  0.10566000000E+00  0.10566000000E+00 0.  1.
     999900   -1    0    0    0    0 -0.00000000000E+00 -0.00000000000E+00 -0.74505805969E-08  0.93827000000E+00  0.93827000000E+00 0.  1.
     999902    2    1    2    0    0 -0.35398125693E-04  0.27292562224E-03  0.23911104135E-01  0.10200173121E+01  0.10197369761E+01 0.  0.
     999903    2    3    3    0    0  0.11420149931E+00 -0.50294838370E-01 -0.28845553308E-01  0.12962951322E+00  0.20004787944E-01 0.  0.
         14    1    1    2    0    0  0.35398125693E-04 -0.27292562224E-03 -0.23911104135E-01  0.23912687895E-01  0.00000000000E+00 0. -1.
     999901    1    3    3    0    0 -0.11423689744E+00  0.50567763992E-01  0.52756657443E-01  0.89038779888E+00  0.88000000000E+00 0. -1.
        -11    1    4    4    0    0  0.63764485043E-01 -0.38807386388E-01 -0.16769018636E-01  0.76507410740E-01  0.51100000000E-03 0.  1.
         11    1    4    4    0    0  0.50437014271E-01 -0.11487451982E-01 -0.12076534672E-01  0.53122102484E-01  0.51100000000E-03 0. -1.
</event>
<event>
 8    1  0.1148488E+005  0.1043930E+01  0.7957747E-01            NaN
         13   -1    0    0    0    0  0.00000000000E+00  0.00000000000E+00  0.74505805969E-08  0.10566000000E+00  0.10566000000E+00 0.  1.
     999900   -1    0    0    0    0 -0.00000000000E+00 -0.00000000000E+00 -0.74505805969E-08  0.93827000000E+00  0.93827000000E+00 0. -1.
     999902    2    1    2    0    0 -0.20227579563E-01 -0.86127905946E-02  0.90061136474E-02  0.10201719441E+01  0.10198952644E+01 0.  0.
     999903    2    3    3    0    0 -0.70683466250E-01 -0.33061623668E-01  0.10593195784E+00  0.13307659342E+00  0.19964384857E-01 0.  0.
         14    1    1    2    0    0  0.20227579563E-01  0.86127905946E-02 -0.90061136474E-02  0.23758055893E-01  0.00000000000E+00 0. -1.
     999901    1    3    3    0    0  0.50455886687E-01  0.24448833073E-01 -0.96925844195E-01  0.88709535069E+00  0.88000000000E+00 0. -1.
        -11    1    4    4    0    0 -0.59274322005E-01 -0.33523504686E-01  0.82267730622E-01  0.10679658814E+00  0.51100000000E-03 0. -1.
         11    1    4    4    0    0 -0.11409144245E-01  0.46188101841E-03  0.23664227221E-01  0.26280005279E-01  0.51100000000E-03 0.  1.
</event>
<event>
 8    1  0.1148488E+005  0.1043930E+01  0.7957747E-01            NaN
         13   -1    0    0    0    0  0.00000000000E+00  0.00000000000E+00  0.74505805969E-08  0.10566000000E+00  0.10566000000E+00 0.  1.
     999900   -1    0    0    0    0 -0.00000000000E+00 -0.00000000000E+00 -0.74505805969E-08  0.93827000000E+00  0.93827000000E+00 0.  1.
     999902    2    1    2    0    0  0.59344236733E-02 -0.19369664698E-01  0.77657012577E-02  0.10222342075E+01  0.10220039470E+01 0.  0.
     999903    2    3    3    0    0  0.39491962911E-01  0.79340586907E-01 -0.93633838994E-01  0.13029716436E+00  0.18855009175E-01 0.  0.
         14    1    1    2    0    0 -0.59344236733E-02  0.19369664698E-01 -0.77657012577E-02  0.21695792469E-01  0.00000000000E+00 0. -1.
     999901    1    3    3    0    0 -0.33557539238E-01 -0.98710251604E-01  0.10139954025E+00  0.89193704317E+00  0.88000000000E+00 0. -1.
        -11    1    4    4    0    0  0.12131161098E-01  0.44479811528E-01 -0.51881110039E-01  0.69408424582E-01  0.51100000000E-03 0. -1.
         11    1    4    4    0    0  0.27360801813E-01  0.34860775379E-01 -0.41752728956E-01  0.60888739781E-01  0.51100000000E-03 0.  1.
</event>
<event>
 8    1  0.1148488E+005  0.1043930E+01  0.7957747E-01            NaN
         13   -1    0    0    0    0  0.00000000000E+00  0.00000000000E+00  0.74505805969E-08  0.10566000000E+00  0.10566000000E+00 0.  1.
     999900   -1    0    0    0    0 -0.00000000000E+00 -0.00000000000E+00 -0.74505805969E-08  0.93827000000E+00  0.93827000000E+00 0.  1.
     999902    2    1    2    0    0 -0.14069395850E-01 -0.19452686408E-01 -0.38737584091E-02  0.10196120866E+01  0.10193220523E+01 0.  0.
     999903    2    3    3    0    0 -0.17064562994E-01  0.10327938661E-01  0.12623456389E+00  0.12954240832E+00  0.21170847992E-01 0.  0.
         14    1    1    2    0    0  0.14069395850E-01  0.19452686408E-01  0.38737584091E-02  0.24317913403E-01  0.00000000000E+00 0.  1.
     999901    1    3    3    0    0  0.29951671442E-02 -0.29780625069E-01 -0.13010832230E+00  0.89006967828E+00  0.88000000000E+00 0.  1.
        -11    1    4    4    0    0  0.43622513251E-02  0.87470691282E-03  0.37556122907E-01  0.37822187107E-01  0.51100000000E-03 0.  1.
         11    1    4    4    0    0 -0.21426814319E-01  0.94532317485E-02  0.88678440987E-01  0.91720221213E-01  0.51100000000E-03 0. -1.
</event>
<event>
 8    1  0.1148488E+005  0.1043930E+01  0.7957747E-01            NaN
         13   -1    0    0    0    0  0.00000000000E+00  0.00000000000E+00  0.74505805969E-08  0.10566000000E+00  0.10566000000E+00 0. -1.
     999900   -1    0    0    0    0 -0.00000000000E+00 -0.00000000000E+00 -0.74505805969E-08  0.93827000000E+00  0.93827000000E+00 0.  1.
     999902    2    1    2    0    0 -0.16699894965E-01  0.40409197905E-02 -0.13665312179E-01  0.10219764973E+01  0.10217406739E+01 0.  0.
     999903    2    3    3    0    0 -0.61048273116E-02 -0.43740604451E-01 -0.12441387259E+00  0.13368568164E+00  0.21036643951E-01 0.  0.
         14    1    1    2    0    0  0.16699894965E-01 -0.40409197905E-02  0.13665312179E-01  0.21953502717E-01  0.00000000000E+00 0. -1.
     999901    1    3    3    0    0 -0.10595067654E-01  0.47781524241E-01  0.11074856041E+00  0.88829081564E+00  0.88000000000E+00 0. -1.
        -11    1    4    4    0    0 -0.11209186831E-01 -0.12338007234E-01 -0.51455698858E-01  0.54090871299E-01  0.51100000000E-03 0.  1.
         11    1    4    4    0    0  0.51043595195E-02 -0.31402597216E-01 -0.72958173734E-01  0.79594810344E-01  0.51100000000E-03 0. -1.
</event>
<event>
 8    1  0.1148488E+005  0.1043930E+01  0.7957747E-01            NaN
         13   -1    0    0    0    0  0.00000000000E+00  0.00000000000E+00  0.74505805969E-08  0.10566000000E+00  0.10566000000E+00 0.  1.
     999900   -1    0    0    0    0 -0.00000000000E+00 -0.00000000000E+00 -0.74505805969E-08  0.93827000000E+00  0.93827000000E+00 0.  1.
     999902    2    1    2    0    0  0.22195088469E-01 -0.52035367115E-02  0.91719665381E-02  0.10193571752E+01  0.10190609535E+01 0.  0.
     999903    2    3    3    0    0  0.43947994310E-01 -0.11781603249E-01 -0.11962461932E+00  0.12969149624E+00  0.20966694269E-01 0.  0.
         14    1    1    2    0    0 -0.22195088469E-01  0.52035367115E-02 -0.91719665381E-02  0.24572824759E-01  0.00000000000E+00 0.  1.
     999901    1    3    3    0    0 -0.21752905841E-01  0.65780665377E-02  0.12879658586E+00  0.88966567901E+00  0.88000000000E+00 0. -1.
        -11    1    4    4    0    0  0.38197295850E-01 -0.98069248102E-02 -0.75823151855E-01  0.85467073559E-01  0.51100000000E-03 0. -1.
         11    1    4    4    0    0  0.57506984602E-02 -0.19746784390E-02 -0.43801467468E-01  0.44224422676E-01  0.51100000000E-03 0.  1.
</event>
<event>
 8    1  0.1148488E+005  0.1043930E+01  0.7957747E-01            NaN
         13   -1    0    0    0    0  0.00000000000E+00  0.00000000000E+00  0.74505805969E-08  0.10566000000E+00  0.10566000000E+00 0.  1.
     999900   -1    0    0    0    0 -0.00000000000E+00 -0.00000000000E+00 -0.74505805969E-08  0.93827000000E+00  0.93827000000E+00 0.  1.
     999902    2    1    2    0    0 -0.15640558819E-01 -0.15957085097E-01 -0.51550773689E-02  0.10209990064E+01  0.10207414661E+01 0.  0.
     999903    2    3    3    0    0 -0.28962760988E-01 -0.95672364403E-01  0.85880687467E-01  0.13261872898E+00  0.14838866586E-01 0.  0.
         14    1    1    2    0    0  0.15640558819E-01  0.15957085097E-01  0.51550773689E-02  0.22930993604E-01  0.00000000000E+00 0. -1.
     999901    1    3    3    0    0  0.13322202168E-01  0.79715279306E-01 -0.91035764836E-01  0.88838027742E+00  0.88000000000E+00 0.  1.
        -11    1    4    4    0    0 -0.22473413929E-01 -0.48755276778E-01  0.45306646317E-01  0.70250157785E-01  0.51100000000E-03 0.  1.
         11    1    4    4    0    0 -0.64893470582E-02 -0.46917087626E-01  0.40574041150E-01  0.62368571194E-01  0.51100000000E-03 0. -1.
</event>
<event>
 8    1  0.1148488E+005  0.1043930E+01  0.7957747E-01            NaN
         13   -1    0    0    0    0  0.00000000000E+00  0.00000000000E+00  0.74505805969E-08  0.10566000000E+00  0.10566000000E+00 0.  1.
     999900   -1    0    0    0    0 -0.00000000000E+00 -0.00000000000E+00 -0.74505805969E-08  0.93827000000E+00  0.93827000000E+00 0. -1.
     999902    2    1    2    0    0  0.19559029090E-01 -0.96286077261E-02  0.94579997758E-02  0.10201661732E+01  0.10198893574E+01 0.  0.
     999903    2    3    3    0    0  0.55607204491E-01 -0.60244167985E-01 -0.10016256676E+00  0.13119031608E+00  0.21373775642E-01 0.  0.
         14    1    1    2    0    0 -0.19559029090E-01  0.96286077261E-02 -0.94579997758E-02  0.23763826827E-01  0.00000000000E+00 0. -1.
     999901    1    3    3    0    0 -0.36048175401E-01  0.50615560259E-01  0.10962056654E+00  0.88897585709E+00  0.88000000000E+00 0.  1.
        -11    1    4    4    0    0  0.13587422279E-01 -0.40050210438E-02 -0.12657966341E-01  0.19003775168E-01  0.51100000000E-03 0.  1.
         11    1    4    4    0    0  0.42019782211E-01 -0.56239146941E-01 -0.87504600419E-01  0.11218654091E+00  0.51100000000E-03 0. -1.
</event>
<event>
 8    1  0.1148488E+005  0.1043930E+01  0.7957747E-01            NaN
         13   -1    0    0    0    0  0.00000000000E+00  0.00000000000E+00  0.74505805969E-08  0.10566000000E+00  0.10566000000E+00 0.  1.
     999900   -1    0    0    0    0 -0.00000000000E+00 -0.00000000000E+00 -0.74505805969E-08  0.93827000000E+00  0.93827000000E+00 0. -1.
     999902    2    1    2    0    0 -0.11460698057E-01  0.13725999370E-01 -0.14852115328E-01  0.10206848717E+01  0.10204201445E+01 0.  0.
     999903    2    3    3    0    0 -0.10219982520E-01 -0.12553329082E+00 -0.19195893750E-01  0.12972271895E+00  0.24422250643E-01 0.  0.
         14    1    1    2    0    0  0.11460698057E-01 -0.13725999370E-01  0.14852115328E-01  0.23245128271E-01  0.00000000000E+00 0.  1.
     999901    1    3    3    0    0 -0.12407155375E-02  0.13925929019E+00  0.43437784227E-02  0.89096215278E+00  0.88000000000E+00 0. -1.
        -11    1    4    4    0    0 -0.22490376220E-02 -0.81706722591E-01 -0.23273537223E-01  0.84988030584E-01  0.51100000000E-03 0. -1.
         11    1    4    4    0    0 -0.79709448976E-02 -0.43826568232E-01  0.40776434724E-02  0.44734688362E-01  0.51100000000E-03 0.  1.
</event>
<event>
 8    1  0.1148488E+005  0.1043930E+01  0.7957747E-01            NaN
         13   -1    0    0    0    0  0.00000000000E+00  0.00000000000E+00  0.74505805969E-08  0.10566000000E+00  0.10566000000E+00 0. -1.
     999900   -1    0    0    0    0 -0.00000000000E+00 -0.00000000000E+00 -0.74505805969E-08  0.93827000000E+00  0.93827000000E+00 0.  1.
     999902    2    1    2    0    0 -0.12662417716E-01  0.51230908865E-02 -0.19406407600E-01  0.10201983431E+01  0.10199222852E+01 0.  0.
     999903    2    3    3    0    0  0.37915382955E-01  0.49435420310E-01  0.11033848021E+00  0.12814709325E+00  0.19122244849E-01 0.  0.
         14    1    1    2    0    0  0.12662417716E-01 -0.51230908865E-02  0.19406407600E-01  0.23731656887E-01  0.00000000000E+00 0.  1.
     999901    1    3    3    0    0 -0.50577800671E-01 -0.44312329423E-01 -0.12974488781E+00  0.89205124986E+00  0.88000000000E+00 0.  1.
        -11    1    4    4    0    0  0.39440283851E-01  0.42291960884E-01  0.98831422524E-01  0.11450789119E+00  0.51100000000E-03 0.  1.
         11    1    4    4    0    0 -0.15249008953E-02  0.71434594258E-02  0.11507057689E-01  0.13639202065E-01  0.51100000000E-03 0. -1.
</event>
<event>
 8    1  0.1148488E+005  0.1043930E+01  0.7957747E-01            NaN
         13   -1    0    0    0    0  0.00000000000E+00  0.00000000000E+00  0.74505805969E-08  0.10566000000E+00  0.10566000000E+00 0. -1.
     999900   -1    0    0    0    0 -0.00000000000E+00 -0.00000000000E+00 -0.74505805969E-08  0.93827000000E+00  0.93827000000E+00 0.  1.
     999902    2    1    2    0    0 -0.22741144207E-01 -0.61507624438E-02 -0.44605758710E-02  0.10199531725E+01  0.10196713127E+01 0.  0.
     999903    2    3    3    0    0  0.51848450155E-01 -0.89481387674E-01  0.75087400390E-01  0.12931549018E+00  0.19728096211E-01 0.  0.
         14    1    1    2    0    0  0.22741144207E-01  0.61507624438E-02  0.44605758710E-02  0.23976827472E-01  0.00000000000E+00 0. -1.
     999901    1    3    3    0    0 -0.74589594363E-01  0.83330625230E-01 -0.79547976261E-01  0.89063768235E+00  0.88000000000E+00 0.  1.
        -11    1    4    4    0    0  0.31750395381E-01 -0.35331189131E-01  0.32752198403E-01  0.57700503928E-01  0.51100000000E-03 0. -1.
         11    1    4    4    0    0  0.20098054775E-01 -0.54150198543E-01  0.42335201987E-01  0.71614986254E-01  0.51100000000E-03 0.  1.
</event>
<event>
 8    1  0.1148488E+005  0.1043930E+01  0.7957747E-01            NaN
         13   -1    0    0    0    0  0.00000000000E+00  0.00000000000E+00  0.74505805969E-08  0.10566000000E+00  0.10566000000E+00 0. -1.
     999900   -1    0    0    0    0 -0.00000000000E+00 -0.00000000000E+00 -0.74505805969E-08  0.93827000000E+00  0.93827000000E+00 0. -1.
     999902    2    1    2    0    0  0.67208841230E-03 -0.94903155965E-02  0.21825959435E-01  0.10201205418E+01  0.10198426494E+01 0.  0.
     999903    2    3    3    0    0  0.28623400217E-01  0.11569212007E+00 -0.42753757320E-01  0.12848022318E+00  0.21801795706E-01 0.  0.
         14    1    1    2    0    0 -0.67208841230E-03  0.94903155965E-02 -0.21825959435E-01  0.23809458168E-01  0.00000000000E+00 0.  1.
     999901    1    3    3    0    0 -0.27951311805E-01 -0.12518243567E+00  0.64579716756E-01  0.89164031865E+00  0.88000000000E+00 0.  1.
        -11    1    4    4    0    0  0.26225891596E-01  0.86321744284E-01 -0.23343660731E-01  0.93190281380E-01  0.51100000000E-03 0.  1.
         11    1    4    4    0    0  0.23975086204E-02  0.29370375789E-01 -0.19410096589E-01  0.35289941799E-01  0.51100000000E-03 0. -1.
</event>
<event>
 8    1  0.1148488E+005  0.1043930E+01  0.7957747E-01            NaN
         13   -1    0    0    0    0  0.00000000000E+00  0.00000000000E+00  0.74505805969E-08  0.10566000000E+00  0.10566000000E+00 0. -1.
     999900   -1    0    0    0    0 -0.00000000000E+00 -0.00000000000E+00 -0.74505805969E-08  0.93827000000E+00  0.93827000000E+00 0. -1.
     999902    2    1    2    0    0  0.12289441264E-02 -0.73353343781E-02  0.22229011683E-01  0.10204897271E+01  0.10202204843E+01 0.  0.
     999903    2    3    3    0    0 -0.11964736521E+00  0.34144199389E-01 -0.28790466762E-01  0.12979638981E+00  0.23170961917E-01 0.  0.
         14    1    1    2    0    0 -0.12289441264E-02  0.73353343781E-02 -0.22229011683E-01  0.23440272919E-01  0.00000000000E+00 0.  1.
     999901    1    3    3    0    0  0.12087630934E+00 -0.41479533767E-01  0.51019478445E-01  0.89069333727E+00  0.88000000000E+00 0.  1.
        -11    1    4    4    0    0 -0.66110090418E-01  0.28151800060E-01 -0.90699666492E-02  0.72426468350E-01  0.51100000000E-03 0. -1.
         11    1    4    4    0    0 -0.53537274797E-01  0.59923993285E-02 -0.19720500113E-01  0.57369921458E-01  0.51100000000E-03 0.  1.
</event>
<event>
 8    1  0.1148488E+005  0.1043930E+01  0.7957747E-01            NaN
         13   -1    0    0    0    0  0.00000000000E+00  0.00000000000E+00  0.74505805969E-08  0.10566000000E+00  0.10566000000E+00 0. -1.
     999900   -1    0    0    0    0 -0.00000000000E+00 -0.00000000000E+00 -0.74505805969E-08  0.93827000000E+00  0.93827000000E+00 0. -1.
     999902    2    1    2    0    0  0.14395770455E-03 -0.21361468169E-01 -0.99973408342E-02  0.10203444139E+01  0.10200717833E+01 0.  0.
     999903    2    3    3    0    0 -0.39412909659E-01 -0.11658206794E+00  0.39945098641E-01  0.13291782225E+00  0.30443070697E-01 0.  0.
         14    1    1    2    0    0 -0.14395770455E-03  0.21361468169E-01  0.99973408342E-02  0.23585586062E-01  0.00000000000E+00 0. -1.
     999901    1    3    3    0    0  0.39556867364E-01  0.95220599769E-01 -0.49942439475E-01  0.88742659169E+00  0.88000000000E+00 0. -1.
        -11    1    4    4    0    0 -0.11863315413E-01 -0.74537277726E-01  0.32185612473E-01  0.82053146159E-01  0.51100000000E-03 0. -1.
         11    1    4    4    0    0 -0.27549594246E-01 -0.42044790212E-01  0.77594861685E-02  0.50864676090E-01  0.51100000000E-03 0.  1.
</event>
<event>
 8    1  0.1148488E+005  0.1043930E+01  0.7957747E-01            NaN
         13   -1    0    0    0    0  0.00000000000E+00  0.00000000000E+00  0.74505805969E-08  0.10566000000E+00  0.10566000000E+00 0.  1.
     999900   -1    0    0    0    0 -0.00000000000E+00 -0.00000000000E+00 -0.74505805969E-08  0.93827000000E+00  0.93827000000E+00 0.  1.
     999902    2    1    2    0    0  0.15297572137E-01 -0.66239437141E-02  0.16311728188E-01  0.10206069466E+01  0.10203404209E+01 0.  0.
     999903    2    3    3    0    0 -0.50432638141E-02  0.59818765679E-01 -0.11191509707E+00  0.12860330201E+00  0.20250953000E-01 0.  0.
         14    1    1    2    0    0 -0.15297572137E-01  0.66239437141E-02 -0.16311728188E-01  0.23323053404E-01  0.00000000000E+00 0. -1.
     999901    1    3    3    0    0  0.20340835951E-01 -0.66442709393E-01  0.12822682526E+00  0.89200364459E+00  0.88000000000E+00 0.  1.
        -11    1    4    4    0    0  0.42495951893E-02  0.51218407514E-02 -0.21593332497E-01  0.22601447770E-01  0.51100000000E-03 0.  1.
         11    1    4    4    0    0 -0.92928590034E-02  0.54696924928E-01 -0.90321764577E-01  0.10600185424E+00  0.51100000000E-03 0. -1.
</event>
<event>
 8    1  0.1148488E+005  0.1043930E+01  0.7957747E-01            NaN
         13   -1    0    0    0    0  0.00000000000E+00  0.00000000000E+00  0.74505805969E-08  0.10566000000E+00  0.10566000000E+00 0.  1.
     999900   -1    0    0    0    0 -0.00000000000E+00 -0.00000000000E+00 -0.74505805969E-08  0.93827000000E+00  0.93827000000E+00 0. -1.
     999902    2    1    2    0    0  0.10124736440E-01  0.20758628929E-01  0.42417705521E-02  0.10204475900E+01  0.10201773671E+01 0.  0.
     999903    2    3    3    0    0  0.21649302941E-01  0.11965051200E+00  0.51290143750E-01  0.13358459628E+00  0.20717822717E-01 0.  0.
         14    1    1    2    0    0 -0.10124736440E-01 -0.20758628929E-01 -0.42417705521E-02  0.23482410021E-01  0.00000000000E+00 0. -1.
     999901    1    3    3    0    0 -0.11524566501E-01 -0.98891883070E-01 -0.47048373198E-01  0.88686299370E+00  0.88000000000E+00 0.  1.
        -11    1    4    4    0    0  0.70984809606E-02  0.31925890172E-01  0.42497690659E-02  0.32984428953E-01  0.51100000000E-03 0. -1.
         11    1    4    4    0    0  0.14550821980E-01  0.87724621827E-01  0.47040374684E-01  0.10060016733E+00  0.51100000000E-03 0.  1.
</event>
<event>
 8    1  0.1148488E+005  0.1043930E+01  0.7957747E-01            NaN
         13   -1    0    0    0    0  0.00000000000E+00  0.00000000000E+00  0.74505805969E-08  0.10566000000E+00  0.10566000000E+00 0.  1.
     999900   -1    0    0    0    0 -0.00000000000E+00 -0.00000000000E+00 -0.74505805969E-08  0.93827000000E+00  0.93827000000E+00 0. -1.
     999902    2    1    2    0    0  0.18971495839E-02  0.59028903684E-02 -0.23148123461E-01  0.10199658828E+01  0.10196843253E+01 0.  0.
     999903    2    3    3    0    0 -0.37501117472E-01  0.78424237014E-02  0.11986085127E+00  0.12754919088E+00  0.20840705527E-01 0.  0.
         14    1    1    2    0    0 -0.18971495839E-02 -0.59028903684E-02  0.23148123461E-01  0.23964117155E-01  0.00000000000E+00 0.  1.
     999901    1    3    3    0    0  0.39398267056E-01 -0.19395333330E-02 -0.14300897473E+00  0.89241669196E+00  0.88000000000E+00 0. -1.
        -11    1    4    4    0    0 -0.27876922896E-01 -0.41491399827E-02  0.80142432460E-01  0.84955334114E-01  0.51100000000E-03 0. -1.
         11    1    4    4    0    0 -0.96241945764E-02  0.11991563684E-01  0.39718418810E-01  0.42593856770E-01  0.51100000000E-03 0.  1.
</event>
<event>
 8    1  0.1148488E+005  0.1043930E+01  0.7957747E-01            NaN
         13   -1    0    0    0    0  0.00000000000E+00  0.00000000000E+00  0.74505805969E-08  0.10566000000E+00  0.10566000000E+00 0.  1.
     999900   -1    0    0    0    0 -0.00000000000E+00 -0.00000000000E+00 -0.74505805969E-08  0.93827000000E+00  0.93827000000E+00 0. -1.
     999902    2    1    2    0    0 -0.24017729537E-02  0.78231079536E-02  0.22476092067E-01  0.10200104631E+01  0.10197299645E+01 0.  0.
     999903    2    3    3    0    0  0.86618853901E-02 -0.10539355060E+00 -0.69016098788E-01  0.12798398518E+00  0.20829061540E-01 0.  0.
         14    1    1    2    0    0  0.24017729537E-02 -0.78231079536E-02 -0.22476092067E-01  0.23919536909E-01  0.00000000000E+00 0. -1.
     999901    1    3    3    0    0 -0.11063658344E-01  0.11321665855E+00  0.91492190855E-01  0.89202647791E+00  0.88000000000E+00 0.  1.
        -11    1    4    4    0    0  0.13333452426E-01 -0.41202297684E-01 -0.24957004767E-01  0.49985232779E-01  0.51100000000E-03 0.  1.
         11    1    4    4    0    0 -0.46715670361E-02 -0.64191252911E-01 -0.44059094021E-01  0.77998752399E-01  0.51100000000E-03 0. -1.
</event>
<event>
 8    1  0.1148488E+005  0.1043930E+01  0.7957747E-01            NaN
         13   -1    0    0    0    0  0.00000000000E+00  0.00000000000E+00  0.74505805969E-08  0.10566000000E+00  0.10566000000E+00 0.  1.
     999900   -1    0    0    0    0 -0.00000000000E+00 -0.00000000000E+00 -0.74505805969E-08  0.93827000000E+00  0.93827000000E+00 0.  1.
     999902    2    1    2    0    0  0.10886601445E-01 -0.19485266556E-01  0.83004362870E-02  0.10201163286E+01  0.10198383366E+01 0.  0.
     999903    2    3    3    0    0  0.85883310977E-01 -0.83187802286E-01  0.55460830527E-01  0.13337700822E+00  0.20429611954E-01 0.  0.
         14    1    1    2    0    0 -0.10886601445E-01  0.19485266556E-01 -0.83004362870E-02  0.23813671417E-01  0.00000000000E+00 0. -1.
     999901    1    3    3    0    0 -0.74996709533E-01  0.63702535730E-01 -0.47160394240E-01  0.88673932037E+00  0.88000000000E+00 0.  1.
        -11    1    4    4    0    0  0.27569074800E-01 -0.16383834842E-01  0.92464778781E-02  0.33380269675E-01  0.51100000000E-03 0.  1.
         11    1    4    4    0    0  0.58314236177E-01 -0.66803967444E-01  0.46214352649E-01  0.99996738541E-01  0.51100000000E-03 0. -1.
</event>
<event>
 8    1  0.1148488E+005  0.1043930E+01  0.7957747E-01            NaN
         13   -1    0    0    0    0  0.00000000000E+00  0.00000000000E+00  0.74505805969E-08  0.10566000000E+00  0.10566000000E+00 0. -1.
     999900   -1    0    0    0    0 -0.00000000000E+00 -0.00000000000E+00 -0.74505805969E-08  0.93827000000E+00  0.93827000000E+00 0.  1.
     999902    2    1    2    0    0 -0.20811309220E-01  0.32204872030E-02 -0.46790941474E-02  0.10223574236E+01  0.10221297988E+01 0.  0.
     999903    2    3    3    0    0 -0.29040809739E-01  0.27635640803E-02  0.12760099950E+00  0.13243273208E+00  0.20134734559E-01 0.  0.
         14    1    1    2    0    0  0.20811309220E-01 -0.32204872030E-02  0.46790941474E-02  0.21572576372E-01  0.00000000000E+00 0. -1.
     999901    1    3    3    0    0  0.82295005192E-02  0.45692312267E-03 -0.13228009365E+00  0.88992469155E+00  0.88000000000E+00 0.  1.
        -11    1    4    4    0    0 -0.28830253133E-02 -0.20362001731E-02  0.54947263556E-01  0.55062880776E-01  0.51100000000E-03 0.  1.
         11    1    4    4    0    0 -0.26157784426E-01  0.47997642534E-02  0.72653735942E-01  0.77369851301E-01  0.51100000000E-03 0. -1.
</event>
<event>
 8    1  0.1148488E+005  0.1043930E+01  0.7957747E-01            NaN
         13   -1    0    0    0    0  0.00000000000E+00  0.00000000000E+00  0.74505805969E-08  0.10566000000E+00  0.10566000000E+00 0. -1.
     999900   -1    0    0    0    0 -0.00000000000E+00 -0.00000000000E+00 -0.74505805969E-08  0.93827000000E+00  0.93827000000E+00 0.  1.
     999902    2    1    2    0    0  0.17132003436E-01  0.14537020571E-01  0.46490596405E-02  0.10209856267E+01  0.10207277824E+01 0.  0.
     999903    2    3    3    0    0 -0.26980710474E-01  0.11004534352E+00 -0.64864346102E-01  0.13199750260E+00  0.19442760349E-01 0.  0.
         14    1    1    2    0    0 -0.17132003436E-01 -0.14537020571E-01 -0.46490596405E-02  0.22944373261E-01  0.00000000000E+00 0.  1.
     999901    1    3    3    0    0  0.44112713909E-01 -0.95508322947E-01  0.69513405743E-01  0.88898812414E+00  0.88000000000E+00 0. -1.
        -11    1    4    4    0    0 -0.79315247276E-02  0.12787982483E-01 -0.35906698510E-02  0.15478876299E-01  0.51100000000E-03 0.  1.
         11    1    4    4    0    0 -0.19049185746E-01  0.97257361035E-01 -0.61273676251E-01  0.11651862630E+00  0.51100000000E-03 0. -1.
</event>
<event>
 8    1  0.1148488E+005  0.1043930E+01  0.7957747E-01            NaN
         13   -1    0    0    0    0  0.00000000000E+00  0.00000000000E+00  0.74505805969E-08  0.10566000000E+00  0.10566000000E+00 0.  1.
     999900   -1    0    0    0    0 -0.00000000000E+00 -0.00000000000E+00 -0.74505805969E-08  0.93827000000E+00  0.93827000000E+00 0. -1.
     999902    2    1    2    0    0 -0.12421921399E-01 -0.19413310181E-01  0.10325540073E-01  0.10186753465E+01  0.10183622460E+01 0.  0.
     999903    2    3    3    0    0 -0.39541538677E-02  0.24681897658E-01  0.12604384368E+00  0.12996458582E+00  0.19465652647E-01 0.  0.
         14    1    1    2    0    0  0.12421921399E-01  0.19413310181E-01 -0.10325540073E-01  0.25254653457E-01  0.00000000000E+00 0.  1.
     999901    1    3    3    0    0 -0.84677675316E-02 -0.44095207838E-01 -0.11571830360E+00  0.88871076073E+00  0.88000000000E+00 0. -1.
        -11    1    4    4    0    0 -0.28369888605E-02  0.21077064985E-01  0.57401941969E-01  0.61217115555E-01  0.51100000000E-03 0. -1.
         11    1    4    4    0    0 -0.11171650072E-02  0.36048326730E-02  0.68641901708E-01  0.68747470262E-01  0.51100000000E-03 0.  1.
</event>
<event>
 8    1  0.1148488E+005  0.1043930E+01  0.7957747E-01            NaN
         13   -1    0    0    0    0  0.00000000000E+00  0.00000000000E+00  0.74505805969E-08  0.10566000000E+00  0.10566000000E+00 0. -1.
     999900   -1    0    0    0    0 -0.00000000000E+00 -0.00000000000E+00 -0.74505805969E-08  0.93827000000E+00  0.93827000000E+00 0.  1.
     999902    2    1    2    0    0  0.81602568792E-02 -0.48064021393E-02  0.21834381064E-01  0.10201301788E+01  0.10198525139E+01 0.  0.
     999903    2    3    3    0    0 -0.12509175970E+00  0.16933392468E-01  0.22569646238E-01  0.12983289179E+00  0.20310163314E-01 0.  0.
         14    1    1    2    0    0 -0.81602568792E-02  0.48064021393E-02 -0.21834381064E-01  0.23799821224E-01  0.00000000000E+00 0.  1.
     999901    1    3    3    0    0  0.13325201658E+00 -0.21739794607E-01 -0.73526517413E-03  0.89029728698E+00  0.88000000000E+00 0.  1.
        -11    1    4    4    0    0 -0.68808838887E-01  0.64795041132E-02  0.24704862034E-02  0.69159270569E-01  0.51100000000E-03 0.  1.
         11    1    4    4    0    0 -0.56282920817E-01  0.10453888354E-01  0.20099160034E-01  0.60673621225E-01  0.51100000000E-03 0. -1.
</event>
<event>
 8    1  0.1148488E+005  0.1043930E+01  0.7957747E-01            NaN
         13   -1    0    0    0    0  0.00000000000E+00  0.00000000000E+00  0.74505805969E-08  0.10566000000E+00  0.10566000000E+00 0.  1.
     999900   -1    0    0    0    0 -0.00000000000E+00 -0.00000000000E+00 -0.74505805969E-08  0.93827000000E+00  0.93827000000E+00 0.  1.
     999902    2    1    2    0    0 -0.11583776851E-01  0.11865448031E-01 -0.17683159396E-01  0.10196881587E+01  0.10193999579E+01 0.  0.
     999903    2    3    3    0    0  0.27003763579E-01 -0.16547309397E-01 -0.12635410194E+00  0.13170974860E+00  0.19470030940E-01 0.  0.
         14    1    1    2    0    0  0.11583776851E-01 -0.11865448031E-01  0.17683159396E-01  0.24241841294E-01  0.00000000000E+00 0.  1.
     999901    1    3    3    0    0 -0.38587540429E-01  0.28412757428E-01  0.10867094254E+00  0.88797841011E+00  0.88000000000E+00 0. -1.
        -11    1    4    4    0    0  0.21413134276E-01 -0.12281017243E-01 -0.58590538115E-01  0.63580327002E-01  0.51100000000E-03 0. -1.
         11    1    4    4    0    0  0.55906293029E-02 -0.42662921541E-02 -0.67763563820E-01  0.68129421599E-01  0.51100000000E-03 0.  1.
</event>
<event>
 8    1  0.1148488E+005  0.1043930E+01  0.7957747E-01            NaN
         13   -1    0    0    0    0  0.00000000000E+00  0.00000000000E+00  0.74505805969E-08  0.10566000000E+00  0.10566000000E+00 0. -1.
     999900   -1    0    0    0    0 -0.00000000000E+00 -0.00000000000E+00 -0.74505805969E-08  0.93827000000E+00  0.93827000000E+00 0.  1.
     999902    2    1    2    0    0  0.14844745714E-01  0.77903678558E-02 -0.16695385023E-01  0.10202700721E+01  0.10199956999E+01 0.  0.
     999903    2    3    3    0    0 -0.64115495275E-02  0.29480367280E-01  0.12347107158E+00  0.12865977511E+00  0.19950744127E-01 0.  0.
         14    1    1    2    0    0 -0.14844745714E-01 -0.77903678558E-02  0.16695385023E-01  0.23659927889E-01  0.00000000000E+00 0. -1.
     999901    1    3    3    0    0  0.21256295242E-01 -0.21689999424E-01 -0.14016645660E+00  0.89161029700E+00  0.88000000000E+00 0. -1.
        -11    1    4    4    0    0 -0.13473313592E-01  0.22097332300E-01  0.91592712729E-01  0.95180399347E-01  0.51100000000E-03 0. -1.
         11    1    4    4    0    0  0.70617640647E-02  0.73830349804E-02  0.31878358853E-01  0.33479375761E-01  0.51100000000E-03 0.  1.
</event>
<event>
 8    1  0.1148488E+005  0.1043930E+01  0.7957747E-01            NaN
         13   -1    0    0    0    0  0.00000000000E+00  0.00000000000E+00  0.74505805969E-08  0.10566000000E+00  0.10566000000E+00 0.  1.
     999900   -1    0    0    0    0 -0.00000000000E+00 -0.00000000000E+00 -0.74505805969E-08  0.93827000000E+00  0.93827000000E+00 0. -1.
     999902    2    1    2    0    0  0.58919741008E-03 -0.24438593128E-01  0.33728743656E-02  0.10192527175E+01  0.10189539410E+01 0.  0.
     999903    2    3    3    0    0  0.10885260607E+00 -0.61860674388E-01 -0.34468848098E-01  0.13102224420E+00  0.17409598035E-01 0.  0.
         14    1    1    2    0    0 -0.58919741008E-03  0.24438593128E-01 -0.33728743656E-02  0.24677282450E-01  0.00000000000E+00 0. -1.
     999901    1    3    3    0    0 -0.10826340866E+00  0.37422081260E-01  0.37841722464E-01  0.88823047335E+00  0.88000000000E+00 0. -1.
        -11    1    4    4    0    0  0.48469003827E-01 -0.17744063138E-01 -0.14655249512E-01  0.53657558348E-01  0.51100000000E-03 0. -1.
         11    1    4    4    0    0  0.60383602241E-01 -0.44116611250E-01 -0.19813598586E-01  0.77364685857E-01  0.51100000000E-03 0.  1.
</event>
<event>
 8    1  0.1148488E+005  0.1043930E+01  0.7957747E-01            NaN
         13   -1    0    0    0    0  0.00000000000E+00  0.00000000000E+00  0.74505805969E-08  0.10566000000E+00  0.10566000000E+00 0. -1.
     999900   -1    0    0    0    0 -0.00000000000E+00 -0.00000000000E+00 -0.74505805969E-08  0.93827000000E+00  0.93827000000E+00 0.  1.
     999902    2    1    2    0    0  0.20737693316E-01 -0.10935458768E-01 -0.52900023440E-02  0.10198962673E+01  0.10196130520E+01 0.  0.
     999903    2    3    3    0    0 -0.90839120750E-01 -0.70430167798E-02 -0.89102595958E-01  0.12889172894E+00  0.19299099405E-01 0.  0.
         14    1    1    2    0    0 -0.20737693316E-01  0.10935458768E-01  0.52900023440E-02  0.24033732697E-01  0.00000000000E+00 0. -1.
     999901    1    3    3    0    0  0.11157681407E+00 -0.38924419881E-02  0.83812593614E-01  0.89100453837E+00  0.88000000000E+00 0. -1.
        -11    1    4    4    0    0 -0.47963341693E-01 -0.11321052410E-01 -0.39304158876E-01  0.63037499950E-01  0.51100000000E-03 0.  1.
         11    1    4    4    0    0 -0.42875779057E-01  0.42780356298E-02 -0.49798437082E-01  0.65854228986E-01  0.51100000000E-03 0. -1.
</event>
<event>
 8    1  0.1148488E+005  0.1043930E+01  0.7957747E-01            NaN
         13   -1    0    0    0    0  0.00000000000E+00  0.00000000000E+00  0.74505805969E-08  0.10566000000E+00  0.10566000000E+00 0.  1.
     999900   -1    0    0    0    0 -0.00000000000E+00 -0.00000000000E+00 -0.74505805969E-08  0.93827000000E+00  0.93827000000E+00 0.  1.
     999902    2    1    2    0    0  0.16634576260E-01  0.15372194707E-01 -0.10406564773E-01  0.10190039075E+01  0.10186990004E+01 0.  0.
     999903    2    3    3    0    0  0.11190226401E+00  0.65798472807E-01  0.14276720614E-01  0.13208338882E+00  0.19764643623E-01 0.  0.
         14    1    1    2    0    0 -0.16634576260E-01 -0.15372194707E-01  0.10406564773E-01  0.24926092510E-01  0.00000000000E+00 0. -1.
     999901    1    3    3    0    0 -0.95267687750E-01 -0.50426278100E-01 -0.24683285387E-01  0.88692051867E+00  0.88000000000E+00 0.  1.
        -11    1    4    4    0    0  0.86670754142E-01  0.46666498583E-01  0.30528984421E-02  0.98484328821E-01  0.51100000000E-03 0.  1.
         11    1    4    4    0    0  0.25231509868E-01  0.19131974224E-01  0.11223822172E-01  0.33599060003E-01  0.51100000000E-03 0. -1.
</event>
<event>
 8    1  0.1148488E+005  0.1043930E+01  0.7957747E-01            NaN
         13   -1    0    0    0    0  0.00000000000E+00  0.00000000000E+00  0.74505805969E-08  0.10566000000E+00  0.10566000000E+00 0.  1.
     999900   -1    0    0    0    0 -0.00000000000E+00 -0.00000000000E+00 -0.74505805969E-08  0.93827000000E+00  0.93827000000E+00 0. -1.
     999902    2    1    2    0    0  0.35743304343E-02  0.74210360082E-02  0.20939879080E-01  0.10214283079E+01  0.10211804258E+01 0.  0.
     999903    2    3    3    0    0  0.12340779222E+00  0.35607998750E-01 -0.24494734273E-01  0.13169864806E+00  0.15720341557E-01 0.  0.
         14    1    1    2    0    0 -0.35743304343E-02 -0.74210360082E-02 -0.20939879080E-01  0.22501692145E-01  0.00000000000E+00 0. -1.
     999901    1    3    3    0    0 -0.11983346178E+00 -0.28186962741E-01  0.45434613354E-01  0.88972965980E+00  0.88000000000E+00 0.  1.
        -11    1    4    4    0    0  0.68464324261E-02  0.46802903386E-02  0.12020633766E-02  0.83955245208E-02  0.51100000000E-03 0. -1.
         11    1    4    4    0    0  0.11656135979E+00  0.30927708411E-01 -0.25696797650E-01  0.12330312354E+00  0.51100000000E-03 0.  1.
</event>
<event>
 8    1  0.1148488E+005  0.1043930E+01  0.7957747E-01            NaN
         13   -1    0    0    0    0  0.00000000000E+00  0.00000000000E+00  0.74505805969E-08  0.10566000000E+00  0.10566000000E+00 0. -1.
     999900   -1    0    0    0    0 -0.00000000000E+00 -0.00000000000E+00 -0.74505805969E-08  0.93827000000E+00  0.93827000000E+00 0.  1.
     999902    2    1    2    0    0 -0.73120406706E-02  0.19889924534E-01 -0.11912062003E-01  0.10196200790E+01  0.10193302376E+01 0.  0.
     999903    2    3    3    0    0 -0.26611687306E-01  0.12181549106E+00 -0.43093267500E-01  0.13297834470E+00  0.16703732852E-01 0.  0.
         14    1    1    2    0    0  0.73120406706E-02 -0.19889924534E-01  0.11912062003E-01  0.24309920977E-01  0.00000000000E+00 0. -1.
     999901    1    3    3    0    0  0.19299646636E-01 -0.10192556653E+00  0.31181205497E-01  0.88664173433E+00  0.88000000000E+00 0.  1.
        -11    1    4    4    0    0 -0.15390481320E-01  0.10083283869E+00 -0.34851337363E-01  0.10779148905E+00  0.51100000000E-03 0. -1.
         11    1    4    4    0    0 -0.11221205986E-01  0.20982652367E-01 -0.82419301367E-02  0.25186855650E-01  0.51100000000E-03 0.  1.
</event>
<event>
 8    1  0.1148488E+005  0.1043930E+01  0.7957747E-01            NaN
         13   -1    0    0    0    0  0.00000000000E+00  0.00000000000E+00  0.74505805969E-08  0.10566000000E+00  0.10566000000E+00 0. -1.
     999900   -1    0    0    0    0 -0.00000000000E+00 -0.00000000000E+00 -0.74505805969E-08  0.93827000000E+00  0.93827000000E+00 0.  1.
     999902    2    1    2    0    0 -0.19214276379E-01 -0.11411167934E-01 -0.64305005755E-02  0.10206758712E+01  0.10204109366E+01 0.  0.
     999903    2    3    3    0    0  0.11098676091E+00  0.73233913635E-03 -0.63040241980E-01  0.12921390467E+00  0.20088893288E-01 0.  0.
         14    1    1    2    0    0  0.19214276379E-01  0.11411167934E-01  0.64305005755E-02  0.23254128839E-01  0.00000000000E+00 0. -1.
     999901    1    3    3    0    0 -0.13020103729E+00 -0.12143507071E-01  0.56609741405E-01  0.89146196649E+00  0.88000000000E+00 0. -1.
        -11    1    4    4    0    0  0.48332776379E-01 -0.93373123160E-02 -0.30290420094E-01  0.57801499498E-01  0.51100000000E-03 0. -1.
         11    1    4    4    0    0  0.62653984532E-01  0.10069651452E-01 -0.32749821886E-01  0.71412405174E-01  0.51100000000E-03 0.  1.
</event>
<event>
 8    1  0.1148488E+005  0.1043930E+01  0.7957747E-01            NaN
         13   -1    0    0    0    0  0.00000000000E+00  0.00000000000E+00  0.74505805969E-08  0.10566000000E+00  0.10566000000E+00 0. -1.
     999900   -1    0    0    0    0 -0.00000000000E+00 -0.00000000000E+00 -0.74505805969E-08  0.93827000000E+00  0.93827000000E+00 0.  1.
     999902    2    1    2    0    0 -0.71496517046E-02  0.86174117354E-02 -0.20155493517E-01  0.10208730873E+01  0.10206126783E+01 0.  0.
     999903    2    3    3    0    0  0.74964878470E-01 -0.10247767853E+00 -0.20548247386E-01  0.13009529828E+00  0.19523026479E-01 0.  0.
         14    1    1    2    0    0  0.71496517046E-02 -0.86174117354E-02  0.20155493517E-01  0.23056912703E-01  0.00000000000E+00 0. -1.
     999901    1    3    3    0    0 -0.82114530175E-01  0.11109509027E+00  0.39275386991E-03  0.89077778902E+00  0.88000000000E+00 0. -1.
        -11    1    4    4    0    0  0.18647718799E-01 -0.40111087467E-01 -0.37084646712E-02  0.44392010378E-01  0.51100000000E-03 0.  1.
         11    1    4    4    0    0  0.56317159672E-01 -0.62366591065E-01 -0.16839782715E-01  0.85703287903E-01  0.51100000000E-03 0. -1.
</event>
<event>
 8    1  0.1148488E+005  0.1043930E+01  0.7957747E-01            NaN
         13   -1    0    0    0    0  0.00000000000E+00  0.00000000000E+00  0.74505805969E-08  0.10566000000E+00  0.10566000000E+00 0.  1.
     999900   -1    0    0    0    0 -0.00000000000E+00 -0.00000000000E+00 -0.74505805969E-08  0.93827000000E+00  0.93827000000E+00 0. -1.
     999902    2    1    2    0    0 -0.24058000418E-02 -0.49742441911E-02  0.23751197473E-01  0.10195445461E+01  0.10192528789E+01 0.  0.
     999903    2    3    3    0    0 -0.12192246611E+00  0.19505180352E-01 -0.33087975417E-01  0.12931189829E+00  0.19524679748E-01 0.  0.
         14    1    1    2    0    0  0.24058000418E-02  0.49742441911E-02 -0.23751197473E-01  0.24385453871E-01  0.00000000000E+00 0. -1.
     999901    1    3    3    0    0  0.11951666607E+00 -0.24479424543E-01  0.56839172890E-01  0.89023264783E+00  0.88000000000E+00 0.  1.
        -11    1    4    4    0    0 -0.57353989125E-01  0.79254402532E-02 -0.25521444756E-01  0.63276361583E-01  0.51100000000E-03 0.  1.
         11    1    4    4    0    0 -0.64568476990E-01  0.11579740099E-01 -0.75665306615E-02  0.66035536711E-01  0.51100000000E-03 0. -1.
</event>
<event>
 8    1  0.1148488E+005  0.1043930E+01  0.7957747E-01            NaN
         13   -1    0    0    0    0  0.00000000000E+00  0.00000000000E+00  0.74505805969E-08  0.10566000000E+00  0.10566000000E+00 0. -1.
     999900   -1    0    0    0    0 -0.00000000000E+00 -0.00000000000E+00 -0.74505805969E-08  0.93827000000E+00  0.93827000000E+00 0. -1.
     999902    2    1    2    0    0 -0.51541997128E-02 -0.67608624882E-02  0.23141753812E-01  0.10192760793E+01  0.10189778751E+01 0.  0.
     999903    2    3    3    0    0 -0.37604907685E-01  0.76662126883E-01  0.99099716044E-01  0.13147990020E+00  0.13228743565E-01 0.  0.
         14    1    1    2    0    0  0.51541997128E-02  0.67608624882E-02 -0.23141753812E-01  0.24653920698E-01  0.00000000000E+00 0.  1.
     999901    1    3    3    0    0  0.32450707972E-01 -0.83422989371E-01 -0.75957962232E-01  0.88779617910E+00  0.88000000000E+00 0. -1.
        -11    1    4    4    0    0 -0.24491046107E-01  0.35437519173E-01  0.46914941533E-01  0.63693814179E-01  0.51100000000E-03 0. -1.
         11    1    4    4    0    0 -0.13113861578E-01  0.41224607709E-01  0.52184774511E-01  0.67786086021E-01  0.51100000000E-03 0.  1.
</event>
<event>
 8    1  0.1148488E+005  0.1043930E+01  0.7957747E-01            NaN
         13   -1    0    0    0    0  0.00000000000E+00  0.00000000000E+00  0.74505805969E-08  0.10566000000E+00  0.10566000000E+00 0.  1.
     999900   -1    0    0    0    0 -0.00000000000E+00 -0.00000000000E+00 -0.74505805969E-08  0.93827000000E+00  0.93827000000E+00 0. -1.
     999902    2    1    2    0    0 -0.66335741621E-04 -0.17163615377E-01  0.16311475763E-01  0.10202517751E+01  0.10199769734E+01 0.  0.
     999903    2    3    3    0    0  0.84344486282E-01 -0.98816457229E-01 -0.12054705859E-01  0.13199673643E+00  0.19978436076E-01 0.  0.
         14    1    1    2    0    0  0.66335741621E-04  0.17163615377E-01 -0.16311475763E-01  0.23678224908E-01  0.00000000000E+00 0. -1.
     999901    1    3    3    0    0 -0.84410822024E-01  0.81652841852E-01  0.28366181622E-01  0.88825503867E+00  0.88000000000E+00 0.  1.
        -11    1    4    4    0    0  0.38543269165E-01 -0.52146514196E-01 -0.14924047543E-01  0.66541948099E-01  0.51100000000E-03 0. -1.
         11    1    4    4    0    0  0.45801217117E-01 -0.46669943033E-01  0.28693416847E-02  0.65454788326E-01  0.51100000000E-03 0.  1.
</event>
<event>
 8    1  0.1148488E+005  0.1043930E+01  0.7957747E-01            NaN
         13   -1    0    0    0    0  0.00000000000E+00  0.00000000000E+00  0.74505805969E-08  0.10566000000E+00  0.10566000000E+00 0. -1.
     999900   -1    0    0    0    0 -0.00000000000E+00 -0.00000000000E+00 -0.74505805969E-08  0.93827000000E+00  0.93827000000E+00 0. -1.
     999902    2    1    2    0    0 -0.40698791109E-02  0.10852469013E-01 -0.18829263967E-01  0.10218193424E+01  0.10215800934E+01 0.  0.
     999903    2    3    3    0    0 -0.12191575157E+00  0.36343273005E-01 -0.35080532484E-01  0.13344918614E+00  0.19843324986E-01 0.  0.
         14    1    1    2    0    0  0.40698791109E-02 -0.10852469013E-01  0.18829263967E-01  0.22110657639E-01  0.00000000000E+00 0. -1.
     999901    1    3    3    0    0  0.11784587246E+00 -0.25490803991E-01  0.16251268516E-01  0.88837015623E+00  0.88000000000E+00 0.  1.
        -11    1    4    4    0    0 -0.31579164426E-01  0.57359686814E-02 -0.85170013866E-03  0.32111235988E-01  0.51100000000E-03 0. -1.
         11    1    4    4    0    0 -0.90336587148E-01  0.30607304323E-01 -0.34228832345E-01  0.10133795015E+00  0.51100000000E-03 0.  1.
</event>
<event>
 8    1  0.1148488E+005  0.1043930E+01  0.7957747E-01            NaN
         13   -1    0    0    0    0  0.00000000000E+00  0.00000000000E+00  0.74505805969E-08  0.10566000000E+00  0.10566000000E+00 0.  1.
     999900   -1    0    0    0    0 -0.00000000000E+00 -0.00000000000E+00 -0.74505805969E-08  0.93827000000E+00  0.93827000000E+00 0. -1.
     999902    2    1    2    0    0 -0.24778767972E-02  0.10153917763E-01 -0.24183738887E-01  0.10175843145E+01  0.10172432069E+01 0.  0.
     999903    2    3    3    0    0 -0.10510749260E+00  0.59396686716E-01 -0.44053248920E-01  0.13003009880E+00  0.19788543659E-01 0.  0.
         14    1    1    2    0    0  0.24778767972E-02 -0.10153917763E-01  0.24183738887E-01  0.26345685528E-01  0.00000000000E+00 0.  1.
     999901    1    3    3    0    0  0.10262961580E+00 -0.49242768953E-01  0.19869510033E-01  0.88755421567E+00  0.88000000000E+00 0. -1.
        -11    1    4    4    0    0 -0.60696406874E-01  0.28507509941E-01 -0.15375457957E-01  0.68799693014E-01  0.51100000000E-03 0.  1.
         11    1    4    4    0    0 -0.44411085723E-01  0.30889176775E-01 -0.28677790963E-01  0.61230405784E-01  0.51100000000E-03 0. -1.
</event>
<event>
 8    1  0.1148488E+005  0.1043930E+01  0.7957747E-01            NaN
         13   -1    0    0    0    0  0.00000000000E+00  0.00000000000E+00  0.74505805969E-08  0.10566000000E+00  0.10566000000E+00 0.  1.
     999900   -1    0    0    0    0 -0.00000000000E+00 -0.00000000000E+00 -0.74505805969E-08  0.93827000000E+00  0.93827000000E+00 0. -1.
     999902    2    1    2    0    0 -0.81441996910E-02  0.11325035321E-01  0.19373166781E-01  0.10200573377E+01  0.10197779504E+01 0.  0.
     999903    2    3    3    0    0  0.48466049171E-01  0.33643942805E-01 -0.11197726245E+00  0.12823011837E+00  0.20571415632E-01 0.  0.
         14    1    1    2    0    0  0.81441996910E-02 -0.11325035321E-01 -0.19373166781E-01  0.23872662289E-01  0.00000000000E+00 0.  1.
     999901    1    3    3    0    0 -0.56610248862E-01 -0.22318907483E-01  0.13135042923E+00  0.89182721935E+00  0.88000000000E+00 0.  1.
        -11    1    4    4    0    0  0.31186927461E-01  0.24391926463E-01 -0.92381545640E-01  0.10050970907E+00  0.51100000000E-03 0. -1.
         11    1    4    4    0    0  0.17279121710E-01  0.92520163411E-02 -0.19595716808E-01  0.27720409298E-01  0.51100000000E-03 0.  1.
</event>
<event>
 8    1  0.1148488E+005  0.1043930E+01  0.7957747E-01            NaN
         13   -1    0    0    0    0  0.00000000000E+00  0.00000000000E+00  0.74505805969E-08  0.10566000000E+00  0.10566000000E+00 0.  1.
     999900   -1    0    0    0    0 -0.00000000000E+00 -0.00000000000E+00 -0.74505805969E-08  0.93827000000E+00  0.93827000000E+00 0.  1.
     999902    2    1    2    0    0  0.11755967574E-01 -0.73221622537E-02 -0.19307092135E-01  0.10201690943E+01  0.10198923474E+01 0.  0.
     999903    2    3    3    0    0  0.72405380049E-02  0.41092606456E-02 -0.13101909842E+00  0.13302162127E+00  0.21434461982E-01 0.  0.
         14    1    1    2    0    0 -0.11755967574E-01  0.73221622537E-02  0.19307092135E-01  0.23760905714E-01  0.00000000000E+00 0.  1.
     999901    1    3    3    0    0  0.45154295686E-02 -0.11431422899E-01  0.11171200628E+00  0.88714747302E+00  0.88000000000E+00 0. -1.
        -11    1    4    4    0    0  0.62951239647E-02 -0.83604212751E-02 -0.60223444627E-01  0.61128141092E-01  0.51100000000E-03 0. -1.
         11    1    4    4    0    0  0.94541404023E-03  0.12469681921E-01 -0.70795653793E-01  0.71893480176E-01  0.51100000000E-03 0.  1.
</event>
<event>
 8    1  0.1148488E+005  0.1043930E+01  0.7957747E-01            NaN
         13   -1    0    0    0    0  0.00000000000E+00  0.00000000000E+00  0.74505805969E-08  0.10566000000E+00  0.10566000000E+00 0. -1.
     999900   -1    0    0    0    0 -0.00000000000E+00 -0.00000000000E+00 -0.74505805969E-08  0.93827000000E+00  0.93827000000E+00 0.  1.
     999902    2    1    2    0    0  0.93194034309E-02  0.15455879777E-01 -0.14982002381E-01  0.10204737451E+01  0.10202041308E+01 0.  0.
     999903    2    3    3    0    0  0.87245581202E-01 -0.56148855503E-02 -0.98025737005E-01  0.13288559272E+00  0.20154832126E-01 0.  0.
         14    1    1    2    0    0 -0.93194034309E-02 -0.15455879777E-01  0.14982002381E-01  0.23456254930E-01  0.00000000000E+00 0. -1.
     999901    1    3    3    0    0 -0.77926177771E-01  0.21070765327E-01  0.83043734623E-01  0.88758815235E+00  0.88000000000E+00 0.  1.
        -11    1    4    4    0    0  0.21825232385E-01  0.68191157385E-02 -0.29561083531E-01  0.37375926593E-01  0.51100000000E-03 0.  1.
         11    1    4    4    0    0  0.65420348817E-01 -0.12434001289E-01 -0.68464653473E-01  0.95509666126E-01  0.51100000000E-03 0. -1.
</event>
<event>
 8    1  0.1148488E+005  0.1043930E+01  0.7957747E-01            NaN
         13   -1    0    0    0    0  0.00000000000E+00  0.00000000000E+00  0.74505805969E-08  0.10566000000E+00  0.10566000000E+00 0.  1.
     999900   -1    0    0    0    0 -0.00000000000E+00 -0.00000000000E+00 -0.74505805969E-08  0.93827000000E+00  0.93827000000E+00 0.  1.
     999902    2    1    2    0    0 -0.13894948666E-01 -0.38583694368E-02  0.20141580278E-01  0.10191582445E+01  0.10188571477E+01 0.  0.
     999903    2    3    3    0    0  0.10347277425E+00 -0.65547684986E-01 -0.30453222720E-01  0.12778818214E+00  0.19982660049E-01 0.  0.
         14    1    1    2    0    0  0.13894948666E-01  0.38583694368E-02 -0.20141580278E-01  0.24771755473E-01  0.00000000000E+00 0. -1.
     999901    1    3    3    0    0 -0.11736772291E+00  0.61689315550E-01  0.50594802998E-01  0.89137006239E+00  0.88000000000E+00 0.  1.
        -11    1    4    4    0    0  0.49971696994E-01 -0.33812377841E-01 -0.25100583787E-01  0.65350958854E-01  0.51100000000E-03 0. -1.
         11    1    4    4    0    0  0.53501077251E-01 -0.31735307146E-01 -0.53526389330E-02  0.62437223282E-01  0.51100000000E-03 0.  1.
</event>
<event>
 8    1  0.1148488E+005  0.1043930E+01  0.7957747E-01            NaN
         13   -1    0    0    0    0  0.00000000000E+00  0.00000000000E+00  0.74505805969E-08  0.10566000000E+00  0.10566000000E+00 0. -1.
     999900   -1    0    0    0    0 -0.00000000000E+00 -0.00000000000E+00 -0.74505805969E-08  0.93827000000E+00  0.93827000000E+00 0.  1.
     999902    2    1    2    0    0 -0.26913750601E-02  0.17266273261E-01  0.15306973001E-01  0.10206991775E+01  0.10204347798E+01 0.  0.
     999903    2    3    3    0    0 -0.87062145636E-01 -0.49189053361E-01  0.83061514789E-01  0.13158421569E+00  0.20391429730E-01 0.  0.
         14    1    1    2    0    0  0.26913750601E-02 -0.17266273261E-01 -0.15306973001E-01  0.23230822510E-01  0.00000000000E+00 0.  1.
     999901    1    3    3    0    0  0.84370770576E-01  0.66455326622E-01 -0.67754541788E-01  0.88911496180E+00  0.88000000000E+00 0.  1.
        -11    1    4    4    0    0 -0.68133562337E-01 -0.46672794651E-01  0.62922153934E-01  0.10382673381E+00  0.51100000000E-03 0. -1.
         11    1    4    4    0    0 -0.18928583299E-01 -0.25162587102E-02  0.20139360854E-01  0.27757481878E-01  0.51100000000E-03 0.  1.
</event>
<event>
 8    1  0.1148488E+005  0.1043930E+01  0.7957747E-01            NaN
         13   -1    0    0    0    0  0.00000000000E+00  0.00000000000E+00  0.74505805969E-08  0.10566000000E+00  0.10566000000E+00 0.  1.
     999900   -1    0    0    0    0 -0.00000000000E+00 -0.00000000000E+00 -0.74505805969E-08  0.93827000000E+00  0.93827000000E+00 0. -1.
     999902    2    1    2    0    0  0.94724088517E-02 -0.95691605982E-02 -0.20517830139E-01  0.10193886733E+01  0.10190932197E+01 0.  0.
     999903    2    3    3    0    0 -0.59500510710E-01  0.10982470559E+00 -0.22340265774E-01  0.12864994604E+00  0.21211893105E-01 0.  0.
         14    1    1    2    0    0 -0.94724088517E-02  0.95691605982E-02  0.20517830139E-01  0.24541326729E-01  0.00000000000E+00 0.  1.
     999901    1    3    3    0    0  0.68972919561E-01 -0.11939386619E+00  0.18224356349E-02  0.89073872723E+00  0.88000000000E+00 0. -1.
        -11    1    4    4    0    0 -0.29261018076E-01  0.32988564854E-01 -0.66264619637E-02  0.44593987365E-01  0.51100000000E-03 0. -1.
         11    1    4    4    0    0 -0.30239492634E-01  0.76836140734E-01 -0.15713803810E-01  0.84055958676E-01  0.51100000000E-03 0.  1.
</event>
<event>
 7    1  0.1148488E+005  0.1043930E+01  0.7957747E-01            NaN
         13   -1    0    0    0    0  0.00000000000E+00  0.00000000000E+00  0.74505805969E-08  0.10566000000E+00  0.10566000000E+00 0.  1.
     999900   -1    0    0    0    0 -0.00000000000E+00 -0.00000000000E+00 -0.74505805969E-08  0.93827000000E+00  0.93827000000E+00 0. -1.
     999903    2    1    2    0    0  0.10858763242E+00 -0.45932175298E-01  0.70380038743E-02  0.11964654797E+00  0.19097756414E-01 0.  0.
         14    1    1    2    0    0 -0.59561973497E-02  0.36383216417E-01 -0.10234263658E-01  0.38261663272E-01  0.00000000000E+00 0. -1.
     999901    1    1    2    0    0 -0.10263143507E+00  0.95489588809E-02  0.31962597840E-02  0.88602178876E+00  0.88000000000E+00 0.  1.
        -11    1    3    3    0    0  0.29774081798E-01 -0.14449761230E-01 -0.64193440292E-02  0.33715881203E-01  0.51100000000E-03 0. -1.
         11    1    3    3    0    0  0.78813550621E-01 -0.31482414069E-01  0.13457347904E-01  0.85930666765E-01  0.51100000000E-03 0.  1.
</event>
<event>
 8    1  0.1148488E+005  0.1043930E+01  0.7957747E-01            NaN
         13   -1    0    0    0    0  0.00000000000E+00  0.00000000000E+00  0.74505805969E-08  0.10566000000E+00  0.10566000000E+00 0.  1.
     999900   -1    0    0    0    0 -0.00000000000E+00 -0.00000000000E+00 -0.74505805969E-08  0.93827000000E+00  0.93827000000E+00 0. -1.
     999902    2    1    2    0    0 -0.19432079521E-01 -0.58897266496E-02  0.12196390737E-01  0.10202435790E+01  0.10199685847E+01 0.  0.
     999903    2    3    3    0    0 -0.76606993718E-01 -0.10414925289E+00 -0.20051371028E-01  0.13234503552E+00  0.19936212875E-01 0.  0.
         14    1    1    2    0    0  0.19432079521E-01  0.58897266496E-02 -0.12196390737E-01  0.23686421036E-01  0.00000000000E+00 0. -1.
     999901    1    3    3    0    0  0.57174914198E-01  0.98259526236E-01  0.32247761764E-01  0.88789854344E+00  0.88000000000E+00 0. -1.
        -11    1    4    4    0    0 -0.73735793747E-01 -0.92832157747E-01 -0.14600744150E-01  0.11944965317E+00  0.51100000000E-03 0. -1.
         11    1    4    4    0    0 -0.28711999714E-02 -0.11317095139E-01 -0.54506268771E-02  0.12895382352E-01  0.51100000000E-03 0.  1.
</event>
<event>
 8    1  0.1148488E+005  0.1043930E+01  0.7957747E-01            NaN
         13   -1    0    0    0    0  0.00000000000E+00  0.00000000000E+00  0.74505805969E-08  0.10566000000E+00  0.10566000000E+00 0.  1.
     999900   -1    0    0    0    0 -0.00000000000E+00 -0.00000000000E+00 -0.74505805969E-08  0.93827000000E+00  0.93827000000E+00 0.  1.
     999902    2    1    2    0    0 -0.11454409499E-01  0.11257871543E-01 -0.16597947351E-01  0.10208337876E+01  0.10205724800E+01 0.  0.
     999903    2    3    3    0    0  0.63109835941E-01  0.96960737316E-01 -0.61262533408E-01  0.13240836414E+00  0.19865571227E-01 0.  0.
         14    1    1    2    0    0  0.11454409499E-01 -0.11257871543E-01  0.16597947351E-01  0.23096212350E-01  0.00000000000E+00 0.  1.
     999901    1    3    3    0    0 -0.74564245440E-01 -0.85702865772E-01  0.44664586057E-01  0.88842542351E+00  0.88000000000E+00 0. -1.
        -11    1    4    4    0    0  0.39945925341E-01  0.63206791018E-01 -0.28680914156E-01  0.80085150559E-01  0.51100000000E-03 0. -1.
         11    1    4    4    0    0  0.23163910600E-01  0.33753946297E-01 -0.32581619251E-01  0.52323213576E-01  0.51100000000E-03 0.  1.
</event>
<event>
 8    1  0.1148488E+005  0.1043930E+01  0.7957747E-01            NaN
         13   -1    0    0    0    0  0.00000000000E+00  0.00000000000E+00  0.74505805969E-08  0.10566000000E+00  0.10566000000E+00 0. -1.
     999900   -1    0    0    0    0 -0.00000000000E+00 -0.00000000000E+00 -0.74505805969E-08  0.93827000000E+00  0.93827000000E+00 0.  1.
     999902    2    1    2    0    0  0.23360788942E-01  0.28903843489E-02 -0.21509112034E-03  0.10203900967E+01  0.10201185335E+01 0.  0.
     999903    2    3    3    0    0 -0.33613255790E-01 -0.32922533629E-01 -0.11877128718E+00  0.12989350578E+00  0.23493828971E-01 0.  0.
         14    1    1    2    0    0 -0.23360788942E-01 -0.28903843489E-02  0.21509112034E-03  0.23539903268E-01  0.00000000000E+00 0.  1.
     999901    1    3    3    0    0  0.56974044732E-01  0.35812917978E-01  0.11855619606E+00  0.89049659095E+00  0.88000000000E+00 0. -1.
        -11    1    4    4    0    0 -0.24404208980E-01 -0.11766496130E-01 -0.83106759778E-01  0.87412873703E-01  0.51100000000E-03 0. -1.
         11    1    4    4    0    0 -0.92090468102E-02 -0.21156037499E-01 -0.35664527406E-01  0.42480632080E-01  0.51100000000E-03 0.  1.
</event>
<event>
 8    1  0.1148488E+005  0.1043930E+01  0.7957747E-01            NaN
         13   -1    0    0    0    0  0.00000000000E+00  0.00000000000E+00  0.74505805969E-08  0.10566000000E+00  0.10566000000E+00 0. -1.
     999900   -1    0    0    0    0 -0.00000000000E+00 -0.00000000000E+00 -0.74505805969E-08  0.93827000000E+00  0.93827000000E+00 0.  1.
     999902    2    1    2    0    0 -0.15466808907E-01 -0.14625539332E-01  0.11173110700E-01  0.10198890561E+01  0.10196056688E+01 0.  0.
     999903    2    3    3    0    0 -0.12728975272E+00  0.25481855972E-01 -0.11398156655E-01  0.13161970734E+00  0.18488462719E-01 0.  0.
         14    1    1    2    0    0  0.15466808907E-01  0.14625539332E-01 -0.11173110700E-01  0.24040943851E-01  0.00000000000E+00 0.  1.
     999901    1    3    3    0    0  0.11182294382E+00 -0.40107395305E-01  0.22571267355E-01  0.88826934881E+00  0.88000000000E+00 0.  1.
        -11    1    4    4    0    0 -0.83257981921E-01  0.92868051934E-02 -0.21795397717E-02  0.83804223156E-01  0.51100000000E-03 0. -1.
         11    1    4    4    0    0 -0.44031770801E-01  0.16195050779E-01 -0.92186168835E-02  0.47815484185E-01  0.51100000000E-03 0.  1.
</event>
<event>
 8    1  0.1148488E+005  0.1043930E+01  0.7957747E-01            NaN
         13   -1    0    0    0    0  0.00000000000E+00  0.00000000000E+00  0.74505805969E-08  0.10566000000E+00  0.10566000000E+00 0. -1.
     999900   -1    0    0    0    0 -0.00000000000E+00 -0.00000000000E+00 -0.74505805969E-08  0.93827000000E+00  0.93827000000E+00 0.  1.
     999902    2    1    2    0    0  0.13052107752E-01  0.10101474299E-02  0.21179354194E-01  0.10190313462E+01  0.10187271184E+01 0.  0.
     999903    2    3    3    0    0 -0.14540432961E-01  0.12601911149E+00 -0.13091902931E-01  0.12910825493E+00  0.20132136451E-01 0.  0.
         14    1    1    2    0    0 -0.13052107752E-01 -0.10101474299E-02 -0.21179354194E-01  0.24898653753E-01  0.00000000000E+00 0.  1.
     999901    1    3    3    0    0  0.27592540714E-01 -0.12500896406E+00  0.34271257125E-01  0.88992309132E+00  0.88000000000E+00 0.  1.
        -11    1    4    4    0    0 -0.78136151091E-02  0.74385325415E-01  0.22257726578E-02  0.74829435406E-01  0.51100000000E-03 0.  1.
         11    1    4    4    0    0 -0.67268178524E-02  0.51633786070E-01 -0.15317675589E-01  0.54278819523E-01  0.51100000000E-03 0. -1.
</event>
<event>
 8    1  0.1148488E+005  0.1043930E+01  0.7957747E-01            NaN
         13   -1    0    0    0    0  0.00000000000E+00  0.00000000000E+00  0.74505805969E-08  0.10566000000E+00  0.10566000000E+00 0.  1.
     999900   -1    0    0    0    0 -0.00000000000E+00 -0.00000000000E+00 -0.74505805969E-08  0.93827000000E+00  0.93827000000E+00 0. -1.
     999902    2    1    2    0    0 -0.20565293512E-01  0.81802706746E-02 -0.10479959881E-01  0.10194416827E+01  0.10191475196E+01 0.  0.
     999903    2    3    3    0    0  0.57181857858E-01  0.11446035375E+00 -0.11837628266E-03  0.12958358276E+00  0.20517150361E-01 0.  0.
         14    1    1    2    0    0  0.20565293512E-01 -0.81802706746E-02  0.10479959881E-01  0.24488317310E-01  0.00000000000E+00 0.  1.
     999901    1    3    3    0    0 -0.77747151370E-01 -0.10628008307E+00 -0.10361583598E-01  0.88985809993E+00  0.88000000000E+00 0.  1.
        -11    1    4    4    0    0  0.44551960154E-01  0.86577344371E-01 -0.87888413051E-02  0.97765119365E-01  0.51100000000E-03 0. -1.
         11    1    4    4    0    0  0.12629897704E-01  0.27883009376E-01  0.86704650224E-02  0.31818463391E-01  0.51100000000E-03 0.  1.
</event>
<event>
 8    1  0.1148488E+005  0.1043930E+01  0.7957747E-01            NaN
         13   -1    0    0    0    0  0.00000000000E+00  0.00000000000E+00  0.74505805969E-08  0.10566000000E+00  0.10566000000E+00 0. -1.
     999900   -1    0    0    0    0 -0.00000000000E+00 -0.00000000000E+00 -0.74505805969E-08  0.93827000000E+00  0.93827000000E+00 0.  1.
     999902    2    1    2    0    0 -0.89527127772E-03 -0.13129414789E-01  0.19963846352E-01  0.10200189522E+01  0.10197386551E+01 0.  0.
     999903    2    3    3    0    0 -0.43092689633E-01 -0.10112226891E-01 -0.11852106537E+00  0.12818500116E+00  0.20613455626E-01 0.  0.
         14    1    1    2    0    0  0.89527127772E-03  0.13129414789E-01 -0.19963846352E-01  0.23911047751E-01  0.00000000000E+00 0.  1.
     999901    1    3    3    0    0  0.42197418355E-01 -0.30171878980E-02  0.13848491173E+00  0.89183395109E+00  0.88000000000E+00 0. -1.
        -11    1    4    4    0    0 -0.94675119768E-02  0.37935437781E-02 -0.45081973619E-01  0.46224130319E-01  0.51100000000E-03 0.  1.
         11    1    4    4    0    0 -0.33625177656E-01 -0.13905770670E-01 -0.73439091755E-01  0.81960870841E-01  0.51100000000E-03 0. -1.
</event>
<event>
 8    1  0.1148488E+005  0.1043930E+01  0.7957747E-01            NaN
         13   -1    0    0    0    0  0.00000000000E+00  0.00000000000E+00  0.74505805969E-08  0.10566000000E+00  0.10566000000E+00 0. -1.
     999900   -1    0    0    0    0 -0.00000000000E+00 -0.00000000000E+00 -0.74505805969E-08  0.93827000000E+00  0.93827000000E+00 0.  1.
     999902    2    1    2    0    0 -0.18598290848E-01 -0.77055449800E-02  0.11414723132E-01  0.10207876633E+01  0.10205252989E+01 0.  0.
     999903    2    3    3    0    0  0.66741675589E-01 -0.80444256528E-01 -0.73243380170E-01  0.12964187020E+00  0.22730862294E-01 0.  0.
         14    1    1    2    0    0  0.18598290848E-01  0.77055449800E-02 -0.11414723132E-01  0.23142336747E-01  0.00000000000E+00 0.  1.
     999901    1    3    3    0    0 -0.85339966437E-01  0.72738711548E-01  0.84658103302E-01  0.89114579306E+00  0.88000000000E+00 0.  1.
        -11    1    4    4    0    0  0.59710862391E-01 -0.66441473956E-01 -0.52416822826E-01  0.10357432590E+00  0.51100000000E-03 0.  1.
         11    1    4    4    0    0  0.70308131972E-02 -0.14002782572E-01 -0.20826557344E-01  0.26067544299E-01  0.51100000000E-03 0. -1.
</event>
<event>
 8    1  0.1148488E+005  0.1043930E+01  0.7957747E-01            NaN
         13   -1    0    0    0    0  0.00000000000E+00  0.00000000000E+00  0.74505805969E-08  0.10566000000E+00  0.10566000000E+00 0. -1.
     999900   -1    0    0    0    0 -0.00000000000E+00 -0.00000000000E+00 -0.74505805969E-08  0.93827000000E+00  0.93827000000E+00 0. -1.
     999902    2    1    2    0    0  0.21632904377E-02  0.11267491953E-01 -0.21141350165E-01  0.10198760422E+01  0.10195923443E+01 0.  0.
     999903    2    3    3    0    0 -0.94482498419E-01  0.11664206586E-01  0.83617076011E-01  0.12840821115E+00  0.20829235897E-01 0.  0.
         14    1    1    2    0    0 -0.21632904377E-02 -0.11267491953E-01  0.21141350165E-01  0.24053957828E-01  0.00000000000E+00 0. -1.
     999901    1    3    3    0    0  0.96645788857E-01 -0.39671463337E-03 -0.10475842618E+00  0.89146783102E+00  0.88000000000E+00 0. -1.
        -11    1    4    4    0    0 -0.25610087736E-01  0.31419930170E-02  0.35792150155E-01  0.44125818379E-01  0.51100000000E-03 0.  1.
         11    1    4    4    0    0 -0.68872410684E-01  0.85222135689E-02  0.47824925857E-01  0.84282392774E-01  0.51100000000E-03 0. -1.
</event>
<event>
 8    1  0.1148488E+005  0.1043930E+01  0.7957747E-01            NaN
         13   -1    0    0    0    0  0.00000000000E+00  0.00000000000E+00  0.74505805969E-08  0.10566000000E+00  0.10566000000E+00 0. -1.
     999900   -1    0    0    0    0 -0.00000000000E+00 -0.00000000000E+00 -0.74505805969E-08  0.93827000000E+00  0.93827000000E+00 0. -1.
     999902    2    1    2    0    0 -0.18265170271E-02 -0.23252905123E-01 -0.71752844955E-03  0.10205944347E+01  0.10203276197E+01 0.  0.
     999903    2    3    3    0    0  0.74115443146E-01 -0.87488017836E-01 -0.63398475735E-01  0.13277562876E+00  0.21511594293E-01 0.  0.
         14    1    1    2    0    0  0.18265170271E-02  0.23252905123E-01  0.71752844955E-03  0.23335565307E-01  0.00000000000E+00 0. -1.
     999901    1    3    3    0    0 -0.75941960173E-01  0.64235112713E-01  0.62680947285E-01  0.88781880594E+00  0.88000000000E+00 0.  1.
        -11    1    4    4    0    0  0.31048889715E-01 -0.25518187463E-01 -0.13920614990E-01  0.42535351023E-01  0.51100000000E-03 0. -1.
         11    1    4    4    0    0  0.43066553431E-01 -0.61969830373E-01 -0.49477860745E-01  0.90240277735E-01  0.51100000000E-03 0.  1.
</event>
<event>
 8    1  0.1148488E+005  0.1043930E+01  0.7957747E-01            NaN
         13   -1    0    0    0    0  0.00000000000E+00  0.00000000000E+00  0.74505805969E-08  0.10566000000E+00  0.10566000000E+00 0.  1.
     999900   -1    0    0    0    0 -0.00000000000E+00 -0.00000000000E+00 -0.74505805969E-08  0.93827000000E+00  0.93827000000E+00 0.  1.
     999902    2    1    2    0    0  0.13251866968E-02  0.63077139670E-03  0.23504643054E-01  0.10203795810E+01  0.10201077722E+01 0.  0.
     999903    2    3    3    0    0  0.68924290496E-01  0.10489831771E+00  0.34305450332E-01  0.13158375654E+00  0.19575652867E-01 0.  0.
         14    1    1    2    0    0 -0.13251866968E-02 -0.63077139670E-03 -0.23504643054E-01  0.23550419050E-01  0.00000000000E+00 0. -1.
     999901    1    3    3    0    0 -0.67599103799E-01 -0.10426754631E+00 -0.10800807278E-01  0.88879582441E+00  0.88000000000E+00 0. -1.
        -11    1    4    4    0    0  0.28508501062E-01  0.53641161568E-01  0.82778980704E-02  0.61309816218E-01  0.51100000000E-03 0. -1.
         11    1    4    4    0    0  0.40415789433E-01  0.51257156138E-01  0.26027552262E-01  0.70273940324E-01  0.51100000000E-03 0.  1.
</event>
<event>
 8    1  0.1148488E+005  0.1043930E+01  0.7957747E-01            NaN
         13   -1    0    0    0    0  0.00000000000E+00  0.00000000000E+00  0.74505805969E-08  0.10566000000E+00  0.10566000000E+00 0. -1.
     999900   -1    0    0    0    0 -0.00000000000E+00 -0.00000000000E+00 -0.74505805969E-08  0.93827000000E+00  0.93827000000E+00 0. -1.
     999902    2    1    2    0    0  0.25318003639E-03 -0.11159298104E-01 -0.20266932511E-01  0.10207925285E+01  0.10205302757E+01 0.  0.
     999903    2    3    3    0    0 -0.62567212053E-01  0.96090544745E-01 -0.60396308248E-01  0.13115254667E+00  0.20130266659E-01 0.  0.
         14    1    1    2    0    0 -0.25318003639E-03  0.11159298104E-01  0.20266932511E-01  0.23137471506E-01  0.00000000000E+00 0. -1.
     999901    1    3    3    0    0  0.62820392090E-01 -0.10724984285E+00  0.40129375737E-01  0.88963998182E+00  0.88000000000E+00 0.  1.
        -11    1    4    4    0    0 -0.41204072297E-01  0.54568308445E-01 -0.45507384661E-01  0.82138048675E-01  0.51100000000E-03 0. -1.
         11    1    4    4    0    0 -0.21363139757E-01  0.41522236300E-01 -0.14888923587E-01  0.49014498000E-01  0.51100000000E-03 0.  1.
</event>
<event>
 8    1  0.1148488E+005  0.1043930E+01  0.7957747E-01            NaN
         13   -1    0    0    0    0  0.00000000000E+00  0.00000000000E+00  0.74505805969E-08  0.10566000000E+00  0.10566000000E+00 0. -1.
     999900   -1    0    0    0    0 -0.00000000000E+00 -0.00000000000E+00 -0.74505805969E-08  0.93827000000E+00  0.93827000000E+00 0. -1.
     999902    2    1    2    0    0  0.79231620646E-03 -0.22357712827E-01 -0.75419176507E-02  0.10203211964E+01  0.10200480225E+01 0.  0.
     999903    2    3    3    0    0 -0.81524389656E-01  0.92164901236E-01 -0.33525651322E-01  0.12871218809E+00  0.17385710740E-01 0.  0.
         14    1    1    2    0    0 -0.79231620646E-03  0.22357712827E-01  0.75419176507E-02  0.23608803648E-01  0.00000000000E+00 0. -1.
     999901    1    3    3    0    0  0.82316705863E-01 -0.11452261406E+00  0.25983733671E-01  0.89160900826E+00  0.88000000000E+00 0. -1.
        -11    1    4    4    0    0 -0.65000773770E-01  0.63282712507E-01 -0.28260358796E-01  0.95019531114E-01  0.51100000000E-03 0.  1.
         11    1    4    4    0    0 -0.16523615886E-01  0.28882188730E-01 -0.52652925259E-02  0.33692656977E-01  0.51100000000E-03 0. -1.
</event>
<event>
 8    1  0.1148488E+005  0.1043930E+01  0.7957747E-01            NaN
         13   -1    0    0    0    0  0.00000000000E+00  0.00000000000E+00  0.74505805969E-08  0.10566000000E+00  0.10566000000E+00 0.  1.
     999900   -1    0    0    0    0 -0.00000000000E+00 -0.00000000000E+00 -0.74505805969E-08  0.93827000000E+00  0.93827000000E+00 0.  1.
     999902    2    1    2    0    0 -0.96859389787E-02  0.15499146003E-01 -0.14396576238E-01  0.10206640947E+01  0.10203988886E+01 0.  0.
     999903    2    3    3    0    0  0.34185615299E-01 -0.10464526623E+00  0.62942764185E-01  0.12806073005E+00  0.17845755217E-01 0.  0.
         14    1    1    2    0    0  0.96859389787E-02 -0.15499146003E-01  0.14396576238E-01  0.23265905271E-01  0.00000000000E+00 0.  1.
     999901    1    3    3    0    0 -0.43871554277E-01  0.12014441223E+00 -0.77339340422E-01  0.89260336468E+00  0.88000000000E+00 0.  1.
        -11    1    4    4    0    0  0.60702050797E-02 -0.35321667062E-01  0.13074220897E-01  0.38153164047E-01  0.51100000000E-03 0. -1.
         11    1    4    4    0    0  0.28115410219E-01 -0.69323599168E-01  0.49868543288E-01  0.89907566000E-01  0.51100000000E-03 0.  1.
</event>
<event>
 8    1  0.1148488E+005  0.1043930E+01  0.7957747E-01            NaN
         13   -1    0    0    0    0  0.00000000000E+00  0.00000000000E+00  0.74505805969E-08  0.10566000000E+00  0.10566000000E+00 0. -1.
     999900   -1    0    0    0    0 -0.00000000000E+00 -0.00000000000E+00 -0.74505805969E-08  0.93827000000E+00  0.93827000000E+00 0. -1.
     999902    2    1    2    0    0 -0.21622207360E-02 -0.23483355250E-01  0.11482736671E-02  0.10203193731E+01  0.10200461565E+01 0.  0.
     999903    2    3    3    0    0 -0.73770801770E-01  0.98061318761E-01  0.32172620406E-01  0.12854394911E+00  0.20744057433E-01 0.  0.
         14    1    1    2    0    0  0.21622207360E-02  0.23483355250E-01 -0.11482736671E-02  0.23610626945E-01  0.00000000000E+00 0. -1.
     999901    1    3    3    0    0  0.71608581034E-01 -0.12154467401E+00 -0.31024346739E-01  0.89177542394E+00  0.88000000000E+00 0. -1.
        -11    1    4    4    0    0 -0.25783699216E-01  0.45237607362E-01  0.21696392909E-01  0.56411300741E-01  0.51100000000E-03 0. -1.
         11    1    4    4    0    0 -0.47987102553E-01  0.52823711400E-01  0.10476227498E-01  0.72132648371E-01  0.51100000000E-03 0.  1.
</event>
<event>
 8    1  0.1148488E+005  0.1043930E+01  0.7957747E-01            NaN
         13   -1    0    0    0    0  0.00000000000E+00  0.00000000000E+00  0.74505805969E-08  0.10566000000E+00  0.10566000000E+00 0. -1.
     999900   -1    0    0    0    0 -0.00000000000E+00 -0.00000000000E+00 -0.74505805969E-08  0.93827000000E+00  0.93827000000E+00 0. -1.
     999902    2    1    2    0    0  0.16609935694E-02  0.17218256658E-02 -0.23753674164E-01  0.10200561520E+01  0.10197767366E+01 0.  0.
     999903    2    3    3    0    0 -0.63451508460E-01  0.40839804218E-02  0.10898404143E+00  0.12771960177E+00  0.19799054673E-01 0.  0.
         14    1    1    2    0    0 -0.16609935694E-02 -0.17218256658E-02  0.23753674164E-01  0.23873848025E-01  0.00000000000E+00 0. -1.
     999901    1    3    3    0    0  0.65112502030E-01 -0.23621547560E-02 -0.13273771560E+00  0.89233655021E+00  0.88000000000E+00 0. -1.
        -11    1    4    4    0    0 -0.16215575766E-01 -0.71112959366E-02  0.23733117787E-01  0.29614817714E-01  0.51100000000E-03 0.  1.
         11    1    4    4    0    0 -0.47235932694E-01  0.11195276358E-01  0.85250923647E-01  0.98104784052E-01  0.51100000000E-03 0. -1.
</event>
<event>
 8    1  0.1148488E+005  0.1043930E+01  0.7957747E-01            NaN
         13   -1    0    0    0    0  0.00000000000E+00  0.00000000000E+00  0.74505805969E-08  0.10566000000E+00  0.10566000000E+00 0. -1.
     999900   -1    0    0    0    0 -0.00000000000E+00 -0.00000000000E+00 -0.74505805969E-08  0.93827000000E+00  0.93827000000E+00 0. -1.
     999902    2    1    2    0    0 -0.22044618295E-02  0.17223470370E-01 -0.15435668960E-01  0.10206971039E+01  0.10204326585E+01 0.  0.
     999903    2    3    3    0    0 -0.11324323203E-02 -0.30243006255E-01  0.12331564378E+00  0.12856138419E+00  0.20133545963E-01 0.  0.
         14    1    1    2    0    0  0.22044618295E-02 -0.17223470370E-01  0.15435668960E-01  0.23232896070E-01  0.00000000000E+00 0. -1.
     999901    1    3    3    0    0 -0.10720295093E-02  0.47466476625E-01 -0.13875131274E+00  0.89213571974E+00  0.88000000000E+00 0. -1.
        -11    1    4    4    0    0  0.67815556934E-02 -0.17532680235E-01  0.91262949747E-01  0.93180317081E-01  0.51100000000E-03 0.  1.
         11    1    4    4    0    0 -0.79139880137E-02 -0.12710326019E-01  0.32052694035E-01  0.35381067108E-01  0.51100000000E-03 0. -1.
</event>
<event>
 8    1  0.1148488E+005  0.1043930E+01  0.7957747E-01            NaN
         13   -1    0    0    0    0  0.00000000000E+00  0.00000000000E+00  0.74505805969E-08  0.10566000000E+00  0.10566000000E+00 0.  1.
     999900   -1    0    0    0    0 -0.00000000000E+00 -0.00000000000E+00 -0.74505805969E-08  0.93827000000E+00  0.93827000000E+00 0.  1.
     999902    2    1    2    0    0 -0.25273641143E-01 -0.16417675472E-01 -0.11741526908E-01  0.10115855962E+01  0.10110683745E+01 0.  0.
     999903    2    3    3    0    0  0.70651354139E-01  0.93740968018E-01  0.10239616801E-01  0.11927415832E+00  0.18506543803E-01 0.  0.
         14    1    1    2    0    0  0.25273641143E-01  0.16417675472E-01  0.11741526908E-01  0.32344403823E-01  0.00000000000E+00 0. -1.
     999901    1    3    3    0    0 -0.95924995283E-01 -0.11015864349E+00 -0.21981143709E-01  0.89231143786E+00  0.88000000000E+00 0.  1.
        -11    1    4    4    0    0  0.24007469778E-01  0.44227530605E-01 -0.94710703301E-03  0.50334791162E-01  0.51100000000E-03 0.  1.
         11    1    4    4    0    0  0.46643884361E-01  0.49513437413E-01  0.11186723834E-01  0.68939367156E-01  0.51100000000E-03 0. -1.
</event>
<event>
 8    1  0.1148488E+005  0.1043930E+01  0.7957747E-01            NaN
         13   -1    0    0    0    0  0.00000000000E+00  0.00000000000E+00  0.74505805969E-08  0.10566000000E+00  0.10566000000E+00 0. -1.
     999900   -1    0    0    0    0 -0.00000000000E+00 -0.00000000000E+00 -0.74505805969E-08  0.93827000000E+00  0.93827000000E+00 0. -1.
     999902    2    1    2    0    0  0.78417352058E-02  0.83014321765E-03 -0.22068280510E-01  0.10204951765E+01  0.10202260604E+01 0.  0.
     999903    2    3    3    0    0  0.81695154548E-01 -0.10081366985E+00 -0.64199423355E-02  0.13143350102E+00  0.19901136307E-01 0.  0.
         14    1    1    2    0    0 -0.78417352058E-02 -0.83014321765E-03  0.22068280510E-01  0.23434823521E-01  0.00000000000E+00 0. -1.
     999901    1    3    3    0    0 -0.73853419342E-01  0.10164381306E+00 -0.15648338174E-01  0.88906167546E+00  0.88000000000E+00 0. -1.
        -11    1    4    4    0    0  0.16809165869E-01 -0.35051849728E-01 -0.27754217062E-02  0.38976201883E-01  0.51100000000E-03 0. -1.
         11    1    4    4    0    0  0.64885988679E-01 -0.65761820118E-01 -0.36445206293E-02  0.92457299137E-01  0.51100000000E-03 0.  1.
</event>
<event>
 8    1  0.1148488E+005  0.1043930E+01  0.7957747E-01            NaN
         13   -1    0    0    0    0  0.00000000000E+00  0.00000000000E+00  0.74505805969E-08  0.10566000000E+00  0.10566000000E+00 0. -1.
     999900   -1    0    0    0    0 -0.00000000000E+00 -0.00000000000E+00 -0.74505805969E-08  0.93827000000E+00  0.93827000000E+00 0.  1.
     999902    2    1    2    0    0 -0.68625738879E-02 -0.12463651607E-01 -0.17394832160E-01  0.10214574007E+01  0.10212101663E+01 0.  0.
     999903    2    3    3    0    0 -0.53939295339E-01 -0.96626604803E-01 -0.73800281424E-01  0.13439415885E+00  0.19213538422E-01 0.  0.
         14    1    1    2    0    0  0.68625738879E-02  0.12463651607E-01  0.17394832160E-01  0.22472599263E-01  0.00000000000E+00 0. -1.
     999901    1    3    3    0    0  0.47076721451E-01  0.84162953195E-01  0.56405449264E-01  0.88706324188E+00  0.88000000000E+00 0. -1.
        -11    1    4    4    0    0 -0.52331672121E-01 -0.81109896789E-01 -0.66091158790E-01  0.11698598914E+00  0.51100000000E-03 0.  1.
         11    1    4    4    0    0 -0.16076232173E-02 -0.15516708013E-01 -0.77091226338E-02  0.17408169713E-01  0.51100000000E-03 0. -1.
</event>
<event>
 8    1  0.1148488E+005  0.1043930E+01  0.7957747E-01            NaN
         13   -1    0    0    0    0  0.00000000000E+00  0.00000000000E+00  0.74505805969E-08  0.10566000000E+00  0.10566000000E+00 0. -1.
     999900   -1    0    0    0    0 -0.00000000000E+00 -0.00000000000E+00 -0.74505805969E-08  0.93827000000E+00  0.93827000000E+00 0. -1.
     999902    2    1    2    0    0  0.16322753378E-01 -0.13051425712E-01  0.11294490264E-01  0.10201742112E+01  0.10198975849E+01 0.  0.
     999903    2    3    3    0    0  0.11719013448E+00  0.54589374107E-01 -0.13967417150E-01  0.13147422227E+00  0.19412753392E-01 0.  0.
         14    1    1    2    0    0 -0.16322753378E-01  0.13051425712E-01 -0.11294490264E-01  0.23755788796E-01  0.00000000000E+00 0. -1.
     999901    1    3    3    0    0 -0.10086738110E+00 -0.67640799819E-01  0.25261907414E-01  0.88869998894E+00  0.88000000000E+00 0. -1.
        -11    1    4    4    0    0  0.30718709002E-01  0.11188022355E-01  0.44041203115E-02  0.32991943315E-01  0.51100000000E-03 0.  1.
         11    1    4    4    0    0  0.86471425477E-01  0.43401351752E-01 -0.18371537461E-01  0.98482278953E-01  0.51100000000E-03 0. -1.
</event>
<event>
 8    1  0.1148488E+005  0.1043930E+01  0.7957747E-01            NaN
         13   -1    0    0    0    0  0.00000000000E+00  0.00000000000E+00  0.74505805969E-08  0.10566000000E+00  0.10566000000E+00 0. -1.
     999900   -1    0    0    0    0 -0.00000000000E+00 -0.00000000000E+00 -0.74505805969E-08  0.93827000000E+00  0.93827000000E+00 0. -1.
     999902    2    1    2    0    0  0.97019036173E-02 -0.20892349956E-01  0.41340943903E-03  0.10208911604E+01  0.10206311642E+01 0.  0.
     999903    2    3    3    0    0  0.55210091455E-01  0.44660794556E-01  0.10743600592E+00  0.13082259788E+00  0.23006868087E-01 0.  0.
         14    1    1    2    0    0 -0.97019036173E-02  0.20892349956E-01 -0.41340943903E-03  0.23038839551E-01  0.00000000000E+00 0. -1.
     999901    1    3    3    0    0 -0.45508187838E-01 -0.65553144512E-01 -0.10702259648E+00  0.89006856257E+00  0.88000000000E+00 0. -1.
        -11    1    4    4    0    0  0.43436442707E-01  0.27299335081E-01  0.89752744346E-01  0.10338178993E+00  0.51100000000E-03 0. -1.
         11    1    4    4    0    0  0.11773648748E-01  0.17361459475E-01  0.17683261574E-01  0.27440807948E-01  0.51100000000E-03 0.  1.
</event>
<event>
 8    1  0.1148488E+005  0.1043930E+01  0.7957747E-01            NaN
         13   -1    0    0    0    0  0.00000000000E+00  0.00000000000E+00  0.74505805969E-08  0.10566000000E+00  0.10566000000E+00 0.  1.
     999900   -1    0    0    0    0 -0.00000000000E+00 -0.00000000000E+00 -0.74505805969E-08  0.93827000000E+00  0.93827000000E+00 0.  1.
     999902    2    1    2    0    0 -0.13429228645E-01  0.10776666505E-01 -0.16936450464E-01  0.10197778970E+01  0.10194918515E+01 0.  0.
     999903    2    3    3    0    0  0.10908103055E+00  0.96701552954E-02  0.62277736539E-01  0.12776619566E+00  0.21295566587E-01 0.  0.
         14    1    1    2    0    0  0.13429228645E-01 -0.10776666505E-01  0.16936450464E-01  0.24152102958E-01  0.00000000000E+00 0.  1.
     999901    1    3    3    0    0 -0.12251025920E+00  0.11065112099E-02 -0.79214187004E-01  0.89201170138E+00  0.88000000000E+00 0.  1.
        -11    1    4    4    0    0  0.76790580271E-01 -0.14253541818E-02  0.36829936422E-01  0.85179400038E-01  0.51100000000E-03 0. -1.
         11    1    4    4    0    0  0.32290450279E-01  0.11095509477E-01  0.25447800117E-01  0.42586795625E-01  0.51100000000E-03 0.  1.
</event>
<event>
 8    1  0.1148488E+005  0.1043930E+01  0.7957747E-01            NaN
         13   -1    0    0    0    0  0.00000000000E+00  0.00000000000E+00  0.74505805969E-08  0.10566000000E+00  0.10566000000E+00 0.  1.
     999900   -1    0    0    0    0 -0.00000000000E+00 -0.00000000000E+00 -0.74505805969E-08  0.93827000000E+00  0.93827000000E+00 0. -1.
     999902    2    1    2    0    0 -0.13449744215E-01 -0.16959688729E-01  0.55534246121E-02  0.10215834749E+01  0.10213390372E+01 0.  0.
     999903    2    3    3    0    0 -0.37867919172E-01  0.84979069108E-01  0.90237773038E-01  0.13132553668E+00  0.21168831132E-01 0.  0.
         14    1    1    2    0    0  0.13449744215E-01  0.16959688729E-01 -0.55534246121E-02  0.22346525148E-01  0.00000000000E+00 0. -1.
     999901    1    3    3    0    0  0.24418174957E-01 -0.10193875784E+00 -0.84684348426E-01  0.89025793818E+00  0.88000000000E+00 0. -1.
        -11    1    4    4    0    0 -0.58280074216E-02  0.84633596388E-02  0.25154657445E-02  0.10591638957E-01  0.51100000000E-03 0. -1.
         11    1    4    4    0    0 -0.32039911750E-01  0.76515709469E-01  0.87722307294E-01  0.12073389772E+00  0.51100000000E-03 0.  1.
</event>
<event>
 8    1  0.1148488E+005  0.1043930E+01  0.7957747E-01            NaN
         13   -1    0    0    0    0  0.00000000000E+00  0.00000000000E+00  0.74505805969E-08  0.10566000000E+00  0.10566000000E+00 0.  1.
     999900   -1    0    0    0    0 -0.00000000000E+00 -0.00000000000E+00 -0.74505805969E-08  0.93827000000E+00  0.93827000000E+00 0.  1.
     999902    2    1    2    0    0 -0.20759778728E-01 -0.31930366539E-02 -0.11050225686E-01  0.10201966609E+01  0.10199205634E+01 0.  0.
     999903    2    3    3    0    0  0.93866742637E-01 -0.69431818775E-01 -0.51699460849E-01  0.12936605078E+00  0.20760491571E-01 0.  0.
         14    1    1    2    0    0  0.20759778728E-01  0.31930366539E-02  0.11050225686E-01  0.23733339074E-01  0.00000000000E+00 0. -1.
     999901    1    3    3    0    0 -0.11462652136E+00  0.66238782121E-01  0.40649235163E-01  0.89083061015E+00  0.88000000000E+00 0. -1.
        -11    1    4    4    0    0  0.76344278188E-01 -0.56927222243E-01 -0.50512758184E-01  0.10780054408E+00  0.51100000000E-03 0. -1.
         11    1    4    4    0    0  0.17522464448E-01 -0.12504596531E-01 -0.11867026645E-02  0.21565506694E-01  0.51100000000E-03 0.  1.
</event>
<event>
 8    1  0.1148488E+005  0.1043930E+01  0.7957747E-01            NaN
         13   -1    0    0    0    0  0.00000000000E+00  0.00000000000E+00  0.74505805969E-08  0.10566000000E+00  0.10566000000E+00 0. -1.
     999900   -1    0    0    0    0 -0.00000000000E+00 -0.00000000000E+00 -0.74505805969E-08  0.93827000000E+00  0.93827000000E+00 0.  1.
     999902    2    1    2    0    0  0.16801287987E-03  0.17011642589E-01 -0.17832870701E-01  0.10192837936E+01  0.10189857783E+01 0.  0.
     999903    2    3    3    0    0 -0.18186323599E-01 -0.74715039753E-01 -0.10326608034E+00  0.13021152477E+00  0.19444235687E-01 0.  0.
         14    1    1    2    0    0 -0.16801287987E-03 -0.17011642589E-01  0.17832870701E-01  0.24646206389E-01  0.00000000000E+00 0. -1.
     999901    1    3    3    0    0  0.18354336479E-01  0.91726682342E-01  0.85433209639E-01  0.88907226885E+00  0.88000000000E+00 0. -1.
        -11    1    4    4    0    0 -0.89449532375E-02 -0.18184435619E-01 -0.16005793645E-01  0.25828907031E-01  0.51100000000E-03 0.  1.
         11    1    4    4    0    0 -0.92413703613E-02 -0.56530604134E-01 -0.87260286696E-01  0.10438261773E+00  0.51100000000E-03 0. -1.
</event>
<event>
 8    1  0.1148488E+005  0.1043930E+01  0.7957747E-01            NaN
         13   -1    0    0    0    0  0.00000000000E+00  0.00000000000E+00  0.74505805969E-08  0.10566000000E+00  0.10566000000E+00 0.  1.
     999900   -1    0    0    0    0 -0.00000000000E+00 -0.00000000000E+00 -0.74505805969E-08  0.93827000000E+00  0.93827000000E+00 0. -1.
     999902    2    1    2    0    0 -0.15743858031E-01 -0.82716911392E-02  0.16074917429E-01  0.10199572465E+01  0.10196754836E+01 0.  0.
     999903    2    3    3    0    0 -0.12655700807E+00 -0.14674073802E-01 -0.27576804856E-01  0.13191106663E+00  0.20200113871E-01 0.  0.
         14    1    1    2    0    0  0.15743858031E-01  0.82716911392E-02 -0.16074917429E-01  0.23972753499E-01  0.00000000000E+00 0. -1.
     999901    1    3    3    0    0  0.11081315004E+00  0.64023826623E-02  0.43651722285E-01  0.88804617987E+00  0.88000000000E+00 0.  1.
        -11    1    4    4    0    0 -0.85956709431E-01 -0.17991079283E-01 -0.23852518417E-01  0.91002409780E-01  0.51100000000E-03 0. -1.
         11    1    4    4    0    0 -0.40600298637E-01  0.33170054819E-02 -0.37242864387E-02  0.40908656850E-01  0.51100000000E-03 0.  1.
</event>
<event>
 8    1  0.1148488E+005  0.1043930E+01  0.7957747E-01            NaN
         13   -1    0    0    0    0  0.00000000000E+00  0.00000000000E+00  0.74505805969E-08  0.10566000000E+00  0.10566000000E+00 0.  1.
     999900   -1    0    0    0    0 -0.00000000000E+00 -0.00000000000E+00 -0.74505805969E-08  0.93827000000E+00  0.93827000000E+00 0. -1.
     999902    2    1    2    0    0  0.19007085342E-01 -0.13190398203E-01  0.48578634390E-02  0.10202898914E+01  0.10200159841E+01 0.  0.
     999903    2    3    3    0    0  0.84884000704E-01  0.77961284053E-01 -0.58902704342E-01  0.13084410487E+00  0.19167571916E-01 0.  0.
         14    1    1    2    0    0 -0.19007085342E-01  0.13190398203E-01 -0.48578634390E-02  0.23640108612E-01  0.00000000000E+00 0. -1.
     999901    1    3    3    0    0 -0.65876915362E-01 -0.91151682256E-01  0.63760567781E-01  0.88944578652E+00  0.88000000000E+00 0.  1.
        -11    1    4    4    0    0  0.88790325673E-02  0.37957052294E-02 -0.58093086722E-03  0.96872699556E-02  0.51100000000E-03 0. -1.
         11    1    4    4    0    0  0.76004968137E-01  0.74165578823E-01 -0.58321773475E-01  0.12115683491E+00  0.51100000000E-03 0.  1.
</event>
<event>
 8    1  0.1148488E+005  0.1043930E+01  0.7957747E-01            NaN
         13   -1    0    0    0    0  0.00000000000E+00  0.00000000000E+00  0.74505805969E-08  0.10566000000E+00  0.10566000000E+00 0.  1.
     999900   -1    0    0    0    0 -0.00000000000E+00 -0.00000000000E+00 -0.74505805969E-08  0.93827000000E+00  0.93827000000E+00 0.  1.
     999902    2    1    2    0    0  0.45752245011E-02 -0.23676408575E-01  0.71229457077E-04  0.10198154800E+01  0.10195303346E+01 0.  0.
     999903    2    3    3    0    0  0.81756804529E-01  0.96200900600E-01  0.97206916247E-02  0.12828831961E+00  0.20606133554E-01 0.  0.
         14    1    1    2    0    0 -0.45752245011E-02  0.23676408575E-01 -0.71229457077E-04  0.24114520022E-01  0.00000000000E+00 0.  1.
     999901    1    3    3    0    0 -0.77181580028E-01 -0.11987730918E+00 -0.96494621677E-02  0.89152716037E+00  0.88000000000E+00 0.  1.
        -11    1    4    4    0    0  0.56669888138E-01  0.52013284847E-01  0.91969886971E-02  0.77470663765E-01  0.51100000000E-03 0. -1.
         11    1    4    4    0    0  0.25086916391E-01  0.44187615753E-01  0.52370292761E-03  0.50817655846E-01  0.51100000000E-03 0.  1.
</event>
<event>
 8    1  0.1148488E+005  0.1043930E+01  0.7957747E-01            NaN
         13   -1    0    0    0    0  0.00000000000E+00  0.00000000000E+00  0.74505805969E-08  0.10566000000E+00  0.10566000000E+00 0.  1.
     999900   -1    0    0    0    0 -0.00000000000E+00 -0.00000000000E+00 -0.74505805969E-08  0.93827000000E+00  0.93827000000E+00 0.  1.
     999902    2    1    2    0    0 -0.77875892974E-02 -0.22923008240E-01 -0.22723285324E-01  0.10107267088E+01  0.10101811824E+01 0.  0.
     999903    2    3    3    0    0 -0.30578453249E-01 -0.11939766533E+00 -0.28153398219E-02  0.12493716872E+00  0.20261433804E-01 0.  0.
         14    1    1    2    0    0  0.77875892974E-02  0.22923008240E-01  0.22723285324E-01  0.33203291249E-01  0.00000000000E+00 0.  1.
     999901    1    3    3    0    0  0.22790863952E-01  0.96474657088E-01 -0.19907945502E-01  0.88578954003E+00  0.88000000000E+00 0. -1.
        -11    1    4    4    0    0 -0.23227850426E-01 -0.79042938880E-01 -0.10965993820E-01  0.83113376563E-01  0.51100000000E-03 0.  1.
         11    1    4    4    0    0 -0.73506028230E-02 -0.40354726448E-01  0.81506539979E-02  0.41823792154E-01  0.51100000000E-03 0. -1.
</event>
<event>
 8    1  0.1148488E+005  0.1043930E+01  0.7957747E-01            NaN
         13   -1    0    0    0    0  0.00000000000E+00  0.00000000000E+00  0.74505805969E-08  0.10566000000E+00  0.10566000000E+00 0.  1.
     999900   -1    0    0    0    0 -0.00000000000E+00 -0.00000000000E+00 -0.74505805969E-08  0.93827000000E+00  0.93827000000E+00 0. -1.
     999902    2    1    2    0    0  0.11430801307E-01 -0.77207703927E-02 -0.15692306626E-01  0.10230368911E+01  0.10228235226E+01 0.  0.
     999903    2    3    3    0    0  0.40010393861E-01 -0.12409258215E+00 -0.27226635892E-01  0.13484083588E+00  0.20999065610E-01 0.  0.
         14    1    1    2    0    0 -0.11430801307E-01  0.77207703927E-02  0.15692306626E-01  0.20893108941E-01  0.00000000000E+00 0.  1.
     999901    1    3    3    0    0 -0.28579592554E-01  0.11637181176E+00  0.11534329266E-01  0.88819605518E+00  0.88000000000E+00 0. -1.
        -11    1    4    4    0    0  0.16778400341E-01 -0.23882089524E-01 -0.63783894590E-02  0.29879991484E-01  0.51100000000E-03 0.  1.
         11    1    4    4    0    0  0.23231993521E-01 -0.10021049263E+00 -0.20848246433E-01  0.10496084440E+00  0.51100000000E-03 0. -1.
</event>
<event>
 8    1  0.1148488E+005  0.1043930E+01  0.7957747E-01            NaN
         13   -1    0    0    0    0  0.00000000000E+00  0.00000000000E+00  0.74505805969E-08  0.10566000000E+00  0.10566000000E+00 0.  1.
     999900   -1    0    0    0    0 -0.00000000000E+00 -0.00000000000E+00 -0.74505805969E-08  0.93827000000E+00  0.93827000000E+00 0. -1.
     999902    2    1    2    0    0  0.19409476343E-01 -0.13051604937E-01  0.17698113480E-02  0.10204735639E+01  0.10202039454E+01 0.  0.
     999903    2    3    3    0    0  0.46634267018E-01  0.34013972157E-01 -0.11578519945E+00  0.13099307599E+00  0.20524823554E-01 0.  0.
         14    1    1    2    0    0 -0.19409476343E-01  0.13051604937E-01 -0.17698113480E-02  0.23456436122E-01  0.00000000000E+00 0. -1.
     999901    1    3    3    0    0 -0.27224790675E-01 -0.47065577094E-01  0.11755501080E+00  0.88948048789E+00  0.88000000000E+00 0.  1.
        -11    1    4    4    0    0  0.40828629753E-01  0.23519108720E-01 -0.10396895534E+00  0.11414872000E+00  0.51100000000E-03 0.  1.
         11    1    4    4    0    0  0.58056372646E-02  0.10494863437E-01 -0.11816244112E-01  0.16844355985E-01  0.51100000000E-03 0. -1.
</event>
<event>
 8    1  0.1148488E+005  0.1043930E+01  0.7957747E-01            NaN
         13   -1    0    0    0    0  0.00000000000E+00  0.00000000000E+00  0.74505805969E-08  0.10566000000E+00  0.10566000000E+00 0.  1.
     999900   -1    0    0    0    0 -0.00000000000E+00 -0.00000000000E+00 -0.74505805969E-08  0.93827000000E+00  0.93827000000E+00 0.  1.
     999902    2    1    2    0    0 -0.70733654014E-03 -0.21811413797E-01  0.27982739571E-02  0.10219284447E+01  0.10216915766E+01 0.  0.
     999903    2    3    3    0    0 -0.75774185305E-01  0.99416534780E-01 -0.29536826650E-01  0.12986521490E+00  0.19161820527E-01 0.  0.
         14    1    1    2    0    0  0.70733654014E-03  0.21811413797E-01 -0.27982739571E-02  0.22001555262E-01  0.00000000000E+00 0. -1.
     999901    1    3    3    0    0  0.75066848765E-01 -0.12122794858E+00  0.32335100607E-01  0.89206322984E+00  0.88000000000E+00 0.  1.
        -11    1    4    4    0    0 -0.40791271284E-01  0.63438543958E-01 -0.10313502797E-01  0.76124937658E-01  0.51100000000E-03 0.  1.
         11    1    4    4    0    0 -0.34982914021E-01  0.35977990822E-01 -0.19223323853E-01  0.53740277241E-01  0.51100000000E-03 0. -1.
</event>
<event>
 8    1  0.1148488E+005  0.1043930E+01  0.7957747E-01            NaN
         13   -1    0    0    0    0  0.00000000000E+00  0.00000000000E+00  0.74505805969E-08  0.10566000000E+00  0.10566000000E+00 0.  1.
     999900   -1    0    0    0    0 -0.00000000000E+00 -0.00000000000E+00 -0.74505805969E-08  0.93827000000E+00  0.93827000000E+00 0. -1.
     999902    2    1    2    0    0  0.76894716103E-02  0.19968113850E-01  0.89697904166E-02  0.10207284767E+01  0.10204647531E+01 0.  0.
     999903    2    3    3    0    0 -0.80047790692E-01 -0.96791225883E-01  0.20131993663E-01  0.12862132762E+00  0.19025208235E-01 0.  0.
         14    1    1    2    0    0 -0.76894716103E-02 -0.19968113850E-01 -0.89697904166E-02  0.23201523323E-01  0.00000000000E+00 0. -1.
     999901    1    3    3    0    0  0.87737262302E-01  0.11675933973E+00 -0.11162203246E-01  0.89210714905E+00  0.88000000000E+00 0.  1.
        -11    1    4    4    0    0 -0.47066040561E-01 -0.68270570461E-01  0.18623170997E-01  0.84989214516E-01  0.51100000000E-03 0.  1.
         11    1    4    4    0    0 -0.32981750131E-01 -0.28520655422E-01  0.15088226654E-02  0.43632113108E-01  0.51100000000E-03 0. -1.
</event>
<event>
 8    1  0.1148488E+005  0.1043930E+01  0.7957747E-01            NaN
         13   -1    0    0    0    0  0.00000000000E+00  0.00000000000E+00  0.74505805969E-08  0.10566000000E+00  0.10566000000E+00 0.  1.
     999900   -1    0    0    0    0 -0.00000000000E+00 -0.00000000000E+00 -0.74505805969E-08  0.93827000000E+00  0.93827000000E+00 0. -1.
     999902    2    1    2    0    0  0.10609855798E-01  0.21030963549E-01  0.10964713395E-02  0.10203488059E+01  0.10200762780E+01 0.  0.
     999903    2    3    3    0    0  0.12969829966E+00  0.14290319329E-01  0.72848676280E-02  0.13228023306E+00  0.20472630527E-01 0.  0.
         14    1    1    2    0    0 -0.10609855798E-01 -0.21030963549E-01 -0.10964713395E-02  0.23581194144E-01  0.00000000000E+00 0. -1.
     999901    1    3    3    0    0 -0.11908844386E+00  0.67406442196E-02 -0.61883962885E-02  0.88806857280E+00  0.88000000000E+00 0.  1.
        -11    1    4    4    0    0  0.54971549585E-01  0.16222116640E-01  0.39088791652E-02  0.57450576929E-01  0.51100000000E-03 0. -1.
         11    1    4    4    0    0  0.74726750072E-01 -0.19317973112E-02  0.33759884628E-02  0.74829656128E-01  0.51100000000E-03 0.  1.
</event>
<event>
 8    1  0.1148488E+005  0.1043930E+01  0.7957747E-01            NaN
         13   -1    0    0    0    0  0.00000000000E+00  0.00000000000E+00  0.74505805969E-08  0.10566000000E+00  0.10566000000E+00 0. -1.
     999900   -1    0    0    0    0 -0.00000000000E+00 -0.00000000000E+00 -0.74505805969E-08  0.93827000000E+00  0.93827000000E+00 0. -1.
     999902    2    1    2    0    0 -0.17902208548E-02 -0.60343754559E-03  0.23390241499E-01  0.10204635894E+01  0.10201937389E+01 0.  0.
     999903    2    3    3    0    0 -0.58209618636E-01  0.65808840053E-01  0.97877905930E-01  0.13302787277E+00  0.19929057489E-01 0.  0.
         14    1    1    2    0    0  0.17902208548E-02  0.60343754559E-03 -0.23390241499E-01  0.23466410568E-01  0.00000000000E+00 0.  1.
     999901    1    3    3    0    0  0.56419397781E-01 -0.66412277598E-01 -0.74487664431E-01  0.88743571667E+00  0.88000000000E+00 0. -1.
        -11    1    4    4    0    0 -0.53125602735E-01  0.58360799635E-01  0.76915666096E-01  0.11020251091E+00  0.51100000000E-03 0.  1.
         11    1    4    4    0    0 -0.50840159016E-02  0.74480404181E-02  0.20962239835E-01  0.22825361851E-01  0.51100000000E-03 0. -1.
</event>
<event>
 8    1  0.1148488E+005  0.1043930E+01  0.7957747E-01            NaN
         13   -1    0    0    0    0  0.00000000000E+00  0.00000000000E+00  0.74505805969E-08  0.10566000000E+00  0.10566000000E+00 0.  1.
     999900   -1    0    0    0    0 -0.00000000000E+00 -0.00000000000E+00 -0.74505805969E-08  0.93827000000E+00  0.93827000000E+00 0.  1.
     999902    2    1    2    0    0 -0.48828401262E-02 -0.15351477325E-01 -0.17409187336E-01  0.10202110247E+01  0.10199352652E+01 0.  0.
     999903    2    3    3    0    0 -0.44683781640E-01  0.10275141660E+00 -0.63686901931E-01  0.13022561173E+00  0.18659970982E-01 0.  0.
         14    1    1    2    0    0  0.48828401262E-02  0.15351477325E-01  0.17409187336E-01  0.23718975262E-01  0.00000000000E+00 0.  1.
     999901    1    3    3    0    0  0.39800941514E-01 -0.11810289393E+00  0.46277714595E-01  0.88998541301E+00  0.88000000000E+00 0.  1.
        -11    1    4    4    0    0 -0.32421558303E-01  0.65494111004E-01 -0.31915770978E-01  0.79746558403E-01  0.51100000000E-03 0. -1.
         11    1    4    4    0    0 -0.12262223337E-01  0.37257305601E-01 -0.31771130953E-01  0.50479053327E-01  0.51100000000E-03 0.  1.
</event>
<event>
 8    1  0.1148488E+005  0.1043930E+01  0.7957747E-01            NaN
         13   -1    0    0    0    0  0.00000000000E+00  0.00000000000E+00  0.74505805969E-08  0.10566000000E+00  0.10566000000E+00 0.  1.
     999900   -1    0    0    0    0 -0.00000000000E+00 -0.00000000000E+00 -0.74505805969E-08  0.93827000000E+00  0.93827000000E+00 0. -1.
     999902    2    1    2    0    0 -0.79314976310E-02 -0.18961227430E-01  0.11878092987E-01  0.10201912997E+01  0.10199150759E+01 0.  0.
     999903    2    3    3    0    0 -0.97048120506E-01  0.70474743531E-01  0.47516080671E-01  0.13046626825E+00  0.19458727053E-01 0.  0.
         14    1    1    2    0    0  0.79314976310E-02  0.18961227430E-01 -0.11878092987E-01  0.23738700330E-01  0.00000000000E+00 0. -1.
     999901    1    3    3    0    0  0.89116622875E-01 -0.89435970962E-01 -0.35637987684E-01  0.88972503142E+00  0.88000000000E+00 0. -1.
        -11    1    4    4    0    0 -0.24511015548E-01  0.26342810358E-01  0.20220495047E-01  0.41277876419E-01  0.51100000000E-03 0.  1.
         11    1    4    4    0    0 -0.72537104958E-01  0.44131933173E-01  0.27295585624E-01  0.89188391828E-01  0.51100000000E-03 0. -1.
</event>
<event>
 8    1  0.1148488E+005  0.1043930E+01  0.7957747E-01            NaN
         13   -1    0    0    0    0  0.00000000000E+00  0.00000000000E+00  0.74505805969E-08  0.10566000000E+00  0.10566000000E+00 0.  1.
     999900   -1    0    0    0    0 -0.00000000000E+00 -0.00000000000E+00 -0.74505805969E-08  0.93827000000E+00  0.93827000000E+00 0. -1.
     999902    2    1    2    0    0  0.17793401093E-01 -0.18784065067E-02  0.16097655029E-01  0.10198620123E+01  0.10195779794E+01 0.  0.
     999903    2    3    3    0    0  0.78378471650E-01 -0.26811387047E-01 -0.98163846873E-01  0.13005984605E+00  0.20430061846E-01 0.  0.
         14    1    1    2    0    0 -0.17793401093E-01  0.18784065067E-02 -0.16097655029E-01  0.24067987678E-01  0.00000000000E+00 0. -1.
     999901    1    3    3    0    0 -0.60585070557E-01  0.24932980540E-01  0.11426150190E+00  0.88980216628E+00  0.88000000000E+00 0.  1.
        -11    1    4    4    0    0  0.56990183690E-01 -0.25323409934E-01 -0.61523313783E-01  0.87604425616E-01  0.51100000000E-03 0.  1.
         11    1    4    4    0    0  0.21388287960E-01 -0.14879771128E-02 -0.36640533090E-01  0.42455420430E-01  0.51100000000E-03 0. -1.
</event>
<event>
 8    1  0.1148488E+005  0.1043930E+01  0.7957747E-01            NaN
         13   -1    0    0    0    0  0.00000000000E+00  0.00000000000E+00  0.74505805969E-08  0.10566000000E+00  0.10566000000E+00 0.  1.
     999900   -1    0    0    0    0 -0.00000000000E+00 -0.00000000000E+00 -0.74505805969E-08  0.93827000000E+00  0.93827000000E+00 0.  1.
     999902    2    1    2    0    0  0.65942051534E-02  0.62851507805E-02  0.22450360966E-01  0.10197018063E+01  0.10194139338E+01 0.  0.
     999903    2    3    3    0    0 -0.22701431113E-01  0.82289634695E-01  0.99524478144E-01  0.13258550310E+00  0.19668628076E-01 0.  0.
         14    1    1    2    0    0 -0.65942051534E-02 -0.62851507805E-02 -0.22450360966E-01  0.24228193689E-01  0.00000000000E+00 0. -1.
     999901    1    3    3    0    0  0.29295636266E-01 -0.76004483915E-01 -0.77074117178E-01  0.88711630321E+00  0.88000000000E+00 0.  1.
        -11    1    4    4    0    0 -0.94260751100E-02  0.88565948722E-02  0.13485476632E-01  0.18692494903E-01  0.51100000000E-03 0. -1.
         11    1    4    4    0    0 -0.13275356003E-01  0.73433039823E-01  0.86039001512E-01  0.11389300820E+00  0.51100000000E-03 0.  1.
</event>
<event>
 8    1  0.1148488E+005  0.1043930E+01  0.7957747E-01            NaN
         13   -1    0    0    0    0  0.00000000000E+00  0.00000000000E+00  0.74505805969E-08  0.10566000000E+00  0.10566000000E+00 0. -1.
     999900   -1    0    0    0    0 -0.00000000000E+00 -0.00000000000E+00 -0.74505805969E-08  0.93827000000E+00  0.93827000000E+00 0. -1.
     999902    2    1    2    0    0 -0.65763710702E-02 -0.16317319122E-01  0.15466152858E-01  0.10205055375E+01  0.10202366621E+01 0.  0.
     999903    2    3    3    0    0 -0.67957326229E-01 -0.11015946549E+00  0.24442767912E-01  0.13334458833E+00  0.20737027483E-01 0.  0.
         14    1    1    2    0    0  0.65763710702E-02  0.16317319122E-01 -0.15466152858E-01  0.23424462513E-01  0.00000000000E+00 0.  1.
     999901    1    3    3    0    0  0.61380955159E-01  0.93842146366E-01 -0.89766150542E-02  0.88716094916E+00  0.88000000000E+00 0.  1.
        -11    1    4    4    0    0 -0.29303348724E-01 -0.65648120351E-01  0.17416786684E-01  0.73972748573E-01  0.51100000000E-03 0. -1.
         11    1    4    4    0    0 -0.38653977506E-01 -0.44511345137E-01  0.70259812280E-02  0.59371839757E-01  0.51100000000E-03 0.  1.
</event>
<event>
 8    1  0.1148488E+005  0.1043930E+01  0.7957747E-01            NaN
         13   -1    0    0    0    0  0.00000000000E+00  0.00000000000E+00  0.74505805969E-08  0.10566000000E+00  0.10566000000E+00 0.  1.
     999900   -1    0    0    0    0 -0.00000000000E+00 -0.00000000000E+00 -0.74505805969E-08  0.93827000000E+00  0.93827000000E+00 0. -1.
     999902    2    1    2    0    0  0.16259477936E-01  0.97569049341E-03  0.14662378983E-01  0.10220140708E+01  0.10217790627E+01 0.  0.
     999903    2    3    3    0    0 -0.22610113865E-01  0.10535919280E+00 -0.71391746357E-01  0.13082830274E+00  0.20186297201E-01 0.  0.
         14    1    1    2    0    0 -0.16259477936E-01 -0.97569049341E-03 -0.14662378983E-01  0.21915929187E-01  0.00000000000E+00 0. -1.
     999901    1    3    3    0    0  0.38869591801E-01 -0.10438350231E+00  0.86054125339E-01  0.89118576807E+00  0.88000000000E+00 0.  1.
        -11    1    4    4    0    0  0.10736650544E-02  0.41501566133E-01 -0.26512950453E-01  0.49261855536E-01  0.51100000000E-03 0. -1.
         11    1    4    4    0    0 -0.23683778919E-01  0.63857626667E-01 -0.44878795903E-01  0.81566447208E-01  0.51100000000E-03 0.  1.
</event>
<event>
 8    1  0.1148488E+005  0.1043930E+01  0.7957747E-01            NaN
         13   -1    0    0    0    0  0.00000000000E+00  0.00000000000E+00  0.74505805969E-08  0.10566000000E+00  0.10566000000E+00 0.  1.
     999900   -1    0    0    0    0 -0.00000000000E+00 -0.00000000000E+00 -0.74505805969E-08  0.93827000000E+00  0.93827000000E+00 0. -1.
     999902    2    1    2    0    0 -0.19189409341E-01  0.25710665114E-02  0.13210585266E-01  0.10204914980E+01  0.10202222964E+01 0.  0.
     999903    2    3    3    0    0  0.95562046404E-01  0.54991165307E-01 -0.62762739229E-01  0.12825402433E+00  0.18809581241E-01 0.  0.
         14    1    1    2    0    0  0.19189409341E-01 -0.25710665114E-02 -0.13210585266E-01  0.23438502019E-01  0.00000000000E+00 0.  1.
     999901    1    3    3    0    0 -0.11475145574E+00 -0.52420098796E-01  0.75973324494E-01  0.89223747365E+00  0.88000000000E+00 0.  1.
        -11    1    4    4    0    0  0.53771144837E-01  0.21554247348E-01 -0.27256014605E-01  0.64024003693E-01  0.51100000000E-03 0.  1.
         11    1    4    4    0    0  0.41790901567E-01  0.33436917959E-01 -0.35506724624E-01  0.64230020636E-01  0.51100000000E-03 0. -1.
</event>
<event>
 8    1  0.1148488E+005  0.1043930E+01  0.7957747E-01            NaN
         13   -1    0    0    0    0  0.00000000000E+00  0.00000000000E+00  0.74505805969E-08  0.10566000000E+00  0.10566000000E+00 0. -1.
     999900   -1    0    0    0    0 -0.00000000000E+00 -0.00000000000E+00 -0.74505805969E-08  0.93827000000E+00  0.93827000000E+00 0. -1.
     999902    2    1    2    0    0 -0.42474475574E-02 -0.18893223772E-01 -0.13249173116E-01  0.10204665113E+01  0.10201967287E+01 0.  0.
     999903    2    3    3    0    0  0.11701580296E+00  0.42038236778E-01 -0.32309905279E-01  0.12985956636E+00  0.18964849085E-01 0.  0.
         14    1    1    2    0    0  0.42474475574E-02  0.18893223772E-01  0.13249173116E-01  0.23463488732E-01  0.00000000000E+00 0. -1.
     999901    1    3    3    0    0 -0.12126325052E+00 -0.60931460549E-01  0.19060732164E-01  0.89060694491E+00  0.88000000000E+00 0.  1.
        -11    1    4    4    0    0  0.37794205908E-01  0.22675915434E-01 -0.83921983967E-02  0.44869691952E-01  0.51100000000E-03 0. -1.
         11    1    4    4    0    0  0.79221597056E-01  0.19362321344E-01 -0.23917706883E-01  0.84989874405E-01  0.51100000000E-03 0.  1.
</event>
<event>
 8    1  0.1148488E+005  0.1043930E+01  0.7957747E-01            NaN
         13   -1    0    0    0    0  0.00000000000E+00  0.00000000000E+00  0.74505805969E-08  0.10566000000E+00  0.10566000000E+00 0.  1.
     999900   -1    0    0    0    0 -0.00000000000E+00 -0.00000000000E+00 -0.74505805969E-08  0.93827000000E+00  0.93827000000E+00 0.  1.
     999902    2    1    2    0    0 -0.24765351720E-01 -0.44674674170E-03  0.10639796163E-01  0.10169721164E+01  0.10166147539E+01 0.  0.
     999903    2    3    3    0    0 -0.46733812819E-01  0.10156414094E+00 -0.59204676017E-01  0.12805868705E+00  0.19862267815E-01 0.  0.
         14    1    1    2    0    0  0.24765351720E-01  0.44674674170E-03 -0.10639796163E-01  0.26957883650E-01  0.00000000000E+00 0.  1.
     999901    1    3    3    0    0  0.21968461099E-01 -0.10201088768E+00  0.69844472181E-01  0.88891342930E+00  0.88000000000E+00 0. -1.
        -11    1    4    4    0    0 -0.25453629819E-01  0.73161598088E-01 -0.46557050792E-01  0.90378796215E-01  0.51100000000E-03 0.  1.
         11    1    4    4    0    0 -0.21280183000E-01  0.28402542849E-01 -0.12647625225E-01  0.37679890839E-01  0.51100000000E-03 0. -1.
</event>
<event>
 8    1  0.1148488E+005  0.1043930E+01  0.7957747E-01            NaN
         13   -1    0    0    0    0  0.00000000000E+00  0.00000000000E+00  0.74505805969E-08  0.10566000000E+00  0.10566000000E+00 0.  1.
     999900   -1    0    0    0    0 -0.00000000000E+00 -0.00000000000E+00 -0.74505805969E-08  0.93827000000E+00  0.93827000000E+00 0. -1.
     999902    2    1    2    0    0 -0.19061935790E-01  0.11749072639E-02  0.15991740310E-01  0.10190206933E+01  0.10187162018E+01 0.  0.
     999903    2    3    3    0    0 -0.34729425118E-01  0.70143193658E-01  0.10378891642E+00  0.13182824579E+00  0.21916811588E-01 0.  0.
         14    1    1    2    0    0  0.19061935790E-01 -0.11749072639E-02 -0.15991740310E-01  0.24909306721E-01  0.00000000000E+00 0. -1.
     999901    1    3    3    0    0  0.15667489328E-01 -0.68968286394E-01 -0.87797176112E-01  0.88719244749E+00  0.88000000000E+00 0. -1.
        -11    1    4    4    0    0 -0.36962653780E-01  0.64903582865E-01  0.10054774440E+00  0.12525503131E+00  0.51100000000E-03 0.  1.
         11    1    4    4    0    0  0.22332286618E-02  0.52396107929E-02  0.32411720190E-02  0.65732144780E-02  0.51100000000E-03 0. -1.
</event>
<event>
 8    1  0.1148488E+005  0.1043930E+01  0.7957747E-01            NaN
         13   -1    0    0    0    0  0.00000000000E+00  0.00000000000E+00  0.74505805969E-08  0.10566000000E+00  0.10566000000E+00 0.  1.
     999900   -1    0    0    0    0 -0.00000000000E+00 -0.00000000000E+00 -0.74505805969E-08  0.93827000000E+00  0.93827000000E+00 0.  1.
     999902    2    1    2    0    0  0.22090770040E-01 -0.13864316445E-01  0.16088501441E-02  0.10177993706E+01  0.10174638810E+01 0.  0.
     999903    2    3    3    0    0  0.93686507072E-01  0.51014418733E-01 -0.71010350577E-01  0.12953772668E+00  0.18918779498E-01 0.  0.
         14    1    1    2    0    0 -0.22090770040E-01  0.13864316445E-01 -0.16088501441E-02  0.26130629350E-01  0.00000000000E+00 0. -1.
     999901    1    3    3    0    0 -0.71595737032E-01 -0.64878735178E-01  0.72619200721E-01  0.88826164397E+00  0.88000000000E+00 0. -1.
        -11    1    4    4    0    0  0.69209382427E-01  0.46344048232E-01 -0.57196970790E-01  0.10104189236E+00  0.51100000000E-03 0.  1.
         11    1    4    4    0    0  0.24477124644E-01  0.46703705006E-02 -0.13813379787E-01  0.28495834320E-01  0.51100000000E-03 0. -1.
</event>
<event>
 8    1  0.1148488E+005  0.1043930E+01  0.7957747E-01            NaN
         13   -1    0    0    0    0  0.00000000000E+00  0.00000000000E+00  0.74505805969E-08  0.10566000000E+00  0.10566000000E+00 0.  1.
     999900   -1    0    0    0    0 -0.00000000000E+00 -0.00000000000E+00 -0.74505805969E-08  0.93827000000E+00  0.93827000000E+00 0.  1.
     999902    2    1    2    0    0 -0.92209825557E-02  0.47456609563E-02 -0.21366694533E-01  0.10201795589E+01  0.10199030586E+01 0.  0.
     999903    2    3    3    0    0 -0.69575689904E-01 -0.98968264492E-02 -0.11157389898E+00  0.13339072673E+00  0.20140189777E-01 0.  0.
         14    1    1    2    0    0  0.92209825557E-02 -0.47456609563E-02  0.21366694533E-01  0.23750441100E-01  0.00000000000E+00 0.  1.
     999901    1    3    3    0    0  0.60354707349E-01  0.14642487405E-01  0.90207204443E-01  0.88678883217E+00  0.88000000000E+00 0.  1.
        -11    1    4    4    0    0 -0.19113414418E-01 -0.11592844182E-01 -0.39494376659E-01  0.45384838389E-01  0.51100000000E-03 0.  1.
         11    1    4    4    0    0 -0.50462275487E-01  0.16960177327E-02 -0.72079522316E-01  0.88005888336E-01  0.51100000000E-03 0. -1.
</event>
<event>
 8    1  0.1148488E+005  0.1043930E+01  0.7957747E-01            NaN
         13   -1    0    0    0    0  0.00000000000E+00  0.00000000000E+00  0.74505805969E-08  0.10566000000E+00  0.10566000000E+00 0. -1.
     999900   -1    0    0    0    0 -0.00000000000E+00 -0.00000000000E+00 -0.74505805969E-08  0.93827000000E+00  0.93827000000E+00 0. -1.
     999902    2    1    2    0    0  0.43786972260E-02  0.17444284726E-01  0.15760560990E-01  0.10200161684E+01  0.10197358052E+01 0.  0.
     999903    2    3    3    0    0 -0.90325080107E-01 -0.28844926042E-01 -0.83857501337E-01  0.12814439801E+00  0.19956361318E-01 0.  0.
         14    1    1    2    0    0 -0.43786972260E-02 -0.17444284726E-01 -0.15760560990E-01  0.23913831598E-01  0.00000000000E+00 0. -1.
     999901    1    3    3    0    0  0.94703777333E-01  0.46289210768E-01  0.99618062326E-01  0.89187177039E+00  0.88000000000E+00 0.  1.
        -11    1    4    4    0    0 -0.45843039167E-01 -0.17267872268E-01 -0.55960177562E-01  0.74374499975E-01  0.51100000000E-03 0.  1.
         11    1    4    4    0    0 -0.44482040940E-01 -0.11577053774E-01 -0.27897323775E-01  0.53769898039E-01  0.51100000000E-03 0. -1.
</event>
<event>
 8    1  0.1148488E+005  0.1043930E+01  0.7957747E-01            NaN
         13   -1    0    0    0    0  0.00000000000E+00  0.00000000000E+00  0.74505805969E-08  0.10566000000E+00  0.10566000000E+00 0. -1.
     999900   -1    0    0    0    0 -0.00000000000E+00 -0.00000000000E+00 -0.74505805969E-08  0.93827000000E+00  0.93827000000E+00 0. -1.
     999902    2    1    2    0    0 -0.10734488200E-01 -0.18766996688E-01  0.82848207808E-02  0.10207768651E+01  0.10205142530E+01 0.  0.
     999903    2    3    3    0    0  0.35537575168E-01 -0.43663053206E-01 -0.11605321475E+00  0.13048429262E+00  0.19708386607E-01 0.  0.
         14    1    1    2    0    0  0.10734488200E-01  0.18766996688E-01 -0.82848207808E-02  0.23153134927E-01  0.00000000000E+00 0. -1.
     999901    1    3    3    0    0 -0.46272063367E-01  0.24896056518E-01  0.12433803553E+00  0.89029257245E+00  0.88000000000E+00 0.  1.
        -11    1    4    4    0    0  0.22286050556E-01 -0.12772352003E-01 -0.57241611017E-01  0.62742841647E-01  0.51100000000E-03 0. -1.
         11    1    4    4    0    0  0.13251524612E-01 -0.30890701203E-01 -0.58811603737E-01  0.67741450977E-01  0.51100000000E-03 0.  1.
</event>
<event>
 8    1  0.1148488E+005  0.1043930E+01  0.7957747E-01            NaN
         13   -1    0    0    0    0  0.00000000000E+00  0.00000000000E+00  0.74505805969E-08  0.10566000000E+00  0.10566000000E+00 0. -1.
     999900   -1    0    0    0    0 -0.00000000000E+00 -0.00000000000E+00 -0.74505805969E-08  0.93827000000E+00  0.93827000000E+00 0.  1.
     999902    2    1    2    0    0  0.21859152616E-01 -0.76021539736E-03 -0.72219729642E-02  0.10208961689E+01  0.10206362870E+01 0.  0.
     999903    2    3    3    0    0 -0.22738362975E-01  0.79845959219E-01 -0.99718995522E-01  0.13126591260E+00  0.19860800300E-01 0.  0.
         14    1    1    2    0    0 -0.21859152616E-01  0.76021539736E-03  0.72219729642E-02  0.23033831076E-01  0.00000000000E+00 0.  1.
     999901    1    3    3    0    0  0.44597515591E-01 -0.80606174617E-01  0.92497022558E-01  0.88963025632E+00  0.88000000000E+00 0. -1.
        -11    1    4    4    0    0 -0.15455206379E-01  0.64158671418E-01 -0.65829542949E-01  0.93214743298E-01  0.51100000000E-03 0.  1.
         11    1    4    4    0    0 -0.72831565966E-02  0.15687287801E-01 -0.33889452573E-01  0.38051169303E-01  0.51100000000E-03 0. -1.
</event>
<event>
 8    1  0.1148488E+005  0.1043930E+01  0.7957747E-01            NaN
         13   -1    0    0    0    0  0.00000000000E+00  0.00000000000E+00  0.74505805969E-08  0.10566000000E+00  0.10566000000E+00 0. -1.
     999900   -1    0    0    0    0 -0.00000000000E+00 -0.00000000000E+00 -0.74505805969E-08  0.93827000000E+00  0.93827000000E+00 0. -1.
     999902    2    1    2    0    0 -0.76846170147E-02  0.11425925711E-01 -0.17811326232E-01  0.10214167048E+01  0.10211685642E+01 0.  0.
     999903    2    3    3    0    0 -0.83849701557E-01 -0.21760587578E-02 -0.10243907526E+00  0.13397769849E+00  0.20512237045E-01 0.  0.
         14    1    1    2    0    0  0.76846170147E-02 -0.11425925711E-01  0.17811326232E-01  0.22513295164E-01  0.00000000000E+00 0. -1.
     999901    1    3    3    0    0  0.76165084543E-01  0.13601984469E-01  0.84627749029E-01  0.88743900635E+00  0.88000000000E+00 0.  1.
        -11    1    4    4    0    0 -0.17966356266E-01  0.37042141878E-02 -0.34966459122E-01  0.39489562479E-01  0.51100000000E-03 0.  1.
         11    1    4    4    0    0 -0.65883345291E-01 -0.58802729456E-02 -0.67472616138E-01  0.94488136008E-01  0.51100000000E-03 0. -1.
</event>
<event>
 8    1  0.1148488E+005  0.1043930E+01  0.7957747E-01            NaN
         13   -1    0    0    0    0  0.00000000000E+00  0.00000000000E+00  0.74505805969E-08  0.10566000000E+00  0.10566000000E+00 0. -1.
     999900   -1    0    0    0    0 -0.00000000000E+00 -0.00000000000E+00 -0.74505805969E-08  0.93827000000E+00  0.93827000000E+00 0.  1.
     999902    2    1    2    0    0 -0.18314103558E-01 -0.14670306584E-01  0.23477298711E-02  0.10203474615E+01  0.10200749022E+01 0.  0.
     999903    2    3    3    0    0 -0.96735357186E-01  0.36625187400E-01 -0.79021377074E-01  0.13163938108E+00  0.19631987515E-01 0.  0.
         14    1    1    2    0    0  0.18314103558E-01  0.14670306584E-01 -0.23477298711E-02  0.23582538455E-01  0.00000000000E+00 0. -1.
     999901    1    3    3    0    0  0.78421253628E-01 -0.51295493984E-01  0.81369106945E-01  0.88870808047E+00  0.88000000000E+00 0. -1.
        -11    1    4    4    0    0 -0.93178997921E-01  0.30546687865E-01 -0.75447151529E-01  0.12372533931E+00  0.51100000000E-03 0.  1.
         11    1    4    4    0    0 -0.35563592653E-02  0.60784995345E-02 -0.35742255444E-02  0.79140417650E-02  0.51100000000E-03 0. -1.
</event>
<event>
 8    1  0.1148488E+005  0.1043930E+01  0.7957747E-01            NaN
         13   -1    0    0    0    0  0.00000000000E+00  0.00000000000E+00  0.74505805969E-08  0.10566000000E+00  0.10566000000E+00 0.  1.
     999900   -1    0    0    0    0 -0.00000000000E+00 -0.00000000000E+00 -0.74505805969E-08  0.93827000000E+00  0.93827000000E+00 0.  1.
     999902    2    1    2    0    0  0.14628832772E-02  0.20487105259E-01 -0.11895450382E-01  0.10201947256E+01  0.10199185825E+01 0.  0.
     999903    2    3    3    0    0  0.31922667926E-01  0.57507556260E-01 -0.11361277670E+00  0.13303931267E+00  0.21573593422E-01 0.  0.
         14    1    1    2    0    0 -0.14628832772E-02 -0.20487105259E-01  0.11895450382E-01  0.23735274364E-01  0.00000000000E+00 0.  1.
     999901    1    3    3    0    0 -0.30459784649E-01 -0.37020451001E-01  0.10171732632E+00  0.88715541296E+00  0.88000000000E+00 0. -1.
        -11    1    4    4    0    0  0.84802911508E-02  0.28614690272E-01 -0.67355243056E-01  0.73672964685E-01  0.51100000000E-03 0.  1.
         11    1    4    4    0    0  0.23442376775E-01  0.28892865988E-01 -0.46257533643E-01  0.59366347990E-01  0.51100000000E-03 0. -1.
</event>
<event>
 8    1  0.1148488E+005  0.1043930E+01  0.7957747E-01            NaN
         13   -1    0    0    0    0  0.00000000000E+00  0.00000000000E+00  0.74505805969E-08  0.10566000000E+00  0.10566000000E+00 0.  1.
     999900   -1    0    0    0    0 -0.00000000000E+00 -0.00000000000E+00 -0.74505805969E-08  0.93827000000E+00  0.93827000000E+00 0.  1.
     999902    2    1    2    0    0 -0.53415888563E-02  0.89628421643E-02 -0.28916096601E-01  0.10131890541E+01  0.10127225946E+01 0.  0.
     999903    2    3    3    0    0  0.26799658496E-01 -0.72932674465E-01 -0.97395528335E-01  0.12615502546E+00  0.19794059938E-01 0.  0.
         14    1    1    2    0    0  0.53415888563E-02 -0.89628421643E-02  0.28916096601E-01  0.30740945883E-01  0.00000000000E+00 0.  1.
     999901    1    3    3    0    0 -0.32141247352E-01  0.81895516630E-01  0.68479431734E-01  0.88703402866E+00  0.88000000000E+00 0. -1.
        -11    1    4    4    0    0  0.16485287385E-01 -0.58753233794E-01 -0.85162073641E-01  0.10476901779E+00  0.51100000000E-03 0. -1.
         11    1    4    4    0    0  0.10314371111E-01 -0.14179440671E-01 -0.12233454694E-01  0.21386007667E-01  0.51100000000E-03 0.  1.
</event>
<event>
 8    1  0.1148488E+005  0.1043930E+01  0.7957747E-01            NaN
         13   -1    0    0    0    0  0.00000000000E+00  0.00000000000E+00  0.74505805969E-08  0.10566000000E+00  0.10566000000E+00 0.  1.
     999900   -1    0    0    0    0 -0.00000000000E+00 -0.00000000000E+00 -0.74505805969E-08  0.93827000000E+00  0.93827000000E+00 0. -1.
     999902    2    1    2    0    0 -0.22497531246E-01 -0.44411336624E-02 -0.72722171904E-02  0.10198728239E+01  0.10195890492E+01 0.  0.
     999903    2    3    3    0    0  0.76123751777E-01  0.46981347266E-01  0.89095872161E-01  0.12765242641E+00  0.18841309816E-01 0.  0.
         14    1    1    2    0    0  0.22497531246E-01  0.44411336624E-02  0.72722171904E-02  0.24057176128E-01  0.00000000000E+00 0.  1.
     999901    1    3    3    0    0 -0.98621283024E-01 -0.51422480929E-01 -0.96368089351E-01  0.89222039747E+00  0.88000000000E+00 0. -1.
        -11    1    4    4    0    0  0.23954875161E-01  0.24797058988E-01  0.38266066477E-01  0.51510029539E-01  0.51100000000E-03 0. -1.
         11    1    4    4    0    0  0.52168876616E-01  0.22184288278E-01  0.50829805683E-01  0.76142396867E-01  0.51100000000E-03 0.  1.
</event>
<event>
 8    1  0.1148488E+005  0.1043930E+01  0.7957747E-01            NaN
         13   -1    0    0    0    0  0.00000000000E+00  0.00000000000E+00  0.74505805969E-08  0.10566000000E+00  0.10566000000E+00 0. -1.
     999900   -1    0    0    0    0 -0.00000000000E+00 -0.00000000000E+00 -0.74505805969E-08  0.93827000000E+00  0.93827000000E+00 0.  1.
     999902    2    1    2    0    0  0.11438633117E-01 -0.12227557384E-01 -0.21720026928E-01  0.10165052838E+01  0.10161352651E+01 0.  0.
     999903    2    3    3    0    0 -0.90978258548E-01 -0.35989745346E-01  0.74941772505E-01  0.12499119828E+00  0.20838068092E-01 0.  0.
         14    1    1    2    0    0 -0.11438633117E-01  0.12227557384E-01  0.21720026928E-01  0.27424716168E-01  0.00000000000E+00 0. -1.
     999901    1    3    3    0    0  0.10241689166E+00  0.23762187962E-01 -0.96661799433E-01  0.89151408556E+00  0.88000000000E+00 0.  1.
        -11    1    4    4    0    0 -0.15571280901E-01 -0.13439165713E-01  0.96453173333E-02  0.22723759183E-01  0.51100000000E-03 0. -1.
         11    1    4    4    0    0 -0.75406977647E-01 -0.22550579634E-01  0.65296455172E-01  0.10226743909E+00  0.51100000000E-03 0.  1.
</event>
<event>
 8    1  0.1148488E+005  0.1043930E+01  0.7957747E-01            NaN
         13   -1    0    0    0    0  0.00000000000E+00  0.00000000000E+00  0.74505805969E-08  0.10566000000E+00  0.10566000000E+00 0. -1.
     999900   -1    0    0    0    0 -0.00000000000E+00 -0.00000000000E+00 -0.74505805969E-08  0.93827000000E+00  0.93827000000E+00 0.  1.
     999902    2    1    2    0    0  0.17304999333E-01  0.72190075939E-03 -0.15403328120E-01  0.10207514181E+01  0.10204882218E+01 0.  0.
     999903    2    3    3    0    0 -0.10829043637E+00 -0.64416530333E-01 -0.21429711264E-01  0.12943018195E+00  0.20411552750E-01 0.  0.
         14    1    1    2    0    0 -0.17304999333E-01 -0.72190075939E-03  0.15403328120E-01  0.23178581920E-01  0.00000000000E+00 0.  1.
     999901    1    3    3    0    0  0.12559543571E+00  0.65138431093E-01  0.60263831440E-02  0.89132123613E+00  0.88000000000E+00 0.  1.
        -11    1    4    4    0    0 -0.89311449091E-01 -0.48232256843E-01 -0.24140357365E-01  0.10433553332E+00  0.51100000000E-03 0.  1.
         11    1    4    4    0    0 -0.18978987283E-01 -0.16184273490E-01  0.27106461010E-02  0.25094648632E-01  0.51100000000E-03 0. -1.
</event>
<event>
 8    1  0.1148488E+005  0.1043930E+01  0.7957747E-01            NaN
         13   -1    0    0    0    0  0.00000000000E+00  0.00000000000E+00  0.74505805969E-08  0.10566000000E+00  0.10566000000E+00 0.  1.
     999900   -1    0    0    0    0 -0.00000000000E+00 -0.00000000000E+00 -0.74505805969E-08  0.93827000000E+00  0.93827000000E+00 0.  1.
     999902    2    1    2    0    0 -0.22872544312E-01  0.51010337557E-02  0.13042706187E-02  0.10204592746E+01  0.10201893237E+01 0.  0.
     999903    2    3    3    0    0 -0.12392001816E+00 -0.43592418162E-01  0.14052430113E-01  0.13324782303E+00  0.17350554132E-01 0.  0.
         14    1    1    2    0    0  0.22872544312E-01 -0.51010337557E-02 -0.13042706187E-02  0.23470725394E-01  0.00000000000E+00 0. -1.
     999901    1    3    3    0    0  0.10104747385E+00  0.48693451918E-01 -0.12748159494E-01  0.88721145157E+00  0.88000000000E+00 0. -1.
        -11    1    4    4    0    0 -0.31960694746E-01 -0.53553380032E-02  0.84663636663E-02  0.33497851998E-01  0.51100000000E-03 0. -1.
         11    1    4    4    0    0 -0.91959323415E-01 -0.38237080159E-01  0.55860664462E-02  0.99749971035E-01  0.51100000000E-03 0.  1.
</event>
<event>
 8    1  0.1148488E+005  0.1043930E+01  0.7957747E-01            NaN
         13   -1    0    0    0    0  0.00000000000E+00  0.00000000000E+00  0.74505805969E-08  0.10566000000E+00  0.10566000000E+00 0.  1.
     999900   -1    0    0    0    0 -0.00000000000E+00 -0.00000000000E+00 -0.74505805969E-08  0.93827000000E+00  0.93827000000E+00 0.  1.
     999902    2    1    2    0    0  0.20418507091E-01 -0.85287872220E-02 -0.12412141333E-01  0.10185584235E+01  0.10182423803E+01 0.  0.
     999903    2    3    3    0    0  0.10827405220E+00 -0.70330257580E-01 -0.17870411057E-01  0.13201016688E+00  0.20921688717E-01 0.  0.
         14    1    1    2    0    0 -0.20418507091E-01  0.85287872220E-02  0.12412141333E-01  0.25371576533E-01  0.00000000000E+00 0.  1.
     999901    1    3    3    0    0 -0.87855545105E-01  0.61801470358E-01  0.54582697241E-02  0.88654825658E+00  0.88000000000E+00 0. -1.
        -11    1    4    4    0    0  0.21301691183E-01 -0.16191822431E-01 -0.12185122456E-01  0.29405365006E-01  0.51100000000E-03 0.  1.
         11    1    4    4    0    0  0.86972361013E-01 -0.54138435149E-01 -0.56852886011E-02  0.10260480188E+00  0.51100000000E-03 0. -1.
</event>
<event>
 8    1  0.1148488E+005  0.1043930E+01  0.7957747E-01            NaN
         13   -1    0    0    0    0  0.00000000000E+00  0.00000000000E+00  0.74505805969E-08  0.10566000000E+00  0.10566000000E+00 0.  1.
     999900   -1    0    0    0    0 -0.00000000000E+00 -0.00000000000E+00 -0.74505805969E-08  0.93827000000E+00  0.93827000000E+00 0.  1.
     999902    2    1    2    0    0 -0.15524232993E-01 -0.10684088520E-01 -0.13665568806E-01  0.10206512688E+01  0.10203857668E+01 0.  0.
     999903    2    3    3    0    0  0.27541983864E-01  0.38824976165E-01 -0.12126324190E+00  0.13167258185E+00  0.19156078013E-01 0.  0.
         14    1    1    2    0    0  0.15524232993E-01  0.10684088520E-01  0.13665568806E-01  0.23278731244E-01  0.00000000000E+00 0.  1.
     999901    1    3    3    0    0 -0.43066216857E-01 -0.49509064686E-01  0.10759767310E+00  0.88897868691E+00  0.88000000000E+00 0. -1.
        -11    1    4    4    0    0  0.19680236598E-01  0.37592687449E-01 -0.91530891291E-01  0.10088947935E+00  0.51100000000E-03 0.  1.
         11    1    4    4    0    0  0.78617472656E-02  0.12322887161E-02 -0.29732350611E-01  0.30783102498E-01  0.51100000000E-03 0. -1.
</event>
<event>
 8    1  0.1148488E+005  0.1043930E+01  0.7957747E-01            NaN
         13   -1    0    0    0    0  0.00000000000E+00  0.00000000000E+00  0.74505805969E-08  0.10566000000E+00  0.10566000000E+00 0. -1.
     999900   -1    0    0    0    0 -0.00000000000E+00 -0.00000000000E+00 -0.74505805969E-08  0.93827000000E+00  0.93827000000E+00 0. -1.
     999902    2    1    2    0    0  0.14920079037E-01 -0.13666665279E-01  0.12057167893E-01  0.10203766182E+01  0.10201047403E+01 0.  0.
     999903    2    3    3    0    0 -0.16056997349E-01 -0.82365762043E-01  0.10072814503E+00  0.13271582296E+00  0.20624852542E-01 0.  0.
         14    1    1    2    0    0 -0.14920079037E-01  0.13666665279E-01 -0.12057167893E-01  0.23553381837E-01  0.00000000000E+00 0. -1.
     999901    1    3    3    0    0  0.30977076386E-01  0.68699096764E-01 -0.88670977133E-01  0.88766079520E+00  0.88000000000E+00 0. -1.
        -11    1    4    4    0    0  0.36018376062E-03 -0.42656109182E-01  0.59082223217E-01  0.72874162802E-01  0.51100000000E-03 0. -1.
         11    1    4    4    0    0 -0.16417181109E-01 -0.39709652861E-01  0.41645921810E-01  0.59841660156E-01  0.51100000000E-03 0.  1.
</event>
<event>
 8    1  0.1148488E+005  0.1043930E+01  0.7957747E-01            NaN
         13   -1    0    0    0    0  0.00000000000E+00  0.00000000000E+00  0.74505805969E-08  0.10566000000E+00  0.10566000000E+00 0. -1.
     999900   -1    0    0    0    0 -0.00000000000E+00 -0.00000000000E+00 -0.74505805969E-08  0.93827000000E+00  0.93827000000E+00 0. -1.
     999902    2    1    2    0    0 -0.15486580928E-01  0.64849633729E-02 -0.17694075371E-01  0.10195380087E+01  0.10192461831E+01 0.  0.
     999903    2    3    3    0    0 -0.21615031226E-01 -0.10075789499E+00  0.73697570342E-01  0.12830794773E+00  0.20303561249E-01 0.  0.
         14    1    1    2    0    0  0.15486580928E-01 -0.64849633729E-02  0.17694075371E-01  0.24391991350E-01  0.00000000000E+00 0. -1.
     999901    1    3    3    0    0  0.61284502987E-02  0.10724285836E+00 -0.91391645713E-01  0.89123006092E+00  0.88000000000E+00 0. -1.
        -11    1    4    4    0    0 -0.11016441586E-01 -0.28650739025E-01  0.12531889349E-01  0.33159255172E-01  0.51100000000E-03 0. -1.
         11    1    4    4    0    0 -0.10598589641E-01 -0.72107155966E-01  0.61165680993E-01  0.95148692562E-01  0.51100000000E-03 0.  1.
</event>
<event>
 8    1  0.1148488E+005  0.1043930E+01  0.7957747E-01            NaN
         13   -1    0    0    0    0  0.00000000000E+00  0.00000000000E+00  0.74505805969E-08  0.10566000000E+00  0.10566000000E+00 0.  1.
     999900   -1    0    0    0    0 -0.00000000000E+00 -0.00000000000E+00 -0.74505805969E-08  0.93827000000E+00  0.93827000000E+00 0. -1.
     999902    2    1    2    0    0  0.12556902008E-01  0.15240477363E-01  0.13063258283E-01  0.10202530776E+01  0.10199783065E+01 0.  0.
     999903    2    3    3    0    0 -0.77497887517E-01  0.35707833576E-01 -0.94168492341E-01  0.12894649389E+00  0.21875131742E-01 0.  0.
         14    1    1    2    0    0 -0.12556902008E-01 -0.15240477363E-01 -0.13063258283E-01  0.23676922419E-01  0.00000000000E+00 0. -1.
     999901    1    3    3    0    0  0.90054789524E-01 -0.20467356213E-01  0.10723175062E+00  0.89130658369E+00  0.88000000000E+00 0.  1.
        -11    1    4    4    0    0 -0.49148432215E-01  0.30578674673E-01 -0.73136508780E-01  0.93272899448E-01  0.51100000000E-03 0.  1.
         11    1    4    4    0    0 -0.28349455301E-01  0.51291589027E-02 -0.21031983562E-01  0.35673594443E-01  0.51100000000E-03 0. -1.
</event>
<event>
 8    1  0.1148488E+005  0.1043930E+01  0.7957747E-01            NaN
         13   -1    0    0    0    0  0.00000000000E+00  0.00000000000E+00  0.74505805969E-08  0.10566000000E+00  0.10566000000E+00 0.  1.
     999900   -1    0    0    0    0 -0.00000000000E+00 -0.00000000000E+00 -0.74505805969E-08  0.93827000000E+00  0.93827000000E+00 0. -1.
     999902    2    1    2    0    0  0.19664996639E-01  0.13693942729E-01  0.11454902605E-02  0.10199394121E+01  0.10196572248E+01 0.  0.
     999903    2    3    3    0    0 -0.47686556230E-01 -0.64194549032E-01 -0.98210836333E-01  0.12838205081E+00  0.21015109466E-01 0.  0.
         14    1    1    2    0    0 -0.19664996639E-01 -0.13693942729E-01 -0.11454902605E-02  0.23990587909E-01  0.00000000000E+00 0. -1.
     999901    1    3    3    0    0  0.67351552869E-01  0.77888491762E-01  0.99356326594E-01  0.89155736128E+00  0.88000000000E+00 0.  1.
        -11    1    4    4    0    0 -0.26924247015E-01 -0.40049886312E-01 -0.42973830565E-01  0.64621356418E-01  0.51100000000E-03 0.  1.
         11    1    4    4    0    0 -0.20762309216E-01 -0.24144662721E-01 -0.55237005769E-01  0.63760694390E-01  0.51100000000E-03 0. -1.
</event>
<event>
 8    1  0.1148488E+005  0.1043930E+01  0.7957747E-01            NaN
         13   -1    0    0    0    0  0.00000000000E+00  0.00000000000E+00  0.74505805969E-08  0.10566000000E+00  0.10566000000E+00 0.  1.
     999900   -1    0    0    0    0 -0.00000000000E+00 -0.00000000000E+00 -0.74505805969E-08  0.93827000000E+00  0.93827000000E+00 0.  1.
     999902    2    1    2    0    0 -0.26894901248E-02 -0.16341638863E-01  0.17506911321E-01  0.10198307373E+01  0.10195459569E+01 0.  0.
     999903    2    3    3    0    0 -0.98151871105E-01 -0.74296125869E-01 -0.40325818739E-01  0.13088956187E+00  0.18767035667E-01 0.  0.
         14    1    1    2    0    0  0.26894901248E-02  0.16341638863E-01 -0.17506911321E-01  0.24099262683E-01  0.00000000000E+00 0. -1.
     999901    1    3    3    0    0  0.95462380980E-01  0.57954487006E-01  0.57832730061E-01  0.88894117545E+00  0.88000000000E+00 0. -1.
        -11    1    4    4    0    0 -0.27613634004E-01 -0.31587382311E-01 -0.11103069892E-01  0.43402935226E-01  0.51100000000E-03 0.  1.
         11    1    4    4    0    0 -0.70538237100E-01 -0.42708743558E-01 -0.29222748847E-01  0.87486626639E-01  0.51100000000E-03 0. -1.
</event>
<event>
 8    1  0.1148488E+005  0.1043930E+01  0.7957747E-01            NaN
         13   -1    0    0    0    0  0.00000000000E+00  0.00000000000E+00  0.74505805969E-08  0.10566000000E+00  0.10566000000E+00 0. -1.
     999900   -1    0    0    0    0 -0.00000000000E+00 -0.00000000000E+00 -0.74505805969E-08  0.93827000000E+00  0.93827000000E+00 0.  1.
     999902    2    1    2    0    0  0.23807620102E-01 -0.14295248114E-02  0.45933535758E-03  0.10200750780E+01  0.10197961107E+01 0.  0.
     999903    2    3    3    0    0  0.23491003158E-01  0.12123574542E+00  0.34117511507E-01  0.13092956592E+00  0.26992840616E-01 0.  0.
         14    1    1    2    0    0 -0.23807620102E-01  0.14295248114E-02 -0.45933535758E-03  0.23854922031E-01  0.00000000000E+00 0.  1.
     999901    1    3    3    0    0  0.31661694458E-03 -0.12266527023E+00 -0.33658176150E-01  0.88914551204E+00  0.88000000000E+00 0.  1.
        -11    1    4    4    0    0  0.26267522892E-03  0.33082769689E-02  0.69270461505E-02  0.76979727299E-02  0.51100000000E-03 0. -1.
         11    1    4    4    0    0  0.23228327929E-01  0.11792746845E+00  0.27190465357E-01  0.12323159319E+00  0.51100000000E-03 0.  1.
</event>
<event>
 8    1  0.1148488E+005  0.1043930E+01  0.7957747E-01            NaN
         13   -1    0    0    0    0  0.00000000000E+00  0.00000000000E+00  0.74505805969E-08  0.10566000000E+00  0.10566000000E+00 0.  1.
     999900   -1    0    0    0    0 -0.00000000000E+00 -0.00000000000E+00 -0.74505805969E-08  0.93827000000E+00  0.93827000000E+00 0. -1.
     999902    2    1    2    0    0 -0.25661321454E-02  0.19406946122E-01  0.16338832396E-01  0.10184315288E+01  0.10181122761E+01 0.  0.
     999903    2    3    3    0    0  0.88727765336E-02  0.12894775798E+00 -0.95289066632E-02  0.13118907146E+00  0.20335239277E-01 0.  0.
         14    1    1    2    0    0  0.25661321454E-02 -0.19406946122E-01 -0.16338832396E-01  0.25498471250E-01  0.00000000000E+00 0. -1.
     999901    1    3    3    0    0 -0.11438908679E-01 -0.10954081186E+00  0.25867739060E-01  0.88724245729E+00  0.88000000000E+00 0. -1.
        -11    1    4    4    0    0  0.11937627606E-01  0.49425742349E-01  0.13427477091E-02  0.50867229648E-01  0.51100000000E-03 0.  1.
         11    1    4    4    0    0 -0.30648510724E-02  0.79522015632E-01 -0.10871654372E-01  0.80321841812E-01  0.51100000000E-03 0. -1.
</event>
<event>
 8    1  0.1148488E+005  0.1043930E+01  0.7957747E-01            NaN
         13   -1    0    0    0    0  0.00000000000E+00  0.00000000000E+00  0.74505805969E-08  0.10566000000E+00  0.10566000000E+00 0.  1.
     999900   -1    0    0    0    0 -0.00000000000E+00 -0.00000000000E+00 -0.74505805969E-08  0.93827000000E+00  0.93827000000E+00 0.  1.
     999902    2    1    2    0    0 -0.19879329449E-01  0.10514078302E-01 -0.10954951796E-01  0.10189151134E+01  0.10186080030E+01 0.  0.
     999903    2    3    3    0    0  0.19877158707E-01  0.48214231958E-01  0.11551032049E+00  0.12818768876E+00  0.19228515529E-01 0.  0.
         14    1    1    2    0    0  0.19879329449E-01 -0.10514078302E-01  0.10954951796E-01  0.25014886582E-01  0.00000000000E+00 0.  1.
     999901    1    3    3    0    0 -0.39756488156E-01 -0.37700153655E-01 -0.12646527229E+00  0.89072742465E+00  0.88000000000E+00 0.  1.
        -11    1    4    4    0    0  0.14569655058E-01  0.22477250680E-01  0.39223060646E-01  0.47499592147E-01  0.51100000000E-03 0.  1.
         11    1    4    4    0    0  0.53075036491E-02  0.25736981278E-01  0.76287259843E-01  0.80688096617E-01  0.51100000000E-03 0. -1.
</event>
<event>
 8    1  0.1148488E+005  0.1043930E+01  0.7957747E-01            NaN
         13   -1    0    0    0    0  0.00000000000E+00  0.00000000000E+00  0.74505805969E-08  0.10566000000E+00  0.10566000000E+00 0. -1.
     999900   -1    0    0    0    0 -0.00000000000E+00 -0.00000000000E+00 -0.74505805969E-08  0.93827000000E+00  0.93827000000E+00 0.  1.
     999902    2    1    2    0    0 -0.14059654411E-02 -0.13786914300E-01 -0.26459793130E-01  0.10140606780E+01  0.10136206797E+01 0.  0.
     999903    2    3    3    0    0  0.10012574043E+00  0.36516538067E-01 -0.64120176847E-01  0.12599681254E+00  0.20129039780E-01 0.  0.
         14    1    1    2    0    0  0.14059654411E-02  0.13786914300E-01  0.26459793130E-01  0.29869322008E-01  0.00000000000E+00 0. -1.
     999901    1    3    3    0    0 -0.10153170587E+00 -0.50303452366E-01  0.37660383716E-01  0.88806386545E+00  0.88000000000E+00 0. -1.
        -11    1    4    4    0    0  0.70774853338E-01  0.32967465951E-01 -0.53180894168E-01  0.94469054731E-01  0.51100000000E-03 0.  1.
         11    1    4    4    0    0  0.29350887093E-01  0.35490721155E-02 -0.10939282679E-01  0.31527757810E-01  0.51100000000E-03 0. -1.
</event>
<event>
 8    1  0.1148488E+005  0.1043930E+01  0.7957747E-01            NaN
         13   -1    0    0    0    0  0.00000000000E+00  0.00000000000E+00  0.74505805969E-08  0.10566000000E+00  0.10566000000E+00 0. -1.
     999900   -1    0    0    0    0 -0.00000000000E+00 -0.00000000000E+00 -0.74505805969E-08  0.93827000000E+00  0.93827000000E+00 0. -1.
     999902    2    1    2    0    0  0.53363644265E-02 -0.22405028117E-01 -0.19604086032E-02  0.10208149557E+01  0.10205532169E+01 0.  0.
     999903    2    3    3    0    0 -0.90168378387E-02  0.11045599369E+00  0.61807868449E-01  0.12844482024E+00  0.19900485883E-01 0.  0.
         14    1    1    2    0    0 -0.53363644265E-02  0.22405028117E-01  0.19604086032E-02  0.23115044281E-01  0.00000000000E+00 0. -1.
     999901    1    3    3    0    0  0.14353202265E-01 -0.13286102181E+00 -0.63768277053E-01  0.89237013548E+00  0.88000000000E+00 0. -1.
        -11    1    4    4    0    0  0.94609950540E-03  0.22410078308E-01  0.21586020091E-01  0.31133970167E-01  0.51100000000E-03 0. -1.
         11    1    4    4    0    0 -0.99629373441E-02  0.88045915383E-01  0.40221848358E-01  0.97310850076E-01  0.51100000000E-03 0.  1.
</event>
<event>
 8    1  0.1148488E+005  0.1043930E+01  0.7957747E-01            NaN
         13   -1    0    0    0    0  0.00000000000E+00  0.00000000000E+00  0.74505805969E-08  0.10566000000E+00  0.10566000000E+00 0. -1.
     999900   -1    0    0    0    0 -0.00000000000E+00 -0.00000000000E+00 -0.74505805969E-08  0.93827000000E+00  0.93827000000E+00 0.  1.
     999902    2    1    2    0    0  0.11012127188E-01 -0.13467376167E-01 -0.15645291498E-01  0.10205331559E+01  0.10202649215E+01 0.  0.
     999903    2    3    3    0    0 -0.36330012788E-01 -0.12519223115E+00 -0.10793799155E-01  0.13219354835E+00  0.19122331303E-01 0.  0.
         14    1    1    2    0    0 -0.11012127188E-01  0.13467376167E-01  0.15645291498E-01  0.23396844062E-01  0.00000000000E+00 0.  1.
     999901    1    3    3    0    0  0.47342139976E-01  0.11172485498E+00 -0.48514923427E-02  0.88833960759E+00  0.88000000000E+00 0.  1.
        -11    1    4    4    0    0 -0.43053838152E-02 -0.11008041306E-01  0.44215135082E-02  0.12630289225E-01  0.51100000000E-03 0. -1.
         11    1    4    4    0    0 -0.32024628973E-01 -0.11418418984E+00 -0.15215312663E-01  0.11956325912E+00  0.51100000000E-03 0.  1.
</event>
<event>
 8    1  0.1148488E+005  0.1043930E+01  0.7957747E-01            NaN
         13   -1    0    0    0    0  0.00000000000E+00  0.00000000000E+00  0.74505805969E-08  0.10566000000E+00  0.10566000000E+00 0.  1.
     999900   -1    0    0    0    0 -0.00000000000E+00 -0.00000000000E+00 -0.74505805969E-08  0.93827000000E+00  0.93827000000E+00 0.  1.
     999902    2    1    2    0    0  0.52865163013E-02  0.13215658711E-01 -0.19288542667E-01  0.10199581672E+01  0.10196764262E+01 0.  0.
     999903    2    3    3    0    0  0.23329062228E-03 -0.11783343431E+00 -0.50593213781E-01  0.12968889203E+00  0.19358790467E-01 0.  0.
         14    1    1    2    0    0 -0.52865163013E-02 -0.13215658711E-01  0.19288542667E-01  0.23971832804E-01  0.00000000000E+00 0.  1.
     999901    1    3    3    0    0  0.50532256790E-02  0.13104909302E+00  0.31304671114E-01  0.89026927517E+00  0.88000000000E+00 0. -1.
        -11    1    4    4    0    0 -0.72439093474E-02 -0.19850761806E-01 -0.84200886832E-02  0.22752713714E-01  0.51100000000E-03 0. -1.
         11    1    4    4    0    0  0.74771999697E-02 -0.97982672508E-01 -0.42173125098E-01  0.10693617832E+00  0.51100000000E-03 0.  1.
</event>
<event>
 8    1  0.1148488E+005  0.1043930E+01  0.7957747E-01            NaN
         13   -1    0    0    0    0  0.00000000000E+00  0.00000000000E+00  0.74505805969E-08  0.10566000000E+00  0.10566000000E+00 0.  1.
     999900   -1    0    0    0    0 -0.00000000000E+00 -0.00000000000E+00 -0.74505805969E-08  0.93827000000E+00  0.93827000000E+00 0. -1.
     999902    2    1    2    0    0  0.37418930977E-02  0.14356316229E-01  0.85006496682E-02  0.10268312683E+01  0.10266888950E+01 0.  0.
     999903    2    3    3    0    0  0.11259691109E+00  0.38336891470E-01 -0.64606054534E-01  0.13679246406E+00  0.19759916622E-01 0.  0.
         14    1    1    2    0    0 -0.37418930977E-02 -0.14356316229E-01 -0.85006496682E-02  0.17098731661E-01  0.00000000000E+00 0.  1.
     999901    1    3    3    0    0 -0.10885501799E+00 -0.23980575241E-01  0.73106704202E-01  0.89003880428E+00  0.88000000000E+00 0.  1.
        -11    1    4    4    0    0  0.57204580223E-01  0.29873058136E-01 -0.34520151801E-01  0.73189245127E-01  0.51100000000E-03 0. -1.
         11    1    4    4    0    0  0.55392330869E-01  0.84638333338E-02 -0.30085902733E-01  0.63603218929E-01  0.51100000000E-03 0.  1.
</event>
<event>
 8    1  0.1148488E+005  0.1043930E+01  0.7957747E-01            NaN
         13   -1    0    0    0    0  0.00000000000E+00  0.00000000000E+00  0.74505805969E-08  0.10566000000E+00  0.10566000000E+00 0.  1.
     999900   -1    0    0    0    0 -0.00000000000E+00 -0.00000000000E+00 -0.74505805969E-08  0.93827000000E+00  0.93827000000E+00 0.  1.
     999902    2    1    2    0    0  0.21277517324E-01 -0.10999757551E-01  0.43048139834E-02  0.10195936315E+01  0.10193031514E+01 0.  0.
     999903    2    3    3    0    0 -0.10017689434E+00 -0.65133160124E-01  0.43457667703E-01  0.12874316964E+00  0.20211287433E-01 0.  0.
         14    1    1    2    0    0 -0.21277517324E-01  0.10999757551E-01 -0.43048139834E-02  0.24336368527E-01  0.00000000000E+00 0.  1.
     999901    1    3    3    0    0  0.12145441167E+00  0.54133402573E-01 -0.39152853719E-01  0.89085046183E+00  0.88000000000E+00 0.  1.
        -11    1    4    4    0    0 -0.33802759020E-01 -0.12068725157E-01  0.87409472107E-02  0.36945174562E-01  0.51100000000E-03 0.  1.
         11    1    4    4    0    0 -0.66374135323E-01 -0.53064434966E-01  0.34716720492E-01  0.91797995081E-01  0.51100000000E-03 0. -1.
</event>
<event>
 8    1  0.1148488E+005  0.1043930E+01  0.7957747E-01            NaN
         13   -1    0    0    0    0  0.00000000000E+00  0.00000000000E+00  0.74505805969E-08  0.10566000000E+00  0.10566000000E+00 0. -1.
     999900   -1    0    0    0    0 -0.00000000000E+00 -0.00000000000E+00 -0.74505805969E-08  0.93827000000E+00  0.93827000000E+00 0. -1.
     999902    2    1    2    0    0 -0.89171386200E-02  0.19922265713E-01 -0.10622440835E-01  0.10196555632E+01  0.10193665775E+01 0.  0.
     999903    2    3    3    0    0  0.97435260148E-01 -0.62662149161E-01  0.48876156102E-01  0.12742739657E+00  0.20704779729E-01 0.  0.
         14    1    1    2    0    0  0.89171386200E-02 -0.19922265713E-01  0.10622440835E-01  0.24274436793E-01  0.00000000000E+00 0.  1.
     999901    1    3    3    0    0 -0.10635239877E+00  0.82584414874E-01 -0.59498596937E-01  0.89222816664E+00  0.88000000000E+00 0.  1.
        -11    1    4    4    0    0  0.47072242479E-01 -0.19958098161E-01  0.15437414074E-01  0.53410640967E-01  0.51100000000E-03 0.  1.
         11    1    4    4    0    0  0.50363017669E-01 -0.42704050999E-01  0.33438742028E-01  0.74016755603E-01  0.51100000000E-03 0. -1.
</event>
<event>
 8    1  0.1148488E+005  0.1043930E+01  0.7957747E-01            NaN
         13   -1    0    0    0    0  0.00000000000E+00  0.00000000000E+00  0.74505805969E-08  0.10566000000E+00  0.10566000000E+00 0. -1.
     999900   -1    0    0    0    0 -0.00000000000E+00 -0.00000000000E+00 -0.74505805969E-08  0.93827000000E+00  0.93827000000E+00 0. -1.
     999902    2    1    2    0    0 -0.53727416897E-02  0.43256515786E-03 -0.22756570755E-01  0.10205437866E+01  0.10202757987E+01 0.  0.
     999903    2    3    3    0    0  0.75644854456E-01 -0.96887354735E-02 -0.10699216513E+00  0.13275894385E+00  0.19015734854E-01 0.  0.
         14    1    1    2    0    0  0.53727416897E-02 -0.43256515786E-03  0.22756570755E-01  0.23386213426E-01  0.00000000000E+00 0. -1.
     999901    1    3    3    0    0 -0.81017596146E-01  0.10121300631E-01  0.84235594375E-01  0.88778484272E+00  0.88000000000E+00 0.  1.
        -11    1    4    4    0    0  0.31809309024E-01 -0.94313943353E-02 -0.59494081993E-01  0.68121877931E-01  0.51100000000E-03 0. -1.
         11    1    4    4    0    0  0.43835545433E-01 -0.25734113815E-03 -0.47498083137E-01  0.64637065918E-01  0.51100000000E-03 0.  1.
</event>
<event>
 8    1  0.1148488E+005  0.1043930E+01  0.7957747E-01            NaN
         13   -1    0    0    0    0  0.00000000000E+00  0.00000000000E+00  0.74505805969E-08  0.10566000000E+00  0.10566000000E+00 0. -1.
     999900   -1    0    0    0    0 -0.00000000000E+00 -0.00000000000E+00 -0.74505805969E-08  0.93827000000E+00  0.93827000000E+00 0.  1.
     999902    2    1    2    0    0 -0.22805270491E-01  0.32717822445E-02 -0.62126947397E-02  0.10200682629E+01  0.10197891343E+01 0.  0.
     999903    2    3    3    0    0  0.10509980227E+00 -0.36915014297E-01 -0.60332295729E-01  0.12827029393E+00  0.20114563890E-01 0.  0.
         14    1    1    2    0    0  0.22805270491E-01 -0.32717822445E-02  0.62126947397E-02  0.23861737094E-01  0.00000000000E+00 0.  1.
     999901    1    3    3    0    0 -0.12790507276E+00  0.40186796542E-01  0.54119600989E-01  0.89179796897E+00  0.88000000000E+00 0.  1.
        -11    1    4    4    0    0  0.43051585693E-01 -0.18402509510E-01 -0.14780383954E-01  0.49100022992E-01  0.51100000000E-03 0.  1.
         11    1    4    4    0    0  0.62048216574E-01 -0.18512504787E-01 -0.45551911775E-01  0.79170270941E-01  0.51100000000E-03 0. -1.
</event>
<event>
 8    1  0.1148488E+005  0.1043930E+01  0.7957747E-01            NaN
         13   -1    0    0    0    0  0.00000000000E+00  0.00000000000E+00  0.74505805969E-08  0.10566000000E+00  0.10566000000E+00 0. -1.
     999900   -1    0    0    0    0 -0.00000000000E+00 -0.00000000000E+00 -0.74505805969E-08  0.93827000000E+00  0.93827000000E+00 0. -1.
     999902    2    1    2    0    0 -0.11049864670E-01  0.11058962340E-01  0.15846699256E-01  0.10216697656E+01  0.10214272328E+01 0.  0.
     999903    2    3    3    0    0  0.11716291653E+00  0.43766971182E-01 -0.29246915851E-01  0.13063566682E+00  0.23824327538E-01 0.  0.
         14    1    1    2    0    0  0.11049864670E-01 -0.11058962340E-01 -0.15846699256E-01  0.22260234378E-01  0.00000000000E+00 0.  1.
     999901    1    3    3    0    0 -0.12821278120E+00 -0.32708008842E-01  0.45093615108E-01  0.89103409880E+00  0.88000000000E+00 0.  1.
        -11    1    4    4    0    0  0.23179120220E-01  0.11607765404E-01 -0.15881763315E-01  0.30405646825E-01  0.51100000000E-03 0.  1.
         11    1    4    4    0    0  0.93983796308E-01  0.32159205779E-01 -0.13365152536E-01  0.10023001999E+00  0.51100000000E-03 0. -1.
</event>
<event>
 8    1  0.1148488E+005  0.1043930E+01  0.7957747E-01            NaN
         13   -1    0    0    0    0  0.00000000000E+00  0.00000000000E+00  0.74505805969E-08  0.10566000000E+00  0.10566000000E+00 0. -1.
     999900   -1    0    0    0    0 -0.00000000000E+00 -0.00000000000E+00 -0.74505805969E-08  0.93827000000E+00  0.93827000000E+00 0.  1.
     999902    2    1    2    0    0 -0.24526130736E-01  0.77241753140E-02 -0.73660896431E-02  0.10171820421E+01  0.10168302973E+01 0.  0.
     999903    2    3    3    0    0  0.66908108000E-01 -0.42874204791E-01  0.94656583209E-01  0.12514558444E+00  0.19663575666E-01 0.  0.
         14    1    1    2    0    0  0.24526130736E-01 -0.77241753140E-02  0.73660896431E-02  0.26747957862E-01  0.00000000000E+00 0.  1.
     999901    1    3    3    0    0 -0.91434238735E-01  0.50598380105E-01 -0.10202267285E+00  0.89203645770E+00  0.88000000000E+00 0.  1.
        -11    1    4    4    0    0  0.24319521907E-01 -0.13220227577E-01  0.47727475240E-01  0.55175960135E-01  0.51100000000E-03 0. -1.
         11    1    4    4    0    0  0.42588586093E-01 -0.29653977214E-01  0.46929107969E-01  0.69969624308E-01  0.51100000000E-03 0.  1.
</event>
<event>
 8    1  0.1148488E+005  0.1043930E+01  0.7957747E-01            NaN
         13   -1    0    0    0    0  0.00000000000E+00  0.00000000000E+00  0.74505805969E-08  0.10566000000E+00  0.10566000000E+00 0. -1.
     999900   -1    0    0    0    0 -0.00000000000E+00 -0.00000000000E+00 -0.74505805969E-08  0.93827000000E+00  0.93827000000E+00 0. -1.
     999902    2    1    2    0    0  0.17074019856E-01  0.14796046655E-02  0.17662063452E-01  0.10193198422E+01  0.10190227086E+01 0.  0.
     999903    2    3    3    0    0 -0.21257113937E-01  0.80291599085E-01  0.99585774842E-01  0.13118015676E+00  0.19806594847E-01 0.  0.
         14    1    1    2    0    0 -0.17074019856E-01 -0.14796046655E-02 -0.17662063452E-01  0.24610157850E-01  0.00000000000E+00 0.  1.
     999901    1    3    3    0    0  0.38331133793E-01 -0.78811994419E-01 -0.81923711390E-01  0.88813968539E+00  0.88000000000E+00 0. -1.
        -11    1    4    4    0    0 -0.30093899892E-05  0.24603687714E-01  0.19794581828E-01  0.31582084303E-01  0.51100000000E-03 0.  1.
         11    1    4    4    0    0 -0.21254104547E-01  0.55687911370E-01  0.79791193015E-01  0.99598072454E-01  0.51100000000E-03 0. -1.
</event>
<event>
 8    1  0.1148488E+005  0.1043930E+01  0.7957747E-01            NaN
         13   -1    0    0    0    0  0.00000000000E+00  0.00000000000E+00  0.74505805969E-08  0.10566000000E+00  0.10566000000E+00 0.  1.
     999900   -1    0    0    0    0 -0.00000000000E+00 -0.00000000000E+00 -0.74505805969E-08  0.93827000000E+00  0.93827000000E+00 0.  1.
     999902    2    1    2    0    0  0.11684639777E-01  0.11167363746E-01 -0.97611519768E-02  0.10250482388E+01  0.10248743195E+01 0.  0.
     999903    2    3    3    0    0 -0.31126260653E-01 -0.90011171226E-01 -0.92731376974E-01  0.13434406375E+00  0.19451584562E-01 0.  0.
         14    1    1    2    0    0 -0.11684639777E-01 -0.11167363746E-01  0.97611519768E-02  0.18881761244E-01  0.00000000000E+00 0.  1.
     999901    1    3    3    0    0  0.42810900431E-01  0.10117853497E+00  0.82970224998E-01  0.89070417500E+00  0.88000000000E+00 0. -1.
        -11    1    4    4    0    0 -0.12509847685E-01 -0.52853992520E-01 -0.41398779279E-01  0.68294662026E-01  0.51100000000E-03 0.  1.
         11    1    4    4    0    0 -0.18616412968E-01 -0.37157178706E-01 -0.51332597695E-01  0.66049401726E-01  0.51100000000E-03 0. -1.
</event>
<event>
 8    1  0.1148488E+005  0.1043930E+01  0.7957747E-01            NaN
         13   -1    0    0    0    0  0.00000000000E+00  0.00000000000E+00  0.74505805969E-08  0.10566000000E+00  0.10566000000E+00 0. -1.
     999900   -1    0    0    0    0 -0.00000000000E+00 -0.00000000000E+00 -0.74505805969E-08  0.93827000000E+00  0.93827000000E+00 0.  1.
     999902    2    1    2    0    0  0.76059870232E-02 -0.15958388220E-01  0.18321604112E-01  0.10184701813E+01  0.10181519080E+01 0.  0.
     999903    2    3    3    0    0 -0.12133943453E+00  0.20530453437E-01 -0.25569801424E-01  0.12724360356E+00  0.19808129944E-01 0.  0.
         14    1    1    2    0    0 -0.76059870232E-02  0.15958388220E-01 -0.18321604112E-01  0.25459818743E-01  0.00000000000E+00 0. -1.
     999901    1    3    3    0    0  0.12894542156E+00 -0.36488841657E-01  0.43891405536E-01  0.89122657769E+00  0.88000000000E+00 0. -1.
        -11    1    4    4    0    0 -0.62829767463E-01  0.99004924998E-02 -0.23268377217E-01  0.67729446554E-01  0.51100000000E-03 0. -1.
         11    1    4    4    0    0 -0.58509667071E-01  0.10629960937E-01 -0.23014242064E-02  0.59514157010E-01  0.51100000000E-03 0.  1.
</event>
<event>
 8    1  0.1148488E+005  0.1043930E+01  0.7957747E-01            NaN
         13   -1    0    0    0    0  0.00000000000E+00  0.00000000000E+00  0.74505805969E-08  0.10566000000E+00  0.10566000000E+00 0.  1.
     999900   -1    0    0    0    0 -0.00000000000E+00 -0.00000000000E+00 -0.74505805969E-08  0.93827000000E+00  0.93827000000E+00 0. -1.
     999902    2    1    2    0    0  0.21290499012E-01  0.85739943198E-02  0.53092838086E-02  0.10203718332E+01  0.10200998436E+01 0.  0.
     999903    2    3    3    0    0 -0.21443299800E-01 -0.15796394494E-01 -0.12500012255E+00  0.12941693269E+00  0.20356096011E-01 0.  0.
         14    1    1    2    0    0 -0.21290499012E-01 -0.85739943198E-02 -0.53092838086E-02  0.23558166765E-01  0.00000000000E+00 0. -1.
     999901    1    3    3    0    0  0.42733798812E-01  0.24370388814E-01  0.13030940636E+00  0.89095490054E+00  0.88000000000E+00 0.  1.
        -11    1    4    4    0    0 -0.24120673410E-01 -0.86877245602E-02 -0.88991481380E-01  0.92612247155E-01  0.51100000000E-03 0.  1.
         11    1    4    4    0    0  0.26773736102E-02 -0.71086699337E-02 -0.36008641171E-01  0.36804685539E-01  0.51100000000E-03 0. -1.
</event>
<event>
 8    1  0.1148488E+005  0.1043930E+01  0.7957747E-01            NaN
         13   -1    0    0    0    0  0.00000000000E+00  0.00000000000E+00  0.74505805969E-08  0.10566000000E+00  0.10566000000E+00 0.  1.
     999900   -1    0    0    0    0 -0.00000000000E+00 -0.00000000000E+00 -0.74505805969E-08  0.93827000000E+00  0.93827000000E+00 0. -1.
     999902    2    1    2    0    0  0.16718631570E-01  0.52635194320E-02  0.17585478616E-01  0.10191012599E+01  0.10187987591E+01 0.  0.
     999903    2    3    3    0    0 -0.59599287277E-01 -0.10251833948E+00 -0.41625306623E-01  0.12727881625E+00  0.20128237424E-01 0.  0.
         14    1    1    2    0    0 -0.16718631570E-01 -0.52635194320E-02 -0.17585478616E-01  0.24828740132E-01  0.00000000000E+00 0. -1.
     999901    1    3    3    0    0  0.76317918848E-01  0.10778185891E+00  0.59210785239E-01  0.89182244362E+00  0.88000000000E+00 0.  1.
        -11    1    4    4    0    0 -0.19974471751E-01 -0.34873047964E-01 -0.24374392251E-01  0.47005117962E-01  0.51100000000E-03 0. -1.
         11    1    4    4    0    0 -0.39624815526E-01 -0.67645291515E-01 -0.17250914373E-01  0.80273698291E-01  0.51100000000E-03 0.  1.
</event>
<event>
 8    1  0.1148488E+005  0.1043930E+01  0.7957747E-01            NaN
         13   -1    0    0    0    0  0.00000000000E+00  0.00000000000E+00  0.74505805969E-08  0.10566000000E+00  0.10566000000E+00 0.  1.
     999900   -1    0    0    0    0 -0.00000000000E+00 -0.00000000000E+00 -0.74505805969E-08  0.93827000000E+00  0.93827000000E+00 0. -1.
     999902    2    1    2    0    0  0.29501545271E-02  0.34047984193E-02 -0.22181337958E-01  0.10212957822E+01  0.10210449387E+01 0.  0.
     999903    2    3    3    0    0 -0.48661232178E-01 -0.59270273870E-01 -0.10772634298E+00  0.13342763439E+00  0.17806958361E-01 0.  0.
         14    1    1    2    0    0 -0.29501545271E-02 -0.34047984193E-02  0.22181337958E-01  0.22634217848E-01  0.00000000000E+00 0.  1.
     999901    1    3    3    0    0  0.51611386705E-01  0.62675072290E-01  0.85545005021E-01  0.88786814776E+00  0.88000000000E+00 0.  1.
        -11    1    4    4    0    0 -0.41757448720E-02 -0.16406401006E-01 -0.22234581893E-01  0.27950752980E-01  0.51100000000E-03 0. -1.
         11    1    4    4    0    0 -0.44485487306E-01 -0.42863872864E-01 -0.85491761085E-01  0.10547688141E+00  0.51100000000E-03 0.  1.
</event>
<event>
 8    1  0.1148488E+005  0.1043930E+01  0.7957747E-01            NaN
         13   -1    0    0    0    0  0.00000000000E+00  0.00000000000E+00  0.74505805969E-08  0.10566000000E+00  0.10566000000E+00 0.  1.
     999900   -1    0    0    0    0 -0.00000000000E+00 -0.00000000000E+00 -0.74505805969E-08  0.93827000000E+00  0.93827000000E+00 0. -1.
     999902    2    1    2    0    0 -0.16586144983E-01 -0.15300119441E-01  0.71101159109E-02  0.10202710142E+01  0.10199966641E+01 0.  0.
     999903    2    3    3    0    0  0.89294857124E-01  0.83594196550E-01 -0.25512199476E-01  0.12782768951E+00  0.26971923875E-01 0.  0.
         14    1    1    2    0    0  0.16586144983E-01  0.15300119441E-01 -0.71101159109E-02  0.23658985790E-01  0.00000000000E+00 0.  1.
     999901    1    3    3    0    0 -0.10588100211E+00 -0.98894315991E-01  0.32622315387E-01  0.89244332470E+00  0.88000000000E+00 0. -1.
        -11    1    4    4    0    0  0.72671224660E-01  0.78282585791E-01 -0.27380677764E-01  0.11026891116E+00  0.51100000000E-03 0. -1.
         11    1    4    4    0    0  0.16623632463E-01  0.53116107593E-02  0.18684782879E-02  0.17558778353E-01  0.51100000000E-03 0.  1.
</event>
<event>
 8    1  0.1148488E+005  0.1043930E+01  0.7957747E-01            NaN
         13   -1    0    0    0    0  0.00000000000E+00  0.00000000000E+00  0.74505805969E-08  0.10566000000E+00  0.10566000000E+00 0.  1.
     999900   -1    0    0    0    0 -0.00000000000E+00 -0.00000000000E+00 -0.74505805969E-08  0.93827000000E+00  0.93827000000E+00 0. -1.
     999902    2    1    2    0    0 -0.22318303234E-01  0.50318801669E-02  0.83024249374E-02  0.10195916201E+01  0.10193010914E+01 0.  0.
     999903    2    3    3    0    0  0.85001488510E-01  0.92656110916E-01  0.19050481389E-01  0.12868698757E+00  0.19672620295E-01 0.  0.
         14    1    1    2    0    0  0.22318303234E-01 -0.50318801669E-02 -0.83024249374E-02  0.24338379919E-01  0.00000000000E+00 0. -1.
     999901    1    3    3    0    0 -0.10731979174E+00 -0.87624230749E-01 -0.10748056452E-01  0.89090463251E+00  0.88000000000E+00 0.  1.
        -11    1    4    4    0    0  0.55770419494E-01  0.56866940358E-01  0.21198744045E-01  0.82424732128E-01  0.51100000000E-03 0.  1.
         11    1    4    4    0    0  0.29231069016E-01  0.35789170558E-01 -0.21482626556E-02  0.46262255441E-01  0.51100000000E-03 0. -1.
</event>
<event>
 8    1  0.1148488E+005  0.1043930E+01  0.7957747E-01            NaN
         13   -1    0    0    0    0  0.00000000000E+00  0.00000000000E+00  0.74505805969E-08  0.10566000000E+00  0.10566000000E+00 0. -1.
     999900   -1    0    0    0    0 -0.00000000000E+00 -0.00000000000E+00 -0.74505805969E-08  0.93827000000E+00  0.93827000000E+00 0.  1.
     999902    2    1    2    0    0  0.54725648407E-02  0.20483056818E-01 -0.12384123947E-01  0.10193765663E+01  0.10190808176E+01 0.  0.
     999903    2    3    3    0    0  0.69164398807E-01  0.12033160844E-01 -0.10954816988E+00  0.13170044161E+00  0.20388569640E-01 0.  0.
         14    1    1    2    0    0 -0.54725648407E-02 -0.20483056818E-01  0.12384123947E-01  0.24553433741E-01  0.00000000000E+00 0.  1.
     999901    1    3    3    0    0 -0.63691833966E-01  0.84498959742E-02  0.97164045937E-01  0.88767612465E+00  0.88000000000E+00 0. -1.
        -11    1    4    4    0    0  0.32708506131E-01  0.14164179710E-01 -0.43629622317E-01  0.56340708415E-01  0.51100000000E-03 0.  1.
         11    1    4    4    0    0  0.36455892676E-01 -0.21310188662E-02 -0.65918547567E-01  0.75359733190E-01  0.51100000000E-03 0. -1.
</event>
<event>
 8    1  0.1148488E+005  0.1043930E+01  0.7957747E-01            NaN
         13   -1    0    0    0    0  0.00000000000E+00  0.00000000000E+00  0.74505805969E-08  0.10566000000E+00  0.10566000000E+00 0.  1.
     999900   -1    0    0    0    0 -0.00000000000E+00 -0.00000000000E+00 -0.74505805969E-08  0.93827000000E+00  0.93827000000E+00 0.  1.
     999902    2    1    2    0    0 -0.51872132477E-02  0.18068929090E-01 -0.13524454495E-01  0.10207717563E+01  0.10205090271E+01 0.  0.
     999903    2    3    3    0    0 -0.41407819276E-01 -0.94686241583E-01  0.73233074260E-01  0.12861003916E+00  0.22301730093E-01 0.  0.
         14    1    1    2    0    0  0.51872132477E-02 -0.18068929090E-01  0.13524454495E-01  0.23158243654E-01  0.00000000000E+00 0.  1.
     999901    1    3    3    0    0  0.36220606028E-01  0.11275517067E+00 -0.86757528756E-01  0.89216171718E+00  0.88000000000E+00 0. -1.
        -11    1    4    4    0    0 -0.21054922154E-01 -0.22930734680E-01  0.21762264404E-01  0.37986650456E-01  0.51100000000E-03 0. -1.
         11    1    4    4    0    0 -0.20352897122E-01 -0.71755506902E-01  0.51470809857E-01  0.90623388705E-01  0.51100000000E-03 0.  1.
</event>
<event>
 8    1  0.1148488E+005  0.1043930E+01  0.7957747E-01            NaN
         13   -1    0    0    0    0  0.00000000000E+00  0.00000000000E+00  0.74505805969E-08  0.10566000000E+00  0.10566000000E+00 0.  1.
     999900   -1    0    0    0    0 -0.00000000000E+00 -0.00000000000E+00 -0.74505805969E-08  0.93827000000E+00  0.93827000000E+00 0. -1.
     999902    2    1    2    0    0 -0.19832015620E-01 -0.24149214396E-02 -0.13083627461E-01  0.10200485847E+01  0.10197689901E+01 0.  0.
     999903    2    3    3    0    0 -0.28295634159E-01  0.12440837195E+00  0.18443605905E-01  0.13035776929E+00  0.19362218115E-01 0.  0.
         14    1    1    2    0    0  0.19832015620E-01  0.24149214396E-02  0.13083627461E-01  0.23881415299E-01  0.00000000000E+00 0.  1.
     999901    1    3    3    0    0  0.84636185386E-02 -0.12682329339E+00 -0.31527233366E-01  0.88969081541E+00  0.88000000000E+00 0.  1.
        -11    1    4    4    0    0 -0.22811255938E-01  0.57461236644E-01  0.70738035812E-02  0.62228987877E-01  0.51100000000E-03 0.  1.
         11    1    4    4    0    0 -0.54843782214E-02  0.66947135310E-01  0.11369802324E-01  0.68128781411E-01  0.51100000000E-03 0. -1.
</event>
<event>
 8    1  0.1148488E+005  0.1043930E+01  0.7957747E-01            NaN
         13   -1    0    0    0    0  0.00000000000E+00  0.00000000000E+00  0.74505805969E-08  0.10566000000E+00  0.10566000000E+00 0. -1.
     999900   -1    0    0    0    0 -0.00000000000E+00 -0.00000000000E+00 -0.74505805969E-08  0.93827000000E+00  0.93827000000E+00 0.  1.
     999902    2    1    2    0    0 -0.58152364638E-02  0.13956572754E-01 -0.18856274332E-01  0.10197605569E+01  0.10194740955E+01 0.  0.
     999903    2    3    3    0    0  0.69740482884E-01  0.98097534823E-01  0.45564596779E-01  0.13018851549E+00  0.19648302572E-01 0.  0.
         14    1    1    2    0    0  0.58152364638E-02 -0.13956572754E-01  0.18856274332E-01  0.24169443102E-01  0.00000000000E+00 0. -1.
     999901    1    3    3    0    0 -0.75555719348E-01 -0.84140962069E-01 -0.64420871112E-01  0.88957204141E+00  0.88000000000E+00 0. -1.
        -11    1    4    4    0    0  0.37938468288E-01  0.52847483451E-01  0.35014224559E-01  0.73881262345E-01  0.51100000000E-03 0.  1.
         11    1    4    4    0    0  0.31802014595E-01  0.45250051372E-01  0.10550372220E-01  0.56307253143E-01  0.51100000000E-03 0. -1.
</event>
<event>
 8    1  0.1148488E+005  0.1043930E+01  0.7957747E-01            NaN
         13   -1    0    0    0    0  0.00000000000E+00  0.00000000000E+00  0.74505805969E-08  0.10566000000E+00  0.10566000000E+00 0. -1.
     999900   -1    0    0    0    0 -0.00000000000E+00 -0.00000000000E+00 -0.74505805969E-08  0.93827000000E+00  0.93827000000E+00 0. -1.
     999902    2    1    2    0    0 -0.70525579861E-02 -0.10883898416E-01  0.19889773000E-01  0.10201855082E+01  0.10199091481E+01 0.  0.
     999903    2    3    3    0    0 -0.10017492953E+00  0.77016397918E-01 -0.23112879930E-01  0.12987799601E+00  0.19171504204E-01 0.  0.
         14    1    1    2    0    0  0.70525579861E-02  0.10883898416E-01 -0.19889773000E-01  0.23744491758E-01  0.00000000000E+00 0. -1.
     999901    1    3    3    0    0  0.93122371548E-01 -0.87900296334E-01  0.43002652930E-01  0.89030751223E+00  0.88000000000E+00 0. -1.
        -11    1    4    4    0    0 -0.68013668573E-01  0.41710891628E-01 -0.10458097153E-01  0.80469189820E-01  0.51100000000E-03 0. -1.
         11    1    4    4    0    0 -0.32161260961E-01  0.35305506290E-01 -0.12654782777E-01  0.49408806190E-01  0.51100000000E-03 0.  1.
</event>
<event>
 8    1  0.1148488E+005  0.1043930E+01  0.7957747E-01            NaN
         13   -1    0    0    0    0  0.00000000000E+00  0.00000000000E+00  0.74505805969E-08  0.10566000000E+00  0.10566000000E+00 0.  1.
     999900   -1    0    0    0    0 -0.00000000000E+00 -0.00000000000E+00 -0.74505805969E-08  0.93827000000E+00  0.93827000000E+00 0.  1.
     999902    2    1    2    0    0  0.12160862749E-01  0.67396221300E-02  0.19817993105E-01  0.10197212838E+01  0.10194338795E+01 0.  0.
     999903    2    3    3    0    0 -0.34452935992E-01 -0.12021582666E+00  0.25498725136E-01  0.12937146327E+00  0.21164610693E-01 0.  0.
         14    1    1    2    0    0 -0.12160862749E-01 -0.67396221300E-02 -0.19817993105E-01  0.24208716198E-01  0.00000000000E+00 0. -1.
     999901    1    3    3    0    0  0.46613798741E-01  0.12695544879E+00 -0.56807320310E-02  0.89034982054E+00  0.88000000000E+00 0.  1.
        -11    1    4    4    0    0 -0.34064184090E-01 -0.96166547177E-01  0.26091823400E-01  0.10530630467E+00  0.51100000000E-03 0. -1.
         11    1    4    4    0    0 -0.38875190146E-03 -0.24049279485E-01 -0.59309826475E-03  0.24065158597E-01  0.51100000000E-03 0.  1.
</event>
<event>
 8    1  0.1148488E+005  0.1043930E+01  0.7957747E-01            NaN
         13   -1    0    0    0    0  0.00000000000E+00  0.00000000000E+00  0.74505805969E-08  0.10566000000E+00  0.10566000000E+00 0.  1.
     999900   -1    0    0    0    0 -0.00000000000E+00 -0.00000000000E+00 -0.74505805969E-08  0.93827000000E+00  0.93827000000E+00 0.  1.
     999902    2    1    2    0    0  0.18474339366E-01 -0.15830248967E-01 -0.11158844039E-02  0.10195754687E+01  0.10192845497E+01 0.  0.
     999903    2    3    3    0    0  0.82762269891E-01  0.97377761165E-01 -0.18634552525E-01  0.12982500069E+00  0.13238677033E-01 0.  0.
         14    1    1    2    0    0 -0.18474339366E-01  0.15830248967E-01  0.11158844039E-02  0.24354531311E-01  0.00000000000E+00 0.  1.
     999901    1    3    3    0    0 -0.64287930526E-01 -0.11320801013E+00  0.17518668121E-01  0.88975046800E+00  0.88000000000E+00 0. -1.
        -11    1    4    4    0    0  0.28342256508E-01  0.24857641599E-01 -0.30433175935E-02  0.37824710875E-01  0.51100000000E-03 0. -1.
         11    1    4    4    0    0  0.54420013383E-01  0.72520119566E-01 -0.15591234932E-01  0.92000289816E-01  0.51100000000E-03 0.  1.
</event>
<event>
 8    1  0.1148488E+005  0.1043930E+01  0.7957747E-01            NaN
         13   -1    0    0    0    0  0.00000000000E+00  0.00000000000E+00  0.74505805969E-08  0.10566000000E+00  0.10566000000E+00 0. -1.
     999900   -1    0    0    0    0 -0.00000000000E+00 -0.00000000000E+00 -0.74505805969E-08  0.93827000000E+00  0.93827000000E+00 0.  1.
     999902    2    1    2    0    0  0.13730396494E-01  0.12178112674E-01  0.14409613022E-01  0.10205961798E+01  0.10203294052E+01 0.  0.
     999903    2    3    3    0    0 -0.79864290753E-01 -0.42573345895E-01 -0.88200102144E-01  0.12802324649E+00  0.20491434899E-01 0.  0.
         14    1    1    2    0    0 -0.13730396494E-01 -0.12178112674E-01 -0.14409613022E-01  0.23333820168E-01  0.00000000000E+00 0.  1.
     999901    1    3    3    0    0  0.93594687247E-01  0.54751458570E-01  0.10260971517E+00  0.89257293335E+00  0.88000000000E+00 0. -1.
        -11    1    4    4    0    0 -0.59190684959E-01 -0.23201772171E-01 -0.68827229760E-01  0.93697962066E-01  0.51100000000E-03 0.  1.
         11    1    4    4    0    0 -0.20673605794E-01 -0.19371573725E-01 -0.19372872384E-01  0.34325284420E-01  0.51100000000E-03 0. -1.
</event>
<event>
 8    1  0.1148488E+005  0.1043930E+01  0.7957747E-01            NaN
         13   -1    0    0    0    0  0.00000000000E+00  0.00000000000E+00  0.74505805969E-08  0.10566000000E+00  0.10566000000E+00 0. -1.
     999900   -1    0    0    0    0 -0.00000000000E+00 -0.00000000000E+00 -0.74505805969E-08  0.93827000000E+00  0.93827000000E+00 0.  1.
     999902    2    1    2    0    0 -0.14273489036E-01  0.17625349650E-01 -0.96443846136E-03  0.10212294365E+01  0.10209771038E+01 0.  0.
     999903    2    3    3    0    0 -0.58297475377E-01 -0.21039973052E-01  0.11465688706E+00  0.13173440594E+00  0.19143559181E-01 0.  0.
         14    1    1    2    0    0  0.14273489036E-01 -0.17625349650E-01  0.96443846136E-03  0.22700563453E-01  0.00000000000E+00 0.  1.
     999901    1    3    3    0    0  0.44023986340E-01  0.38665322702E-01 -0.11562132552E+00  0.88949503060E+00  0.88000000000E+00 0.  1.
        -11    1    4    4    0    0 -0.12843873363E-01 -0.10522837000E-01  0.44306469723E-01  0.47318279363E-01  0.51100000000E-03 0.  1.
         11    1    4    4    0    0 -0.45453602013E-01 -0.10517136052E-01  0.70350417335E-01  0.84416126581E-01  0.51100000000E-03 0. -1.
</event>
<event>
 8    1  0.1148488E+005  0.1043930E+01  0.7957747E-01            NaN
         13   -1    0    0    0    0  0.00000000000E+00  0.00000000000E+00  0.74505805969E-08  0.10566000000E+00  0.10566000000E+00 0.  1.
     999900   -1    0    0    0    0 -0.00000000000E+00 -0.00000000000E+00 -0.74505805969E-08  0.93827000000E+00  0.93827000000E+00 0.  1.
     999902    2    1    2    0    0 -0.96034769359E-03 -0.22720212862E-01 -0.10121378743E-01  0.10190387837E+01  0.10187347398E+01 0.  0.
     999903    2    3    3    0    0 -0.73619033625E-01 -0.68106836778E-01  0.80239070572E-01  0.13027321223E+00  0.21782976152E-01 0.  0.
         14    1    1    2    0    0  0.96034769359E-03  0.22720212862E-01  0.10121378743E-01  0.24891216279E-01  0.00000000000E+00 0.  1.
     999901    1    3    3    0    0  0.72658685932E-01  0.45386623917E-01 -0.90360449315E-01  0.88876557149E+00  0.88000000000E+00 0.  1.
        -11    1    4    4    0    0 -0.26214887515E-01 -0.35740442283E-01  0.26512871183E-01  0.51650682487E-01  0.51100000000E-03 0. -1.
         11    1    4    4    0    0 -0.47404146110E-01 -0.32366394496E-01  0.53726199389E-01  0.78622529741E-01  0.51100000000E-03 0.  1.
</event>
<event>
 8    1  0.1148488E+005  0.1043930E+01  0.7957747E-01            NaN
         13   -1    0    0    0    0  0.00000000000E+00  0.00000000000E+00  0.74505805969E-08  0.10566000000E+00  0.10566000000E+00 0. -1.
     999900   -1    0    0    0    0 -0.00000000000E+00 -0.00000000000E+00 -0.74505805969E-08  0.93827000000E+00  0.93827000000E+00 0. -1.
     999902    2    1    2    0    0  0.22741023723E-01 -0.63538085292E-02  0.13856298025E-02  0.10202774100E+01  0.10200032100E+01 0.  0.
     999903    2    3    3    0    0 -0.10679677456E+00  0.22941850162E-01 -0.64412960787E-01  0.12788302897E+00  0.16527553827E-01 0.  0.
         14    1    1    2    0    0 -0.22741023723E-01  0.63538085292E-02 -0.13856298025E-02  0.23652589979E-01  0.00000000000E+00 0. -1.
     999901    1    3    3    0    0  0.12953779829E+00 -0.29295658691E-01  0.65798590590E-01  0.89239438105E+00  0.88000000000E+00 0. -1.
        -11    1    4    4    0    0 -0.98250593393E-01  0.18518864221E-01 -0.62917362151E-01  0.11813121101E+00  0.51100000000E-03 0. -1.
         11    1    4    4    0    0 -0.85461811712E-02  0.44229859406E-02 -0.14955986361E-02  0.97518179598E-02  0.51100000000E-03 0.  1.
</event>
<event>
 8    1  0.1148488E+005  0.1043930E+01  0.7957747E-01            NaN
         13   -1    0    0    0    0  0.00000000000E+00  0.00000000000E+00  0.74505805969E-08  0.10566000000E+00  0.10566000000E+00 0.  1.
     999900   -1    0    0    0    0 -0.00000000000E+00 -0.00000000000E+00 -0.74505805969E-08  0.93827000000E+00  0.93827000000E+00 0. -1.
     999902    2    1    2    0    0 -0.13876614951E-01  0.18752655786E-01  0.50731302100E-02  0.10200561819E+01  0.10197767672E+01 0.  0.
     999903    2    3    3    0    0 -0.98307051101E-01  0.44800265047E-01 -0.73385995155E-01  0.13215820866E+00  0.20222457474E-01 0.  0.
         14    1    1    2    0    0  0.13876614951E-01 -0.18752655786E-01 -0.50731302100E-02  0.23873818121E-01  0.00000000000E+00 0.  1.
     999901    1    3    3    0    0  0.84430436150E-01 -0.26047609261E-01  0.78459125365E-01  0.88789797322E+00  0.88000000000E+00 0. -1.
        -11    1    4    4    0    0 -0.47096363718E-01  0.16198733736E-01 -0.23132527406E-01  0.54916676842E-01  0.51100000000E-03 0. -1.
         11    1    4    4    0    0 -0.51210687383E-01  0.28601531311E-01 -0.50253467749E-01  0.77241531816E-01  0.51100000000E-03 0.  1.
</event>
<event>
 8    1  0.1148488E+005  0.1043930E+01  0.7957747E-01            NaN
         13   -1    0    0    0    0  0.00000000000E+00  0.00000000000E+00  0.74505805969E-08  0.10566000000E+00  0.10566000000E+00 0. -1.
     999900   -1    0    0    0    0 -0.00000000000E+00 -0.00000000000E+00 -0.74505805969E-08  0.93827000000E+00  0.93827000000E+00 0. -1.
     999902    2    1    2    0    0 -0.14974691910E-01 -0.17577487311E-01  0.32810521285E-02  0.10206067335E+01  0.10203402029E+01 0.  0.
     999903    2    3    3    0    0 -0.85362779227E-01  0.92269155463E-01  0.29332922981E-01  0.13060703251E+00  0.19934278070E-01 0.  0.
         14    1    1    2    0    0  0.14974691910E-01  0.17577487311E-01 -0.32810521285E-02  0.23323266517E-01  0.00000000000E+00 0. -1.
     999901    1    3    3    0    0  0.70388087316E-01 -0.10984664277E+00 -0.26051870852E-01  0.88999970098E+00  0.88000000000E+00 0.  1.
        -11    1    4    4    0    0 -0.19612428786E-01  0.33991793546E-01  0.12113740924E-01  0.41074240486E-01  0.51100000000E-03 0. -1.
         11    1    4    4    0    0 -0.65750350440E-01  0.58277361917E-01  0.17219182057E-01  0.89532792019E-01  0.51100000000E-03 0.  1.
</event>
<event>
 8    1  0.1148488E+005  0.1043930E+01  0.7957747E-01            NaN
         13   -1    0    0    0    0  0.00000000000E+00  0.00000000000E+00  0.74505805969E-08  0.10566000000E+00  0.10566000000E+00 0.  1.
     999900   -1    0    0    0    0 -0.00000000000E+00 -0.00000000000E+00 -0.74505805969E-08  0.93827000000E+00  0.93827000000E+00 0.  1.
     999902    2    1    2    0    0  0.92581240322E-02  0.74159100062E-02 -0.20775816016E-01  0.10200063065E+01  0.10197257092E+01 0.  0.
     999903    2    3    3    0    0  0.10681126802E-01  0.10924518946E-01 -0.13073695101E+00  0.13315469176E+00  0.20114422566E-01 0.  0.
         14    1    1    2    0    0 -0.92581240322E-02 -0.74159100062E-02  0.20775816016E-01  0.23923693547E-01  0.00000000000E+00 0.  1.
     999901    1    3    3    0    0 -0.14230027699E-02 -0.35086089400E-02  0.10996113499E+00  0.88685161469E+00  0.88000000000E+00 0. -1.
        -11    1    4    4    0    0 -0.44168325171E-02  0.17231344464E-02 -0.61832687358E-01  0.62016287770E-01  0.51100000000E-03 0. -1.
         11    1    4    4    0    0  0.15097959319E-01  0.92013844998E-02 -0.68904263649E-01  0.71138403991E-01  0.51100000000E-03 0.  1.
</event>
<event>
 8    1  0.1148488E+005  0.1043930E+01  0.7957747E-01            NaN
         13   -1    0    0    0    0  0.00000000000E+00  0.00000000000E+00  0.74505805969E-08  0.10566000000E+00  0.10566000000E+00 0.  1.
     999900   -1    0    0    0    0 -0.00000000000E+00 -0.00000000000E+00 -0.74505805969E-08  0.93827000000E+00  0.93827000000E+00 0. -1.
     999902    2    1    2    0    0 -0.31677178594E-02  0.20385608061E-01 -0.12595799047E-01  0.10197584960E+01  0.10194719852E+01 0.  0.
     999903    2    3    3    0    0  0.20049651742E-01 -0.16971372421E-01  0.12374255136E+00  0.12817409952E+00  0.20648601708E-01 0.  0.
         14    1    1    2    0    0  0.31677178594E-02 -0.20385608061E-01  0.12595799047E-01  0.24171504009E-01  0.00000000000E+00 0.  1.
     999901    1    3    3    0    0 -0.23217369601E-01  0.37356980482E-01 -0.13633835041E+00  0.89158439647E+00  0.88000000000E+00 0. -1.
        -11    1    4    4    0    0  0.16165548100E-02 -0.14531705497E-01  0.47941412082E-01  0.50124084306E-01  0.51100000000E-03 0. -1.
         11    1    4    4    0    0  0.18433096932E-01 -0.24396669241E-02  0.75801139281E-01  0.78050015212E-01  0.51100000000E-03 0.  1.
</event>
<event>
 8    1  0.1148488E+005  0.1043930E+01  0.7957747E-01            NaN
         13   -1    0    0    0    0  0.00000000000E+00  0.00000000000E+00  0.74505805969E-08  0.10566000000E+00  0.10566000000E+00 0.  1.
     999900   -1    0    0    0    0 -0.00000000000E+00 -0.00000000000E+00 -0.74505805969E-08  0.93827000000E+00  0.93827000000E+00 0. -1.
     999902    2    1    2    0    0  0.15544997735E-01 -0.13414016440E-01 -0.10869539962E-01  0.10206979168E+01  0.10204334901E+01 0.  0.
     999903    2    3    3    0    0  0.11414338308E+00 -0.65050682946E-01 -0.14251721113E-01  0.13368076584E+00  0.20177520871E-01 0.  0.
         14    1    1    2    0    0 -0.15544997735E-01  0.13414016440E-01  0.10869539962E-01  0.23232083217E-01  0.00000000000E+00 0. -1.
     999901    1    3    3    0    0 -0.98598385342E-01  0.51636666505E-01  0.33821811514E-02  0.88701715094E+00  0.88000000000E+00 0. -1.
        -11    1    4    4    0    0  0.76248937278E-01 -0.48061611055E-01 -0.11828971025E-02  0.90141440303E-01  0.51100000000E-03 0.  1.
         11    1    4    4    0    0  0.37894445799E-01 -0.16989071890E-01 -0.13068824010E-01  0.43539325536E-01  0.51100000000E-03 0. -1.
</event>
<event>
 8    1  0.1148488E+005  0.1043930E+01  0.7957747E-01            NaN
         13   -1    0    0    0    0  0.00000000000E+00  0.00000000000E+00  0.74505805969E-08  0.10566000000E+00  0.10566000000E+00 0. -1.
     999900   -1    0    0    0    0 -0.00000000000E+00 -0.00000000000E+00 -0.74505805969E-08  0.93827000000E+00  0.93827000000E+00 0. -1.
     999902    2    1    2    0    0 -0.24850404906E-01  0.55543383086E-03 -0.15243814471E-01  0.10147713819E+01  0.10143523710E+01 0.  0.
     999903    2    3    3    0    0  0.55343332542E-01  0.14672340434E-01  0.10757654088E+00  0.12251852408E+00  0.12645732972E-01 0.  0.
         14    1    1    2    0    0  0.24850404906E-01 -0.55543383086E-03  0.15243814471E-01  0.29158618115E-01  0.00000000000E+00 0. -1.
     999901    1    3    3    0    0 -0.80193737448E-01 -0.14116906603E-01 -0.12282035536E+00  0.89225285781E+00  0.88000000000E+00 0. -1.
        -11    1    4    4    0    0  0.23522004876E-01  0.15167430602E-02  0.52671807584E-01  0.57707587526E-01  0.51100000000E-03 0.  1.
         11    1    4    4    0    0  0.31821327666E-01  0.13155597374E-01  0.54904733301E-01  0.64810936550E-01  0.51100000000E-03 0. -1.
</event>
<event>
 8    1  0.1148488E+005  0.1043930E+01  0.7957747E-01            NaN
         13   -1    0    0    0    0  0.00000000000E+00  0.00000000000E+00  0.74505805969E-08  0.10566000000E+00  0.10566000000E+00 0.  1.
     999900   -1    0    0    0    0 -0.00000000000E+00 -0.00000000000E+00 -0.74505805969E-08  0.93827000000E+00  0.93827000000E+00 0.  1.
     999902    2    1    2    0    0  0.87529845888E-02 -0.13870599231E-03 -0.21894872716E-01  0.10203499358E+01  0.10200774343E+01 0.  0.
     999903    2    3    3    0    0 -0.90409336893E-01  0.21909942873E-01  0.86222895278E-01  0.12793256665E+00  0.16687125165E-01 0.  0.
         14    1    1    2    0    0 -0.87529845888E-02  0.13870599231E-03  0.21894872716E-01  0.23580064245E-01  0.00000000000E+00 0.  1.
     999901    1    3    3    0    0  0.99162321482E-01 -0.22048648866E-01 -0.10811776799E+00  0.89241736910E+00  0.88000000000E+00 0.  1.
        -11    1    4    4    0    0 -0.47701634194E-01  0.17821427215E-01  0.54377816962E-01  0.74500048800E-01  0.51100000000E-03 0.  1.
         11    1    4    4    0    0 -0.42707702700E-01  0.40885156578E-02  0.31845078316E-01  0.53432517853E-01  0.51100000000E-03 0. -1.
</event>
<event>
 8    1  0.1148488E+005  0.1043930E+01  0.7957747E-01            NaN
         13   -1    0    0    0    0  0.00000000000E+00  0.00000000000E+00  0.74505805969E-08  0.10566000000E+00  0.10566000000E+00 0. -1.
     999900   -1    0    0    0    0 -0.00000000000E+00 -0.00000000000E+00 -0.74505805969E-08  0.93827000000E+00  0.93827000000E+00 0.  1.
     999902    2    1    2    0    0 -0.62489561148E-02  0.21071314582E-01  0.69221331229E-02  0.10208873075E+01  0.10206272233E+01 0.  0.
     999903    2    3    3    0    0  0.52796438975E-01  0.12058297956E+00 -0.35757877382E-02  0.13325048059E+00  0.20376098502E-01 0.  0.
         14    1    1    2    0    0  0.62489561148E-02 -0.21071314582E-01 -0.69221331229E-02  0.23042692502E-01  0.00000000000E+00 0.  1.
     999901    1    3    3    0    0 -0.59045395090E-01 -0.99511664979E-01  0.10497920861E-01  0.88763682691E+00  0.88000000000E+00 0. -1.
        -11    1    4    4    0    0  0.80472213075E-03  0.19359622087E-01  0.35719501614E-03  0.19386367745E-01  0.51100000000E-03 0.  1.
         11    1    4    4    0    0  0.51991716844E-01  0.10122335747E+00 -0.39329827543E-02  0.11386411284E+00  0.51100000000E-03 0. -1.
</event>
<event>
 8    1  0.1148488E+005  0.1043930E+01  0.7957747E-01            NaN
         13   -1    0    0    0    0  0.00000000000E+00  0.00000000000E+00  0.74505805969E-08  0.10566000000E+00  0.10566000000E+00 0. -1.
     999900   -1    0    0    0    0 -0.00000000000E+00 -0.00000000000E+00 -0.74505805969E-08  0.93827000000E+00  0.93827000000E+00 0.  1.
     999902    2    1    2    0    0  0.14662443017E-01  0.88589543269E-02 -0.17338090850E-01  0.10195562908E+01  0.10192649078E+01 0.  0.
     999903    2    3    3    0    0 -0.49397256011E-01  0.48727787821E-01 -0.10988635078E+00  0.13149190722E+00  0.20015628161E-01 0.  0.
         14    1    1    2    0    0 -0.14662443017E-01 -0.88589543269E-02  0.17338090850E-01  0.24373709223E-01  0.00000000000E+00 0.  1.
     999901    1    3    3    0    0  0.64059699027E-01 -0.39868833494E-01  0.92548259926E-01  0.88806438356E+00  0.88000000000E+00 0. -1.
        -11    1    4    4    0    0 -0.18339271658E-01  0.79022561822E-02 -0.40953926680E-01  0.45565993561E-01  0.51100000000E-03 0.  1.
         11    1    4    4    0    0 -0.31057984352E-01  0.40825531639E-01 -0.68932424096E-01  0.85925913660E-01  0.51100000000E-03 0. -1.
</event>
<event>
 8    1  0.1148488E+005  0.1043930E+01  0.7957747E-01            NaN
         13   -1    0    0    0    0  0.00000000000E+00  0.00000000000E+00  0.74505805969E-08  0.10566000000E+00  0.10566000000E+00 0. -1.
     999900   -1    0    0    0    0 -0.00000000000E+00 -0.00000000000E+00 -0.74505805969E-08  0.93827000000E+00  0.93827000000E+00 0.  1.
     999902    2    1    2    0    0 -0.73070741713E-02  0.20651349630E-01  0.97426765746E-02  0.10199551940E+01  0.10196733823E+01 0.  0.
     999903    2    3    3    0    0 -0.20203118089E-01  0.10674873087E+00  0.74258554009E-01  0.13330906087E+00  0.21295899692E-01 0.  0.
         14    1    1    2    0    0  0.73070741713E-02 -0.20651349630E-01 -0.97426765746E-02  0.23974805970E-01  0.00000000000E+00 0.  1.
     999901    1    3    3    0    0  0.12896043917E-01 -0.86097381240E-01 -0.64515877435E-01  0.88664613316E+00  0.88000000000E+00 0.  1.
        -11    1    4    4    0    0 -0.16046717389E-01  0.58979449370E-01  0.52807551257E-01  0.80777293702E-01  0.51100000000E-03 0. -1.
         11    1    4    4    0    0 -0.41564006993E-02  0.47769281500E-01  0.21451002752E-01  0.52531767169E-01  0.51100000000E-03 0.  1.
</event>
<event>
 8    1  0.1148488E+005  0.1043930E+01  0.7957747E-01            NaN
         13   -1    0    0    0    0  0.00000000000E+00  0.00000000000E+00  0.74505805969E-08  0.10566000000E+00  0.10566000000E+00 0.  1.
     999900   -1    0    0    0    0 -0.00000000000E+00 -0.00000000000E+00 -0.74505805969E-08  0.93827000000E+00  0.93827000000E+00 0.  1.
     999902    2    1    2    0    0 -0.66177726053E-02  0.23105224001E-01  0.10602384571E-02  0.10198723527E+01  0.10195885667E+01 0.  0.
     999903    2    3    3    0    0 -0.18303609386E-01 -0.17727340628E-01 -0.12564299252E+00  0.12978383691E+00  0.20208959214E-01 0.  0.
         14    1    1    2    0    0  0.66177726053E-02 -0.23105224001E-01 -0.10602384571E-02  0.24057647349E-01  0.00000000000E+00 0. -1.
     999901    1    3    3    0    0  0.11685836781E-01  0.40832564629E-01  0.12670323097E+00  0.89008851574E+00  0.88000000000E+00 0. -1.
        -11    1    4    4    0    0 -0.20966160596E-01 -0.85968430570E-02 -0.96401662926E-01  0.99030436415E-01  0.51100000000E-03 0. -1.
         11    1    4    4    0    0  0.26625512094E-02 -0.91304975707E-02 -0.29241329589E-01  0.30753400495E-01  0.51100000000E-03 0.  1.
</event>
<event>
 8    1  0.1148488E+005  0.1043930E+01  0.7957747E-01            NaN
         13   -1    0    0    0    0  0.00000000000E+00  0.00000000000E+00  0.74505805969E-08  0.10566000000E+00  0.10566000000E+00 0. -1.
     999900   -1    0    0    0    0 -0.00000000000E+00 -0.00000000000E+00 -0.74505805969E-08  0.93827000000E+00  0.93827000000E+00 0.  1.
     999902    2    1    2    0    0  0.80053964785E-02 -0.14619713057E-01  0.16906720494E-01  0.10201884840E+01  0.10199121940E+01 0.  0.
     999903    2    3    3    0    0  0.81817865144E-01  0.89999228760E-01  0.39988998645E-01  0.13062331212E+00  0.25870937783E-01 0.  0.
         14    1    1    2    0    0 -0.80053964785E-02  0.14619713057E-01 -0.16906720494E-01  0.23741515969E-01  0.00000000000E+00 0.  1.
     999901    1    3    3    0    0 -0.73812468665E-01 -0.10461894182E+00 -0.23082278151E-01  0.88956517191E+00  0.88000000000E+00 0. -1.
        -11    1    4    4    0    0  0.33155523258E-01  0.41232186002E-01  0.44401122402E-02  0.53097623324E-01  0.51100000000E-03 0. -1.
         11    1    4    4    0    0  0.48662341886E-01  0.48767042758E-01  0.35548886404E-01  0.77525688792E-01  0.51100000000E-03 0.  1.
</event>
<event>
 8    1  0.1148488E+005  0.1043930E+01  0.7957747E-01            NaN
         13   -1    0    0    0    0  0.00000000000E+00  0.00000000000E+00  0.74505805969E-08  0.10566000000E+00  0.10566000000E+00 0. -1.
     999900   -1    0    0    0    0 -0.00000000000E+00 -0.00000000000E+00 -0.74505805969E-08  0.93827000000E+00  0.93827000000E+00 0. -1.
     999902    2    1    2    0    0 -0.10345307415E-01 -0.18441404086E-01  0.71180982200E-02  0.10216190589E+01  0.10213754077E+01 0.  0.
     999903    2    3    3    0    0 -0.57479274865E-01  0.10142496989E+00  0.56139126847E-01  0.13089316406E+00  0.19761763069E-01 0.  0.
         14    1    1    2    0    0  0.10345307415E-01  0.18441404086E-01 -0.71180982200E-02  0.22310941093E-01  0.00000000000E+00 0.  1.
     999901    1    3    3    0    0  0.47133967450E-01 -0.11986637397E+00 -0.49021028627E-01  0.89072589484E+00  0.88000000000E+00 0.  1.
        -11    1    4    4    0    0 -0.44016232361E-01  0.91092992497E-01  0.49866752105E-01  0.11279324483E+00  0.51100000000E-03 0.  1.
         11    1    4    4    0    0 -0.13463042504E-01  0.10331977392E-01  0.62723747418E-02  0.18099919231E-01  0.51100000000E-03 0. -1.
</event>
<event>
 8    1  0.1148488E+005  0.1043930E+01  0.7957747E-01            NaN
         13   -1    0    0    0    0  0.00000000000E+00  0.00000000000E+00  0.74505805969E-08  0.10566000000E+00  0.10566000000E+00 0.  1.
     999900   -1    0    0    0    0 -0.00000000000E+00 -0.00000000000E+00 -0.74505805969E-08  0.93827000000E+00  0.93827000000E+00 0.  1.
     999902    2    1    2    0    0 -0.65067825770E-03  0.20876456924E-01  0.13704109087E-01  0.10189489584E+01  0.10186426887E+01 0.  0.
     999903    2    3    3    0    0  0.42661875870E-01  0.12299457415E+00 -0.54510280115E-02  0.13177873428E+00  0.19703303738E-01 0.  0.
         14    1    1    2    0    0  0.65067825770E-03 -0.20876456924E-01 -0.13704109087E-01  0.24981041647E-01  0.00000000000E+00 0.  1.
     999901    1    3    3    0    0 -0.43312554128E-01 -0.10211811723E+00  0.19155137099E-01  0.88717022408E+00  0.88000000000E+00 0.  1.
        -11    1    4    4    0    0  0.34978416859E-01  0.75392955209E-01 -0.79552026024E-02  0.83493315364E-01  0.51100000000E-03 0. -1.
         11    1    4    4    0    0  0.76834590112E-02  0.47601618941E-01  0.25041745909E-02  0.48285418913E-01  0.51100000000E-03 0.  1.
</event>
<event>
 8    1  0.1148488E+005  0.1043930E+01  0.7957747E-01            NaN
         13   -1    0    0    0    0  0.00000000000E+00  0.00000000000E+00  0.74505805969E-08  0.10566000000E+00  0.10566000000E+00 0.  1.
     999900   -1    0    0    0    0 -0.00000000000E+00 -0.00000000000E+00 -0.74505805969E-08  0.93827000000E+00  0.93827000000E+00 0.  1.
     999902    2    1    2    0    0  0.20289886066E-01 -0.18270804768E-02  0.11445016454E-01  0.10205632266E+01  0.10202956891E+01 0.  0.
     999903    2    3    3    0    0 -0.71865024549E-01 -0.19152392797E-01  0.10529598518E+00  0.13061901576E+00  0.21040125454E-01 0.  0.
         14    1    1    2    0    0 -0.20289886066E-01  0.18270804768E-02 -0.11445016454E-01  0.23366773446E-01  0.00000000000E+00 0. -1.
     999901    1    3    3    0    0  0.92154910615E-01  0.17325312320E-01 -0.93850968727E-01  0.88994421080E+00  0.88000000000E+00 0.  1.
        -11    1    4    4    0    0 -0.45087960740E-01 -0.43449188076E-02  0.50375158364E-01  0.67747473934E-01  0.51100000000E-03 0.  1.
         11    1    4    4    0    0 -0.26777063809E-01 -0.14807473989E-01  0.54920826817E-01  0.62871541825E-01  0.51100000000E-03 0. -1.
</event>
<event>
 8    1  0.1148488E+005  0.1043930E+01  0.7957747E-01            NaN
         13   -1    0    0    0    0  0.00000000000E+00  0.00000000000E+00  0.74505805969E-08  0.10566000000E+00  0.10566000000E+00 0. -1.
     999900   -1    0    0    0    0 -0.00000000000E+00 -0.00000000000E+00 -0.74505805969E-08  0.93827000000E+00  0.93827000000E+00 0.  1.
     999902    2    1    2    0    0 -0.13726222610E-01 -0.99882025182E-02  0.16616403637E-01  0.10201754584E+01  0.10198988615E+01 0.  0.
     999903    2    3    3    0    0 -0.71521164417E-01  0.65410375925E-01 -0.83302612993E-01  0.12944036264E+00  0.20535041074E-01 0.  0.
         14    1    1    2    0    0  0.13726222610E-01  0.99882025182E-02 -0.16616403637E-01  0.23754541597E-01  0.00000000000E+00 0.  1.
     999901    1    3    3    0    0  0.57794941808E-01 -0.75398578443E-01  0.99919016630E-01  0.89073509576E+00  0.88000000000E+00 0. -1.
        -11    1    4    4    0    0 -0.25518512819E-02  0.97406838063E-02 -0.12085536907E-01  0.15738938634E-01  0.51100000000E-03 0.  1.
         11    1    4    4    0    0 -0.68969313136E-01  0.55669692119E-01 -0.71217076086E-01  0.11370142401E+00  0.51100000000E-03 0. -1.
</event>
<event>
 8    1  0.1148488E+005  0.1043930E+01  0.7957747E-01            NaN
         13   -1    0    0    0    0  0.00000000000E+00  0.00000000000E+00  0.74505805969E-08  0.10566000000E+00  0.10566000000E+00 0. -1.
     999900   -1    0    0    0    0 -0.00000000000E+00 -0.00000000000E+00 -0.74505805969E-08  0.93827000000E+00  0.93827000000E+00 0.  1.
     999902    2    1    2    0    0 -0.83351147414E-02  0.60872389962E-02 -0.23903876928E-01  0.10178930273E+01  0.10175599693E+01 0.  0.
     999903    2    3    3    0    0  0.33189580869E-01 -0.28735550095E-01  0.11597725833E+00  0.12519842161E+00  0.17223246124E-01 0.  0.
         14    1    1    2    0    0  0.83351147414E-02 -0.60872389962E-02  0.23903876928E-01  0.26036972722E-01  0.00000000000E+00 0. -1.
     999901    1    3    3    0    0 -0.41524695611E-01  0.34822789091E-01 -0.13988113526E+00  0.89269460567E+00  0.88000000000E+00 0.  1.
        -11    1    4    4    0    0  0.22914789770E-02 -0.31593310088E-02  0.30773786034E-01  0.31024494778E-01  0.51100000000E-03 0. -1.
         11    1    4    4    0    0  0.30898101892E-01 -0.25576219086E-01  0.85203472294E-01  0.94173926833E-01  0.51100000000E-03 0.  1.
</event>
<event>
 8    1  0.1148488E+005  0.1043930E+01  0.7957747E-01            NaN
         13   -1    0    0    0    0  0.00000000000E+00  0.00000000000E+00  0.74505805969E-08  0.10566000000E+00  0.10566000000E+00 0.  1.
     999900   -1    0    0    0    0 -0.00000000000E+00 -0.00000000000E+00 -0.74505805969E-08  0.93827000000E+00  0.93827000000E+00 0.  1.
     999902    2    1    2    0    0  0.20141648656E-01  0.13152771483E-01  0.23348467210E-02  0.10197611581E+01  0.10194747112E+01 0.  0.
     999903    2    3    3    0    0 -0.71071896753E-01  0.91269920741E-01 -0.55730890404E-01  0.12970844637E+00  0.18355815831E-01 0.  0.
         14    1    1    2    0    0 -0.20141648656E-01 -0.13152771483E-01 -0.23348467210E-02  0.24168841873E-01  0.00000000000E+00 0. -1.
     999901    1    3    3    0    0  0.91213545409E-01 -0.78117149258E-01  0.58065737125E-01  0.89005271175E+00  0.88000000000E+00 0. -1.
        -11    1    4    4    0    0 -0.19933463852E-01  0.38298501374E-01 -0.16036463920E-01  0.46060259277E-01  0.51100000000E-03 0. -1.
         11    1    4    4    0    0 -0.51138432901E-01  0.52971419368E-01 -0.39694426484E-01  0.83648187095E-01  0.51100000000E-03 0.  1.
</event>
<event>
 8    1  0.1148488E+005  0.1043930E+01  0.7957747E-01            NaN
         13   -1    0    0    0    0  0.00000000000E+00  0.00000000000E+00  0.74505805969E-08  0.10566000000E+00  0.10566000000E+00 0.  1.
     999900   -1    0    0    0    0 -0.00000000000E+00 -0.00000000000E+00 -0.74505805969E-08  0.93827000000E+00  0.93827000000E+00 0.  1.
     999902    2    1    2    0    0 -0.72009894183E-02  0.21624280935E-01 -0.11660732900E-01  0.10183285066E+01  0.10180066359E+01 0.  0.
     999903    2    3    3    0    0  0.91495313587E-01  0.65882595264E-01 -0.62037474263E-01  0.13027581968E+00  0.20278861209E-01 0.  0.
         14    1    1    2    0    0  0.72009894183E-02 -0.21624280935E-01  0.11660732900E-01  0.25601493439E-01  0.00000000000E+00 0. -1.
     999901    1    3    3    0    0 -0.98696303005E-01 -0.44258314329E-01  0.50376741363E-01  0.88805268689E+00  0.88000000000E+00 0.  1.
        -11    1    4    4    0    0  0.34044658422E-01  0.36322694806E-01 -0.23608036936E-01  0.55099704664E-01  0.51100000000E-03 0.  1.
         11    1    4    4    0    0  0.57450655165E-01  0.29559900459E-01 -0.38429437326E-01  0.75176115012E-01  0.51100000000E-03 0. -1.
</event>
<event>
 8    1  0.1148488E+005  0.1043930E+01  0.7957747E-01            NaN
         13   -1    0    0    0    0  0.00000000000E+00  0.00000000000E+00  0.74505805969E-08  0.10566000000E+00  0.10566000000E+00 0. -1.
     999900   -1    0    0    0    0 -0.00000000000E+00 -0.00000000000E+00 -0.74505805969E-08  0.93827000000E+00  0.93827000000E+00 0.  1.
     999902    2    1    2    0    0 -0.85996481195E-02 -0.91669584007E-02 -0.15817249542E-01  0.10237267216E+01  0.10235273460E+01 0.  0.
     999903    2    3    3    0    0 -0.67083136658E-01 -0.15219110802E-01  0.11179685795E+00  0.13258009653E+00  0.18632659277E-01 0.  0.
         14    1    1    2    0    0  0.85996481195E-02  0.91669584007E-02  0.15817249542E-01  0.20203278377E-01  0.00000000000E+00 0. -1.
     999901    1    3    3    0    0  0.58483488539E-01  0.60521524011E-02 -0.12761410749E+00  0.89114662509E+00  0.88000000000E+00 0.  1.
        -11    1    4    4    0    0 -0.53205733308E-01 -0.48913035478E-02  0.77082164010E-01  0.93790703359E-01  0.51100000000E-03 0. -1.
         11    1    4    4    0    0 -0.13877403350E-01 -0.10327807254E-01  0.34714693939E-01  0.38789393173E-01  0.51100000000E-03 0.  1.
</event>
<event>
 8    1  0.1148488E+005  0.1043930E+01  0.7957747E-01            NaN
         13   -1    0    0    0    0  0.00000000000E+00  0.00000000000E+00  0.74505805969E-08  0.10566000000E+00  0.10566000000E+00 0. -1.
     999900   -1    0    0    0    0 -0.00000000000E+00 -0.00000000000E+00 -0.74505805969E-08  0.93827000000E+00  0.93827000000E+00 0. -1.
     999902    2    1    2    0    0 -0.10852076569E-02 -0.54871118706E-02  0.23594271955E-01  0.10196817889E+01  0.10193934348E+01 0.  0.
     999903    2    3    3    0    0 -0.77019156869E-01  0.79716352871E-01 -0.60996055927E-01  0.12828899186E+00  0.21234386124E-01 0.  0.
         14    1    1    2    0    0  0.10852076569E-02  0.54871118706E-02 -0.23594271955E-01  0.24248211097E-01  0.00000000000E+00 0.  1.
     999901    1    3    3    0    0  0.75933949212E-01 -0.85203464742E-01  0.84590327882E-01  0.89139279704E+00  0.88000000000E+00 0.  1.
        -11    1    4    4    0    0 -0.67196653959E-01  0.62915649191E-01 -0.57421586251E-01  0.10849547873E+00  0.51100000000E-03 0.  1.
         11    1    4    4    0    0 -0.98225029104E-02  0.16800703680E-01 -0.35744696761E-02  0.19793513130E-01  0.51100000000E-03 0. -1.
</event>
<event>
 8    1  0.1148488E+005  0.1043930E+01  0.7957747E-01            NaN
         13   -1    0    0    0    0  0.00000000000E+00  0.00000000000E+00  0.74505805969E-08  0.10566000000E+00  0.10566000000E+00 0. -1.
     999900   -1    0    0    0    0 -0.00000000000E+00 -0.00000000000E+00 -0.74505805969E-08  0.93827000000E+00  0.93827000000E+00 0. -1.
     999902    2    1    2    0    0 -0.13984959129E-01 -0.56162632847E-02  0.20331676781E-01  0.10186219267E+01  0.10183074835E+01 0.  0.
     999903    2    3    3    0    0 -0.11461300823E+00 -0.29030567909E-01 -0.48955731742E-01  0.12987281758E+00  0.22166856964E-01 0.  0.
         14    1    1    2    0    0  0.13984959129E-01  0.56162632847E-02 -0.20331676781E-01  0.25308073333E-01  0.00000000000E+00 0.  1.
     999901    1    3    3    0    0  0.10062804910E+00  0.23414304624E-01  0.69287408523E-01  0.88874910909E+00  0.88000000000E+00 0.  1.
        -11    1    4    4    0    0 -0.59804065176E-01 -0.19865313646E-01 -0.36832522613E-01  0.72993511635E-01  0.51100000000E-03 0.  1.
         11    1    4    4    0    0 -0.54808943050E-01 -0.91652542629E-02 -0.12123209128E-01  0.56879305943E-01  0.51100000000E-03 0. -1.
</event>
<event>
 8    1  0.1148488E+005  0.1043930E+01  0.7957747E-01            NaN
         13   -1    0    0    0    0  0.00000000000E+00  0.00000000000E+00  0.74505805969E-08  0.10566000000E+00  0.10566000000E+00 0. -1.
     999900   -1    0    0    0    0 -0.00000000000E+00 -0.00000000000E+00 -0.74505805969E-08  0.93827000000E+00  0.93827000000E+00 0. -1.
     999902    2    1    2    0    0 -0.52146139540E-02 -0.96480009984E-02 -0.22832804668E-01  0.10185999173E+01  0.10182849200E+01 0.  0.
     999903    2    3    3    0    0  0.12670196190E+00 -0.10442039098E-01 -0.72669817821E-02  0.12863086819E+00  0.18184276075E-01 0.  0.
         14    1    1    2    0    0  0.52146139540E-02  0.96480009984E-02  0.22832804668E-01  0.25330082727E-01  0.00000000000E+00 0. -1.
     999901    1    3    3    0    0 -0.13191657586E+00  0.79403810006E-03 -0.15565822886E-01  0.88996904908E+00  0.88000000000E+00 0. -1.
        -11    1    4    4    0    0  0.76320939567E-01 -0.19910183248E-02  0.34695399593E-02  0.76427408689E-01  0.51100000000E-03 0. -1.
         11    1    4    4    0    0  0.50381022337E-01 -0.84510207737E-02 -0.10736521741E-01  0.52203459502E-01  0.51100000000E-03 0.  1.
</event>
<event>
 8    1  0.1148488E+005  0.1043930E+01  0.7957747E-01            NaN
         13   -1    0    0    0    0  0.00000000000E+00  0.00000000000E+00  0.74505805969E-08  0.10566000000E+00  0.10566000000E+00 0.  1.
     999900   -1    0    0    0    0 -0.00000000000E+00 -0.00000000000E+00 -0.74505805969E-08  0.93827000000E+00  0.93827000000E+00 0.  1.
     999902    2    1    2    0    0  0.69131490051E-02 -0.75199681475E-02  0.22697709776E-01  0.10190396891E+01  0.10187356675E+01 0.  0.
     999903    2    3    3    0    0  0.39278854839E-01  0.10366747612E+00  0.65713578490E-01  0.13041122246E+00  0.19975948110E-01 0.  0.
         14    1    1    2    0    0 -0.69131490051E-02  0.75199681475E-02 -0.22697709776E-01  0.24890310950E-01  0.00000000000E+00 0. -1.
     999901    1    3    3    0    0 -0.32365705833E-01 -0.11118744427E+00 -0.43015868715E-01  0.88862846659E+00  0.88000000000E+00 0.  1.
        -11    1    4    4    0    0  0.51218696957E-02  0.12673029234E-01  0.16606905928E-01  0.21514870779E-01  0.51100000000E-03 0. -1.
         11    1    4    4    0    0  0.34156985143E-01  0.90994446885E-01  0.49106672562E-01  0.10889635168E+00  0.51100000000E-03 0.  1.
</event>
<event>
 8    1  0.1148488E+005  0.1043930E+01  0.7957747E-01            NaN
         13   -1    0    0    0    0  0.00000000000E+00  0.00000000000E+00  0.74505805969E-08  0.10566000000E+00  0.10566000000E+00 0.  1.
     999900   -1    0    0    0    0 -0.00000000000E+00 -0.00000000000E+00 -0.74505805969E-08  0.93827000000E+00  0.93827000000E+00 0. -1.
     999902    2    1    2    0    0  0.52593363555E-02  0.12128799454E-01 -0.16282304199E-01  0.10229566401E+01  0.10227416124E+01 0.  0.
     999903    2    3    3    0    0  0.33442774753E-01  0.12914991777E+00 -0.67635667442E-02  0.13471182324E+00  0.17418640630E-01 0.  0.
         14    1    1    2    0    0 -0.52593363555E-02 -0.12128799454E-01  0.16282304199E-01  0.20973359891E-01  0.00000000000E+00 0.  1.
     999901    1    3    3    0    0 -0.28183438398E-01 -0.11702111832E+00 -0.95187374545E-02  0.88824481687E+00  0.88000000000E+00 0. -1.
        -11    1    4    4    0    0  0.81481357340E-02  0.63714384562E-01 -0.51936082053E-04  0.64235338673E-01  0.51100000000E-03 0.  1.
         11    1    4    4    0    0  0.25294639019E-01  0.65435533211E-01 -0.67116306621E-02  0.70476484567E-01  0.51100000000E-03 0. -1.
</event>
<event>
 8    1  0.1148488E+005  0.1043930E+01  0.7957747E-01            NaN
         13   -1    0    0    0    0  0.00000000000E+00  0.00000000000E+00  0.74505805969E-08  0.10566000000E+00  0.10566000000E+00 0.  1.
     999900   -1    0    0    0    0 -0.00000000000E+00 -0.00000000000E+00 -0.74505805969E-08  0.93827000000E+00  0.93827000000E+00 0.  1.
     999902    2    1    2    0    0  0.16010642731E-01 -0.14943663388E-01 -0.72357344289E-02  0.10208646665E+01  0.10206040651E+01 0.  0.
     999903    2    3    3    0    0  0.12180376737E+00  0.29238932880E-01 -0.39873422045E-01  0.13282778345E+00  0.19033058820E-01 0.  0.
         14    1    1    2    0    0 -0.16010642731E-01  0.14943663388E-01  0.72357344289E-02  0.23065333486E-01  0.00000000000E+00 0.  1.
     999901    1    3    3    0    0 -0.10579312464E+00 -0.44182596267E-01  0.32637687616E-01  0.88803688307E+00  0.88000000000E+00 0. -1.
        -11    1    4    4    0    0  0.80012896093E-01  0.99390689015E-02 -0.26927962222E-01  0.85007205002E-01  0.51100000000E-03 0.  1.
         11    1    4    4    0    0  0.41790871278E-01  0.19299863978E-01 -0.12945459823E-01  0.47820578445E-01  0.51100000000E-03 0. -1.
</event>
<event>
 8    1  0.1148488E+005  0.1043930E+01  0.7957747E-01            NaN
         13   -1    0    0    0    0  0.00000000000E+00  0.00000000000E+00  0.74505805969E-08  0.10566000000E+00  0.10566000000E+00 0. -1.
     999900   -1    0    0    0    0 -0.00000000000E+00 -0.00000000000E+00 -0.74505805969E-08  0.93827000000E+00  0.93827000000E+00 0. -1.
     999902    2    1    2    0    0  0.56775756146E-02 -0.94980439926E-02  0.20511542865E-01  0.10206239687E+01  0.10203578364E+01 0.  0.
     999903    2    3    3    0    0 -0.12071584530E+00 -0.45847945072E-01  0.11195869391E-04  0.13061448763E+00  0.19641661808E-01 0.  0.
         14    1    1    2    0    0 -0.56775756146E-02  0.94980439926E-02 -0.20511542865E-01  0.23306031306E-01  0.00000000000E+00 0.  1.
     999901    1    3    3    0    0  0.12639342092E+00  0.36349901079E-01  0.20500346996E-01  0.89000948107E+00  0.88000000000E+00 0.  1.
        -11    1    4    4    0    0 -0.68309216304E-01 -0.15774076265E-01 -0.22872610855E-02  0.70146013418E-01  0.51100000000E-03 0.  1.
         11    1    4    4    0    0 -0.52406628998E-01 -0.30073868806E-01  0.22984569549E-02  0.60468474210E-01  0.51100000000E-03 0. -1.
</event>
<event>
 8    1  0.1148488E+005  0.1043930E+01  0.7957747E-01            NaN
         13   -1    0    0    0    0  0.00000000000E+00  0.00000000000E+00  0.74505805969E-08  0.10566000000E+00  0.10566000000E+00 0.  1.
     999900   -1    0    0    0    0 -0.00000000000E+00 -0.00000000000E+00 -0.74505805969E-08  0.93827000000E+00  0.93827000000E+00 0.  1.
     999902    2    1    2    0    0  0.71782809983E-02  0.77518757692E-02  0.16383739607E-01  0.10244352258E+01  0.10242497184E+01 0.  0.
     999903    2    3    3    0    0 -0.10721375219E+00  0.18977006822E-01 -0.73396353476E-01  0.13243073822E+00  0.17203496037E-01 0.  0.
         14    1    1    2    0    0 -0.71782809983E-02 -0.77518757692E-02 -0.16383739607E-01  0.19494774160E-01  0.00000000000E+00 0. -1.
     999901    1    3    3    0    0  0.11439203318E+00 -0.11225131053E-01  0.89780093083E-01  0.89200448762E+00  0.88000000000E+00 0.  1.
        -11    1    4    4    0    0 -0.55772193130E-01  0.11646219383E-02 -0.36600603674E-01  0.66721504637E-01  0.51100000000E-03 0. -1.
         11    1    4    4    0    0 -0.51441559056E-01  0.17812384884E-01 -0.36795749802E-01  0.65709233581E-01  0.51100000000E-03 0.  1.
</event>
<event>
 8    1  0.1148488E+005  0.1043930E+01  0.7957747E-01            NaN
         13   -1    0    0    0    0  0.00000000000E+00  0.00000000000E+00  0.74505805969E-08  0.10566000000E+00  0.10566000000E+00 0.  1.
     999900   -1    0    0    0    0 -0.00000000000E+00 -0.00000000000E+00 -0.74505805969E-08  0.93827000000E+00  0.93827000000E+00 0. -1.
     999902    2    1    2    0    0  0.25600030789E-01 -0.14499506188E-01  0.14427771285E-01  0.10111617556E+01  0.10106306636E+01 0.  0.
     999903    2    3    3    0    0 -0.21357603078E-01 -0.11857524110E+00  0.18828651681E-01  0.12377449758E+00  0.21198422481E-01 0.  0.
         14    1    1    2    0    0 -0.25600030789E-01  0.14499506188E-01 -0.14427771285E-01  0.32768244389E-01  0.00000000000E+00 0. -1.
     999901    1    3    3    0    0  0.46957633867E-01  0.10407573491E+00 -0.44008803954E-02  0.88738725804E+00  0.88000000000E+00 0.  1.
        -11    1    4    4    0    0  0.39140558817E-02 -0.14697124812E-01 -0.11177213126E-04  0.15217968233E-01  0.51100000000E-03 0. -1.
         11    1    4    4    0    0 -0.25271658960E-01 -0.10387811628E+00  0.18839828894E-01  0.10855652934E+00  0.51100000000E-03 0.  1.
</event>
<event>
 8    1  0.1148488E+005  0.1043930E+01  0.7957747E-01            NaN
         13   -1    0    0    0    0  0.00000000000E+00  0.00000000000E+00  0.74505805969E-08  0.10566000000E+00  0.10566000000E+00 0.  1.
     999900   -1    0    0    0    0 -0.00000000000E+00 -0.00000000000E+00 -0.74505805969E-08  0.93827000000E+00  0.93827000000E+00 0. -1.
     999902    2    1    2    0    0 -0.19517115394E-01 -0.13972203354E-01  0.15208347637E-02  0.10198789460E+01  0.10195953174E+01 0.  0.
     999903    2    3    3    0    0  0.10015401242E+00 -0.74813358133E-01 -0.26716287151E-01  0.12924986496E+00  0.19076237452E-01 0.  0.
         14    1    1    2    0    0  0.19517115394E-01  0.13972203354E-01 -0.15208347637E-02  0.24051053994E-01  0.00000000000E+00 0.  1.
     999901    1    3    3    0    0 -0.11967112781E+00  0.60841154779E-01  0.28237121914E-01  0.89062908104E+00  0.88000000000E+00 0.  1.
        -11    1    4    4    0    0  0.31246955356E-01 -0.13997155760E-01 -0.32690626068E-02  0.34398262742E-01  0.51100000000E-03 0. -1.
         11    1    4    4    0    0  0.68907057062E-01 -0.60816202373E-01 -0.23447224544E-01  0.94851602220E-01  0.51100000000E-03 0.  1.
</event>
<event>
 8    1  0.1148488E+005  0.1043930E+01  0.7957747E-01            NaN
         13   -1    0    0    0    0  0.00000000000E+00  0.00000000000E+00  0.74505805969E-08  0.10566000000E+00  0.10566000000E+00 0.  1.
     999900   -1    0    0    0    0 -0.00000000000E+00 -0.00000000000E+00 -0.74505805969E-08  0.93827000000E+00  0.93827000000E+00 0. -1.
     999902    2    1    2    0    0  0.13488925257E-02 -0.22362434691E-01  0.83751309722E-02  0.10200126252E+01  0.10197321780E+01 0.  0.
     999903    2    3    3    0    0 -0.11463644376E+00  0.43403735011E-01 -0.33935088549E-01  0.12896383759E+00  0.21323290542E-01 0.  0.
         14    1    1    2    0    0 -0.13488925257E-02  0.22362434691E-01 -0.83751309722E-02  0.23917374755E-01  0.00000000000E+00 0. -1.
     999901    1    3    3    0    0  0.11598533629E+00 -0.65766169703E-01  0.42310219521E-01  0.89104878766E+00  0.88000000000E+00 0.  1.
        -11    1    4    4    0    0 -0.52831141966E-01  0.30414057110E-01 -0.12201873956E-01  0.62171466770E-01  0.51100000000E-03 0.  1.
         11    1    4    4    0    0 -0.61805301794E-01  0.12989677901E-01 -0.21733214593E-01  0.66792370817E-01  0.51100000000E-03 0. -1.
</event>
<event>
 8    1  0.1148488E+005  0.1043930E+01  0.7957747E-01            NaN
         13   -1    0    0    0    0  0.00000000000E+00  0.00000000000E+00  0.74505805969E-08  0.10566000000E+00  0.10566000000E+00 0. -1.
     999900   -1    0    0    0    0 -0.00000000000E+00 -0.00000000000E+00 -0.74505805969E-08  0.93827000000E+00  0.93827000000E+00 0. -1.
     999902    2    1    2    0    0 -0.19382686651E-01  0.81883562530E-02  0.11062383910E-01  0.10201578723E+01  0.10198808608E+01 0.  0.
     999903    2    3    3    0    0 -0.10173548779E+00  0.62945205919E-01 -0.52840732257E-01  0.13231559758E+00  0.20076502517E-01 0.  0.
         14    1    1    2    0    0  0.19382686651E-01 -0.81883562530E-02 -0.11062383910E-01  0.23772127749E-01  0.00000000000E+00 0.  1.
     999901    1    3    3    0    0  0.82352801137E-01 -0.54756849666E-01  0.63903116167E-01  0.88784227467E+00  0.88000000000E+00 0.  1.
        -11    1    4    4    0    0 -0.71043766309E-02  0.77928268626E-03 -0.74343829177E-02  0.10325241846E-01  0.51100000000E-03 0.  1.
         11    1    4    4    0    0 -0.94631111157E-01  0.62165923233E-01 -0.45406349339E-01  0.12199035573E+00  0.51100000000E-03 0. -1.
</event>
<event>
 8    1  0.1148488E+005  0.1043930E+01  0.7957747E-01            NaN
         13   -1    0    0    0    0  0.00000000000E+00  0.00000000000E+00  0.74505805969E-08  0.10566000000E+00  0.10566000000E+00 0. -1.
     999900   -1    0    0    0    0 -0.00000000000E+00 -0.00000000000E+00 -0.74505805969E-08  0.93827000000E+00  0.93827000000E+00 0.  1.
     999902    2    1    2    0    0  0.23620652563E-01  0.17964870374E-02  0.47229667331E-02  0.10197748969E+01  0.10194887794E+01 0.  0.
     999903    2    3    3    0    0 -0.12578436338E+00 -0.36406888186E-02 -0.29634160123E-03  0.12715145154E+00  0.18233022922E-01 0.  0.
         14    1    1    2    0    0 -0.23620652563E-01 -0.17964870374E-02 -0.47229667331E-02  0.24155103145E-01  0.00000000000E+00 0.  1.
     999901    1    3    3    0    0  0.14940501594E+00  0.54371758559E-02  0.50193083344E-02  0.89262344531E+00  0.88000000000E+00 0. -1.
        -11    1    4    4    0    0 -0.10636997854E+00 -0.20665810327E-02  0.63071996979E-02  0.10657806988E+00  0.51100000000E-03 0.  1.
         11    1    4    4    0    0 -0.19414384841E-01 -0.15741077859E-02 -0.66035412992E-02  0.20573381656E-01  0.51100000000E-03 0. -1.
</event>
<event>
 8    1  0.1148488E+005  0.1043930E+01  0.7957747E-01            NaN
         13   -1    0    0    0    0  0.00000000000E+00  0.00000000000E+00  0.74505805969E-08  0.10566000000E+00  0.10566000000E+00 0. -1.
     999900   -1    0    0    0    0 -0.00000000000E+00 -0.00000000000E+00 -0.74505805969E-08  0.93827000000E+00  0.93827000000E+00 0. -1.
     999902    2    1    2    0    0  0.40261934424E-02  0.11685084168E-01  0.10610844351E-01  0.10276406954E+01  0.10275115851E+01 0.  0.
     999903    2    3    3    0    0  0.87590532226E-01  0.10016573743E+00 -0.31604775628E-01  0.13826227018E+00  0.20305595835E-01 0.  0.
         14    1    1    2    0    0 -0.40261934424E-02 -0.11685084168E-01 -0.10610844351E-01  0.16289304574E-01  0.00000000000E+00 0.  1.
     999901    1    3    3    0    0 -0.83564338784E-01 -0.88480653266E-01  0.42215619979E-01  0.88937842524E+00  0.88000000000E+00 0.  1.
        -11    1    4    4    0    0  0.10727994669E-01  0.24465053452E-01 -0.62187996726E-02  0.27432887205E-01  0.51100000000E-03 0. -1.
         11    1    4    4    0    0  0.76862537557E-01  0.75700683982E-01 -0.25385975955E-01  0.11082938298E+00  0.51100000000E-03 0.  1.
</event>
<event>
 8    1  0.1148488E+005  0.1043930E+01  0.7957747E-01            NaN
         13   -1    0    0    0    0  0.00000000000E+00  0.00000000000E+00  0.74505805969E-08  0.10566000000E+00  0.10566000000E+00 0.  1.
     999900   -1    0    0    0    0 -0.00000000000E+00 -0.00000000000E+00 -0.74505805969E-08  0.93827000000E+00  0.93827000000E+00 0.  1.
     999902    2    1    2    0    0 -0.12362638140E-03  0.92507493512E-02  0.20456336937E-01  0.10214788671E+01  0.10212321100E+01 0.  0.
     999903    2    3    3    0    0 -0.68181097343E-01  0.84307048774E-01 -0.70490525111E-01  0.13100899162E+00  0.20930868306E-01 0.  0.
         14    1    1    2    0    0  0.12362638140E-03 -0.92507493512E-02 -0.20456336937E-01  0.22451132887E-01  0.00000000000E+00 0. -1.
     999901    1    3    3    0    0  0.68057470961E-01 -0.75056299423E-01  0.90946862048E-01  0.89046987549E+00  0.88000000000E+00 0. -1.
        -11    1    4    4    0    0 -0.49231137788E-01  0.45571857397E-01 -0.38884573833E-01  0.77542055155E-01  0.51100000000E-03 0. -1.
         11    1    4    4    0    0 -0.18949959554E-01  0.38735191378E-01 -0.31605951278E-01  0.53466936468E-01  0.51100000000E-03 0.  1.
</event>
<event>
 8    1  0.1148488E+005  0.1043930E+01  0.7957747E-01            NaN
         13   -1    0    0    0    0  0.00000000000E+00  0.00000000000E+00  0.74505805969E-08  0.10566000000E+00  0.10566000000E+00 0.  1.
     999900   -1    0    0    0    0 -0.00000000000E+00 -0.00000000000E+00 -0.74505805969E-08  0.93827000000E+00  0.93827000000E+00 0. -1.
     999902    2    1    2    0    0 -0.13267959609E-01  0.22785285208E-01  0.21484346934E-01  0.10099184558E+01  0.10093455812E+01 0.  0.
     999903    2    3    3    0    0 -0.81813032126E-01 -0.15169120397E-01  0.89363858884E-01  0.12383347569E+00  0.20624160288E-01 0.  0.
         14    1    1    2    0    0  0.13267959609E-01 -0.22785285208E-01 -0.21484346934E-01  0.34011544179E-01  0.00000000000E+00 0. -1.
     999901    1    3    3    0    0  0.68545072517E-01  0.37954405606E-01 -0.67879511950E-01  0.88608498013E+00  0.88000000000E+00 0. -1.
        -11    1    4    4    0    0 -0.12483881769E-01 -0.99373843398E-02  0.13278574596E-01  0.20764888053E-01  0.51100000000E-03 0. -1.
         11    1    4    4    0    0 -0.69329150357E-01 -0.52317360575E-02  0.76085284288E-01  0.10306858764E+00  0.51100000000E-03 0.  1.
</event>
<event>
 8    1  0.1148488E+005  0.1043930E+01  0.7957747E-01            NaN
         13   -1    0    0    0    0  0.00000000000E+00  0.00000000000E+00  0.74505805969E-08  0.10566000000E+00  0.10566000000E+00 0.  1.
     999900   -1    0    0    0    0 -0.00000000000E+00 -0.00000000000E+00 -0.74505805969E-08  0.93827000000E+00  0.93827000000E+00 0. -1.
     999902    2    1    2    0    0 -0.48881571035E-02 -0.22323162270E-01 -0.26317933811E-02  0.10209268700E+01  0.10206676883E+01 0.  0.
     999903    2    3    3    0    0  0.11679625560E+00  0.52772510708E-01 -0.85197127233E-02  0.12936580984E+00  0.15382588899E-01 0.  0.
         14    1    1    2    0    0  0.48881571035E-02  0.22323162270E-01  0.26317933811E-02  0.23003130005E-01  0.00000000000E+00 0.  1.
     999901    1    3    3    0    0 -0.12168441270E+00 -0.75095672979E-01  0.58879193422E-02  0.89156106016E+00  0.88000000000E+00 0. -1.
        -11    1    4    4    0    0  0.68393140006E-01  0.23826917953E-01 -0.72923640171E-03  0.72430218319E-01  0.51100000000E-03 0. -1.
         11    1    4    4    0    0  0.48403115595E-01  0.28945592756E-01 -0.77904763216E-02  0.56935591519E-01  0.51100000000E-03 0.  1.
</event>
<event>
 8    1  0.1148488E+005  0.1043930E+01  0.7957747E-01            NaN
         13   -1    0    0    0    0  0.00000000000E+00  0.00000000000E+00  0.74505805969E-08  0.10566000000E+00  0.10566000000E+00 0. -1.
     999900   -1    0    0    0    0 -0.00000000000E+00 -0.00000000000E+00 -0.74505805969E-08  0.93827000000E+00  0.93827000000E+00 0. -1.
     999902    2    1    2    0    0 -0.74363320176E-02  0.22660498078E-01  0.28544704298E-02  0.10199103162E+01  0.10196274359E+01 0.  0.
     999903    2    3    3    0    0  0.91095341120E-01  0.49061736666E-01  0.77518255949E-01  0.13087702277E+00  0.20354358393E-01 0.  0.
         14    1    1    2    0    0  0.74363320176E-02 -0.22660498078E-01 -0.28544704298E-02  0.24019683770E-01  0.00000000000E+00 0.  1.
     999901    1    3    3    0    0 -0.98531673138E-01 -0.26401238588E-01 -0.74663785519E-01  0.88903329346E+00  0.88000000000E+00 0. -1.
        -11    1    4    4    0    0  0.55539915046E-01  0.31313252191E-01  0.59611213796E-01  0.87286653375E-01  0.51100000000E-03 0.  1.
         11    1    4    4    0    0  0.35555426074E-01  0.17748484474E-01  0.17907042153E-01  0.43590369396E-01  0.51100000000E-03 0. -1.
</event>
<event>
 8    1  0.1148488E+005  0.1043930E+01  0.7957747E-01            NaN
         13   -1    0    0    0    0  0.00000000000E+00  0.00000000000E+00  0.74505805969E-08  0.10566000000E+00  0.10566000000E+00 0.  1.
     999900   -1    0    0    0    0 -0.00000000000E+00 -0.00000000000E+00 -0.74505805969E-08  0.93827000000E+00  0.93827000000E+00 0.  1.
     999902    2    1    2    0    0  0.32513471146E-03  0.74597693552E-02  0.22779246537E-01  0.10199581844E+01  0.10196764437E+01 0.  0.
     999903    2    3    3    0    0 -0.12517193717E+00  0.62481553646E-02  0.32299880562E-01  0.13100282806E+00  0.20283130299E-01 0.  0.
         14    1    1    2    0    0 -0.32513471146E-03 -0.74597693552E-02 -0.22779246537E-01  0.23971815622E-01  0.00000000000E+00 0. -1.
     999901    1    3    3    0    0  0.12549707188E+00  0.12116139906E-02 -0.95206340249E-02  0.88895535632E+00  0.88000000000E+00 0. -1.
        -11    1    4    4    0    0 -0.54686304424E-01  0.40852351310E-02  0.39039102902E-02  0.54979838797E-01  0.51100000000E-03 0. -1.
         11    1    4    4    0    0 -0.70485632744E-01  0.21629202336E-02  0.28395970272E-01  0.76022989260E-01  0.51100000000E-03 0.  1.
</event>
<event>
 8    1  0.1148488E+005  0.1043930E+01  0.7957747E-01            NaN
         13   -1    0    0    0    0  0.00000000000E+00  0.00000000000E+00  0.74505805969E-08  0.10566000000E+00  0.10566000000E+00 0.  1.
     999900   -1    0    0    0    0 -0.00000000000E+00 -0.00000000000E+00 -0.74505805969E-08  0.93827000000E+00  0.93827000000E+00 0.  1.
     999902    2    1    2    0    0  0.15324463454E-01 -0.65782405857E-02 -0.17155509426E-01  0.10200046174E+01  0.10197239801E+01 0.  0.
     999903    2    3    3    0    0 -0.11536001865E+00  0.45441872204E-01 -0.28519000791E-01  0.12876185869E+00  0.19833940472E-01 0.  0.
         14    1    1    2    0    0 -0.15324463454E-01  0.65782405857E-02  0.17155509426E-01  0.23925382610E-01  0.00000000000E+00 0.  1.
     999901    1    3    3    0    0  0.13068448211E+00 -0.52020112790E-01  0.11363491365E-01  0.89124275870E+00  0.88000000000E+00 0.  1.
        -11    1    4    4    0    0 -0.21901588510E-01  0.97592423343E-02 -0.13728956129E-01  0.27634539033E-01  0.51100000000E-03 0.  1.
         11    1    4    4    0    0 -0.93458430142E-01  0.35682629870E-01 -0.14790044662E-01  0.10112731966E+00  0.51100000000E-03 0. -1.
</event>
<event>
 8    1  0.1148488E+005  0.1043930E+01  0.7957747E-01            NaN
         13   -1    0    0    0    0  0.00000000000E+00  0.00000000000E+00  0.74505805969E-08  0.10566000000E+00  0.10566000000E+00 0. -1.
     999900   -1    0    0    0    0 -0.00000000000E+00 -0.00000000000E+00 -0.74505805969E-08  0.93827000000E+00  0.93827000000E+00 0.  1.
     999902    2    1    2    0    0 -0.76833182636E-02 -0.98709225080E-02 -0.20285519264E-01  0.10200978624E+01  0.10198194341E+01 0.  0.
     999903    2    3    3    0    0  0.11793329825E+00  0.48118449268E-01  0.32623767998E-02  0.12897676794E+00  0.20017881266E-01 0.  0.
         14    1    1    2    0    0  0.76833182636E-02  0.98709225080E-02  0.20285519264E-01  0.23832137598E-01  0.00000000000E+00 0. -1.
     999901    1    3    3    0    0 -0.12561661651E+00 -0.57989371776E-01 -0.23547896064E-01  0.89112109446E+00  0.88000000000E+00 0.  1.
        -11    1    4    4    0    0  0.75927648092E-02  0.83436940662E-02  0.30012184485E-02  0.11684850932E-01  0.51100000000E-03 0. -1.
         11    1    4    4    0    0  0.11034053344E+00  0.39774755201E-01  0.26115835135E-03  0.11729191701E+00  0.51100000000E-03 0.  1.
</event>
<event>
 8    1  0.1148488E+005  0.1043930E+01  0.7957747E-01            NaN
         13   -1    0    0    0    0  0.00000000000E+00  0.00000000000E+00  0.74505805969E-08  0.10566000000E+00  0.10566000000E+00 0. -1.
     999900   -1    0    0    0    0 -0.00000000000E+00 -0.00000000000E+00 -0.74505805969E-08  0.93827000000E+00  0.93827000000E+00 0. -1.
     999902    2    1    2    0    0 -0.11206789278E-01  0.38273400903E-02  0.22854414286E-01  0.10181896637E+01  0.10178642476E+01 0.  0.
     999903    2    3    3    0    0 -0.12375993784E+00 -0.32707153447E-01  0.12507923655E-01  0.13020879101E+00  0.20287952148E-01 0.  0.
         14    1    1    2    0    0  0.11206789278E-01 -0.38273400903E-02 -0.22854414286E-01  0.25740336253E-01  0.00000000000E+00 0.  1.
     999901    1    3    3    0    0  0.11255314856E+00  0.36534493538E-01  0.10346490631E-01  0.88798087273E+00  0.88000000000E+00 0. -1.
        -11    1    4    4    0    0 -0.28142866282E-01 -0.13674616188E-01  0.93620870059E-02  0.32663830831E-01  0.51100000000E-03 0. -1.
         11    1    4    4    0    0 -0.95617071559E-01 -0.19032537259E-01  0.31458366489E-02  0.97544960183E-01  0.51100000000E-03 0.  1.
</event>
<event>
 8    1  0.1148488E+005  0.1043930E+01  0.7957747E-01            NaN
         13   -1    0    0    0    0  0.00000000000E+00  0.00000000000E+00  0.74505805969E-08  0.10566000000E+00  0.10566000000E+00 0. -1.
     999900   -1    0    0    0    0 -0.00000000000E+00 -0.00000000000E+00 -0.74505805969E-08  0.93827000000E+00  0.93827000000E+00 0.  1.
     999902    2    1    2    0    0  0.88580612123E-02  0.10573636669E-01 -0.20379766105E-01  0.10193210198E+01  0.10190239151E+01 0.  0.
     999903    2    3    3    0    0 -0.12281582017E+00 -0.12173362128E-02 -0.35366415365E-01  0.12932009971E+00  0.19690029500E-01 0.  0.
         14    1    1    2    0    0 -0.88580612123E-02 -0.10573636669E-01  0.20379766105E-01  0.24608980217E-01  0.00000000000E+00 0.  1.
     999901    1    3    3    0    0  0.13167388138E+00  0.11790972882E-01  0.14986649260E-01  0.89000092008E+00  0.88000000000E+00 0. -1.
        -11    1    4    4    0    0 -0.34501180952E-01  0.23965532900E-02 -0.18880813554E-01  0.39405852309E-01  0.51100000000E-03 0. -1.
         11    1    4    4    0    0 -0.88314639215E-01 -0.36138895028E-02 -0.16485601810E-01  0.89914247398E-01  0.51100000000E-03 0.  1.
</event>
<event>
 8    1  0.1148488E+005  0.1043930E+01  0.7957747E-01            NaN
         13   -1    0    0    0    0  0.00000000000E+00  0.00000000000E+00  0.74505805969E-08  0.10566000000E+00  0.10566000000E+00 0. -1.
     999900   -1    0    0    0    0 -0.00000000000E+00 -0.00000000000E+00 -0.74505805969E-08  0.93827000000E+00  0.93827000000E+00 0. -1.
     999902    2    1    2    0    0  0.18142084883E-01 -0.10152277236E-01  0.92322652806E-02  0.10211827211E+01  0.10209293370E+01 0.  0.
     999903    2    3    3    0    0 -0.69020854443E-01 -0.18644725330E-01  0.10843233922E+00  0.13128938232E+00  0.19178779680E-01 0.  0.
         14    1    1    2    0    0 -0.18142084883E-01  0.10152277236E-01 -0.92322652806E-02  0.22747278940E-01  0.00000000000E+00 0.  1.
     999901    1    3    3    0    0  0.87162939326E-01  0.84924480937E-02 -0.99200073940E-01  0.88989333874E+00  0.88000000000E+00 0. -1.
        -11    1    4    4    0    0 -0.39308521258E-01 -0.19148592929E-01  0.56383226659E-01  0.71352349815E-01  0.51100000000E-03 0. -1.
         11    1    4    4    0    0 -0.29712333185E-01  0.50386759892E-03  0.52049112562E-01  0.59937032504E-01  0.51100000000E-03 0.  1.
</event>
<event>
 8    1  0.1148488E+005  0.1043930E+01  0.7957747E-01            NaN
         13   -1    0    0    0    0  0.00000000000E+00  0.00000000000E+00  0.74505805969E-08  0.10566000000E+00  0.10566000000E+00 0. -1.
     999900   -1    0    0    0    0 -0.00000000000E+00 -0.00000000000E+00 -0.74505805969E-08  0.93827000000E+00  0.93827000000E+00 0.  1.
     999902    2    1    2    0    0 -0.14520896347E-01  0.17731038873E-01 -0.67985696116E-02  0.10200246299E+01  0.10197444675E+01 0.  0.
     999903    2    3    3    0    0 -0.13201753954E-01 -0.12236022515E+00  0.29544243743E-01  0.12820172010E+00  0.20408520065E-01 0.  0.
         14    1    1    2    0    0  0.14520896347E-01 -0.17731038873E-01  0.67985696116E-02  0.23905370087E-01  0.00000000000E+00 0. -1.
     999901    1    3    3    0    0 -0.13191423929E-02  0.14009126402E+00 -0.36342813355E-01  0.89182290982E+00  0.88000000000E+00 0. -1.
        -11    1    4    4    0    0  0.18738246961E-02 -0.11367621489E-01  0.82581439652E-02  0.14184220108E-01  0.51100000000E-03 0. -1.
         11    1    4    4    0    0 -0.15075578650E-01 -0.11099260366E+00  0.21286099778E-01  0.11401749999E+00  0.51100000000E-03 0.  1.
</event>
<event>
 8    1  0.1148488E+005  0.1043930E+01  0.7957747E-01            NaN
         13   -1    0    0    0    0  0.00000000000E+00  0.00000000000E+00  0.74505805969E-08  0.10566000000E+00  0.10566000000E+00 0. -1.
     999900   -1    0    0    0    0 -0.00000000000E+00 -0.00000000000E+00 -0.74505805969E-08  0.93827000000E+00  0.93827000000E+00 0.  1.
     999902    2    1    2    0    0  0.21996489776E-02  0.17353960599E-01 -0.14230989309E-02  0.10263793985E+01  0.10262293340E+01 0.  0.
     999903    2    3    3    0    0 -0.18139058018E-01 -0.12429997510E+00 -0.42283413031E-01  0.13388342324E+00  0.18904358355E-01 0.  0.
         14    1    1    2    0    0 -0.21996489776E-02 -0.17353960599E-01  0.14230989309E-02  0.17550601547E-01  0.00000000000E+00 0. -1.
     999901    1    3    3    0    0  0.20338706996E-01  0.14165393570E+00  0.40860314100E-01  0.89249597521E+00  0.88000000000E+00 0. -1.
        -11    1    4    4    0    0 -0.39189105900E-02 -0.70630524431E-01 -0.30947965493E-01  0.77214419190E-01  0.51100000000E-03 0. -1.
         11    1    4    4    0    0 -0.14220147428E-01 -0.53669450671E-01 -0.11335447538E-01  0.56669004051E-01  0.51100000000E-03 0.  1.
</event>
<event>
 8    1  0.1148488E+005  0.1043930E+01  0.7957747E-01            NaN
         13   -1    0    0    0    0  0.00000000000E+00  0.00000000000E+00  0.74505805969E-08  0.10566000000E+00  0.10566000000E+00 0.  1.
     999900   -1    0    0    0    0 -0.00000000000E+00 -0.00000000000E+00 -0.74505805969E-08  0.93827000000E+00  0.93827000000E+00 0.  1.
     999902    2    1    2    0    0 -0.15469589503E-01 -0.16402341910E-02  0.17890444300E-01  0.10202220569E+01  0.10199465569E+01 0.  0.
     999903    2    3    3    0    0  0.18919775212E-01 -0.75954992419E-01  0.10458690702E+00  0.13217837087E+00  0.20139062520E-01 0.  0.
         14    1    1    2    0    0  0.15469589503E-01  0.16402341910E-02 -0.17890444300E-01  0.23707943075E-01  0.00000000000E+00 0. -1.
     999901    1    3    3    0    0 -0.34389364715E-01  0.74314758228E-01 -0.86696462716E-01  0.88804368606E+00  0.88000000000E+00 0.  1.
        -11    1    4    4    0    0  0.73305719028E-02 -0.62759790222E-01  0.79560198645E-01  0.10160027009E+00  0.51100000000E-03 0. -1.
         11    1    4    4    0    0  0.11589203309E-01 -0.13195202197E-01  0.25026708370E-01  0.30578100779E-01  0.51100000000E-03 0.  1.
</event>
<event>
 8    1  0.1148488E+005  0.1043930E+01  0.7957747E-01            NaN
         13   -1    0    0    0    0  0.00000000000E+00  0.00000000000E+00  0.74505805969E-08  0.10566000000E+00  0.10566000000E+00 0. -1.
     999900   -1    0    0    0    0 -0.00000000000E+00 -0.00000000000E+00 -0.74505805969E-08  0.93827000000E+00  0.93827000000E+00 0.  1.
     999902    2    1    2    0    0 -0.40374709208E-02 -0.70774758986E-02  0.18032479321E-01  0.10241420707E+01  0.10239508869E+01 0.  0.
     999903    2    3    3    0    0  0.51557482246E-01 -0.57696330777E-02  0.12415670364E+00  0.13602335099E+00  0.19899806873E-01 0.  0.
         14    1    1    2    0    0  0.40374709208E-02  0.70774758986E-02 -0.18032479321E-01  0.19787929326E-01  0.00000000000E+00 0.  1.
     999901    1    3    3    0    0 -0.55594953167E-01 -0.13078428209E-02 -0.10612422432E+00  0.88811871969E+00  0.88000000000E+00 0.  1.
        -11    1    4    4    0    0  0.25420292205E-01 -0.12826523939E-01  0.64897276566E-01  0.70870505846E-01  0.51100000000E-03 0.  1.
         11    1    4    4    0    0  0.26137190041E-01  0.70568908614E-02  0.59259427075E-01  0.65152845142E-01  0.51100000000E-03 0. -1.
</event>
<event>
 8    1  0.1148488E+005  0.1043930E+01  0.7957747E-01            NaN
         13   -1    0    0    0    0  0.00000000000E+00  0.00000000000E+00  0.74505805969E-08  0.10566000000E+00  0.10566000000E+00 0.  1.
     999900   -1    0    0    0    0 -0.00000000000E+00 -0.00000000000E+00 -0.74505805969E-08  0.93827000000E+00  0.93827000000E+00 0.  1.
     999902    2    1    2    0    0  0.22257636057E-01  0.17260355566E-01  0.12757029252E-01  0.10130097149E+01  0.10125377121E+01 0.  0.
     999903    2    3    3    0    0  0.12499504989E+00  0.16534361436E-02  0.12803449497E-01  0.12689541395E+00  0.17664127924E-01 0.  0.
         14    1    1    2    0    0 -0.22257636057E-01 -0.17260355566E-01 -0.12757029252E-01  0.30920285129E-01  0.00000000000E+00 0.  1.
     999901    1    3    3    0    0 -0.10273741383E+00  0.15606919422E-01 -0.46420245139E-04  0.88611430092E+00  0.88000000000E+00 0.  1.
        -11    1    4    4    0    0  0.10739302868E+00  0.50087837058E-03  0.17060582830E-01  0.10874207141E+00  0.51100000000E-03 0.  1.
         11    1    4    4    0    0  0.17602021215E-01  0.11525577730E-02 -0.42571333327E-02  0.18153342543E-01  0.51100000000E-03 0. -1.
</event>
<event>
 8    1  0.1148488E+005  0.1043930E+01  0.7957747E-01            NaN
         13   -1    0    0    0    0  0.00000000000E+00  0.00000000000E+00  0.74505805969E-08  0.10566000000E+00  0.10566000000E+00 0.  1.
     999900   -1    0    0    0    0 -0.00000000000E+00 -0.00000000000E+00 -0.74505805969E-08  0.93827000000E+00  0.93827000000E+00 0. -1.
     999902    2    1    2    0    0  0.20194771853E-01  0.11335388742E-01  0.53922920459E-02  0.10201519290E+01  0.10198747774E+01 0.  0.
     999903    2    3    3    0    0  0.40372904213E-01  0.10864616673E+00 -0.60092116381E-01  0.13214024421E+00  0.20396586680E-01 0.  0.
         14    1    1    2    0    0 -0.20194771853E-01 -0.11335388742E-01 -0.53922920459E-02  0.23778071024E-01  0.00000000000E+00 0.  1.
     999901    1    3    3    0    0 -0.20178132361E-01 -0.97310777989E-01  0.65484408426E-01  0.88801168477E+00  0.88000000000E+00 0.  1.
        -11    1    4    4    0    0  0.22283626375E-01  0.51696891032E-01 -0.40139849958E-01  0.69141863025E-01  0.51100000000E-03 0. -1.
         11    1    4    4    0    0  0.18089277839E-01  0.56949275698E-01 -0.19952266422E-01  0.62998381183E-01  0.51100000000E-03 0.  1.
</event>
<event>
 8    1  0.1148488E+005  0.1043930E+01  0.7957747E-01            NaN
         13   -1    0    0    0    0  0.00000000000E+00  0.00000000000E+00  0.74505805969E-08  0.10566000000E+00  0.10566000000E+00 0. -1.
     999900   -1    0    0    0    0 -0.00000000000E+00 -0.00000000000E+00 -0.74505805969E-08  0.93827000000E+00  0.93827000000E+00 0. -1.
     999902    2    1    2    0    0 -0.73748243062E-02 -0.13861735647E-01  0.17877194755E-01  0.10201365168E+01  0.10198590016E+01 0.  0.
     999903    2    3    3    0    0 -0.74932967359E-01 -0.95902482764E-01 -0.45035584298E-01  0.13151240921E+00  0.21332466495E-01 0.  0.
         14    1    1    2    0    0  0.73748243062E-02  0.13861735647E-01 -0.17877194755E-01  0.23793483163E-01  0.00000000000E+00 0.  1.
     999901    1    3    3    0    0  0.67558143053E-01  0.82040747117E-01  0.62912779053E-01  0.88862410762E+00  0.88000000000E+00 0.  1.
        -11    1    4    4    0    0 -0.41868694209E-01 -0.37978102411E-01 -0.25474389498E-01  0.62004269682E-01  0.51100000000E-03 0. -1.
         11    1    4    4    0    0 -0.33064273150E-01 -0.57924380354E-01 -0.19561194800E-01  0.69508139533E-01  0.51100000000E-03 0.  1.
</event>
<event>
 8    1  0.1148488E+005  0.1043930E+01  0.7957747E-01            NaN
         13   -1    0    0    0    0  0.00000000000E+00  0.00000000000E+00  0.74505805969E-08  0.10566000000E+00  0.10566000000E+00 0.  1.
     999900   -1    0    0    0    0 -0.00000000000E+00 -0.00000000000E+00 -0.74505805969E-08  0.93827000000E+00  0.93827000000E+00 0. -1.
     999902    2    1    2    0    0 -0.43718764076E-02 -0.57668502447E-02  0.22658556896E-01  0.10201438682E+01  0.10198665265E+01 0.  0.
     999903    2    3    3    0    0  0.45677079136E-01 -0.32719542284E-01  0.11597242095E+00  0.13338639134E+00  0.34429100569E-01 0.  0.
         14    1    1    2    0    0  0.43718764076E-02  0.57668502447E-02 -0.22658556896E-01  0.23786131793E-01  0.00000000000E+00 0. -1.
     999901    1    3    3    0    0 -0.50048955544E-01  0.26952692039E-01 -0.93313864058E-01  0.88675747687E+00  0.88000000000E+00 0. -1.
        -11    1    4    4    0    0  0.36196163910E-01 -0.18666900486E-01  0.46233996552E-01  0.61615412145E-01  0.51100000000E-03 0.  1.
         11    1    4    4    0    0  0.94809152265E-02 -0.14052641798E-01  0.69738424403E-01  0.71770979192E-01  0.51100000000E-03 0. -1.
</event>
<event>
 8    1  0.1148488E+005  0.1043930E+01  0.7957747E-01            NaN
         13   -1    0    0    0    0  0.00000000000E+00  0.00000000000E+00  0.74505805969E-08  0.10566000000E+00  0.10566000000E+00 0. -1.
     999900   -1    0    0    0    0 -0.00000000000E+00 -0.00000000000E+00 -0.74505805969E-08  0.93827000000E+00  0.93827000000E+00 0. -1.
     999902    2    1    2    0    0 -0.57726946862E-02  0.16271569659E-01 -0.19001888425E-01  0.10182558935E+01  0.10179321710E+01 0.  0.
     999903    2    3    3    0    0  0.17296352129E-01  0.10610839915E+00  0.68409386016E-01  0.12907449028E+00  0.20548084561E-01 0.  0.
         14    1    1    2    0    0  0.57726946862E-02 -0.16271569659E-01  0.19001888425E-01  0.25674106544E-01  0.00000000000E+00 0. -1.
     999901    1    3    3    0    0 -0.23069046815E-01 -0.89836829489E-01 -0.87411274441E-01  0.88918140318E+00  0.88000000000E+00 0.  1.
        -11    1    4    4    0    0  0.19946456808E-01  0.78076424056E-01  0.44049566440E-01  0.91839068795E-01  0.51100000000E-03 0. -1.
         11    1    4    4    0    0 -0.26501046789E-02  0.28031975092E-01  0.24359819576E-01  0.37235421485E-01  0.51100000000E-03 0.  1.
</event>
<event>
 8    1  0.1148488E+005  0.1043930E+01  0.7957747E-01            NaN
         13   -1    0    0    0    0  0.00000000000E+00  0.00000000000E+00  0.74505805969E-08  0.10566000000E+00  0.10566000000E+00 0. -1.
     999900   -1    0    0    0    0 -0.00000000000E+00 -0.00000000000E+00 -0.74505805969E-08  0.93827000000E+00  0.93827000000E+00 0. -1.
     999902    2    1    2    0    0  0.12061611895E-01  0.16593088497E-01  0.68916557972E-02  0.10222895752E+01  0.10220605009E+01 0.  0.
     999903    2    3    3    0    0 -0.81157712095E-01  0.20109958734E-01 -0.99028975148E-01  0.13104247654E+00  0.19349627060E-01 0.  0.
         14    1    1    2    0    0 -0.12061611895E-01 -0.16593088497E-01 -0.68916557972E-02  0.21640424834E-01  0.00000000000E+00 0.  1.
     999901    1    3    3    0    0  0.93219323989E-01 -0.35168702377E-02  0.10592063095E+00  0.89124709862E+00  0.88000000000E+00 0.  1.
        -11    1    4    4    0    0 -0.52534801299E-02  0.20437374991E-02 -0.16610546211E-01  0.17548426791E-01  0.51100000000E-03 0.  1.
         11    1    4    4    0    0 -0.75904231965E-01  0.18066221235E-01 -0.82418428938E-01  0.11349404975E+00  0.51100000000E-03 0. -1.
</event>
<event>
 8    1  0.1148488E+005  0.1043930E+01  0.7957747E-01            NaN
         13   -1    0    0    0    0  0.00000000000E+00  0.00000000000E+00  0.74505805969E-08  0.10566000000E+00  0.10566000000E+00 0. -1.
     999900   -1    0    0    0    0 -0.00000000000E+00 -0.00000000000E+00 -0.74505805969E-08  0.93827000000E+00  0.93827000000E+00 0.  1.
     999902    2    1    2    0    0 -0.65507740150E-02 -0.68002336923E-02  0.21934739621E-01  0.10200492835E+01  0.10197697054E+01 0.  0.
     999903    2    3    3    0    0  0.96458109379E-01  0.83537533750E-01 -0.11992076473E-02  0.12914697583E+00  0.19869998935E-01 0.  0.
         14    1    1    2    0    0  0.65507740150E-02  0.68002336923E-02 -0.21934739621E-01  0.23880716504E-01  0.00000000000E+00 0.  1.
     999901    1    3    3    0    0 -0.10300888339E+00 -0.90337767443E-01  0.23133947269E-01  0.89090230766E+00  0.88000000000E+00 0. -1.
        -11    1    4    4    0    0  0.29054287678E-01  0.14921961188E-01 -0.40700456878E-02  0.32918732526E-01  0.51100000000E-03 0. -1.
         11    1    4    4    0    0  0.67403821701E-01  0.68615572562E-01  0.28708380405E-02  0.96228243307E-01  0.51100000000E-03 0.  1.
</event>
<event>
 8    1  0.1148488E+005  0.1043930E+01  0.7957747E-01            NaN
         13   -1    0    0    0    0  0.00000000000E+00  0.00000000000E+00  0.74505805969E-08  0.10566000000E+00  0.10566000000E+00 0.  1.
     999900   -1    0    0    0    0 -0.00000000000E+00 -0.00000000000E+00 -0.74505805969E-08  0.93827000000E+00  0.93827000000E+00 0. -1.
     999902    2    1    2    0    0 -0.15204679608E-01 -0.14806344387E-01  0.97744619417E-02  0.10205644223E+01  0.10202969126E+01 0.  0.
     999903    2    3    3    0    0 -0.24485925899E-01 -0.34084761707E-01 -0.12185779744E+00  0.13051675467E+00  0.20590505211E-01 0.  0.
         14    1    1    2    0    0  0.15204679608E-01  0.14806344387E-01 -0.97744619417E-02  0.23365577723E-01  0.00000000000E+00 0. -1.
     999901    1    3    3    0    0  0.92812462912E-02  0.19278417321E-01  0.13163225938E+00  0.89004766761E+00  0.88000000000E+00 0. -1.
        -11    1    4    4    0    0 -0.95135783921E-02 -0.52630505728E-02 -0.13206207467E-01  0.17113530080E-01  0.51100000000E-03 0.  1.
         11    1    4    4    0    0 -0.14972347507E-01 -0.28821711135E-01 -0.10865158997E+00  0.11340322459E+00  0.51100000000E-03 0. -1.
</event>
<event>
 8    1  0.1148488E+005  0.1043930E+01  0.7957747E-01            NaN
         13   -1    0    0    0    0  0.00000000000E+00  0.00000000000E+00  0.74505805969E-08  0.10566000000E+00  0.10566000000E+00 0.  1.
     999900   -1    0    0    0    0 -0.00000000000E+00 -0.00000000000E+00 -0.74505805969E-08  0.93827000000E+00  0.93827000000E+00 0. -1.
     999902    2    1    2    0    0 -0.13224407566E-01  0.56329261448E-02 -0.12772300907E-01  0.10247012069E+01  0.10245207743E+01 0.  0.
     999903    2    3    3    0    0  0.12770812957E+00 -0.17911670729E-01 -0.16121273217E-01  0.13317019587E+00  0.29055314679E-01 0.  0.
         14    1    1    2    0    0  0.13224407566E-01 -0.56329261448E-02  0.12772300907E-01  0.19228793069E-01  0.00000000000E+00 0.  1.
     999901    1    3    3    0    0 -0.14093253714E+00  0.23544596874E-01  0.33489723094E-02  0.89153101106E+00  0.88000000000E+00 0.  1.
        -11    1    4    4    0    0  0.70527934804E-01 -0.21231351421E-01 -0.18135992700E-01  0.75856016393E-01  0.51100000000E-03 0. -1.
         11    1    4    4    0    0  0.57180194768E-01  0.33196806914E-02  0.20147194832E-02  0.57314179478E-01  0.51100000000E-03 0.  1.
</event>
<event>
 8    1  0.1148488E+005  0.1043930E+01  0.7957747E-01            NaN
         13   -1    0    0    0    0  0.00000000000E+00  0.00000000000E+00  0.74505805969E-08  0.10566000000E+00  0.10566000000E+00 0. -1.
     999900   -1    0    0    0    0 -0.00000000000E+00 -0.00000000000E+00 -0.74505805969E-08  0.93827000000E+00  0.93827000000E+00 0. -1.
     999902    2    1    2    0    0 -0.12141837978E-01 -0.62883136260E-02  0.18884691364E-01  0.10206147971E+01  0.10203484529E+01 0.  0.
     999903    2    3    3    0    0 -0.11379016708E+00 -0.63999114051E-01  0.98231467339E-02  0.13283947031E+00  0.22488706852E-01 0.  0.
         14    1    1    2    0    0  0.12141837978E-01  0.62883136260E-02 -0.18884691364E-01  0.23315202887E-01  0.00000000000E+00 0. -1.
     999901    1    3    3    0    0  0.10164832910E+00  0.57710800425E-01  0.90615446296E-02  0.88777532681E+00  0.88000000000E+00 0.  1.
        -11    1    4    4    0    0 -0.34094120104E-01 -0.15968729659E-01 -0.69499738344E-02  0.38288021755E-01  0.51100000000E-03 0. -1.
         11    1    4    4    0    0 -0.79696046978E-01 -0.48030384392E-01  0.16773120568E-01  0.94551448552E-01  0.51100000000E-03 0.  1.
</event>
<event>
 8    1  0.1148488E+005  0.1043930E+01  0.7957747E-01            NaN
         13   -1    0    0    0    0  0.00000000000E+00  0.00000000000E+00  0.74505805969E-08  0.10566000000E+00  0.10566000000E+00 0.  1.
     999900   -1    0    0    0    0 -0.00000000000E+00 -0.00000000000E+00 -0.74505805969E-08  0.93827000000E+00  0.93827000000E+00 0. -1.
     999902    2    1    2    0    0  0.65818434821E-02 -0.12602413063E-01 -0.19354760812E-01  0.10199144166E+01  0.10196316340E+01 0.  0.
     999903    2    3    3    0    0 -0.10079304500E+00  0.91701411349E-02 -0.80221307390E-01  0.13103413938E+00  0.22162087326E-01 0.  0.
         14    1    1    2    0    0 -0.65818434821E-02  0.12602413063E-01  0.19354760812E-01  0.24015583372E-01  0.00000000000E+00 0.  1.
     999901    1    3    3    0    0  0.10737488848E+00 -0.21772554198E-01  0.60866546579E-01  0.88888027725E+00  0.88000000000E+00 0.  1.
        -11    1    4    4    0    0 -0.57786784594E-01  0.26298123272E-02 -0.59006540977E-01  0.82633294656E-01  0.51100000000E-03 0. -1.
         11    1    4    4    0    0 -0.43006260403E-01  0.65403288077E-02 -0.21214766414E-01  0.48400844722E-01  0.51100000000E-03 0.  1.
</event>
<event>
 7    1  0.1148488E+005  0.1043930E+01  0.7957747E-01            NaN
         13   -1    0    0    0    0  0.00000000000E+00  0.00000000000E+00  0.74505805969E-08  0.10566000000E+00  0.10566000000E+00 0. -1.
     999900   -1    0    0    0    0 -0.00000000000E+00 -0.00000000000E+00 -0.74505805969E-08  0.93827000000E+00  0.93827000000E+00 0. -1.
     999903    2    1    2    0    0  0.10652308405E+00 -0.11356980335E-01 -0.41274395469E-01  0.11671066950E+00  0.21015618392E-01 0.  0.
         14    1    1    2    0    0  0.10550590593E-01  0.32657579469E-01  0.18343732558E-01  0.38914328759E-01  0.00000000000E+00 0. -1.
     999901    1    1    2    0    0 -0.11707367464E+00 -0.21300599134E-01  0.22930662910E-01  0.88830500174E+00  0.88000000000E+00 0.  1.
        -11    1    3    3    0    0  0.21597432614E-01  0.44983825549E-02 -0.31972126228E-02  0.22297260610E-01  0.51100000000E-03 0.  1.
         11    1    3    3    0    0  0.84925651433E-01 -0.15855362890E-01 -0.38077182846E-01  0.94413408890E-01  0.51100000000E-03 0. -1.
</event>
<event>
 8    1  0.1148488E+005  0.1043930E+01  0.7957747E-01            NaN
         13   -1    0    0    0    0  0.00000000000E+00  0.00000000000E+00  0.74505805969E-08  0.10566000000E+00  0.10566000000E+00 0. -1.
     999900   -1    0    0    0    0 -0.00000000000E+00 -0.00000000000E+00 -0.74505805969E-08  0.93827000000E+00  0.93827000000E+00 0. -1.
     999902    2    1    2    0    0 -0.46638783197E-03  0.43389669944E-02 -0.23145590312E-01  0.10203766032E+01  0.10201047249E+01 0.  0.
     999903    2    3    3    0    0  0.11096718716E-01 -0.11423899196E+00  0.55368389531E-01  0.12888410020E+00  0.19281293396E-01 0.  0.
         14    1    1    2    0    0  0.46638783197E-03 -0.43389669944E-02  0.23145590312E-01  0.23553396848E-01  0.00000000000E+00 0. -1.
     999901    1    3    3    0    0 -0.11563106548E-01  0.11857795896E+00 -0.78513979843E-01  0.89149250295E+00  0.88000000000E+00 0. -1.
        -11    1    4    4    0    0  0.12503144147E-01 -0.81808187703E-01  0.47712610397E-01  0.95528333497E-01  0.51100000000E-03 0.  1.
         11    1    4    4    0    0 -0.14064254307E-02 -0.32430804260E-01  0.76557791344E-02  0.33355766706E-01  0.51100000000E-03 0. -1.
</event>
<event>
 8    1  0.1148488E+005  0.1043930E+01  0.7957747E-01            NaN
         13   -1    0    0    0    0  0.00000000000E+00  0.00000000000E+00  0.74505805969E-08  0.10566000000E+00  0.10566000000E+00 0.  1.
     999900   -1    0    0    0    0 -0.00000000000E+00 -0.00000000000E+00 -0.74505805969E-08  0.93827000000E+00  0.93827000000E+00 0. -1.
     999902    2    1    2    0    0  0.10997913551E-01 -0.28650271536E-02  0.23434241152E-01  0.10178853049E+01  0.10175520467E+01 0.  0.
     999903    2    3    3    0    0  0.49907514964E-01 -0.62066031916E-01 -0.96759497778E-01  0.12689414284E+00  0.19919104102E-01 0.  0.
         14    1    1    2    0    0 -0.10997913551E-01  0.28650271536E-02 -0.23434241152E-01  0.26044695073E-01  0.00000000000E+00 0. -1.
     999901    1    3    3    0    0 -0.38909601413E-01  0.59201004762E-01  0.12019373893E+00  0.89099116209E+00  0.88000000000E+00 0.  1.
        -11    1    4    4    0    0  0.26246577202E-01 -0.37117186488E-01 -0.40125101979E-01  0.60637061913E-01  0.51100000000E-03 0.  1.
         11    1    4    4    0    0  0.23660937762E-01 -0.24948845427E-01 -0.56634395799E-01  0.66257080923E-01  0.51100000000E-03 0. -1.
</event>
<event>
 8    1  0.1148488E+005  0.1043930E+01  0.7957747E-01            NaN
         13   -1    0    0    0    0  0.00000000000E+00  0.00000000000E+00  0.74505805969E-08  0.10566000000E+00  0.10566000000E+00 0.  1.
     999900   -1    0    0    0    0 -0.00000000000E+00 -0.00000000000E+00 -0.74505805969E-08  0.93827000000E+00  0.93827000000E+00 0. -1.
     999902    2    1    2    0    0 -0.91598148672E-02  0.92552938257E-02 -0.18872926484E-01  0.10210007605E+01  0.10207432600E+01 0.  0.
     999903    2    3    3    0    0 -0.12022954095E+00  0.18924305476E-01 -0.50931331204E-01  0.13338726621E+00  0.19618624704E-01 0.  0.
         14    1    1    2    0    0  0.91598148672E-02 -0.92552938257E-02  0.18872926484E-01  0.22929239548E-01  0.00000000000E+00 0.  1.
     999901    1    3    3    0    0  0.11106972608E+00 -0.96690116501E-02  0.32058404720E-01  0.88761349424E+00  0.88000000000E+00 0. -1.
        -11    1    4    4    0    0 -0.33307146153E-01  0.13645756920E-01 -0.18378375558E-01  0.40417798999E-01  0.51100000000E-03 0. -1.
         11    1    4    4    0    0 -0.86922394797E-01  0.52785485560E-02 -0.32552955646E-01  0.92969467216E-01  0.51100000000E-03 0.  1.
</event>
<event>
 8    1  0.1148488E+005  0.1043930E+01  0.7957747E-01            NaN
         13   -1    0    0    0    0  0.00000000000E+00  0.00000000000E+00  0.74505805969E-08  0.10566000000E+00  0.10566000000E+00 0.  1.
     999900   -1    0    0    0    0 -0.00000000000E+00 -0.00000000000E+00 -0.74505805969E-08  0.93827000000E+00  0.93827000000E+00 0. -1.
     999902    2    1    2    0    0 -0.21615868208E-01 -0.32949050838E-02  0.15976071012E-01  0.10168498042E+01  0.10164891477E+01 0.  0.
     999903    2    3    3    0    0  0.71106674717E-01 -0.96396679798E-01 -0.33077278423E-01  0.12574282888E+00  0.19200875045E-01 0.  0.
         14    1    1    2    0    0  0.21615868208E-01  0.32949050838E-02 -0.15976071012E-01  0.27080195769E-01  0.00000000000E+00 0. -1.
     999901    1    3    3    0    0 -0.92722542926E-01  0.93101774714E-01  0.49053349435E-01  0.89110697535E+00  0.88000000000E+00 0. -1.
        -11    1    4    4    0    0  0.14690082081E-01 -0.19500581331E-01 -0.15036577458E-01  0.28678057229E-01  0.51100000000E-03 0. -1.
         11    1    4    4    0    0  0.56416592636E-01 -0.76896098467E-01 -0.18040700965E-01  0.97064771655E-01  0.51100000000E-03 0.  1.
</event>
<event>
 8    1  0.1148488E+005  0.1043930E+01  0.7957747E-01            NaN
         13   -1    0    0    0    0  0.00000000000E+00  0.00000000000E+00  0.74505805969E-08  0.10566000000E+00  0.10566000000E+00 0. -1.
     999900   -1    0    0    0    0 -0.00000000000E+00 -0.00000000000E+00 -0.74505805969E-08  0.93827000000E+00  0.93827000000E+00 0.  1.
     999902    2    1    2    0    0 -0.89419454271E-02  0.32388819507E-02  0.21791600068E-01  0.10201534868E+01  0.10198763720E+01 0.  0.
     999903    2    3    3    0    0 -0.10676400915E+00 -0.28897884326E-01 -0.65160859443E-01  0.12989360450E+00  0.19818413596E-01 0.  0.
         14    1    1    2    0    0  0.89419454271E-02 -0.32388819507E-02 -0.21791600068E-01  0.23776513156E-01  0.00000000000E+00 0.  1.
     999901    1    3    3    0    0  0.97822063726E-01  0.32136766277E-01  0.86952459511E-01  0.89025988235E+00  0.88000000000E+00 0. -1.
        -11    1    4    4    0    0 -0.36180068042E-01 -0.24442050952E-03 -0.21421531293E-01  0.42049972519E-01  0.51100000000E-03 0.  1.
         11    1    4    4    0    0 -0.70583941111E-01 -0.28653463817E-01 -0.43739328151E-01  0.87843631980E-01  0.51100000000E-03 0. -1.
</event>
<event>
 8    1  0.1148488E+005  0.1043930E+01  0.7957747E-01            NaN
         13   -1    0    0    0    0  0.00000000000E+00  0.00000000000E+00  0.74505805969E-08  0.10566000000E+00  0.10566000000E+00 0.  1.
     999900   -1    0    0    0    0 -0.00000000000E+00 -0.00000000000E+00 -0.74505805969E-08  0.93827000000E+00  0.93827000000E+00 0.  1.
     999902    2    1    2    0    0  0.65060871018E-02 -0.84759273793E-03  0.23030939820E-01  0.10199827293E+01  0.10197015722E+01 0.  0.
     999903    2    3    3    0    0  0.92042350097E-01 -0.20105032930E-01  0.91872186446E-01  0.13295036323E+00  0.18955048971E-01 0.  0.
         14    1    1    2    0    0 -0.65060871018E-02  0.84759273793E-03 -0.23030939820E-01  0.23947270655E-01  0.00000000000E+00 0. -1.
     999901    1    3    3    0    0 -0.85536262995E-01  0.19257440192E-01 -0.68841246625E-01  0.88703236611E+00  0.88000000000E+00 0.  1.
        -11    1    4    4    0    0  0.78390266197E-01 -0.22654199038E-01  0.72816314464E-01  0.10936509197E+00  0.51100000000E-03 0. -1.
         11    1    4    4    0    0  0.13652083900E-01  0.25491661079E-02  0.19055871981E-01  0.23585271264E-01  0.51100000000E-03 0.  1.
</event>
<event>
 8    1  0.1148488E+005  0.1043930E+01  0.7957747E-01            NaN
         13   -1    0    0    0    0  0.00000000000E+00  0.00000000000E+00  0.74505805969E-08  0.10566000000E+00  0.10566000000E+00 0. -1.
     999900   -1    0    0    0    0 -0.00000000000E+00 -0.00000000000E+00 -0.74505805969E-08  0.93827000000E+00  0.93827000000E+00 0. -1.
     999902    2    1    2    0    0  0.63384338253E-02  0.14604080322E-01  0.19637900414E-01  0.10186495325E+01  0.10183357835E+01 0.  0.
     999903    2    3    3    0    0  0.11662420909E+00  0.32993282315E-01 -0.40734662065E-01  0.12952301658E+00  0.20667276252E-01 0.  0.
         14    1    1    2    0    0 -0.63384338253E-02 -0.14604080322E-01 -0.19637900414E-01  0.25280467521E-01  0.00000000000E+00 0.  1.
     999901    1    3    3    0    0 -0.11028577526E+00 -0.18389201993E-01  0.60372562479E-01  0.88912651590E+00  0.88000000000E+00 0.  1.
        -11    1    4    4    0    0  0.69293362138E-01  0.24098090580E-01 -0.14879061158E-01  0.74859438870E-01  0.51100000000E-03 0.  1.
         11    1    4    4    0    0  0.47330846947E-01  0.88951917350E-02 -0.25855600907E-01  0.54663577709E-01  0.51100000000E-03 0. -1.
</event>
<event>
 8    1  0.1148488E+005  0.1043930E+01  0.7957747E-01            NaN
         13   -1    0    0    0    0  0.00000000000E+00  0.00000000000E+00  0.74505805969E-08  0.10566000000E+00  0.10566000000E+00 0.  1.
     999900   -1    0    0    0    0 -0.00000000000E+00 -0.00000000000E+00 -0.74505805969E-08  0.93827000000E+00  0.93827000000E+00 0. -1.
     999902    2    1    2    0    0  0.20764410291E-02  0.73708367448E-02 -0.91601488273E-02  0.10319906044E+01  0.10319215369E+01 0.  0.
     999903    2    3    3    0    0  0.11703519034E+00  0.46843551394E-01  0.60065914914E-01  0.14094298658E+00  0.19116936148E-01 0.  0.
         14    1    1    2    0    0 -0.20764410291E-02 -0.73708367448E-02  0.91601488273E-02  0.11939395638E-01  0.00000000000E+00 0.  1.
     999901    1    3    3    0    0 -0.11495874931E+00 -0.39472714649E-01 -0.69226063741E-01  0.89104761778E+00  0.88000000000E+00 0.  1.
        -11    1    4    4    0    0  0.45770657871E-01  0.24190402124E-01  0.33101492486E-01  0.61449968289E-01  0.51100000000E-03 0. -1.
         11    1    4    4    0    0  0.71264532469E-01  0.22653149270E-01  0.26964422428E-01  0.79493018296E-01  0.51100000000E-03 0.  1.
</event>
<event>
 8    1  0.1148488E+005  0.1043930E+01  0.7957747E-01            NaN
         13   -1    0    0    0    0  0.00000000000E+00  0.00000000000E+00  0.74505805969E-08  0.10566000000E+00  0.10566000000E+00 0. -1.
     999900   -1    0    0    0    0 -0.00000000000E+00 -0.00000000000E+00 -0.74505805969E-08  0.93827000000E+00  0.93827000000E+00 0.  1.
     999902    2    1    2    0    0 -0.92385321954E-02  0.11209701047E-01 -0.18813745730E-01  0.10201610096E+01  0.10198840722E+01 0.  0.
     999903    2    3    3    0    0  0.88091238676E-01 -0.21860296880E-01 -0.92423018738E-01  0.13112499566E+00  0.20342349525E-01 0.  0.
         14    1    1    2    0    0  0.92385321954E-02 -0.11209701047E-01  0.18813745730E-01  0.23768990367E-01  0.00000000000E+00 0. -1.
     999901    1    3    3    0    0 -0.97329770871E-01  0.33069997927E-01  0.73609273008E-01  0.88903601397E+00  0.88000000000E+00 0. -1.
        -11    1    4    4    0    0  0.58539469211E-01 -0.24241366597E-01 -0.63177723953E-01  0.89477367165E-01  0.51100000000E-03 0.  1.
         11    1    4    4    0    0  0.29551769464E-01  0.23810697174E-02 -0.29245294785E-01  0.41647628498E-01  0.51100000000E-03 0. -1.
</event>
<event>
 8    1  0.1148488E+005  0.1043930E+01  0.7957747E-01            NaN
         13   -1    0    0    0    0  0.00000000000E+00  0.00000000000E+00  0.74505805969E-08  0.10566000000E+00  0.10566000000E+00 0.  1.
     999900   -1    0    0    0    0 -0.00000000000E+00 -0.00000000000E+00 -0.74505805969E-08  0.93827000000E+00  0.93827000000E+00 0. -1.
     999902    2    1    2    0    0 -0.18460585146E-01 -0.20332768052E-01 -0.40108502583E-02  0.10161756926E+01  0.10157966020E+01 0.  0.
     999903    2    3    3    0    0  0.11588034760E+00 -0.36713023300E-01  0.23134171110E-01  0.12541610035E+00  0.20442781453E-01 0.  0.
         14    1    1    2    0    0  0.18460585146E-01  0.20332768052E-01  0.40108502583E-02  0.27754307420E-01  0.00000000000E+00 0.  1.
     999901    1    3    3    0    0 -0.13434093274E+00  0.16380255248E-01 -0.27145021368E-01  0.89075959223E+00  0.88000000000E+00 0.  1.
        -11    1    4    4    0    0  0.65534062444E-01 -0.27293843596E-01  0.21465058772E-01  0.74166549790E-01  0.51100000000E-03 0.  1.
         11    1    4    4    0    0  0.50346285154E-01 -0.94191797042E-02  0.16691123380E-02  0.51249550555E-01  0.51100000000E-03 0. -1.
</event>
<event>
 8    1  0.1148488E+005  0.1043930E+01  0.7957747E-01            NaN
         13   -1    0    0    0    0  0.00000000000E+00  0.00000000000E+00  0.74505805969E-08  0.10566000000E+00  0.10566000000E+00 0. -1.
     999900   -1    0    0    0    0 -0.00000000000E+00 -0.00000000000E+00 -0.74505805969E-08  0.93827000000E+00  0.93827000000E+00 0.  1.
     999902    2    1    2    0    0 -0.11021735550E-01 -0.16940312532E-01  0.11522608228E-01  0.10206657927E+01  0.10204006257E+01 0.  0.
     999903    2    3    3    0    0  0.11784360882E+00  0.46525592482E-01  0.12285860687E-01  0.12901856385E+00  0.21049953626E-01 0.  0.
         14    1    1    2    0    0  0.11021735550E-01  0.16940312532E-01 -0.11522608228E-01  0.23264207349E-01  0.00000000000E+00 0. -1.
     999901    1    3    3    0    0 -0.12886534437E+00 -0.63465905014E-01 -0.76325245884E-03  0.89164722880E+00  0.88000000000E+00 0.  1.
        -11    1    4    4    0    0  0.73613900416E-01  0.25925011817E-01 -0.23298598823E-02  0.78082020596E-01  0.51100000000E-03 0.  1.
         11    1    4    4    0    0  0.44229708408E-01  0.20600580665E-01  0.14615720569E-01  0.50936543251E-01  0.51100000000E-03 0. -1.
</event>
<event>
 8    1  0.1148488E+005  0.1043930E+01  0.7957747E-01            NaN
         13   -1    0    0    0    0  0.00000000000E+00  0.00000000000E+00  0.74505805969E-08  0.10566000000E+00  0.10566000000E+00 0. -1.
     999900   -1    0    0    0    0 -0.00000000000E+00 -0.00000000000E+00 -0.74505805969E-08  0.93827000000E+00  0.93827000000E+00 0. -1.
     999902    2    1    2    0    0  0.22084660623E-01  0.41130139481E-02 -0.36870033186E-02  0.10211650464E+01  0.10209112640E+01 0.  0.
     999903    2    3    3    0    0 -0.80069085586E-02  0.12525360218E+00 -0.32222865673E-01  0.13189858460E+00  0.24624136598E-01 0.  0.
         14    1    1    2    0    0 -0.22084660623E-01 -0.41130139481E-02  0.36870033186E-02  0.22764953592E-01  0.00000000000E+00 0. -1.
     999901    1    3    3    0    0  0.30091569181E-01 -0.12114058824E+00  0.28535862354E-01  0.88926646181E+00  0.88000000000E+00 0. -1.
        -11    1    4    4    0    0 -0.15993555187E-01  0.81619630712E-01 -0.16230970980E-01  0.84742335730E-01  0.51100000000E-03 0.  1.
         11    1    4    4    0    0  0.79866466289E-02  0.43633971472E-01 -0.15991894693E-01  0.47156248872E-01  0.51100000000E-03 0. -1.
</event>
<event>
 8    1  0.1148488E+005  0.1043930E+01  0.7957747E-01            NaN
         13   -1    0    0    0    0  0.00000000000E+00  0.00000000000E+00  0.74505805969E-08  0.10566000000E+00  0.10566000000E+00 0. -1.
     999900   -1    0    0    0    0 -0.00000000000E+00 -0.00000000000E+00 -0.74505805969E-08  0.93827000000E+00  0.93827000000E+00 0. -1.
     999902    2    1    2    0    0  0.21550053787E-01  0.73618612162E-03  0.10635642614E-01  0.10198870451E+01  0.10196036097E+01 0.  0.
     999903    2    3    3    0    0  0.28216349188E-01 -0.48794078977E-01  0.11777763623E+00  0.13198102895E+00  0.19245672325E-01 0.  0.
         14    1    1    2    0    0 -0.21550053787E-01 -0.73618612162E-03 -0.10635642614E-01  0.24042954936E-01  0.00000000000E+00 0. -1.
     999901    1    3    3    0    0 -0.66662954013E-02  0.49530265099E-01 -0.10714199361E+00  0.88790601611E+00  0.88000000000E+00 0. -1.
        -11    1    4    4    0    0  0.15177229822E-01 -0.38152022367E-01  0.96301313256E-01  0.10469063555E+00  0.51100000000E-03 0. -1.
         11    1    4    4    0    0  0.13039119366E-01 -0.10642056610E-01  0.21476322970E-01  0.27290393402E-01  0.51100000000E-03 0.  1.
</event>
<event>
 8    1  0.1148488E+005  0.1043930E+01  0.7957747E-01            NaN
         13   -1    0    0    0    0  0.00000000000E+00  0.00000000000E+00  0.74505805969E-08  0.10566000000E+00  0.10566000000E+00 0. -1.
     999900   -1    0    0    0    0 -0.00000000000E+00 -0.00000000000E+00 -0.74505805969E-08  0.93827000000E+00  0.93827000000E+00 0.  1.
     999902    2    1    2    0    0 -0.16252225975E-01 -0.86379105302E-02  0.15229236138E-01  0.10200411327E+01  0.10197613615E+01 0.  0.
     999903    2    3    3    0    0 -0.71783366046E-01  0.99040864527E-01 -0.39559858316E-01  0.13005221649E+00  0.19663472114E-01 0.  0.
         14    1    1    2    0    0  0.16252225975E-01  0.86379105302E-02 -0.15229236138E-01  0.23888867299E-01  0.00000000000E+00 0.  1.
     999901    1    3    3    0    0  0.55531140071E-01 -0.10767877506E+00  0.54789094455E-01  0.88998891622E+00  0.88000000000E+00 0. -1.
        -11    1    4    4    0    0 -0.55778707575E-01  0.62976441614E-01 -0.31124716043E-01  0.89701201145E-01  0.51100000000E-03 0.  1.
         11    1    4    4    0    0 -0.16004658471E-01  0.36064422913E-01 -0.84351422738E-02  0.40351015340E-01  0.51100000000E-03 0. -1.
</event>
<event>
 8    1  0.1148488E+005  0.1043930E+01  0.7957747E-01            NaN
         13   -1    0    0    0    0  0.00000000000E+00  0.00000000000E+00  0.74505805969E-08  0.10566000000E+00  0.10566000000E+00 0.  1.
     999900   -1    0    0    0    0 -0.00000000000E+00 -0.00000000000E+00 -0.74505805969E-08  0.93827000000E+00  0.93827000000E+00 0. -1.
     999902    2    1    2    0    0  0.10484175355E-01 -0.62785708393E-03 -0.22025068684E-01  0.10195288568E+01  0.10192368096E+01 0.  0.
     999903    2    3    3    0    0 -0.45434535462E-01 -0.94158729493E-01  0.71124601320E-01  0.12792816856E+00  0.19409895531E-01 0.  0.
         14    1    1    2    0    0 -0.10484175355E-01  0.62785708393E-03  0.22025068684E-01  0.24401143168E-01  0.00000000000E+00 0.  1.
     999901    1    3    3    0    0  0.55918710818E-01  0.93530872409E-01 -0.93149670003E-01  0.89160068828E+00  0.88000000000E+00 0.  1.
        -11    1    4    4    0    0 -0.32240944565E-02 -0.25699398762E-01  0.17386379941E-01  0.31199378363E-01  0.51100000000E-03 0.  1.
         11    1    4    4    0    0 -0.42210441006E-01 -0.68459330731E-01  0.53738221378E-01  0.96728790192E-01  0.51100000000E-03 0. -1.
</event>
<event>
 8    1  0.1148488E+005  0.1043930E+01  0.7957747E-01            NaN
         13   -1    0    0    0    0  0.00000000000E+00  0.00000000000E+00  0.74505805969E-08  0.10566000000E+00  0.10566000000E+00 0.  1.
     999900   -1    0    0    0    0 -0.00000000000E+00 -0.00000000000E+00 -0.74505805969E-08  0.93827000000E+00  0.93827000000E+00 0.  1.
     999902    2    1    2    0    0  0.13718759343E-02 -0.89064941729E-02  0.21584902424E-01  0.10205394956E+01  0.10202714082E+01 0.  0.
     999903    2    3    3    0    0 -0.36048438887E-01 -0.10777163881E+00  0.66983418587E-01  0.13305111708E+00  0.17366787647E-01 0.  0.
         14    1    1    2    0    0 -0.13718759343E-02  0.89064941729E-02 -0.21584902424E-01  0.23390504370E-01  0.00000000000E+00 0. -1.
     999901    1    3    3    0    0  0.37420314821E-01  0.98865144639E-01 -0.45398516163E-01  0.88748837855E+00  0.88000000000E+00 0. -1.
        -11    1    4    4    0    0 -0.91814456752E-02 -0.41052425836E-01  0.16568304816E-01  0.45214715052E-01  0.51100000000E-03 0. -1.
         11    1    4    4    0    0 -0.26866993212E-01 -0.66719212975E-01  0.50415113771E-01  0.87836402032E-01  0.51100000000E-03 0.  1.
</event>
<event>
 8    1  0.1148488E+005  0.1043930E+01  0.7957747E-01            NaN
         13   -1    0    0    0    0  0.00000000000E+00  0.00000000000E+00  0.74505805969E-08  0.10566000000E+00  0.10566000000E+00 0.  1.
     999900   -1    0    0    0    0 -0.00000000000E+00 -0.00000000000E+00 -0.74505805969E-08  0.93827000000E+00  0.93827000000E+00 0. -1.
     999902    2    1    2    0    0  0.17453049686E-01  0.10268209436E-01 -0.13507055445E-01  0.10195889726E+01  0.10192983800E+01 0.  0.
     999903    2    3    3    0    0 -0.91270796315E-01  0.75777485445E-01  0.45178012597E-01  0.12854673053E+00  0.20263848283E-01 0.  0.
         14    1    1    2    0    0 -0.17453049686E-01 -0.10268209436E-01  0.13507055445E-01  0.24341027406E-01  0.00000000000E+00 0.  1.
     999901    1    3    3    0    0  0.10872384600E+00 -0.65509276009E-01 -0.58685068042E-01  0.89104224206E+00  0.88000000000E+00 0. -1.
        -11    1    4    4    0    0 -0.69542538651E-01  0.45618466783E-01  0.31077884672E-01  0.88787979087E-01  0.51100000000E-03 0.  1.
         11    1    4    4    0    0 -0.21728257664E-01  0.30159018662E-01  0.14100127925E-01  0.39758751442E-01  0.51100000000E-03 0. -1.
</event>
<event>
 8    1  0.1148488E+005  0.1043930E+01  0.7957747E-01            NaN
         13   -1    0    0    0    0  0.00000000000E+00  0.00000000000E+00  0.74505805969E-08  0.10566000000E+00  0.10566000000E+00 0. -1.
     999900   -1    0    0    0    0 -0.00000000000E+00 -0.00000000000E+00 -0.74505805969E-08  0.93827000000E+00  0.93827000000E+00 0. -1.
     999902    2    1    2    0    0  0.19563404809E-02  0.87517412818E-03  0.23853150762E-01  0.10199807620E+01  0.10196995582E+01 0.  0.
     999903    2    3    3    0    0 -0.12085772585E+00  0.88040840761E-02  0.45532261853E-01  0.13115223731E+00  0.21062304950E-01 0.  0.
         14    1    1    2    0    0 -0.19563404809E-02 -0.87517412818E-03 -0.23853150762E-01  0.23949237965E-01  0.00000000000E+00 0.  1.
     999901    1    3    3    0    0  0.12281406633E+00 -0.79289099479E-02 -0.21679111090E-01  0.88882852472E+00  0.88000000000E+00 0.  1.
        -11    1    4    4    0    0 -0.88611635408E-01 -0.28393929427E-02  0.31173028279E-01  0.93979268433E-01  0.51100000000E-03 0.  1.
         11    1    4    4    0    0 -0.32246090438E-01  0.11643477019E-01  0.14359233573E-01  0.37172968881E-01  0.51100000000E-03 0. -1.
</event>
<event>
 8    1  0.1148488E+005  0.1043930E+01  0.7957747E-01            NaN
         13   -1    0    0    0    0  0.00000000000E+00  0.00000000000E+00  0.74505805969E-08  0.10566000000E+00  0.10566000000E+00 0. -1.
     999900   -1    0    0    0    0 -0.00000000000E+00 -0.00000000000E+00 -0.74505805969E-08  0.93827000000E+00  0.93827000000E+00 0. -1.
     999902    2    1    2    0    0 -0.96892768641E-02 -0.13755992517E-01 -0.17257483163E-01  0.10198275076E+01  0.10195426499E+01 0.  0.
     999903    2    3    3    0    0  0.98697337872E-01 -0.61145462920E-01 -0.57394150871E-01  0.13100560626E+00  0.19709088703E-01 0.  0.
         14    1    1    2    0    0  0.96892768641E-02  0.13755992517E-01  0.17257483163E-01  0.24102492431E-01  0.00000000000E+00 0. -1.
     999901    1    3    3    0    0 -0.10838661474E+00  0.47389470404E-01  0.40136667708E-01  0.88882190131E+00  0.88000000000E+00 0.  1.
        -11    1    4    4    0    0  0.72734944204E-01 -0.34900660601E-01 -0.36102207825E-01  0.88385851524E-01  0.51100000000E-03 0.  1.
         11    1    4    4    0    0  0.25962393668E-01 -0.26244802319E-01 -0.21291943046E-01  0.42619754732E-01  0.51100000000E-03 0. -1.
</event>
<event>
 8    1  0.1148488E+005  0.1043930E+01  0.7957747E-01            NaN
         13   -1    0    0    0    0  0.00000000000E+00  0.00000000000E+00  0.74505805969E-08  0.10566000000E+00  0.10566000000E+00 0.  1.
     999900   -1    0    0    0    0 -0.00000000000E+00 -0.00000000000E+00 -0.74505805969E-08  0.93827000000E+00  0.93827000000E+00 0. -1.
     999902    2    1    2    0    0 -0.23827112575E-02 -0.44877565285E-02 -0.22831252723E-01  0.10205401866E+01  0.10202721152E+01 0.  0.
     999903    2    3    3    0    0  0.71809042793E-01 -0.57696097239E-01 -0.93731569390E-01  0.13298038644E+00  0.20317426379E-01 0.  0.
         14    1    1    2    0    0  0.23827112575E-02  0.44877565285E-02  0.22831252723E-01  0.23389813434E-01  0.00000000000E+00 0.  1.
     999901    1    3    3    0    0 -0.74191754051E-01  0.53208340711E-01  0.70900316668E-01  0.88755980012E+00  0.88000000000E+00 0.  1.
        -11    1    4    4    0    0  0.89244443128E-02 -0.22060907545E-02 -0.16871608097E-01  0.19220427245E-01  0.51100000000E-03 0. -1.
         11    1    4    4    0    0  0.62884598481E-01 -0.55490006485E-01 -0.76859961294E-01  0.11375995920E+00  0.51100000000E-03 0.  1.
</event>
<event>
 8    1  0.1148488E+005  0.1043930E+01  0.7957747E-01            NaN
         13   -1    0    0    0    0  0.00000000000E+00  0.00000000000E+00  0.74505805969E-08  0.10566000000E+00  0.10566000000E+00 0.  1.
     999900   -1    0    0    0    0 -0.00000000000E+00 -0.00000000000E+00 -0.74505805969E-08  0.93827000000E+00  0.93827000000E+00 0.  1.
     999902    2    1    2    0    0  0.14337800852E-01 -0.12215960879E-01  0.14633565485E-01  0.10200774640E+01  0.10197985532E+01 0.  0.
     999903    2    3    3    0    0 -0.72409722798E-01 -0.74362480170E-01 -0.74356887131E-01  0.12917532385E+00  0.19605387392E-01 0.  0.
         14    1    1    2    0    0 -0.14337800852E-01  0.12215960879E-01 -0.14633565485E-01  0.23852535972E-01  0.00000000000E+00 0.  1.
     999901    1    3    3    0    0  0.86747523651E-01  0.62146519292E-01  0.88990452616E-01  0.89090214018E+00  0.88000000000E+00 0. -1.
        -11    1    4    4    0    0 -0.37841065844E-01 -0.35794434607E-01 -0.25598623154E-01  0.58040834258E-01  0.51100000000E-03 0. -1.
         11    1    4    4    0    0 -0.34568656955E-01 -0.38568045563E-01 -0.48758263977E-01  0.71134489591E-01  0.51100000000E-03 0.  1.
</event>
<event>
 8    1  0.1148488E+005  0.1043930E+01  0.7957747E-01            NaN
         13   -1    0    0    0    0  0.00000000000E+00  0.00000000000E+00  0.74505805969E-08  0.10566000000E+00  0.10566000000E+00 0.  1.
     999900   -1    0    0    0    0 -0.00000000000E+00 -0.00000000000E+00 -0.74505805969E-08  0.93827000000E+00  0.93827000000E+00 0. -1.
     999902    2    1    2    0    0 -0.53281872017E-02 -0.20917791335E-01  0.10168064281E-01  0.10200692979E+01  0.10197901938E+01 0.  0.
     999903    2    3    3    0    0 -0.11565633423E+00  0.15797248403E-02  0.59414101081E-01  0.13152914102E+00  0.19773627663E-01 0.  0.
         14    1    1    2    0    0  0.53281872017E-02  0.20917791335E-01 -0.10168064281E-01  0.23860702094E-01  0.00000000000E+00 0. -1.
     999901    1    3    3    0    0  0.11032814703E+00 -0.22497516175E-01 -0.49246036800E-01  0.88854015689E+00  0.88000000000E+00 0. -1.
        -11    1    4    4    0    0 -0.74446155393E-01 -0.81084889775E-02  0.35080311315E-01  0.82697442580E-01  0.51100000000E-03 0. -1.
         11    1    4    4    0    0 -0.41210178840E-01  0.96882138177E-02  0.24333789766E-01  0.48831698439E-01  0.51100000000E-03 0.  1.
</event>
<event>
 8    1  0.1148488E+005  0.1043930E+01  0.7957747E-01            NaN
         13   -1    0    0    0    0  0.00000000000E+00  0.00000000000E+00  0.74505805969E-08  0.10566000000E+00  0.10566000000E+00 0. -1.
     999900   -1    0    0    0    0 -0.00000000000E+00 -0.00000000000E+00 -0.74505805969E-08  0.93827000000E+00  0.93827000000E+00 0. -1.
     999902    2    1    2    0    0  0.55371022258E-02 -0.21085695894E-01 -0.21423543678E-01  0.10133647535E+01  0.10129036920E+01 0.  0.
     999903    2    3    3    0    0 -0.57728125242E-01 -0.11019097176E+00  0.13201774401E-01  0.12592959986E+00  0.14470334185E-01 0.  0.
         14    1    1    2    0    0 -0.55371022258E-02  0.21085695894E-01  0.21423543678E-01  0.30565246541E-01  0.00000000000E+00 0. -1.
     999901    1    3    3    0    0  0.63265227468E-01  0.89105275868E-01 -0.34625318079E-01  0.88743515360E+00  0.88000000000E+00 0.  1.
        -11    1    4    4    0    0 -0.30940629669E-01 -0.65685005580E-01  0.12294073642E-02  0.72619660463E-01  0.51100000000E-03 0. -1.
         11    1    4    4    0    0 -0.26787495573E-01 -0.44505966182E-01  0.11972367036E-01  0.53309939395E-01  0.51100000000E-03 0.  1.
</event>
<event>
 8    1  0.1148488E+005  0.1043930E+01  0.7957747E-01            NaN
         13   -1    0    0    0    0  0.00000000000E+00  0.00000000000E+00  0.74505805969E-08  0.10566000000E+00  0.10566000000E+00 0.  1.
     999900   -1    0    0    0    0 -0.00000000000E+00 -0.00000000000E+00 -0.74505805969E-08  0.93827000000E+00  0.93827000000E+00 0. -1.
     999902    2    1    2    0    0 -0.23598099638E-01  0.15770545519E-03  0.85448068943E-03  0.10203159086E+01  0.10200426108E+01 0.  0.
     999903    2    3    3    0    0 -0.10223152722E+00  0.80984952134E-01  0.14135245102E-01  0.13302078378E+00  0.22019903166E-01 0.  0.
         14    1    1    2    0    0  0.23598099638E-01 -0.15770545519E-03 -0.85448068943E-03  0.23614091445E-01  0.00000000000E+00 0.  1.
     999901    1    3    3    0    0  0.78633427578E-01 -0.80827246679E-01 -0.13280764413E-01  0.88729512477E+00  0.88000000000E+00 0.  1.
        -11    1    4    4    0    0 -0.61614614877E-01  0.43170642662E-01  0.18101924548E-01  0.77382206919E-01  0.51100000000E-03 0.  1.
         11    1    4    4    0    0 -0.40616912339E-01  0.37814309472E-01 -0.39666794458E-02  0.55638576865E-01  0.51100000000E-03 0. -1.
</event>
<event>
 8    1  0.1148488E+005  0.1043930E+01  0.7957747E-01            NaN
         13   -1    0    0    0    0  0.00000000000E+00  0.00000000000E+00  0.74505805969E-08  0.10566000000E+00  0.10566000000E+00 0.  1.
     999900   -1    0    0    0    0 -0.00000000000E+00 -0.00000000000E+00 -0.74505805969E-08  0.93827000000E+00  0.93827000000E+00 0. -1.
     999902    2    1    2    0    0 -0.18946340085E-01 -0.96698823400E-02  0.82712013437E-02  0.10211071343E+01  0.10208520444E+01 0.  0.
     999903    2    3    3    0    0  0.10306826039E+00  0.74227415759E-01 -0.68909901640E-03  0.12869097222E+00  0.20690962375E-01 0.  0.
         14    1    1    2    0    0  0.18946340085E-01  0.96698823400E-02 -0.82712013437E-02  0.22822865700E-01  0.00000000000E+00 0. -1.
     999901    1    3    3    0    0 -0.12201460047E+00 -0.83897298099E-01  0.89603003601E-02  0.89241616208E+00  0.88000000000E+00 0. -1.
        -11    1    4    4    0    0  0.10001413463E+00  0.66250560599E-01  0.98644917620E-03  0.11997165544E+00  0.51100000000E-03 0. -1.
         11    1    4    4    0    0  0.30541257543E-02  0.79768551600E-02 -0.16755481926E-02  0.87193167802E-02  0.51100000000E-03 0.  1.
</event>
<event>
 8    1  0.1148488E+005  0.1043930E+01  0.7957747E-01            NaN
         13   -1    0    0    0    0  0.00000000000E+00  0.00000000000E+00  0.74505805969E-08  0.10566000000E+00  0.10566000000E+00 0.  1.
     999900   -1    0    0    0    0 -0.00000000000E+00 -0.00000000000E+00 -0.74505805969E-08  0.93827000000E+00  0.93827000000E+00 0. -1.
     999902    2    1    2    0    0 -0.12593446607E-01 -0.17765854879E-01 -0.32726349202E-03  0.10221509367E+01  0.10219188861E+01 0.  0.
     999903    2    3    3    0    0 -0.66327675264E-01  0.11126272864E+00 -0.39559130770E-02  0.13111282876E+00  0.19904002804E-01 0.  0.
         14    1    1    2    0    0  0.12593446607E-01  0.17765854879E-01  0.32726349202E-03  0.21779063305E-01  0.00000000000E+00 0.  1.
     999901    1    3    3    0    0  0.53734228656E-01 -0.12902858352E+00  0.36286495850E-02  0.89103810793E+00  0.88000000000E+00 0.  1.
        -11    1    4    4    0    0 -0.45087853446E-01  0.71062884442E-01 -0.11760725758E-01  0.84978961308E-01  0.51100000000E-03 0. -1.
         11    1    4    4    0    0 -0.21239821817E-01  0.40199844196E-01  0.78048126809E-02  0.46133867453E-01  0.51100000000E-03 0.  1.
</event>
<event>
 8    1  0.1148488E+005  0.1043930E+01  0.7957747E-01            NaN
         13   -1    0    0    0    0  0.00000000000E+00  0.00000000000E+00  0.74505805969E-08  0.10566000000E+00  0.10566000000E+00 0. -1.
     999900   -1    0    0    0    0 -0.00000000000E+00 -0.00000000000E+00 -0.74505805969E-08  0.93827000000E+00  0.93827000000E+00 0. -1.
     999902    2    1    2    0    0  0.17158568169E-02  0.13450111743E-01  0.10280121848E-01  0.10269144020E+01  0.10267734212E+01 0.  0.
     999903    2    3    3    0    0  0.17537770378E-01  0.82524200886E-02  0.13507998249E+00  0.13795301128E+00  0.20217710659E-01 0.  0.
         14    1    1    2    0    0 -0.17158568169E-02 -0.13450111743E-01 -0.10280121848E-01  0.17015598013E-01  0.00000000000E+00 0.  1.
     999901    1    3    3    0    0 -0.15821913562E-01  0.51976916544E-02 -0.12479986064E+00  0.88896139071E+00  0.88000000000E+00 0. -1.
        -11    1    4    4    0    0  0.10250380818E-02  0.11168755495E-01  0.55347381930E-01  0.56474645726E-01  0.51100000000E-03 0. -1.
         11    1    4    4    0    0  0.16512732297E-01 -0.29163354067E-02  0.79732600563E-01  0.81478365556E-01  0.51100000000E-03 0.  1.
</event>
<event>
 8    1  0.1148488E+005  0.1043930E+01  0.7957747E-01            NaN
         13   -1    0    0    0    0  0.00000000000E+00  0.00000000000E+00  0.74505805969E-08  0.10566000000E+00  0.10566000000E+00 0.  1.
     999900   -1    0    0    0    0 -0.00000000000E+00 -0.00000000000E+00 -0.74505805969E-08  0.93827000000E+00  0.93827000000E+00 0. -1.
     999902    2    1    2    0    0  0.26202486139E-02 -0.26407475702E-03  0.22820862067E-01  0.10209576866E+01  0.10206992067E+01 0.  0.
     999903    2    3    3    0    0  0.13139000543E-01  0.88052196791E-01  0.97429141602E-01  0.13333343988E+00  0.18961694581E-01 0.  0.
         14    1    1    2    0    0 -0.26202486139E-02  0.26407475702E-03 -0.22820862067E-01  0.22972313417E-01  0.00000000000E+00 0. -1.
     999901    1    3    3    0    0 -0.10518751929E-01 -0.88316271548E-01 -0.74608279535E-01  0.88762424670E+00  0.88000000000E+00 0.  1.
        -11    1    4    4    0    0  0.10170520275E-01  0.18378511187E-01  0.18348709498E-01  0.27895257973E-01  0.51100000000E-03 0.  1.
         11    1    4    4    0    0  0.29684802675E-02  0.69673685604E-01  0.79080432104E-01  0.10543818191E+00  0.51100000000E-03 0. -1.
</event>
<event>
 8    1  0.1148488E+005  0.1043930E+01  0.7957747E-01            NaN
         13   -1    0    0    0    0  0.00000000000E+00  0.00000000000E+00  0.74505805969E-08  0.10566000000E+00  0.10566000000E+00 0. -1.
     999900   -1    0    0    0    0 -0.00000000000E+00 -0.00000000000E+00 -0.74505805969E-08  0.93827000000E+00  0.93827000000E+00 0. -1.
     999902    2    1    2    0    0  0.60327679412E-03 -0.20269043610E-01 -0.68762363834E-02  0.10225178376E+01  0.10222936210E+01 0.  0.
     999903    2    3    3    0    0  0.17131246386E-01 -0.95316730687E-01  0.90258800144E-01  0.13384436301E+00  0.19720642884E-01 0.  0.
         14    1    1    2    0    0 -0.60327679412E-03  0.20269043610E-01  0.68762363834E-02  0.21412162398E-01  0.00000000000E+00 0. -1.
     999901    1    3    3    0    0 -0.16527969592E-01  0.75047687077E-01 -0.97135036527E-01  0.88867347459E+00  0.88000000000E+00 0. -1.
        -11    1    4    4    0    0  0.54458388315E-02 -0.79638940731E-02  0.15553440243E-01  0.18309871484E-01  0.51100000000E-03 0.  1.
         11    1    4    4    0    0  0.11685407555E-01 -0.87352836614E-01  0.74705359901E-01  0.11553449153E+00  0.51100000000E-03 0. -1.
</event>
<event>
 8    1  0.1148488E+005  0.1043930E+01  0.7957747E-01            NaN
         13   -1    0    0    0    0  0.00000000000E+00  0.00000000000E+00  0.74505805969E-08  0.10566000000E+00  0.10566000000E+00 0.  1.
     999900   -1    0    0    0    0 -0.00000000000E+00 -0.00000000000E+00 -0.74505805969E-08  0.93827000000E+00  0.93827000000E+00 0. -1.
     999902    2    1    2    0    0  0.51118682204E-02 -0.19313624162E-01 -0.13621562176E-01  0.10197495486E+01  0.10194628231E+01 0.  0.
     999903    2    3    3    0    0  0.86896581223E-01 -0.95291524532E-01 -0.24299668988E-01  0.13263320751E+00  0.19225070736E-01 0.  0.
         14    1    1    2    0    0 -0.51118682204E-02  0.19313624162E-01  0.13621562176E-01  0.24180451424E-01  0.00000000000E+00 0.  1.
     999901    1    3    3    0    0 -0.81784713003E-01  0.75977900370E-01  0.10678106812E-01  0.88711634107E+00  0.88000000000E+00 0.  1.
        -11    1    4    4    0    0  0.47371060970E-01 -0.65330987355E-01 -0.17420662857E-01  0.82558439554E-01  0.51100000000E-03 0.  1.
         11    1    4    4    0    0  0.39525520253E-01 -0.29960537177E-01 -0.68790061314E-02  0.50074767954E-01  0.51100000000E-03 0. -1.
</event>
<event>
 8    1  0.1148488E+005  0.1043930E+01  0.7957747E-01            NaN
         13   -1    0    0    0    0  0.00000000000E+00  0.00000000000E+00  0.74505805969E-08  0.10566000000E+00  0.10566000000E+00 0. -1.
     999900   -1    0    0    0    0 -0.00000000000E+00 -0.00000000000E+00 -0.74505805969E-08  0.93827000000E+00  0.93827000000E+00 0. -1.
     999902    2    1    2    0    0  0.97067149775E-02 -0.75352967442E-02 -0.20139941771E-01  0.10203372412E+01  0.10200644428E+01 0.  0.
     999903    2    3    3    0    0  0.48080643870E-01  0.22709546922E-01 -0.12066445322E+00  0.13326763493E+00  0.19310111684E-01 0.  0.
         14    1    1    2    0    0 -0.97067149775E-02  0.75352967442E-02  0.20139941771E-01  0.23592758788E-01  0.00000000000E+00 0. -1.
     999901    1    3    3    0    0 -0.38373928892E-01 -0.30244843666E-01  0.10052451145E+00  0.88706960628E+00  0.88000000000E+00 0.  1.
        -11    1    4    4    0    0  0.43986590106E-03  0.43973590107E-02 -0.18945810484E-01  0.19461117753E-01  0.51100000000E-03 0. -1.
         11    1    4    4    0    0  0.47640777968E-01  0.18312187911E-01 -0.10171864273E+00  0.11380651718E+00  0.51100000000E-03 0.  1.
</event>
<event>
 8    1  0.1148488E+005  0.1043930E+01  0.7957747E-01            NaN
         13   -1    0    0    0    0  0.00000000000E+00  0.00000000000E+00  0.74505805969E-08  0.10566000000E+00  0.10566000000E+00 0.  1.
     999900   -1    0    0    0    0 -0.00000000000E+00 -0.00000000000E+00 -0.74505805969E-08  0.93827000000E+00  0.93827000000E+00 0. -1.
     999902    2    1    2    0    0  0.13956648366E-01  0.65108430215E-02  0.16948895974E-01  0.10210292536E+01  0.10207724000E+01 0.  0.
     999903    2    3    3    0    0 -0.82573654813E-02 -0.10613574480E+00 -0.70267364096E-01  0.12929532907E+00  0.21137626455E-01 0.  0.
         14    1    1    2    0    0 -0.13956648366E-01 -0.65108430215E-02 -0.16948895974E-01  0.22900746390E-01  0.00000000000E+00 0. -1.
     999901    1    3    3    0    0  0.22214013847E-01  0.11264658782E+00  0.87216260070E-01  0.89173392454E+00  0.88000000000E+00 0.  1.
        -11    1    4    4    0    0  0.69472166652E-02 -0.30128687725E-01 -0.22527974470E-01  0.38259278588E-01  0.51100000000E-03 0. -1.
         11    1    4    4    0    0 -0.15204582147E-01 -0.76007057078E-01 -0.47739389626E-01  0.91036050479E-01  0.51100000000E-03 0.  1.
</event>
<event>
 8    1  0.1148488E+005  0.1043930E+01  0.7957747E-01            NaN
         13   -1    0    0    0    0  0.00000000000E+00  0.00000000000E+00  0.74505805969E-08  0.10566000000E+00  0.10566000000E+00 0.  1.
     999900   -1    0    0    0    0 -0.00000000000E+00 -0.00000000000E+00 -0.74505805969E-08  0.93827000000E+00  0.93827000000E+00 0.  1.
     999902    2    1    2    0    0 -0.13656328260E-01 -0.20722285065E-02  0.19177710775E-01  0.10202958293E+01  0.10200220612E+01 0.  0.
     999903    2    3    3    0    0 -0.12937977259E+00 -0.15727050885E-01  0.11875681228E-01  0.13258433939E+00  0.21239339983E-01 0.  0.
         14    1    1    2    0    0  0.13656328260E-01  0.20722285065E-02 -0.19177710775E-01  0.23634170667E-01  0.00000000000E+00 0. -1.
     999901    1    3    3    0    0  0.11572344433E+00  0.13654822378E-01  0.73020295474E-02  0.88771148994E+00  0.88000000000E+00 0.  1.
        -11    1    4    4    0    0 -0.10900529727E+00 -0.10077380377E-01  0.17100931778E-01  0.11079896848E+00  0.51100000000E-03 0. -1.
         11    1    4    4    0    0 -0.20374475318E-01 -0.56496705078E-02 -0.52252505502E-02  0.21785370909E-01  0.51100000000E-03 0.  1.
</event>
<event>
 8    1  0.1148488E+005  0.1043930E+01  0.7957747E-01            NaN
         13   -1    0    0    0    0  0.00000000000E+00  0.00000000000E+00  0.74505805969E-08  0.10566000000E+00  0.10566000000E+00 0.  1.
     999900   -1    0    0    0    0 -0.00000000000E+00 -0.00000000000E+00 -0.74505805969E-08  0.93827000000E+00  0.93827000000E+00 0. -1.
     999902    2    1    2    0    0 -0.69090885996E-02 -0.22185367796E-01  0.36841071565E-02  0.10204034470E+01  0.10201321954E+01 0.  0.
     999903    2    3    3    0    0  0.79071840757E-01 -0.10303168796E+00 -0.15106121631E-01  0.13232579254E+00  0.20347868097E-01 0.  0.
         14    1    1    2    0    0  0.69090885996E-02  0.22185367796E-01 -0.36841071565E-02  0.23526552979E-01  0.00000000000E+00 0. -1.
     999901    1    3    3    0    0 -0.85980929357E-01  0.80846320159E-01  0.18790228788E-01  0.88807765448E+00  0.88000000000E+00 0. -1.
        -11    1    4    4    0    0  0.55934538567E-01 -0.79761111631E-01 -0.19064693556E-01  0.99268480368E-01  0.51100000000E-03 0.  1.
         11    1    4    4    0    0  0.23137302190E-01 -0.23270576325E-01  0.39585719244E-02  0.33057312169E-01  0.51100000000E-03 0. -1.
</event>
<event>
 8    1  0.1148488E+005  0.1043930E+01  0.7957747E-01            NaN
         13   -1    0    0    0    0  0.00000000000E+00  0.00000000000E+00  0.74505805969E-08  0.10566000000E+00  0.10566000000E+00 0. -1.
     999900   -1    0    0    0    0 -0.00000000000E+00 -0.00000000000E+00 -0.74505805969E-08  0.93827000000E+00  0.93827000000E+00 0.  1.
     999902    2    1    2    0    0  0.12440037487E-01  0.14763576426E-03  0.20400302100E-01  0.10200354681E+01  0.10197555626E+01 0.  0.
     999903    2    3    3    0    0 -0.27982102257E-01 -0.93151944357E-01 -0.81181009679E-01  0.12837548585E+00  0.20727427525E-01 0.  0.
         14    1    1    2    0    0 -0.12440037487E-01 -0.14763576426E-03 -0.20400302100E-01  0.23894531902E-01  0.00000000000E+00 0.  1.
     999901    1    3    3    0    0  0.40422139744E-01  0.93299580121E-01  0.10158131178E+00  0.89165998224E+00  0.88000000000E+00 0. -1.
        -11    1    4    4    0    0 -0.20597121609E-01 -0.88086649300E-01 -0.73227997492E-01  0.11638771388E+00  0.51100000000E-03 0. -1.
         11    1    4    4    0    0 -0.73849806478E-02 -0.50652950566E-02 -0.79530121868E-02  0.11987771979E-01  0.51100000000E-03 0.  1.
</event>
<event>
 8    1  0.1148488E+005  0.1043930E+01  0.7957747E-01            NaN
         13   -1    0    0    0    0  0.00000000000E+00  0.00000000000E+00  0.74505805969E-08  0.10566000000E+00  0.10566000000E+00 0.  1.
     999900   -1    0    0    0    0 -0.00000000000E+00 -0.00000000000E+00 -0.74505805969E-08  0.93827000000E+00  0.93827000000E+00 0. -1.
     999902    2    1    2    0    0 -0.14002006939E-01 -0.18869659560E-01  0.31414672151E-02  0.10202236914E+01  0.10199482298E+01 0.  0.
     999903    2    3    3    0    0  0.11457570460E+00 -0.82926455237E-02  0.55746523238E-01  0.12926275341E+00  0.20120251294E-01 0.  0.
         14    1    1    2    0    0  0.14002006939E-01  0.18869659560E-01 -0.31414672151E-02  0.23706308580E-01  0.00000000000E+00 0. -1.
     999901    1    3    3    0    0 -0.12857771154E+00 -0.10577014036E-01 -0.52605056022E-01  0.89096093800E+00  0.88000000000E+00 0. -1.
        -11    1    4    4    0    0  0.91912051074E-01 -0.93723064725E-03  0.37615318441E-01  0.99317052092E-01  0.51100000000E-03 0. -1.
         11    1    4    4    0    0  0.22663653530E-01 -0.73554148764E-02  0.18131204797E-01  0.29945701323E-01  0.51100000000E-03 0.  1.
</event>
<event>
 8    1  0.1148488E+005  0.1043930E+01  0.7957747E-01            NaN
         13   -1    0    0    0    0  0.00000000000E+00  0.00000000000E+00  0.74505805969E-08  0.10566000000E+00  0.10566000000E+00 0.  1.
     999900   -1    0    0    0    0 -0.00000000000E+00 -0.00000000000E+00 -0.74505805969E-08  0.93827000000E+00  0.93827000000E+00 0.  1.
     999902    2    1    2    0    0  0.21592225566E-01  0.45736620096E-02 -0.82071355332E-02  0.10203821835E+01  0.10201104355E+01 0.  0.
     999903    2    3    3    0    0 -0.39192829513E-01  0.11276427232E+00  0.47274125024E-01  0.12994509904E+00  0.19975656932E-01 0.  0.
         14    1    1    2    0    0 -0.21592225566E-01 -0.45736620096E-02  0.82071355332E-02  0.23547816518E-01  0.00000000000E+00 0. -1.
     999901    1    3    3    0    0  0.60785055079E-01 -0.10819061031E+00 -0.55481260557E-01  0.89043708444E+00  0.88000000000E+00 0.  1.
        -11    1    4    4    0    0 -0.38030569567E-01  0.85835865494E-01  0.39777319305E-01  0.10196379886E+00  0.51100000000E-03 0. -1.
         11    1    4    4    0    0 -0.11622599455E-02  0.26928406827E-01  0.74968057187E-02  0.27981300174E-01  0.51100000000E-03 0.  1.
</event>
<event>
 8    1  0.1148488E+005  0.1043930E+01  0.7957747E-01            NaN
         13   -1    0    0    0    0  0.00000000000E+00  0.00000000000E+00  0.74505805969E-08  0.10566000000E+00  0.10566000000E+00 0.  1.
     999900   -1    0    0    0    0 -0.00000000000E+00 -0.00000000000E+00 -0.74505805969E-08  0.93827000000E+00  0.93827000000E+00 0. -1.
     999902    2    1    2    0    0  0.91073291952E-02 -0.75595921802E-02 -0.20252506046E-01  0.10204724878E+01  0.10202028442E+01 0.  0.
     999903    2    3    3    0    0  0.89280780401E-01 -0.65739432193E-01  0.66480093601E-01  0.13067744401E+00  0.19085618471E-01 0.  0.
         14    1    1    2    0    0 -0.91073291952E-02  0.75595921802E-02  0.20252506046E-01  0.23457512233E-01  0.00000000000E+00 0. -1.
     999901    1    3    3    0    0 -0.80173451206E-01  0.58179840013E-01 -0.86732599647E-01  0.88979504376E+00  0.88000000000E+00 0. -1.
        -11    1    4    4    0    0  0.60293563125E-01 -0.54500943717E-01  0.45210640244E-01  0.93004998428E-01  0.51100000000E-03 0. -1.
         11    1    4    4    0    0  0.28987217276E-01 -0.11238488476E-01  0.21269453357E-01  0.37672445577E-01  0.51100000000E-03 0.  1.
</event>
<event>
 8    1  0.1148488E+005  0.1043930E+01  0.7957747E-01            NaN
         13   -1    0    0    0    0  0.00000000000E+00  0.00000000000E+00  0.74505805969E-08  0.10566000000E+00  0.10566000000E+00 0.  1.
     999900   -1    0    0    0    0 -0.00000000000E+00 -0.00000000000E+00 -0.74505805969E-08  0.93827000000E+00  0.93827000000E+00 0.  1.
     999902    2    1    2    0    0 -0.15344930237E-02  0.16058731694E-01  0.16673204748E-01  0.10207301446E+01  0.10204664595E+01 0.  0.
     999903    2    3    3    0    0  0.25864684855E-01  0.86724042867E-01 -0.92176545733E-01  0.13079050099E+00  0.20484092159E-01 0.  0.
         14    1    1    2    0    0  0.15344930237E-02 -0.16058731694E-01 -0.16673204748E-01  0.23199855367E-01  0.00000000000E+00 0. -1.
     999901    1    3    3    0    0 -0.27399177878E-01 -0.70665311172E-01  0.10884975048E+00  0.88993964365E+00  0.88000000000E+00 0. -1.
        -11    1    4    4    0    0  0.11833884485E-01  0.43156410726E-01 -0.31243484941E-01  0.54579603160E-01  0.51100000000E-03 0. -1.
         11    1    4    4    0    0  0.14030800370E-01  0.43567632141E-01 -0.60933060792E-01  0.76210897829E-01  0.51100000000E-03 0.  1.
</event>
<event>
 8    1  0.1148488E+005  0.1043930E+01  0.7957747E-01            NaN
         13   -1    0    0    0    0  0.00000000000E+00  0.00000000000E+00  0.74505805969E-08  0.10566000000E+00  0.10566000000E+00 0.  1.
     999900   -1    0    0    0    0 -0.00000000000E+00 -0.00000000000E+00 -0.74505805969E-08  0.93827000000E+00  0.93827000000E+00 0.  1.
     999902    2    1    2    0    0  0.23232804382E-02 -0.59734808123E-02 -0.22981816156E-01  0.10200711656E+01  0.10197921057E+01 0.  0.
     999903    2    3    3    0    0 -0.44621023214E-01  0.43751354220E-02 -0.12346528840E+00  0.13304930020E+00  0.21172182711E-01 0.  0.
         14    1    1    2    0    0 -0.23232804382E-02  0.59734808123E-02  0.22981816156E-01  0.23858834398E-01  0.00000000000E+00 0.  1.
     999901    1    3    3    0    0  0.46944303652E-01 -0.10348616234E-01  0.10048347225E+00  0.88702186540E+00  0.88000000000E+00 0. -1.
        -11    1    4    4    0    0 -0.19672030049E-01 -0.26723244495E-03 -0.27714816920E-01  0.33991651583E-01  0.51100000000E-03 0.  1.
         11    1    4    4    0    0 -0.24948993165E-01  0.46423678669E-02 -0.95750471484E-01  0.99057648618E-01  0.51100000000E-03 0. -1.
</event>
<event>
 8    1  0.1148488E+005  0.1043930E+01  0.7957747E-01            NaN
         13   -1    0    0    0    0  0.00000000000E+00  0.00000000000E+00  0.74505805969E-08  0.10566000000E+00  0.10566000000E+00 0.  1.
     999900   -1    0    0    0    0 -0.00000000000E+00 -0.00000000000E+00 -0.74505805969E-08  0.93827000000E+00  0.93827000000E+00 0. -1.
     999902    2    1    2    0    0 -0.20053922383E-01  0.77639803702E-03 -0.75151121133E-02  0.10225001258E+01  0.10222755342E+01 0.  0.
     999903    2    3    3    0    0 -0.11227992079E+00 -0.64437049692E-01  0.30185522991E-01  0.13447998730E+00  0.20366325189E-01 0.  0.
         14    1    1    2    0    0  0.20053922383E-01 -0.77639803702E-03  0.75151121133E-02  0.21429874170E-01  0.00000000000E+00 0. -1.
     999901    1    3    3    0    0  0.92225998403E-01  0.65213447729E-01 -0.37700635104E-01  0.88802013853E+00  0.88000000000E+00 0.  1.
        -11    1    4    4    0    0 -0.46687547529E-02 -0.52419559002E-02 -0.23579104461E-02  0.74226838323E-02  0.51100000000E-03 0.  1.
         11    1    4    4    0    0 -0.10761116603E+00 -0.59195093792E-01  0.32543433437E-01  0.12705730347E+00  0.51100000000E-03 0. -1.
</event>
<event>
 8    1  0.1148488E+005  0.1043930E+01  0.7957747E-01            NaN
         13   -1    0    0    0    0  0.00000000000E+00  0.00000000000E+00  0.74505805969E-08  0.10566000000E+00  0.10566000000E+00 0.  1.
     999900   -1    0    0    0    0 -0.00000000000E+00 -0.00000000000E+00 -0.74505805969E-08  0.93827000000E+00  0.93827000000E+00 0. -1.
     999902    2    1    2    0    0 -0.63495347877E-02  0.16101268740E-01  0.15061609893E-01  0.10209861655E+01  0.10207283334E+01 0.  0.
     999903    2    3    3    0    0 -0.90498716949E-01 -0.16518740281E-01  0.93848292340E-01  0.13286877962E+00  0.19588876245E-01 0.  0.
         14    1    1    2    0    0  0.63495347877E-02 -0.16101268740E-01 -0.15061609893E-01  0.22943834458E-01  0.00000000000E+00 0. -1.
     999901    1    3    3    0    0  0.84149182161E-01  0.32620009021E-01 -0.78786682447E-01  0.88811738592E+00  0.88000000000E+00 0. -1.
        -11    1    4    4    0    0 -0.38552992639E-01  0.24436812276E-02  0.41945455198E-01  0.57026197069E-01  0.51100000000E-03 0.  1.
         11    1    4    4    0    0 -0.51945724310E-01 -0.18962421509E-01  0.51902837142E-01  0.75842582551E-01  0.51100000000E-03 0. -1.
</event>
<event>
 8    1  0.1148488E+005  0.1043930E+01  0.7957747E-01            NaN
         13   -1    0    0    0    0  0.00000000000E+00  0.00000000000E+00  0.74505805969E-08  0.10566000000E+00  0.10566000000E+00 0. -1.
     999900   -1    0    0    0    0 -0.00000000000E+00 -0.00000000000E+00 -0.74505805969E-08  0.93827000000E+00  0.93827000000E+00 0. -1.
     999902    2    1    2    0    0  0.23054084395E-01 -0.78992586502E-02 -0.18378293783E-03  0.10195594672E+01  0.10192681611E+01 0.  0.
     999903    2    3    3    0    0 -0.12534790654E+00  0.22772097238E-02  0.41436205190E-02  0.12706552442E+00  0.20277932470E-01 0.  0.
         14    1    1    2    0    0 -0.23054084395E-01  0.78992586502E-02  0.18378293783E-03  0.24370532836E-01  0.00000000000E+00 0.  1.
     999901    1    3    3    0    0  0.14840199094E+00 -0.10176468374E-01 -0.43274034568E-02  0.89249394275E+00  0.88000000000E+00 0. -1.
        -11    1    4    4    0    0 -0.80875118483E-01 -0.47552837087E-02  0.10105686060E-01  0.81644249795E-01  0.51100000000E-03 0. -1.
         11    1    4    4    0    0 -0.44472788059E-01  0.70324934325E-02 -0.59620655412E-02  0.45421274621E-01  0.51100000000E-03 0.  1.
</event>
<event>
 8    1  0.1148488E+005  0.1043930E+01  0.7957747E-01            NaN
         13   -1    0    0    0    0  0.00000000000E+00  0.00000000000E+00  0.74505805969E-08  0.10566000000E+00  0.10566000000E+00 0.  1.
     999900   -1    0    0    0    0 -0.00000000000E+00 -0.00000000000E+00 -0.74505805969E-08  0.93827000000E+00  0.93827000000E+00 0.  1.
     999902    2    1    2    0    0  0.14735749733E-01  0.18638169125E-01 -0.46636822782E-02  0.10197169126E+01  0.10194294033E+01 0.  0.
     999903    2    3    3    0    0  0.11450146061E+00  0.51986860143E-01  0.36548385571E-01  0.13249441132E+00  0.20143645007E-01 0.  0.
         14    1    1    2    0    0 -0.14735749733E-01 -0.18638169125E-01  0.46636822782E-02  0.24213087389E-01  0.00000000000E+00 0. -1.
     999901    1    3    3    0    0 -0.99765710877E-01 -0.33348691018E-01 -0.41212067849E-01  0.88722250129E+00  0.88000000000E+00 0.  1.
        -11    1    4    4    0    0  0.13163459897E-01  0.97244019496E-02  0.11110445034E-01  0.19787465214E-01  0.51100000000E-03 0.  1.
         11    1    4    4    0    0  0.10133800071E+00  0.42262458194E-01  0.25437940537E-01  0.11270694611E+00  0.51100000000E-03 0. -1.
</event>
<event>
 8    1  0.1148488E+005  0.1043930E+01  0.7957747E-01            NaN
         13   -1    0    0    0    0  0.00000000000E+00  0.00000000000E+00  0.74505805969E-08  0.10566000000E+00  0.10566000000E+00 0. -1.
     999900   -1    0    0    0    0 -0.00000000000E+00 -0.00000000000E+00 -0.74505805969E-08  0.93827000000E+00  0.93827000000E+00 0.  1.
     999902    2    1    2    0    0  0.19254856712E-01  0.15432105991E-01  0.18180889428E-03  0.10192534432E+01  0.10189546845E+01 0.  0.
     999903    2    3    3    0    0 -0.20707801076E-01  0.87126033727E-01  0.93035727796E-01  0.13056965040E+00  0.19313937437E-01 0.  0.
         14    1    1    2    0    0 -0.19254856712E-01 -0.15432105991E-01 -0.18180889428E-03  0.24676556826E-01  0.00000000000E+00 0.  1.
     999901    1    3    3    0    0  0.39962657788E-01 -0.71693927737E-01 -0.92853918902E-01  0.88868379278E+00  0.88000000000E+00 0.  1.
        -11    1    4    4    0    0 -0.20744305803E-01  0.54367918898E-01  0.51841952205E-01  0.77936165918E-01  0.51100000000E-03 0. -1.
         11    1    4    4    0    0  0.36504727270E-04  0.32758114829E-01  0.41193775591E-01  0.52633484477E-01  0.51100000000E-03 0.  1.
</event>
<event>
 8    1  0.1148488E+005  0.1043930E+01  0.7957747E-01            NaN
         13   -1    0    0    0    0  0.00000000000E+00  0.00000000000E+00  0.74505805969E-08  0.10566000000E+00  0.10566000000E+00 0.  1.
     999900   -1    0    0    0    0 -0.00000000000E+00 -0.00000000000E+00 -0.74505805969E-08  0.93827000000E+00  0.93827000000E+00 0. -1.
     999902    2    1    2    0    0 -0.13398822741E-01 -0.15234470848E-01 -0.11855347274E-01  0.10204317700E+01  0.10201611787E+01 0.  0.
     999903    2    3    3    0    0  0.10676164194E+00  0.22674276867E-01 -0.66798222270E-01  0.12976105088E+00  0.21535013498E-01 0.  0.
         14    1    1    2    0    0  0.13398822741E-01  0.15234470848E-01  0.11855347274E-01  0.23498229972E-01  0.00000000000E+00 0. -1.
     999901    1    3    3    0    0 -0.12016046468E+00 -0.37908747715E-01  0.54942874996E-01  0.89067071914E+00  0.88000000000E+00 0. -1.
        -11    1    4    4    0    0  0.52755617589E-01  0.30422049366E-03 -0.30178060821E-01  0.60780130086E-01  0.51100000000E-03 0. -1.
         11    1    4    4    0    0  0.54006024354E-01  0.22370056374E-01 -0.36620161449E-01  0.68980920799E-01  0.51100000000E-03 0.  1.
</event>
<event>
 8    1  0.1148488E+005  0.1043930E+01  0.7957747E-01            NaN
         13   -1    0    0    0    0  0.00000000000E+00  0.00000000000E+00  0.74505805969E-08  0.10566000000E+00  0.10566000000E+00 0.  1.
     999900   -1    0    0    0    0 -0.00000000000E+00 -0.00000000000E+00 -0.74505805969E-08  0.93827000000E+00  0.93827000000E+00 0.  1.
     999902    2    1    2    0    0 -0.37132257245E-02 -0.33286392978E-02  0.23446260926E-01  0.10199592879E+01  0.10196775736E+01 0.  0.
     999903    2    3    3    0    0 -0.66695197597E-01  0.59025130740E-01 -0.90171898074E-01  0.12823970900E+00  0.19550864983E-01 0.  0.
         14    1    1    2    0    0  0.37132257245E-02  0.33286392978E-02 -0.23446260926E-01  0.23970712052E-01  0.00000000000E+00 0. -1.
     999901    1    3    3    0    0  0.62981971873E-01 -0.62353770038E-01  0.11361815900E+00  0.89171957894E+00  0.88000000000E+00 0. -1.
        -11    1    4    4    0    0 -0.51496293424E-01  0.33613231382E-01 -0.63209934404E-01  0.88189990865E-01  0.51100000000E-03 0.  1.
         11    1    4    4    0    0 -0.15198904173E-01  0.25411899358E-01 -0.26961963670E-01  0.40049718138E-01  0.51100000000E-03 0. -1.
</event>
<event>
 8    1  0.1148488E+005  0.1043930E+01  0.7957747E-01            NaN
         13   -1    0    0    0    0  0.00000000000E+00  0.00000000000E+00  0.74505805969E-08  0.10566000000E+00  0.10566000000E+00 0. -1.
     999900   -1    0    0    0    0 -0.00000000000E+00 -0.00000000000E+00 -0.74505805969E-08  0.93827000000E+00  0.93827000000E+00 0.  1.
     999902    2    1    2    0    0 -0.17757159634E-02  0.19603072673E-01  0.13268591555E-01  0.10201920737E+01  0.10199158681E+01 0.  0.
     999903    2    3    3    0    0  0.31736741905E-01  0.11343438085E+00  0.59193330112E-01  0.13337953380E+00  0.20289656540E-01 0.  0.
         14    1    1    2    0    0  0.17757159634E-02 -0.19603072673E-01 -0.13268591555E-01  0.23737926347E-01  0.00000000000E+00 0.  1.
     999901    1    3    3    0    0 -0.33512457869E-01 -0.93831308173E-01 -0.45924738557E-01  0.88681253985E+00  0.88000000000E+00 0. -1.
        -11    1    4    4    0    0  0.13342972817E-01  0.81235716004E-01  0.43479471720E-01  0.93102105563E-01  0.51100000000E-03 0.  1.
         11    1    4    4    0    0  0.18393769088E-01  0.32198664843E-01  0.15713858392E-01  0.40277428239E-01  0.51100000000E-03 0. -1.
</event>
<event>
 8    1  0.1148488E+005  0.1043930E+01  0.7957747E-01            NaN
         13   -1    0    0    0    0  0.00000000000E+00  0.00000000000E+00  0.74505805969E-08  0.10566000000E+00  0.10566000000E+00 0.  1.
     999900   -1    0    0    0    0 -0.00000000000E+00 -0.00000000000E+00 -0.74505805969E-08  0.93827000000E+00  0.93827000000E+00 0.  1.
     999902    2    1    2    0    0 -0.61946579367E-02  0.11166210773E-01  0.20337574093E-01  0.10199159422E+01  0.10196331959E+01 0.  0.
     999903    2    3    3    0    0 -0.99981268480E-01 -0.53323473793E-01  0.63741412997E-01  0.13152484539E+00  0.19904027741E-01 0.  0.
         14    1    1    2    0    0  0.61946579367E-02 -0.11166210773E-01 -0.20337574093E-01  0.24014057757E-01  0.00000000000E+00 0. -1.
     999901    1    3    3    0    0  0.93786610543E-01  0.64489684566E-01 -0.43403838905E-01  0.88839109685E+00  0.88000000000E+00 0.  1.
        -11    1    4    4    0    0 -0.61560610319E-01 -0.21681083613E-01  0.36552306300E-01  0.74807154379E-01  0.51100000000E-03 0.  1.
         11    1    4    4    0    0 -0.38420658160E-01 -0.31642390180E-01  0.27189106697E-01  0.56717691013E-01  0.51100000000E-03 0. -1.
</event>
<event>
 7    1  0.1148488E+005  0.1043930E+01  0.7957747E-01            NaN
         13   -1    0    0    0    0  0.00000000000E+00  0.00000000000E+00  0.74505805969E-08  0.10566000000E+00  0.10566000000E+00 0. -1.
     999900   -1    0    0    0    0 -0.00000000000E+00 -0.00000000000E+00 -0.74505805969E-08  0.93827000000E+00  0.93827000000E+00 0. -1.
     999902    2    1    2    0    0  0.14037381841E-01  0.19473044146E-01 -0.28492631081E-02  0.10197563400E+01  0.10194697775E+01 0.  0.
         14    1    1    2    0    0 -0.14037381841E-01 -0.19473044146E-01  0.28492631081E-02  0.24173659994E-01  0.00000000000E+00 0.  1.
     999901    1    3    3    0    0 -0.44101007491E-05 -0.11199103313E+00 -0.11893636773E-01  0.88717723715E+00  0.88000000000E+00 0.  1.
        -11    1    3    3    0    0  0.81399677364E-02  0.91954115199E-01  0.58668459255E-02  0.92501347984E-01  0.51100000000E-03 0. -1.
         11    1    3    3    0    0  0.59018242051E-02  0.39509962075E-01  0.31775277394E-02  0.40077754873E-01  0.51100000000E-03 0.  1.
</event>
<event>
 8    1  0.1148488E+005  0.1043930E+01  0.7957747E-01            NaN
         13   -1    0    0    0    0  0.00000000000E+00  0.00000000000E+00  0.74505805969E-08  0.10566000000E+00  0.10566000000E+00 0. -1.
     999900   -1    0    0    0    0 -0.00000000000E+00 -0.00000000000E+00 -0.74505805969E-08  0.93827000000E+00  0.93827000000E+00 0. -1.
     999902    2    1    2    0    0 -0.76048124738E-02  0.11911076909E-01  0.19327466676E-01  0.10199871954E+01  0.10197061443E+01 0.  0.
     999903    2    3    3    0    0  0.49494777288E-01  0.82011752157E-01  0.88514659774E-01  0.13265335992E+00  0.24215871527E-01 0.  0.
         14    1    1    2    0    0  0.76048124738E-02 -0.11911076909E-01 -0.19327466676E-01  0.23942804639E-01  0.00000000000E+00 0.  1.
     999901    1    3    3    0    0 -0.57099589761E-01 -0.70100675248E-01 -0.69187193097E-01  0.88733383544E+00  0.88000000000E+00 0. -1.
        -11    1    4    4    0    0  0.25235984786E-01  0.39542193610E-01  0.59549739568E-01  0.75808130218E-01  0.51100000000E-03 0. -1.
         11    1    4    4    0    0  0.24258792502E-01  0.42469558547E-01  0.28964920206E-01  0.56845229706E-01  0.51100000000E-03 0.  1.
</event>
<event>
 8    1  0.1148488E+005  0.1043930E+01  0.7957747E-01            NaN
         13   -1    0    0    0    0  0.00000000000E+00  0.00000000000E+00  0.74505805969E-08  0.10566000000E+00  0.10566000000E+00 0.  1.
     999900   -1    0    0    0    0 -0.00000000000E+00 -0.00000000000E+00 -0.74505805969E-08  0.93827000000E+00  0.93827000000E+00 0. -1.
     999902    2    1    2    0    0  0.22429045264E-01  0.35960583612E-02 -0.65384620027E-02  0.10202922084E+01  0.10200183554E+01 0.  0.
     999903    2    3    3    0    0 -0.12232406255E+00  0.21370750709E-01 -0.24189453011E-01  0.12811455825E+00  0.20207056544E-01 0.  0.
         14    1    1    2    0    0 -0.22429045264E-01 -0.35960583612E-02  0.65384620027E-02  0.23637791618E-01  0.00000000000E+00 0. -1.
     999901    1    3    3    0    0  0.14475310781E+00 -0.17774692348E-01  0.17650991008E-01  0.89217765013E+00  0.88000000000E+00 0. -1.
        -11    1    4    4    0    0 -0.75956721611E-01  0.10208227057E-01 -0.24359742031E-01  0.80419460396E-01  0.51100000000E-03 0.  1.
         11    1    4    4    0    0 -0.46367340940E-01  0.11162523652E-01  0.17028901994E-03  0.47695097855E-01  0.51100000000E-03 0. -1.
</event>
<event>
 8    1  0.1148488E+005  0.1043930E+01  0.7957747E-01            NaN
         13   -1    0    0    0    0  0.00000000000E+00  0.00000000000E+00  0.74505805969E-08  0.10566000000E+00  0.10566000000E+00 0. -1.
     999900   -1    0    0    0    0 -0.00000000000E+00 -0.00000000000E+00 -0.74505805969E-08  0.93827000000E+00  0.93827000000E+00 0.  1.
     999902    2    1    2    0    0  0.50903279587E-02 -0.11990467996E-01 -0.18970259377E-01  0.10209179705E+01  0.10206585859E+01 0.  0.
     999903    2    3    3    0    0 -0.10504088435E+00 -0.44337672622E-01  0.59981332878E-01  0.12995861143E+00  0.17089873986E-01 0.  0.
         14    1    1    2    0    0 -0.50903279587E-02  0.11990467996E-01  0.18970259377E-01  0.23012029514E-01  0.00000000000E+00 0. -1.
     999901    1    3    3    0    0  0.11013121231E+00  0.32347204626E-01 -0.78951592255E-01  0.89095935906E+00  0.88000000000E+00 0. -1.
        -11    1    4    4    0    0 -0.25640527525E-01 -0.10565853791E-01  0.23200494943E-01  0.36160724615E-01  0.51100000000E-03 0. -1.
         11    1    4    4    0    0 -0.79400356822E-01 -0.33771818831E-01  0.36780837936E-01  0.93797886815E-01  0.51100000000E-03 0.  1.
</event>
<event>
 8    1  0.1148488E+005  0.1043930E+01  0.7957747E-01            NaN
         13   -1    0    0    0    0  0.00000000000E+00  0.00000000000E+00  0.74505805969E-08  0.10566000000E+00  0.10566000000E+00 0.  1.
     999900   -1    0    0    0    0 -0.00000000000E+00 -0.00000000000E+00 -0.74505805969E-08  0.93827000000E+00  0.93827000000E+00 0.  1.
     999902    2    1    2    0    0  0.11160099905E-01  0.14645964548E-01 -0.90111774338E-02  0.10234299164E+01  0.10232245797E+01 0.  0.
     999903    2    3    3    0    0 -0.41606027292E-01  0.30764506151E-01  0.11948916681E+00  0.13238759980E+00  0.23901867074E-01 0.  0.
         14    1    1    2    0    0 -0.11160099905E-01 -0.14645964548E-01  0.90111774338E-02  0.20500083565E-01  0.00000000000E+00 0.  1.
     999901    1    3    3    0    0  0.52766127197E-01 -0.16118541603E-01 -0.12850034425E+00  0.89104231663E+00  0.88000000000E+00 0.  1.
        -11    1    4    4    0    0  0.27365375055E-02  0.23876216316E-02  0.14246131759E-01  0.14710634441E-01  0.51100000000E-03 0.  1.
         11    1    4    4    0    0 -0.44342564797E-01  0.28376884519E-01  0.10524303505E+00  0.11767696536E+00  0.51100000000E-03 0. -1.
</event>
<event>
 8    1  0.1148488E+005  0.1043930E+01  0.7957747E-01            NaN
         13   -1    0    0    0    0  0.00000000000E+00  0.00000000000E+00  0.74505805969E-08  0.10566000000E+00  0.10566000000E+00 0.  1.
     999900   -1    0    0    0    0 -0.00000000000E+00 -0.00000000000E+00 -0.74505805969E-08  0.93827000000E+00  0.93827000000E+00 0.  1.
     999902    2    1    2    0    0  0.10783923085E-02  0.18539343214E-01 -0.13779327119E-01  0.10208055534E+01  0.10205435991E+01 0.  0.
     999903    2    3    3    0    0  0.18400474288E-01  0.77646610083E-01 -0.10679068913E+00  0.13376280524E+00  0.10984683348E-01 0.  0.
         14    1    1    2    0    0 -0.10783923085E-02 -0.18539343214E-01  0.13779327119E-01  0.23124446645E-01  0.00000000000E+00 0.  1.
     999901    1    3    3    0    0 -0.17322081980E-01 -0.59107266869E-01  0.93011362016E-01  0.88704274812E+00  0.88000000000E+00 0. -1.
        -11    1    4    4    0    0  0.10093008222E-01  0.61418185367E-01 -0.84829501267E-01  0.10521581495E+00  0.51100000000E-03 0.  1.
         11    1    4    4    0    0  0.83074660657E-02  0.16228424716E-01 -0.21961187868E-01  0.28546990293E-01  0.51100000000E-03 0. -1.
</event>
<event>
 8    1  0.1148488E+005  0.1043930E+01  0.7957747E-01            NaN
         13   -1    0    0    0    0  0.00000000000E+00  0.00000000000E+00  0.74505805969E-08  0.10566000000E+00  0.10566000000E+00 0.  1.
     999900   -1    0    0    0    0 -0.00000000000E+00 -0.00000000000E+00 -0.74505805969E-08  0.93827000000E+00  0.93827000000E+00 0.  1.
     999902    2    1    2    0    0  0.18729625683E-01  0.12800054420E-01  0.36033440894E-02  0.10209599247E+01  0.10207014958E+01 0.  0.
     999903    2    3    3    0    0  0.10010781190E+00 -0.83471536129E-01  0.59653997299E-02  0.13197386875E+00  0.19810216867E-01 0.  0.
         14    1    1    2    0    0 -0.18729625683E-01 -0.12800054420E-01 -0.36033440894E-02  0.22970075315E-01  0.00000000000E+00 0.  1.
     999901    1    3    3    0    0 -0.81378186216E-01  0.96271590548E-01 -0.23620556406E-02  0.88898605593E+00  0.88000000000E+00 0.  1.
        -11    1    4    4    0    0  0.22073646741E-01 -0.24870214717E-01 -0.55155728849E-02  0.33711364935E-01  0.51100000000E-03 0.  1.
         11    1    4    4    0    0  0.78034165157E-01 -0.58601321412E-01  0.11480972615E-01  0.98262503816E-01  0.51100000000E-03 0. -1.
</event>
<event>
 8    1  0.1148488E+005  0.1043930E+01  0.7957747E-01            NaN
         13   -1    0    0    0    0  0.00000000000E+00  0.00000000000E+00  0.74505805969E-08  0.10566000000E+00  0.10566000000E+00 0. -1.
     999900   -1    0    0    0    0 -0.00000000000E+00 -0.00000000000E+00 -0.74505805969E-08  0.93827000000E+00  0.93827000000E+00 0. -1.
     999902    2    1    2    0    0 -0.23410807130E-01 -0.33333346625E-02 -0.60599541418E-02  0.10195189358E+01  0.10192266482E+01 0.  0.
     999903    2    3    3    0    0 -0.74595798510E-01 -0.10538263791E+00 -0.16702093014E-01  0.13208036399E+00  0.22276200593E-01 0.  0.
         14    1    1    2    0    0  0.23410807130E-01  0.33333346625E-02  0.60599541418E-02  0.24411064185E-01  0.00000000000E+00 0. -1.
     999901    1    3    3    0    0  0.51184991380E-01  0.10204930325E+00  0.10642138872E-01  0.88743857182E+00  0.88000000000E+00 0. -1.
        -11    1    4    4    0    0 -0.39369363097E-01 -0.49859890669E-01 -0.18912718187E-01  0.66286555789E-01  0.51100000000E-03 0.  1.
         11    1    4    4    0    0 -0.35226435413E-01 -0.55522747243E-01  0.22106251731E-02  0.65793808204E-01  0.51100000000E-03 0. -1.
</event>
<event>
 8    1  0.1148488E+005  0.1043930E+01  0.7957747E-01            NaN
         13   -1    0    0    0    0  0.00000000000E+00  0.00000000000E+00  0.74505805969E-08  0.10566000000E+00  0.10566000000E+00 0. -1.
     999900   -1    0    0    0    0 -0.00000000000E+00 -0.00000000000E+00 -0.74505805969E-08  0.93827000000E+00  0.93827000000E+00 0. -1.
     999902    2    1    2    0    0  0.84093000855E-02  0.19499350160E-01  0.10586582114E-01  0.10202020269E+01  0.10199260557E+01 0.  0.
     999903    2    3    3    0    0 -0.81339052408E-01 -0.81357446747E-01 -0.52292744469E-01  0.12768834639E+00  0.18295001835E-01 0.  0.
         14    1    1    2    0    0 -0.84093000855E-02 -0.19499350160E-01 -0.10586582114E-01  0.23727973059E-01  0.00000000000E+00 0.  1.
     999901    1    3    3    0    0  0.89748352494E-01  0.10085679691E+00  0.62879326584E-01  0.89251368055E+00  0.88000000000E+00 0.  1.
        -11    1    4    4    0    0 -0.47731178293E-01 -0.45788960189E-01 -0.39746640450E-01  0.77168327729E-01  0.51100000000E-03 0. -1.
         11    1    4    4    0    0 -0.33607874115E-01 -0.35568486558E-01 -0.12546104020E-01  0.50520018662E-01  0.51100000000E-03 0.  1.
</event>
<event>
 8    1  0.1148488E+005  0.1043930E+01  0.7957747E-01            NaN
         13   -1    0    0    0    0  0.00000000000E+00  0.00000000000E+00  0.74505805969E-08  0.10566000000E+00  0.10566000000E+00 0.  1.
     999900   -1    0    0    0    0 -0.00000000000E+00 -0.00000000000E+00 -0.74505805969E-08  0.93827000000E+00  0.93827000000E+00 0.  1.
     999902    2    1    2    0    0  0.13014531643E-01  0.10650112858E-01 -0.17186351261E-01  0.10198847592E+01  0.10196012693E+01 0.  0.
     999903    2    3    3    0    0 -0.97683281486E-01 -0.29880586728E-01  0.73409644445E-01  0.12741381964E+00  0.20259136010E-01 0.  0.
         14    1    1    2    0    0 -0.13014531643E-01 -0.10650112858E-01  0.17186351261E-01  0.24045240848E-01  0.00000000000E+00 0.  1.
     999901    1    3    3    0    0  0.11069781313E+00  0.40530699586E-01 -0.90595995706E-01  0.89247093951E+00  0.88000000000E+00 0.  1.
        -11    1    4    4    0    0 -0.88135249322E-01 -0.20307119070E-01  0.61359649892E-01  0.10929532933E+00  0.51100000000E-03 0. -1.
         11    1    4    4    0    0 -0.95480321646E-02 -0.95734676578E-02  0.12049994553E-01  0.18118490305E-01  0.51100000000E-03 0.  1.
</event>
<event>
 8    1  0.1148488E+005  0.1043930E+01  0.7957747E-01            NaN
         13   -1    0    0    0    0  0.00000000000E+00  0.00000000000E+00  0.74505805969E-08  0.10566000000E+00  0.10566000000E+00 0. -1.
     999900   -1    0    0    0    0 -0.00000000000E+00 -0.00000000000E+00 -0.74505805969E-08  0.93827000000E+00  0.93827000000E+00 0.  1.
     999902    2    1    2    0    0  0.13025546349E-01  0.20343269416E-01 -0.22948850084E-02  0.10196652114E+01  0.10193764581E+01 0.  0.
     999903    2    3    3    0    0 -0.31054426158E-01  0.11344100234E+00 -0.56577618714E-01  0.13199587712E+00  0.19714112793E-01 0.  0.
         14    1    1    2    0    0 -0.13025546349E-01 -0.20343269416E-01  0.22948850084E-02  0.24264788592E-01  0.00000000000E+00 0.  1.
     999901    1    3    3    0    0  0.44079972507E-01 -0.93097732919E-01  0.54282733706E-01  0.88766933428E+00  0.88000000000E+00 0. -1.
        -11    1    4    4    0    0 -0.22074938951E-02  0.43894500860E-01 -0.20071686856E-01  0.48319084938E-01  0.51100000000E-03 0.  1.
         11    1    4    4    0    0 -0.28846932263E-01  0.69546501476E-01 -0.36505931859E-01  0.83676792185E-01  0.51100000000E-03 0. -1.
</event>
<event>
 8    1  0.1148488E+005  0.1043930E+01  0.7957747E-01            NaN
         13   -1    0    0    0    0  0.00000000000E+00  0.00000000000E+00  0.74505805969E-08  0.10566000000E+00  0.10566000000E+00 0.  1.
     999900   -1    0    0    0    0 -0.00000000000E+00 -0.00000000000E+00 -0.74505805969E-08  0.93827000000E+00  0.93827000000E+00 0.  1.
     999902    2    1    2    0    0  0.19816810406E-01 -0.14175386315E-02  0.13105790518E-01  0.10201292199E+01  0.10198515324E+01 0.  0.
     999903    2    3    3    0    0  0.62008545762E-02  0.10908675486E+00  0.69889800767E-01  0.13129795524E+00  0.20400934205E-01 0.  0.
         14    1    1    2    0    0 -0.19816810406E-01  0.14175386315E-02 -0.13105790518E-01  0.23800780145E-01  0.00000000000E+00 0. -1.
     999901    1    3    3    0    0  0.13615955829E-01 -0.11050429349E+00 -0.56784010249E-01  0.88883126461E+00  0.88000000000E+00 0.  1.
        -11    1    4    4    0    0  0.43864069477E-02  0.11794594838E-01  0.14956497115E-01  0.19552773723E-01  0.51100000000E-03 0. -1.
         11    1    4    4    0    0  0.18144476285E-02  0.97292160021E-01  0.54933303652E-01  0.11174518152E+00  0.51100000000E-03 0.  1.
</event>
<event>
 8    1  0.1148488E+005  0.1043930E+01  0.7957747E-01            NaN
         13   -1    0    0    0    0  0.00000000000E+00  0.00000000000E+00  0.74505805969E-08  0.10566000000E+00  0.10566000000E+00 0. -1.
     999900   -1    0    0    0    0 -0.00000000000E+00 -0.00000000000E+00 -0.74505805969E-08  0.93827000000E+00  0.93827000000E+00 0. -1.
     999902    2    1    2    0    0  0.52521771756E-02  0.32363171186E-01  0.53798351251E-02  0.10107049667E+01  0.10101587137E+01 0.  0.
     999903    2    3    3    0    0 -0.30144209167E-01 -0.75695334237E-01  0.86001301196E-01  0.11973394269E+00  0.17364799279E-01 0.  0.
         14    1    1    2    0    0 -0.52521771756E-02 -0.32363171186E-01 -0.53798351251E-02  0.33225033338E-01  0.00000000000E+00 0.  1.
     999901    1    3    3    0    0  0.35396386342E-01  0.10805850542E+00 -0.80621466071E-01  0.89097102397E+00  0.88000000000E+00 0. -1.
        -11    1    4    4    0    0 -0.12242727210E-02 -0.20050454964E-01  0.15512476460E-01  0.25385382307E-01  0.51100000000E-03 0.  1.
         11    1    4    4    0    0 -0.28919936446E-01 -0.55644879273E-01  0.70488824736E-01  0.94348560386E-01  0.51100000000E-03 0. -1.
</event>
<event>
 8    1  0.1148488E+005  0.1043930E+01  0.7957747E-01            NaN
         13   -1    0    0    0    0  0.00000000000E+00  0.00000000000E+00  0.74505805969E-08  0.10566000000E+00  0.10566000000E+00 0.  1.
     999900   -1    0    0    0    0 -0.00000000000E+00 -0.00000000000E+00 -0.74505805969E-08  0.93827000000E+00  0.93827000000E+00 0.  1.
     999902    2    1    2    0    0  0.13919543061E-01 -0.16280576337E-01  0.10633480962E-01  0.10200159505E+01  0.10197355822E+01 0.  0.
     999903    2    3    3    0    0 -0.28045227192E-01  0.69954201641E-01  0.10390013253E+00  0.12990576231E+00  0.20003610826E-01 0.  0.
         14    1    1    2    0    0 -0.13919543061E-01  0.16280576337E-01 -0.10633480962E-01  0.23914049475E-01  0.00000000000E+00 0.  1.
     999901    1    3    3    0    0  0.41964770253E-01 -0.86234777978E-01 -0.93266651565E-01  0.89011018822E+00  0.88000000000E+00 0.  1.
        -11    1    4    4    0    0 -0.81088571286E-03  0.24170555186E-01  0.39599336432E-01  0.46403036975E-01  0.51100000000E-03 0. -1.
         11    1    4    4    0    0 -0.27234341479E-01  0.45783646455E-01  0.64300796095E-01  0.83502725333E-01  0.51100000000E-03 0.  1.
</event>
<event>
 8    1  0.1148488E+005  0.1043930E+01  0.7957747E-01            NaN
         13   -1    0    0    0    0  0.00000000000E+00  0.00000000000E+00  0.74505805969E-08  0.10566000000E+00  0.10566000000E+00 0.  1.
     999900   -1    0    0    0    0 -0.00000000000E+00 -0.00000000000E+00 -0.74505805969E-08  0.93827000000E+00  0.93827000000E+00 0.  1.
     999902    2    1    2    0    0  0.53689715548E-02  0.17623793676E-01 -0.21659150690E-01  0.10154951135E+01  0.10150969327E+01 0.  0.
     999903    2    3    3    0    0  0.25867745014E-01  0.66841894765E-01 -0.10641413916E+00  0.12981682587E+00  0.19785351604E-01 0.  0.
         14    1    1    2    0    0 -0.53689715548E-02 -0.17623793676E-01  0.21659150690E-01  0.28434886455E-01  0.00000000000E+00 0.  1.
     999901    1    3    3    0    0 -0.20498773459E-01 -0.49218101090E-01  0.84754988470E-01  0.88567828767E+00  0.88000000000E+00 0. -1.
        -11    1    4    4    0    0  0.27621311537E-01  0.52471027403E-01 -0.78641879073E-01  0.98493410099E-01  0.51100000000E-03 0.  1.
         11    1    4    4    0    0 -0.17535665233E-02  0.14370867363E-01 -0.27772260086E-01  0.31323415772E-01  0.51100000000E-03 0. -1.
</event>
<event>
 8    1  0.1148488E+005  0.1043930E+01  0.7957747E-01            NaN
         13   -1    0    0    0    0  0.00000000000E+00  0.00000000000E+00  0.74505805969E-08  0.10566000000E+00  0.10566000000E+00 0.  1.
     999900   -1    0    0    0    0 -0.00000000000E+00 -0.00000000000E+00 -0.74505805969E-08  0.93827000000E+00  0.93827000000E+00 0. -1.
     999902    2    1    2    0    0 -0.35124439206E-02  0.22659082621E-01 -0.51744319300E-02  0.10204237023E+01  0.10201529229E+01 0.  0.
     999903    2    3    3    0    0  0.62493734705E-01 -0.10938324437E+00 -0.93758720510E-02  0.12811790051E+00  0.21357163430E-01 0.  0.
         14    1    1    2    0    0  0.35124439206E-02 -0.22659082621E-01  0.51744319300E-02  0.23506297737E-01  0.00000000000E+00 0.  1.
     999901    1    3    3    0    0 -0.66006178626E-01  0.13204232699E+00  0.42014401211E-02  0.89230580175E+00  0.88000000000E+00 0. -1.
        -11    1    4    4    0    0  0.43971674843E-01 -0.79208203102E-01 -0.16262819484E-01  0.92044489491E-01  0.51100000000E-03 0. -1.
         11    1    4    4    0    0  0.18522059862E-01 -0.30175041266E-01  0.68869474328E-02  0.36073411024E-01  0.51100000000E-03 0.  1.
</event>
<event>
 8    1  0.1356811E+005  0.1043930E+01  0.7957747E-01            NaN
         13   -1    0    0    0    0  0.00000000000E+00  0.00000000000E+00  0.74505805969E-08  0.10566000000E+00  0.10566000000E+00 0. -1.
     999900   -1    0    0    0    0 -0.00000000000E+00 -0.00000000000E+00 -0.74505805969E-08  0.93827000000E+00  0.93827000000E+00 0. -1.
     999902    2    1    2    0    0 -0.14945107969E-01  0.16518143070E-01  0.11323185611E-02  0.10216255734E+01  0.10213820660E+01 0.  0.
     999903    2    3    3    0    0  0.21227857414E-01  0.12992064096E+00  0.82273204821E-02  0.13358337334E+00  0.21138447279E-01 0.  0.
         14    1    1    2    0    0  0.14945107969E-01 -0.16518143070E-01 -0.11323185611E-02  0.22304426646E-01  0.00000000000E+00 0. -1.
     999901    1    3    3    0    0 -0.36172965383E-01 -0.11340249789E+00 -0.70950019210E-02  0.88804220001E+00  0.88000000000E+00 0.  1.
        -11    1    4    4    0    0  0.35185822660E-02  0.79977037322E-01  0.91898914799E-02  0.80581773041E-01  0.51100000000E-03 0. -1.
         11    1    4    4    0    0  0.17709275148E-01  0.49943603636E-01 -0.96257099784E-03  0.53001600299E-01  0.51100000000E-03 0.  1.
</event>
<event>
 8    1  0.1148488E+005  0.1043930E+01  0.7957747E-01            NaN
         13   -1    0    0    0    0  0.00000000000E+00  0.00000000000E+00  0.74505805969E-08  0.10566000000E+00  0.10566000000E+00 0.  1.
     999900   -1    0    0    0    0 -0.00000000000E+00 -0.00000000000E+00 -0.74505805969E-08  0.93827000000E+00  0.93827000000E+00 0. -1.
     999902    2    1    2    0    0 -0.18449586279E-01 -0.18959584801E-02  0.13608942238E-01  0.10209259742E+01  0.10206667721E+01 0.  0.
     999903    2    3    3    0    0 -0.12399275785E+00  0.41925427449E-01 -0.11754867372E-01  0.13317432103E+00  0.21570289972E-01 0.  0.
         14    1    1    2    0    0  0.18449586279E-01  0.18959584801E-02 -0.13608942238E-01  0.23004025762E-01  0.00000000000E+00 0.  1.
     999901    1    3    3    0    0  0.10554317157E+00 -0.43821385929E-01  0.25363809609E-01  0.88775165320E+00  0.88000000000E+00 0. -1.
        -11    1    4    4    0    0 -0.56887477365E-01  0.17634277794E-01 -0.16025110723E-01  0.61678344084E-01  0.51100000000E-03 0. -1.
         11    1    4    4    0    0 -0.67105280486E-01  0.24291149655E-01  0.42702433511E-02  0.71495976949E-01  0.51100000000E-03 0.  1.
</event>
<event>
 8    1  0.1148488E+005  0.1043930E+01  0.7957747E-01            NaN
         13   -1    0    0    0    0  0.00000000000E+00  0.00000000000E+00  0.74505805969E-08  0.10566000000E+00  0.10566000000E+00 0.  1.
     999900   -1    0    0    0    0 -0.00000000000E+00 -0.00000000000E+00 -0.74505805969E-08  0.93827000000E+00  0.93827000000E+00 0. -1.
     999902    2    1    2    0    0 -0.13237213778E-01 -0.74143880334E-02  0.17596587954E-01  0.10206956098E+01  0.10204311300E+01 0.  0.
     999903    2    3    3    0    0  0.33083199351E-02  0.12808707788E+00  0.10079799640E-01  0.13013909616E+00  0.20428839592E-01 0.  0.
         14    1    1    2    0    0  0.13237213778E-01  0.74143880334E-02 -0.17596587954E-01  0.23234390160E-01  0.00000000000E+00 0. -1.
     999901    1    3    3    0    0 -0.16545533713E-01 -0.13550146592E+00  0.75167883133E-02  0.89055651368E+00  0.88000000000E+00 0.  1.
        -11    1    4    4    0    0 -0.35788697933E-02  0.11391907041E+00  0.93868466885E-02  0.11436230552E+00  0.51100000000E-03 0.  1.
         11    1    4    4    0    0  0.68871897284E-02  0.14168007477E-01  0.69295295184E-03  0.15776790644E-01  0.51100000000E-03 0. -1.
</event>
<event>
 8    1  0.1148488E+005  0.1043930E+01  0.7957747E-01            NaN
         13   -1    0    0    0    0  0.00000000000E+00  0.00000000000E+00  0.74505805969E-08  0.10566000000E+00  0.10566000000E+00 0. -1.
     999900   -1    0    0    0    0 -0.00000000000E+00 -0.00000000000E+00 -0.74505805969E-08  0.93827000000E+00  0.93827000000E+00 0. -1.
     999902    2    1    2    0    0 -0.98626132961E-02 -0.17974996817E-01  0.12159696360E-01  0.10200924274E+01  0.10198138706E+01 0.  0.
     999903    2    3    3    0    0  0.52822965520E-01 -0.34919956018E-01  0.11380312616E+00  0.13186497891E+00  0.20677333622E-01 0.  0.
         14    1    1    2    0    0  0.98626132961E-02  0.17974996817E-01 -0.12159696360E-01  0.23837572594E-01  0.00000000000E+00 0.  1.
     999901    1    3    3    0    0 -0.62685578816E-01  0.16944959201E-01 -0.10164342980E+00  0.88822744849E+00  0.88000000000E+00 0. -1.
        -11    1    4    4    0    0  0.40024773655E-01 -0.16042962967E-01  0.65145895239E-01  0.78125590906E-01  0.51100000000E-03 0. -1.
         11    1    4    4    0    0  0.12798191865E-01 -0.18876993051E-01  0.48657230920E-01  0.53739388008E-01  0.51100000000E-03 0.  1.
</event>
<event>
 8    1  0.1148488E+005  0.1043930E+01  0.7957747E-01            NaN
         13   -1    0    0    0    0  0.00000000000E+00  0.00000000000E+00  0.74505805969E-08  0.10566000000E+00  0.10566000000E+00 0. -1.
     999900   -1    0    0    0    0 -0.00000000000E+00 -0.00000000000E+00 -0.74505805969E-08  0.93827000000E+00  0.93827000000E+00 0.  1.
     999902    2    1    2    0    0 -0.12750518266E-01 -0.13347721674E-01  0.43713591145E-02  0.10249603882E+01  0.10247848317E+01 0.  0.
     999903    2    3    3    0    0 -0.12012379313E+00  0.52641239968E-01 -0.30331404197E-01  0.13530436201E+00  0.13654687007E-01 0.  0.
         14    1    1    2    0    0  0.12750518266E-01  0.13347721674E-01 -0.43713591145E-02  0.18969611763E-01  0.00000000000E+00 0.  1.
     999901    1    3    3    0    0  0.10737327487E+00 -0.65988961642E-01  0.34702763312E-01  0.88965602622E+00  0.88000000000E+00 0. -1.
        -11    1    4    4    0    0 -0.24295534632E-01  0.15361724228E-01 -0.10349578323E-01  0.30555367234E-01  0.51100000000E-03 0.  1.
         11    1    4    4    0    0 -0.95828258501E-01  0.37279515740E-01 -0.19981825874E-01  0.10474899478E+00  0.51100000000E-03 0. -1.
</event>
<event>
 8    1  0.1148488E+005  0.1043930E+01  0.7957747E-01            NaN
         13   -1    0    0    0    0  0.00000000000E+00  0.00000000000E+00  0.74505805969E-08  0.10566000000E+00  0.10566000000E+00 0.  1.
     999900   -1    0    0    0    0 -0.00000000000E+00 -0.00000000000E+00 -0.74505805969E-08  0.93827000000E+00  0.93827000000E+00 0.  1.
     999902    2    1    2    0    0  0.17584148622E-01  0.14522888993E-01 -0.74842826296E-02  0.10199272694E+01  0.10196447930E+01 0.  0.
     999903    2    3    3    0    0 -0.46589671997E-01  0.41256998711E-01  0.11164777913E+00  0.12918295147E+00  0.18715525291E-01 0.  0.
         14    1    1    2    0    0 -0.17584148622E-01 -0.14522888993E-01  0.74842826296E-02  0.24002730552E-01  0.00000000000E+00 0.  1.
     999901    1    3    3    0    0  0.64173820619E-01 -0.26734109718E-01 -0.11913206176E+00  0.89074431798E+00  0.88000000000E+00 0.  1.
        -11    1    4    4    0    0 -0.30149892150E-01  0.14258577191E-01  0.55918478490E-01  0.65111138661E-01  0.51100000000E-03 0.  1.
         11    1    4    4    0    0 -0.16439779848E-01  0.26998421520E-01  0.55729300636E-01  0.64071812807E-01  0.51100000000E-03 0. -1.
</event>
<event>
 8    1  0.1148488E+005  0.1043930E+01  0.7957747E-01            NaN
         13   -1    0    0    0    0  0.00000000000E+00  0.00000000000E+00  0.74505805969E-08  0.10566000000E+00  0.10566000000E+00 0. -1.
     999900   -1    0    0    0    0 -0.00000000000E+00 -0.00000000000E+00 -0.74505805969E-08  0.93827000000E+00  0.93827000000E+00 0. -1.
     999902    2    1    2    0    0  0.16313701307E-01  0.71664641527E-02 -0.11450882570E-01  0.10227494011E+01  0.10225300581E+01 0.  0.
     999903    2    3    3    0    0 -0.19007190095E-01  0.10738301695E+00 -0.75311449402E-01  0.13405986316E+00  0.20195219579E-01 0.  0.
         14    1    1    2    0    0 -0.16313701307E-01 -0.71664641527E-02  0.11450882570E-01  0.21180598915E-01  0.00000000000E+00 0.  1.
     999901    1    3    3    0    0  0.35320891402E-01 -0.10021655280E+00  0.63860566832E-01  0.88868953793E+00  0.88000000000E+00 0.  1.
        -11    1    4    4    0    0 -0.12891145404E-01  0.92772193269E-01 -0.56196270740E-01  0.10922977360E+00  0.51100000000E-03 0. -1.
         11    1    4    4    0    0 -0.61160446918E-02  0.14610823683E-01 -0.19115178662E-01  0.24830089562E-01  0.51100000000E-03 0.  1.
</event>
<event>
 8    1  0.1148488E+005  0.1043930E+01  0.7957747E-01            NaN
         13   -1    0    0    0    0  0.00000000000E+00  0.00000000000E+00  0.74505805969E-08  0.10566000000E+00  0.10566000000E+00 0. -1.
     999900   -1    0    0    0    0 -0.00000000000E+00 -0.00000000000E+00 -0.74505805969E-08  0.93827000000E+00  0.93827000000E+00 0. -1.
     999902    2    1    2    0    0 -0.10522989071E-03  0.51453607893E-02 -0.25181915610E-01  0.10182275743E+01  0.10179031282E+01 0.  0.
     999903    2    3    3    0    0 -0.12378891808E+00  0.72298340633E-03  0.25730105634E-01  0.12811002814E+00  0.20637878528E-01 0.  0.
         14    1    1    2    0    0  0.10522989071E-03 -0.51453607893E-02  0.25181915610E-01  0.25702425660E-01  0.00000000000E+00 0. -1.
     999901    1    3    3    0    0  0.12368368819E+00  0.44223773830E-02 -0.50912021244E-01  0.89011754620E+00  0.88000000000E+00 0.  1.
        -11    1    4    4    0    0 -0.20957281198E-01 -0.32824765807E-02 -0.25825232543E-02  0.21375519528E-01  0.51100000000E-03 0. -1.
         11    1    4    4    0    0 -0.10283163688E+00  0.40054599870E-02  0.28312628888E-01  0.10673450861E+00  0.51100000000E-03 0.  1.
</event>
<event>
 7    1  0.1148488E+005  0.1043930E+01  0.7957747E-01            NaN
         13   -1    0    0    0    0  0.00000000000E+00  0.00000000000E+00  0.74505805969E-08  0.10566000000E+00  0.10566000000E+00 0. -1.
     999900   -1    0    0    0    0 -0.00000000000E+00 -0.00000000000E+00 -0.74505805969E-08  0.93827000000E+00  0.93827000000E+00 0. -1.
     999903    2    1    2    0    0 -0.51568528336E-01 -0.27387417226E-01 -0.95397987722E-01  0.11418162084E+00  0.22962637904E-01 0.  0.
         14    1    1    2    0    0 -0.11834566951E-01  0.39115815849E-01  0.15768301497E-01  0.43803462838E-01  0.00000000000E+00 0.  1.
     999901    1    1    2    0    0  0.63403095288E-01 -0.11728398623E-01  0.79629686225E-01  0.88594491632E+00  0.88000000000E+00 0. -1.
        -11    1    3    3    0    0 -0.26943843305E-01 -0.22799464770E-01 -0.39794426149E-01  0.53194395939E-01  0.51100000000E-03 0.  1.
         11    1    3    3    0    0 -0.24624685032E-01 -0.45879524553E-02 -0.55603561573E-01  0.60987224902E-01  0.51100000000E-03 0. -1.
</event>
<event>
 8    1  0.1148488E+005  0.1043930E+01  0.7957747E-01            NaN
         13   -1    0    0    0    0  0.00000000000E+00  0.00000000000E+00  0.74505805969E-08  0.10566000000E+00  0.10566000000E+00 0.  1.
     999900   -1    0    0    0    0 -0.00000000000E+00 -0.00000000000E+00 -0.74505805969E-08  0.93827000000E+00  0.93827000000E+00 0. -1.
     999902    2    1    2    0    0  0.69007276490E-02 -0.87867961997E-02 -0.33497584368E-02  0.10322660079E+01  0.10322001077E+01 0.  0.
     999903    2    3    3    0    0  0.12672015932E+00 -0.30011754739E-01 -0.53418308015E-01  0.14248285753E+00  0.22116619483E-01 0.  0.
         14    1    1    2    0    0 -0.69007276490E-02  0.87867961997E-02  0.33497584368E-02  0.11663992075E-01  0.00000000000E+00 0. -1.
     999901    1    3    3    0    0 -0.11981943167E+00  0.21224958540E-01  0.50068549578E-01  0.88978315040E+00  0.88000000000E+00 0.  1.
        -11    1    4    4    0    0  0.18333371014E-01 -0.46625840373E-02 -0.16789853601E-01  0.25298468088E-01  0.51100000000E-03 0.  1.
         11    1    4    4    0    0  0.10838678831E+00 -0.25349170702E-01 -0.36628454414E-01  0.11718438944E+00  0.51100000000E-03 0. -1.
</event>
<event>
 8    1  0.1407303E+005  0.1043930E+01  0.7957747E-01            NaN
         13   -1    0    0    0    0  0.00000000000E+00  0.00000000000E+00  0.74505805969E-08  0.10566000000E+00  0.10566000000E+00 0.  1.
     999900   -1    0    0    0    0 -0.00000000000E+00 -0.00000000000E+00 -0.74505805969E-08  0.93827000000E+00  0.93827000000E+00 0.  1.
     999902    2    1    2    0    0 -0.22178527079E-01  0.14164968819E-02  0.40417032718E-02  0.10213417532E+01  0.10210919391E+01 0.  0.
     999903    2    3    3    0    0  0.93146887114E-01  0.87151008858E-01  0.96500748837E-02  0.12966815177E+00  0.21191147086E-01 0.  0.
         14    1    1    2    0    0  0.22178527079E-01 -0.14164968819E-02 -0.40417032718E-02  0.22588246770E-01  0.00000000000E+00 0. -1.
     999901    1    3    3    0    0 -0.11532541419E+00 -0.85734511976E-01 -0.56083716119E-02  0.89167360146E+00  0.88000000000E+00 0. -1.
        -11    1    4    4    0    0  0.41920201485E-01  0.48052582762E-01  0.13215076034E-01  0.65124905821E-01  0.51100000000E-03 0.  1.
         11    1    4    4    0    0  0.51226685629E-01  0.39098426096E-01 -0.35650011503E-02  0.64543245951E-01  0.51100000000E-03 0. -1.
</event>
<event>
 8    1  0.1148488E+005  0.1043930E+01  0.7957747E-01            NaN
         13   -1    0    0    0    0  0.00000000000E+00  0.00000000000E+00  0.74505805969E-08  0.10566000000E+00  0.10566000000E+00 0. -1.
     999900   -1    0    0    0    0 -0.00000000000E+00 -0.00000000000E+00 -0.74505805969E-08  0.93827000000E+00  0.93827000000E+00 0. -1.
     999902    2    1    2    0    0 -0.25001198773E-01  0.51795757620E-02 -0.17667514691E-01  0.10128811833E+01  0.10124051869E+01 0.  0.
     999903    2    3    3    0    0 -0.17392291174E-01 -0.22041122145E-01 -0.12151968844E+00  0.12632371989E+00  0.20058531165E-01 0.  0.
         14    1    1    2    0    0  0.25001198773E-01 -0.51795757620E-02  0.17667514691E-01  0.31048816733E-01  0.00000000000E+00 0. -1.
     999901    1    3    3    0    0 -0.76089075989E-02  0.27220697907E-01  0.10385217375E+00  0.88655746337E+00  0.88000000000E+00 0.  1.
        -11    1    4    4    0    0 -0.17886205568E-01 -0.10262752562E-01 -0.54497595889E-01  0.58270829052E-01  0.51100000000E-03 0. -1.
         11    1    4    4    0    0  0.49391439425E-03 -0.11778369583E-01 -0.67022092548E-01  0.68052890842E-01  0.51100000000E-03 0.  1.
</event>
<event>
 8    1  0.1148488E+005  0.1043930E+01  0.7957747E-01            NaN
         13   -1    0    0    0    0  0.00000000000E+00  0.00000000000E+00  0.74505805969E-08  0.10566000000E+00  0.10566000000E+00 0.  1.
     999900   -1    0    0    0    0 -0.00000000000E+00 -0.00000000000E+00 -0.74505805969E-08  0.93827000000E+00  0.93827000000E+00 0.  1.
     999902    2    1    2    0    0 -0.13152558728E-01  0.13068845682E-01  0.14526458860E-01  0.10203757533E+01  0.10201038552E+01 0.  0.
     999903    2    3    3    0    0 -0.12476850421E+00 -0.27438239201E-01  0.27852784116E-01  0.13230113139E+00  0.20193443783E-01 0.  0.
         14    1    1    2    0    0  0.13152558728E-01 -0.13068845682E-01 -0.14526458860E-01  0.23554246657E-01  0.00000000000E+00 0. -1.
     999901    1    3    3    0    0  0.11161594548E+00  0.40507084883E-01 -0.13326325256E-01  0.88807462195E+00  0.88000000000E+00 0. -1.
        -11    1    4    4    0    0 -0.66875860978E-01 -0.23174181700E-01  0.21104260639E-01  0.73858475595E-01  0.51100000000E-03 0.  1.
         11    1    4    4    0    0 -0.57892643229E-01 -0.42640575003E-02  0.67485234767E-02  0.58442655796E-01  0.51100000000E-03 0. -1.
</event>
<event>
 8    1  0.1148488E+005  0.1043930E+01  0.7957747E-01            NaN
         13   -1    0    0    0    0  0.00000000000E+00  0.00000000000E+00  0.74505805969E-08  0.10566000000E+00  0.10566000000E+00 0.  1.
     999900   -1    0    0    0    0 -0.00000000000E+00 -0.00000000000E+00 -0.74505805969E-08  0.93827000000E+00  0.93827000000E+00 0. -1.
     999902    2    1    2    0    0  0.12735765913E-01  0.18922142202E-01  0.51416779671E-02  0.10205487243E+01  0.10202808509E+01 0.  0.
     999903    2    3    3    0    0  0.87406102473E-01  0.34606824527E-02 -0.96096510144E-01  0.13146836429E+00  0.19939620744E-01 0.  0.
         14    1    1    2    0    0 -0.12735765913E-01 -0.18922142202E-01 -0.51416779671E-02  0.23381275654E-01  0.00000000000E+00 0.  1.
     999901    1    3    3    0    0 -0.74670336560E-01  0.15461459749E-01  0.10123818811E+00  0.88908036005E+00  0.88000000000E+00 0.  1.
        -11    1    4    4    0    0  0.31166943778E-01 -0.93093833693E-03 -0.21222639066E-01  0.37721433702E-01  0.51100000000E-03 0. -1.
         11    1    4    4    0    0  0.56239158695E-01  0.43916207896E-02 -0.74873871078E-01  0.93746930591E-01  0.51100000000E-03 0.  1.
</event>
<event>
 8    1  0.1148488E+005  0.1043930E+01  0.7957747E-01            NaN
         13   -1    0    0    0    0  0.00000000000E+00  0.00000000000E+00  0.74505805969E-08  0.10566000000E+00  0.10566000000E+00 0. -1.
     999900   -1    0    0    0    0 -0.00000000000E+00 -0.00000000000E+00 -0.74505805969E-08  0.93827000000E+00  0.93827000000E+00 0. -1.
     999902    2    1    2    0    0  0.20379310323E-01  0.79363811235E-02  0.10609462320E-01  0.10196223237E+01  0.10193325365E+01 0.  0.
     999903    2    3    3    0    0 -0.47852695161E-01  0.88795392871E-01 -0.77646124301E-01  0.12890192152E+00  0.20304741411E-01 0.  0.
         14    1    1    2    0    0 -0.20379310323E-01 -0.79363811235E-02 -0.10609462320E-01  0.24307676262E-01  0.00000000000E+00 0.  1.
     999901    1    3    3    0    0  0.68232005484E-01 -0.80859011747E-01  0.88255586621E-01  0.89072040222E+00  0.88000000000E+00 0.  1.
        -11    1    4    4    0    0 -0.32088830743E-01  0.62879948954E-01 -0.42207866206E-01  0.82251724174E-01  0.51100000000E-03 0.  1.
         11    1    4    4    0    0 -0.15763864419E-01  0.25915443917E-01 -0.35438258095E-01  0.46650197348E-01  0.51100000000E-03 0. -1.
</event>
<event>
 8    1  0.1148488E+005  0.1043930E+01  0.7957747E-01            NaN
         13   -1    0    0    0    0  0.00000000000E+00  0.00000000000E+00  0.74505805969E-08  0.10566000000E+00  0.10566000000E+00 0. -1.
     999900   -1    0    0    0    0 -0.00000000000E+00 -0.00000000000E+00 -0.74505805969E-08  0.93827000000E+00  0.93827000000E+00 0.  1.
     999902    2    1    2    0    0 -0.10841819417E-01  0.13064674909E-02 -0.20484682679E-01  0.10207163374E+01  0.10204523347E+01 0.  0.
     999903    2    3    3    0    0  0.31841760715E-01 -0.11942523207E+00 -0.39526042612E-01  0.13124424417E+00  0.19658580877E-01 0.  0.
         14    1    1    2    0    0  0.10841819417E-01 -0.13064674909E-02  0.20484682679E-01  0.23213662573E-01  0.00000000000E+00 0. -1.
     999901    1    3    3    0    0 -0.42683580132E-01  0.12073169957E+00  0.19041359933E-01  0.88947209326E+00  0.88000000000E+00 0.  1.
        -11    1    4    4    0    0  0.23129520152E-01 -0.51946701141E-01 -0.13916237482E-01  0.58543635424E-01  0.51100000000E-03 0. -1.
         11    1    4    4    0    0  0.87122405626E-02 -0.67478530933E-01 -0.25609805130E-01  0.72700608748E-01  0.51100000000E-03 0.  1.
</event>
<event>
 8    1  0.1148488E+005  0.1043930E+01  0.7957747E-01            NaN
         13   -1    0    0    0    0  0.00000000000E+00  0.00000000000E+00  0.74505805969E-08  0.10566000000E+00  0.10566000000E+00 0.  1.
     999900   -1    0    0    0    0 -0.00000000000E+00 -0.00000000000E+00 -0.74505805969E-08  0.93827000000E+00  0.93827000000E+00 0. -1.
     999902    2    1    2    0    0  0.46451719259E-02  0.18483471772E-01 -0.13516341040E-01  0.10205653295E+01  0.10202978408E+01 0.  0.
     999903    2    3    3    0    0 -0.22397888344E-01 -0.12491858221E+00 -0.53786740824E-02  0.12851056786E+00  0.19486362735E-01 0.  0.
         14    1    1    2    0    0 -0.46451719259E-02 -0.18483471772E-01  0.13516341040E-01  0.23364670468E-01  0.00000000000E+00 0. -1.
     999901    1    3    3    0    0  0.27043060270E-01  0.14340205399E+00 -0.81376669572E-02  0.89205476167E+00  0.88000000000E+00 0. -1.
        -11    1    4    4    0    0 -0.25099095415E-01 -0.96397962524E-01 -0.66011017502E-02  0.99831695542E-01  0.51100000000E-03 0.  1.
         11    1    4    4    0    0  0.27012070712E-02 -0.28520619690E-01  0.12224276678E-02  0.28678872320E-01  0.51100000000E-03 0. -1.
</event>
<event>
 8    1  0.1148488E+005  0.1043930E+01  0.7957747E-01            NaN
         13   -1    0    0    0    0  0.00000000000E+00  0.00000000000E+00  0.74505805969E-08  0.10566000000E+00  0.10566000000E+00 0. -1.
     999900   -1    0    0    0    0 -0.00000000000E+00 -0.00000000000E+00 -0.74505805969E-08  0.93827000000E+00  0.93827000000E+00 0. -1.
     999902    2    1    2    0    0 -0.71042776889E-02 -0.16120123843E-01 -0.16784289212E-01  0.10195980967E+01  0.10193077245E+01 0.  0.
     999903    2    3    3    0    0  0.11254285976E+00 -0.61370260336E-01 -0.10298081260E-01  0.13032587558E+00  0.21132421341E-01 0.  0.
         14    1    1    2    0    0  0.71042776889E-02  0.16120123843E-01  0.16784289212E-01  0.24331903307E-01  0.00000000000E+00 0. -1.
     999901    1    3    3    0    0 -0.11964713745E+00  0.45250136494E-01 -0.64862079520E-02  0.88927222111E+00  0.88000000000E+00 0. -1.
        -11    1    4    4    0    0  0.58632561801E-01 -0.35540032054E-01  0.45915855894E-02  0.68718374260E-01  0.51100000000E-03 0.  1.
         11    1    4    4    0    0  0.53910297957E-01 -0.25830228282E-01 -0.14889666849E-01  0.61607501319E-01  0.51100000000E-03 0. -1.
</event>
<event>
 8    1  0.1148488E+005  0.1043930E+01  0.7957747E-01            NaN
         13   -1    0    0    0    0  0.00000000000E+00  0.00000000000E+00  0.74505805969E-08  0.10566000000E+00  0.10566000000E+00 0.  1.
     999900   -1    0    0    0    0 -0.00000000000E+00 -0.00000000000E+00 -0.74505805969E-08  0.93827000000E+00  0.93827000000E+00 0. -1.
     999902    2    1    2    0    0  0.18461573642E-01  0.13906932873E-02 -0.14205502587E-01  0.10205941899E+01  0.10203273692E+01 0.  0.
     999903    2    3    3    0    0 -0.11572175245E+00  0.50050751753E-01 -0.19875534839E-01  0.12907575736E+00  0.19207095352E-01 0.  0.
         14    1    1    2    0    0 -0.18461573642E-01 -0.13906932873E-02  0.14205502587E-01  0.23335810098E-01  0.00000000000E+00 0. -1.
     999901    1    3    3    0    0  0.13418332610E+00 -0.48660058465E-01  0.56700322513E-02  0.89151843254E+00  0.88000000000E+00 0. -1.
        -11    1    4    4    0    0 -0.82128051045E-01  0.39992215996E-01 -0.21930402117E-01  0.93944652678E-01  0.51100000000E-03 0.  1.
         11    1    4    4    0    0 -0.33593701408E-01  0.10058535756E-01  0.20548672783E-02  0.35131104685E-01  0.51100000000E-03 0. -1.
</event>
<event>
 8    1  0.1148488E+005  0.1043930E+01  0.7957747E-01            NaN
         13   -1    0    0    0    0  0.00000000000E+00  0.00000000000E+00  0.74505805969E-08  0.10566000000E+00  0.10566000000E+00 0. -1.
     999900   -1    0    0    0    0 -0.00000000000E+00 -0.00000000000E+00 -0.74505805969E-08  0.93827000000E+00  0.93827000000E+00 0.  1.
     999902    2    1    2    0    0 -0.20488293794E-02  0.61172541547E-02  0.23306892102E-01  0.10197467471E+01  0.10194599544E+01 0.  0.
     999903    2    3    3    0    0 -0.10750246077E-01 -0.11378588197E+00 -0.54342452205E-01  0.12818525324E+00  0.20385345462E-01 0.  0.
         14    1    1    2    0    0  0.20488293794E-02 -0.61172541547E-02 -0.23306892102E-01  0.24183252877E-01  0.00000000000E+00 0.  1.
     999901    1    3    3    0    0  0.87014166975E-02  0.11990313613E+00  0.77649344307E-01  0.89156149388E+00  0.88000000000E+00 0. -1.
        -11    1    4    4    0    0 -0.22586753313E-02 -0.78740731465E-01 -0.28307079150E-01  0.83706369273E-01  0.51100000000E-03 0.  1.
         11    1    4    4    0    0 -0.84915707456E-02 -0.35045150507E-01 -0.26035373055E-01  0.44478883966E-01  0.51100000000E-03 0. -1.
</event>
<event>
 8    1  0.1148488E+005  0.1043930E+01  0.7957747E-01            NaN
         13   -1    0    0    0    0  0.00000000000E+00  0.00000000000E+00  0.74505805969E-08  0.10566000000E+00  0.10566000000E+00 0. -1.
     999900   -1    0    0    0    0 -0.00000000000E+00 -0.00000000000E+00 -0.74505805969E-08  0.93827000000E+00  0.93827000000E+00 0.  1.
     999902    2    1    2    0    0 -0.50747250072E-02 -0.20509398200E-01 -0.10373348568E-01  0.10203929099E+01  0.10201214124E+01 0.  0.
     999903    2    3    3    0    0  0.68557299853E-01  0.50595685631E-01  0.94010737891E-01  0.12833145155E+00  0.19259175720E-01 0.  0.
         14    1    1    2    0    0  0.50747250072E-02  0.20509398200E-01  0.10373348568E-01  0.23537090069E-01  0.00000000000E+00 0. -1.
     999901    1    3    3    0    0 -0.73632024860E-01 -0.71105083830E-01 -0.10438408646E+00  0.89206145839E+00  0.88000000000E+00 0. -1.
        -11    1    4    4    0    0  0.31826610806E-01  0.20231737544E-01  0.55272575173E-01  0.66914684836E-01  0.51100000000E-03 0.  1.
         11    1    4    4    0    0  0.36730689047E-01  0.30363948087E-01  0.38738162718E-01  0.61416766709E-01  0.51100000000E-03 0. -1.
</event>
<event>
 8    1  0.1148488E+005  0.1043930E+01  0.7957747E-01            NaN
         13   -1    0    0    0    0  0.00000000000E+00  0.00000000000E+00  0.74505805969E-08  0.10566000000E+00  0.10566000000E+00 0.  1.
     999900   -1    0    0    0    0 -0.00000000000E+00 -0.00000000000E+00 -0.74505805969E-08  0.93827000000E+00  0.93827000000E+00 0.  1.
     999902    2    1    2    0    0  0.21059157288E-01 -0.62151975726E-02  0.96492175016E-02  0.10199461683E+01  0.10196641417E+01 0.  0.
     999903    2    3    3    0    0  0.32892020528E-01 -0.12584606092E+00 -0.28512834366E-02  0.13168504525E+00  0.20339745865E-01 0.  0.
         14    1    1    2    0    0 -0.21059157288E-01  0.62151975726E-02 -0.96492175016E-02  0.23983831740E-01  0.00000000000E+00 0. -1.
     999901    1    3    3    0    0 -0.11832863240E-01  0.11963086335E+00  0.12500500938E-01  0.88826112301E+00  0.88000000000E+00 0.  1.
        -11    1    4    4    0    0  0.27743136735E-01 -0.98188157535E-01  0.59387765295E-02  0.10220629190E+00  0.51100000000E-03 0.  1.
         11    1    4    4    0    0  0.51488837932E-02 -0.27657903390E-01 -0.87900599662E-02  0.29478753356E-01  0.51100000000E-03 0. -1.
</event>
<event>
 8    1  0.1148488E+005  0.1043930E+01  0.7957747E-01            NaN
         13   -1    0    0    0    0  0.00000000000E+00  0.00000000000E+00  0.74505805969E-08  0.10566000000E+00  0.10566000000E+00 0. -1.
     999900   -1    0    0    0    0 -0.00000000000E+00 -0.00000000000E+00 -0.74505805969E-08  0.93827000000E+00  0.93827000000E+00 0. -1.
     999902    2    1    2    0    0 -0.17915226373E-01  0.96839910206E-02  0.15103084494E-01  0.10185757463E+01  0.10182601401E+01 0.  0.
     999903    2    3    3    0    0 -0.85376209914E-01  0.61298491192E-01 -0.74018732637E-01  0.13000513055E+00  0.19389660835E-01 0.  0.
         14    1    1    2    0    0  0.17915226373E-01 -0.96839910206E-02 -0.15103084494E-01  0.25354253673E-01  0.00000000000E+00 0.  1.
     999901    1    3    3    0    0  0.67460983540E-01 -0.51614500171E-01  0.89121817130E-01  0.88857061577E+00  0.88000000000E+00 0.  1.
        -11    1    4    4    0    0 -0.34768441581E-01  0.26440600737E-01 -0.19436295631E-01  0.47811929538E-01  0.51100000000E-03 0.  1.
         11    1    4    4    0    0 -0.50607768332E-01  0.34857890455E-01 -0.54582437006E-01  0.82193201015E-01  0.51100000000E-03 0. -1.
</event>
<event>
 8    1  0.1148488E+005  0.1043930E+01  0.7957747E-01            NaN
         13   -1    0    0    0    0  0.00000000000E+00  0.00000000000E+00  0.74505805969E-08  0.10566000000E+00  0.10566000000E+00 0.  1.
     999900   -1    0    0    0    0 -0.00000000000E+00 -0.00000000000E+00 -0.74505805969E-08  0.93827000000E+00  0.93827000000E+00 0. -1.
     999902    2    1    2    0    0  0.18613369878E-01  0.15308278355E-02  0.14777879423E-01  0.10201143184E+01  0.10198362789E+01 0.  0.
     999903    2    3    3    0    0  0.11131723125E+00  0.66116645154E-01 -0.17897364895E-01  0.13228944525E+00  0.20426573723E-01 0.  0.
         14    1    1    2    0    0 -0.18613369878E-01 -0.15308278355E-02 -0.14777879423E-01  0.23815681648E-01  0.00000000000E+00 0. -1.
     999901    1    3    3    0    0 -0.92703861372E-01 -0.64585817318E-01  0.32675244319E-01  0.88782487310E+00  0.88000000000E+00 0.  1.
        -11    1    4    4    0    0  0.62437499990E-01  0.29029293318E-01 -0.16992339095E-01  0.70923493883E-01  0.51100000000E-03 0.  1.
         11    1    4    4    0    0  0.48879731261E-01  0.37087351835E-01 -0.90502580007E-03  0.61365951365E-01  0.51100000000E-03 0. -1.
</event>
<event>
 8    1  0.1148488E+005  0.1043930E+01  0.7957747E-01            NaN
         13   -1    0    0    0    0  0.00000000000E+00  0.00000000000E+00  0.74505805969E-08  0.10566000000E+00  0.10566000000E+00 0. -1.
     999900   -1    0    0    0    0 -0.00000000000E+00 -0.00000000000E+00 -0.74505805969E-08  0.93827000000E+00  0.93827000000E+00 0.  1.
     999902    2    1    2    0    0  0.21943031545E-01 -0.81118454617E-02 -0.15045985351E-02  0.10204872509E+01  0.10202179506E+01 0.  0.
     999903    2    3    3    0    0  0.10568728295E+00 -0.28174137885E-01 -0.73725100781E-01  0.13333935104E+00  0.19504056732E-01 0.  0.
         14    1    1    2    0    0 -0.21943031545E-01  0.81118454617E-02  0.15045985351E-02  0.23442749133E-01  0.00000000000E+00 0. -1.
     999901    1    3    3    0    0 -0.83744251401E-01  0.20062292423E-01  0.72220502246E-01  0.88714789983E+00  0.88000000000E+00 0. -1.
        -11    1    4    4    0    0  0.63038039459E-01 -0.22259398906E-01 -0.35172874153E-01  0.75542487751E-01  0.51100000000E-03 0. -1.
         11    1    4    4    0    0  0.42649243487E-01 -0.59147389781E-02 -0.38552226628E-01  0.57796863290E-01  0.51100000000E-03 0.  1.
</event>
<event>
 8    1  0.1148488E+005  0.1043930E+01  0.7957747E-01            NaN
         13   -1    0    0    0    0  0.00000000000E+00  0.00000000000E+00  0.74505805969E-08  0.10566000000E+00  0.10566000000E+00 0. -1.
     999900   -1    0    0    0    0 -0.00000000000E+00 -0.00000000000E+00 -0.74505805969E-08  0.93827000000E+00  0.93827000000E+00 0. -1.
     999902    2    1    2    0    0  0.19811770102E-01 -0.12921135585E-01 -0.15987677034E-02  0.10202230804E+01  0.10199476044E+01 0.  0.
     999903    2    3    3    0    0 -0.58900913866E-01 -0.77395051339E-01  0.84200798706E-01  0.13021513771E+00  0.20171662304E-01 0.  0.
         14    1    1    2    0    0 -0.19811770102E-01  0.12921135585E-01  0.15987677034E-02  0.23706919614E-01  0.00000000000E+00 0. -1.
     999901    1    3    3    0    0  0.78712683968E-01  0.64473915755E-01 -0.85799566410E-01  0.89000794268E+00  0.88000000000E+00 0.  1.
        -11    1    4    4    0    0 -0.31738249066E-01 -0.57413288985E-01  0.55796530620E-01  0.86122680846E-01  0.51100000000E-03 0.  1.
         11    1    4    4    0    0 -0.27162664800E-01 -0.19981762354E-01  0.28404268087E-01  0.44092456865E-01  0.51100000000E-03 0. -1.
</event>
<event>
 8    1  0.1148488E+005  0.1043930E+01  0.7957747E-01            NaN
         13   -1    0    0    0    0  0.00000000000E+00  0.00000000000E+00  0.74505805969E-08  0.10566000000E+00  0.10566000000E+00 0.  1.
     999900   -1    0    0    0    0 -0.00000000000E+00 -0.00000000000E+00 -0.74505805969E-08  0.93827000000E+00  0.93827000000E+00 0. -1.
     999902    2    1    2    0    0 -0.81642332686E-02 -0.23541795016E-01  0.24701241255E-03  0.10190114962E+01  0.10187067770E+01 0.  0.
     999903    2    3    3    0    0  0.12358662299E+00 -0.94927980996E-02 -0.27650645212E-01  0.12865542037E+00  0.20588647615E-01 0.  0.
         14    1    1    2    0    0  0.81642332686E-02  0.23541795016E-01 -0.24701241255E-03  0.24918503819E-01  0.00000000000E+00 0. -1.
     999901    1    3    3    0    0 -0.13175085626E+00 -0.14048996916E-01  0.27897657625E-01  0.89035607582E+00  0.88000000000E+00 0.  1.
        -11    1    4    4    0    0  0.42173914029E-01 -0.74986737150E-02 -0.60324762367E-03  0.42842667526E-01  0.51100000000E-03 0.  1.
         11    1    4    4    0    0  0.81412708963E-01 -0.19941243846E-02 -0.27047397589E-01  0.85812752840E-01  0.51100000000E-03 0. -1.
</event>
<event>
 8    1  0.1148488E+005  0.1043930E+01  0.7957747E-01            NaN
         13   -1    0    0    0    0  0.00000000000E+00  0.00000000000E+00  0.74505805969E-08  0.10566000000E+00  0.10566000000E+00 0.  1.
     999900   -1    0    0    0    0 -0.00000000000E+00 -0.00000000000E+00 -0.74505805969E-08  0.93827000000E+00  0.93827000000E+00 0. -1.
     999902    2    1    2    0    0  0.64545731128E-02  0.11139550574E-01 -0.13173761570E-01  0.10255099268E+01  0.10253444840E+01 0.  0.
     999903    2    3    3    0    0 -0.43355004789E-01 -0.11286065611E+00 -0.55170352224E-01  0.13443150216E+00  0.20270097964E-01 0.  0.
         14    1    1    2    0    0 -0.64545731128E-02 -0.11139550574E-01  0.13173761570E-01  0.18420073153E-01  0.00000000000E+00 0.  1.
     999901    1    3    3    0    0  0.49809577902E-01  0.12400020668E+00  0.41996590654E-01  0.89107842468E+00  0.88000000000E+00 0.  1.
        -11    1    4    4    0    0 -0.11863300249E-01 -0.45912240561E-01 -0.12586173038E-01  0.49064698092E-01  0.51100000000E-03 0. -1.
         11    1    4    4    0    0 -0.31491704540E-01 -0.66948415550E-01 -0.42584179186E-01  0.85366804072E-01  0.51100000000E-03 0.  1.
</event>
<event>
 8    1  0.1148488E+005  0.1043930E+01  0.7957747E-01            NaN
         13   -1    0    0    0    0  0.00000000000E+00  0.00000000000E+00  0.74505805969E-08  0.10566000000E+00  0.10566000000E+00 0. -1.
     999900   -1    0    0    0    0 -0.00000000000E+00 -0.00000000000E+00 -0.74505805969E-08  0.93827000000E+00  0.93827000000E+00 0.  1.
     999902    2    1    2    0    0 -0.18164665030E-01  0.11994884257E-01  0.96114378722E-02  0.10201347895E+01  0.10198572335E+01 0.  0.
     999903    2    3    3    0    0  0.12230072386E+00  0.26927858519E-01  0.17194114468E-01  0.12883741143E+00  0.24917150543E-01 0.  0.
         14    1    1    2    0    0  0.18164665030E-01 -0.11994884257E-01 -0.96114378722E-02  0.23795210484E-01  0.00000000000E+00 0.  1.
     999901    1    3    3    0    0 -0.14046538889E+00 -0.14932974262E-01 -0.75826765961E-02  0.89129737808E+00  0.88000000000E+00 0.  1.
        -11    1    4    4    0    0  0.39285189372E-01  0.54686442685E-02  0.16832411329E-01  0.43090873352E-01  0.51100000000E-03 0. -1.
         11    1    4    4    0    0  0.83015534487E-01  0.21459214251E-01  0.36170313965E-03  0.85746538079E-01  0.51100000000E-03 0.  1.
</event>
<event>
 8    1  0.1148488E+005  0.1043930E+01  0.7957747E-01            NaN
         13   -1    0    0    0    0  0.00000000000E+00  0.00000000000E+00  0.74505805969E-08  0.10566000000E+00  0.10566000000E+00 0. -1.
     999900   -1    0    0    0    0 -0.00000000000E+00 -0.00000000000E+00 -0.74505805969E-08  0.93827000000E+00  0.93827000000E+00 0.  1.
     999902    2    1    2    0    0 -0.15813943116E-01  0.12340796374E-01 -0.26184154256E-02  0.10237005128E+01  0.10235006145E+01 0.  0.
     999903    2    3    3    0    0 -0.22742081837E-01  0.10174019715E+00  0.83161905391E-01  0.13499442226E+00  0.20959998370E-01 0.  0.
         14    1    1    2    0    0  0.15813943116E-01 -0.12340796374E-01  0.26184154256E-02  0.20229487175E-01  0.00000000000E+00 0. -1.
     999901    1    3    3    0    0  0.69281387206E-02 -0.89399400773E-01 -0.85780320817E-01  0.88870609056E+00  0.88000000000E+00 0.  1.
        -11    1    4    4    0    0 -0.23226229724E-01  0.60247169394E-01  0.45914307371E-01  0.79231079189E-01  0.51100000000E-03 0. -1.
         11    1    4    4    0    0  0.48414788734E-03  0.41493027753E-01  0.37247598021E-01  0.55763343072E-01  0.51100000000E-03 0.  1.
</event>
<event>
 8    1  0.1148488E+005  0.1043930E+01  0.7957747E-01            NaN
         13   -1    0    0    0    0  0.00000000000E+00  0.00000000000E+00  0.74505805969E-08  0.10566000000E+00  0.10566000000E+00 0.  1.
     999900   -1    0    0    0    0 -0.00000000000E+00 -0.00000000000E+00 -0.74505805969E-08  0.93827000000E+00  0.93827000000E+00 0. -1.
     999902    2    1    2    0    0 -0.11984764244E-01 -0.72789081294E-02  0.19261798614E-01  0.10201049299E+01  0.10198266687E+01 0.  0.
     999903    2    3    3    0    0  0.26852144400E-01 -0.11234422396E+00  0.62268663386E-01  0.13196270232E+00  0.13946542479E-01 0.  0.
         14    1    1    2    0    0  0.11984764244E-01  0.72789081294E-02 -0.19261798614E-01  0.23825070060E-01  0.00000000000E+00 0. -1.
     999901    1    3    3    0    0 -0.38836908645E-01  0.10506531583E+00 -0.43006864772E-01  0.88814222762E+00  0.88000000000E+00 0.  1.
        -11    1    4    4    0    0  0.16725170463E-01 -0.85254030713E-01  0.52083282498E-01  0.10129615253E+00  0.51100000000E-03 0.  1.
         11    1    4    4    0    0  0.10126973938E-01 -0.27090193249E-01  0.10185380887E-01  0.30666549793E-01  0.51100000000E-03 0. -1.
</event>
<event>
 8    1  0.1148488E+005  0.1043930E+01  0.7957747E-01            NaN
         13   -1    0    0    0    0  0.00000000000E+00  0.00000000000E+00  0.74505805969E-08  0.10566000000E+00  0.10566000000E+00 0. -1.
     999900   -1    0    0    0    0 -0.00000000000E+00 -0.00000000000E+00 -0.74505805969E-08  0.93827000000E+00  0.93827000000E+00 0. -1.
     999902    2    1    2    0    0 -0.87351878197E-02 -0.13748477724E-01 -0.17367908774E-01  0.10201189017E+01  0.10198409706E+01 0.  0.
     999903    2    3    3    0    0  0.12315504418E+00 -0.14828646524E-01  0.29340945385E-01  0.12906451667E+00  0.20241164064E-01 0.  0.
         14    1    1    2    0    0  0.87351878197E-02  0.13748477724E-01  0.17367908774E-01  0.23811098277E-01  0.00000000000E+00 0.  1.
     999901    1    3    3    0    0 -0.13189023200E+00  0.10801687997E-02 -0.46708854159E-01  0.89105438505E+00  0.88000000000E+00 0. -1.
        -11    1    4    4    0    0  0.82304512487E-01 -0.17112399473E-01  0.13284376177E-01  0.85109357669E-01  0.51100000000E-03 0. -1.
         11    1    4    4    0    0  0.40850531694E-01  0.22837529489E-02  0.16056569208E-01  0.43955159002E-01  0.51100000000E-03 0.  1.
</event>
<event>
 8    1  0.1148488E+005  0.1043930E+01  0.7957747E-01            NaN
         13   -1    0    0    0    0  0.00000000000E+00  0.00000000000E+00  0.74505805969E-08  0.10566000000E+00  0.10566000000E+00 0.  1.
     999900   -1    0    0    0    0 -0.00000000000E+00 -0.00000000000E+00 -0.74505805969E-08  0.93827000000E+00  0.93827000000E+00 0.  1.
     999902    2    1    2    0    0  0.14750198347E-01 -0.47851524376E-02 -0.18685649527E-01  0.10196479174E+01  0.10193587475E+01 0.  0.
     999903    2    3    3    0    0  0.81357652432E-01  0.96999447107E-01  0.24103253794E-01  0.13025062270E+00  0.18875844940E-01 0.  0.
         14    1    1    2    0    0 -0.14750198347E-01  0.47851524376E-02  0.18685649527E-01  0.24282082558E-01  0.00000000000E+00 0.  1.
     999901    1    3    3    0    0 -0.66607454085E-01 -0.10178459954E+00 -0.42788903320E-01  0.88939729474E+00  0.88000000000E+00 0.  1.
        -11    1    4    4    0    0  0.68611304824E-01  0.89800917377E-01  0.18251565714E-01  0.11447749422E+00  0.51100000000E-03 0.  1.
         11    1    4    4    0    0  0.12746347609E-01  0.71985297302E-02  0.58516880797E-02  0.15773128479E-01  0.51100000000E-03 0. -1.
</event>
<event>
 8    1  0.1148488E+005  0.1043930E+01  0.7957747E-01            NaN
         13   -1    0    0    0    0  0.00000000000E+00  0.00000000000E+00  0.74505805969E-08  0.10566000000E+00  0.10566000000E+00 0.  1.
     999900   -1    0    0    0    0 -0.00000000000E+00 -0.00000000000E+00 -0.74505805969E-08  0.93827000000E+00  0.93827000000E+00 0.  1.
     999902    2    1    2    0    0 -0.87970844543E-02  0.20803632880E-01 -0.72290176129E-02  0.10202142135E+01  0.10199385289E+01 0.  0.
     999903    2    3    3    0    0  0.60132409370E-01  0.32249531424E-01 -0.11057016690E+00  0.13141633044E+00  0.19711701194E-01 0.  0.
         14    1    1    2    0    0  0.87970844543E-02 -0.20803632880E-01  0.72290176129E-02  0.23715786547E-01  0.00000000000E+00 0. -1.
     999901    1    3    3    0    0 -0.68929493825E-01 -0.11445898544E-01  0.10334114929E+00  0.88879788301E+00  0.88000000000E+00 0.  1.
        -11    1    4    4    0    0  0.35867471703E-01  0.25578755627E-01 -0.83773858637E-01  0.94652357486E-01  0.51100000000E-03 0. -1.
         11    1    4    4    0    0  0.24264937667E-01  0.66707757974E-02 -0.26796308264E-01  0.36763972954E-01  0.51100000000E-03 0.  1.
</event>
<event>
 8    1  0.1148488E+005  0.1043930E+01  0.7957747E-01            NaN
         13   -1    0    0    0    0  0.00000000000E+00  0.00000000000E+00  0.74505805969E-08  0.10566000000E+00  0.10566000000E+00 0.  1.
     999900   -1    0    0    0    0 -0.00000000000E+00 -0.00000000000E+00 -0.74505805969E-08  0.93827000000E+00  0.93827000000E+00 0. -1.
     999902    2    1    2    0    0  0.18003505927E-01  0.11694077379E-01  0.11656186402E-01  0.10195016486E+01  0.10192089418E+01 0.  0.
     999903    2    3    3    0    0 -0.30697887539E-01  0.61882823925E-01 -0.10656098247E+00  0.12884681363E+00  0.21781051426E-01 0.  0.
         14    1    1    2    0    0 -0.18003505927E-01 -0.11694077379E-01 -0.11656186402E-01  0.24428351415E-01  0.00000000000E+00 0. -1.
     999901    1    3    3    0    0  0.48701393467E-01 -0.50188746546E-01  0.11821716888E+00  0.89065483495E+00  0.88000000000E+00 0.  1.
        -11    1    4    4    0    0 -0.14242951532E-01  0.47049632874E-01 -0.62410046380E-01  0.79446866723E-01  0.51100000000E-03 0. -1.
         11    1    4    4    0    0 -0.16454936007E-01  0.14833191051E-01 -0.44150936094E-01  0.49399946910E-01  0.51100000000E-03 0.  1.
</event>
<event>
 8    1  0.1148488E+005  0.1043930E+01  0.7957747E-01            NaN
         13   -1    0    0    0    0  0.00000000000E+00  0.00000000000E+00  0.74505805969E-08  0.10566000000E+00  0.10566000000E+00 0.  1.
     999900   -1    0    0    0    0 -0.00000000000E+00 -0.00000000000E+00 -0.74505805969E-08  0.93827000000E+00  0.93827000000E+00 0. -1.
     999902    2    1    2    0    0 -0.20538492262E-01  0.13116487191E-02  0.12732529683E-01  0.10197294339E+01  0.10194422254E+01 0.  0.
     999903    2    3    3    0    0 -0.12225958384E+00  0.31471231811E-01 -0.33343119225E-01  0.13215986123E+00  0.20411297085E-01 0.  0.
         14    1    1    2    0    0  0.20538492262E-01 -0.13116487191E-02 -0.12732529683E-01  0.24200566086E-01  0.00000000000E+00 0.  1.
     999901    1    3    3    0    0  0.10172109158E+00 -0.30159583091E-01  0.46075648908E-01  0.88756957268E+00  0.88000000000E+00 0.  1.
        -11    1    4    4    0    0 -0.89861143255E-01  0.31995256143E-01 -0.22727766341E-01  0.98058829111E-01  0.51100000000E-03 0.  1.
         11    1    4    4    0    0 -0.32398440588E-01 -0.52402433238E-03 -0.10615352884E-01  0.34101032124E-01  0.51100000000E-03 0. -1.
</event>
<event>
 8    1  0.1148488E+005  0.1043930E+01  0.7957747E-01            NaN
         13   -1    0    0    0    0  0.00000000000E+00  0.00000000000E+00  0.74505805969E-08  0.10566000000E+00  0.10566000000E+00 0. -1.
     999900   -1    0    0    0    0 -0.00000000000E+00 -0.00000000000E+00 -0.74505805969E-08  0.93827000000E+00  0.93827000000E+00 0. -1.
     999902    2    1    2    0    0 -0.78968458291E-02 -0.22544278759E-01 -0.31835845140E-02  0.10198314546E+01  0.10195466914E+01 0.  0.
     999903    2    3    3    0    0 -0.11891488061E+00 -0.44155415315E-01  0.29883566416E-01  0.13197702864E+00  0.20843680434E-01 0.  0.
         14    1    1    2    0    0  0.78968458291E-02  0.22544278759E-01  0.31835845140E-02  0.24098545375E-01  0.00000000000E+00 0.  1.
     999901    1    3    3    0    0  0.11101803478E+00  0.21611136555E-01 -0.33067150930E-01  0.88785442599E+00  0.88000000000E+00 0.  1.
        -11    1    4    4    0    0 -0.58435147454E-01 -0.25849147045E-01  0.24934915159E-01  0.68591952705E-01  0.51100000000E-03 0. -1.
         11    1    4    4    0    0 -0.60479733160E-01 -0.18306268269E-01  0.49486512566E-02  0.63385075935E-01  0.51100000000E-03 0.  1.
</event>
<event>
 8    1  0.1148488E+005  0.1043930E+01  0.7957747E-01            NaN
         13   -1    0    0    0    0  0.00000000000E+00  0.00000000000E+00  0.74505805969E-08  0.10566000000E+00  0.10566000000E+00 0. -1.
     999900   -1    0    0    0    0 -0.00000000000E+00 -0.00000000000E+00 -0.74505805969E-08  0.93827000000E+00  0.93827000000E+00 0.  1.
     999902    2    1    2    0    0  0.42395907585E-02  0.19896174692E-01  0.12200746583E-01  0.10202089099E+01  0.10199331006E+01 0.  0.
     999903    2    3    3    0    0  0.51516403449E-01  0.10558913743E+00 -0.57553609359E-01  0.13203997833E+00  0.17864270487E-01 0.  0.
         14    1    1    2    0    0 -0.42395907585E-02 -0.19896174692E-01 -0.12200746583E-01  0.23721090075E-01  0.00000000000E+00 0. -1.
     999901    1    3    3    0    0 -0.47276812690E-01 -0.85692962734E-01  0.69754355943E-01  0.88816893160E+00  0.88000000000E+00 0.  1.
        -11    1    4    4    0    0  0.28815104689E-01  0.69482607553E-01 -0.44658410132E-01  0.87480156191E-01  0.51100000000E-03 0. -1.
         11    1    4    4    0    0  0.22701298760E-01  0.36106529872E-01 -0.12895199227E-01  0.44559822137E-01  0.51100000000E-03 0.  1.
</event>
<event>
 8    1  0.1148488E+005  0.1043930E+01  0.7957747E-01            NaN
         13   -1    0    0    0    0  0.00000000000E+00  0.00000000000E+00  0.74505805969E-08  0.10566000000E+00  0.10566000000E+00 0.  1.
     999900   -1    0    0    0    0 -0.00000000000E+00 -0.00000000000E+00 -0.74505805969E-08  0.93827000000E+00  0.93827000000E+00 0.  1.
     999902    2    1    2    0    0  0.20461025905E-01  0.93260206090E-02  0.55178503525E-02  0.10207767084E+01  0.10205140927E+01 0.  0.
     999903    2    3    3    0    0  0.10083652496E-01 -0.11349484281E-01  0.12940481313E+00  0.13179799886E+00  0.19864944065E-01 0.  0.
         14    1    1    2    0    0 -0.20461025905E-01 -0.93260206090E-02 -0.55178503525E-02  0.23153291645E-01  0.00000000000E+00 0.  1.
     999901    1    3    3    0    0  0.10377373409E-01  0.20675504890E-01 -0.12388696278E+00  0.88897870949E+00  0.88000000000E+00 0. -1.
        -11    1    4    4    0    0  0.14463663388E-01 -0.44988040907E-02  0.58685800285E-01  0.60611228934E-01  0.51100000000E-03 0.  1.
         11    1    4    4    0    0 -0.43800108922E-02 -0.68506801902E-02  0.70719012844E-01  0.71186769931E-01  0.51100000000E-03 0. -1.
</event>
<event>
 8    1  0.1148488E+005  0.1043930E+01  0.7957747E-01            NaN
         13   -1    0    0    0    0  0.00000000000E+00  0.00000000000E+00  0.74505805969E-08  0.10566000000E+00  0.10566000000E+00 0.  1.
     999900   -1    0    0    0    0 -0.00000000000E+00 -0.00000000000E+00 -0.74505805969E-08  0.93827000000E+00  0.93827000000E+00 0.  1.
     999902    2    1    2    0    0  0.66706230393E-02 -0.77645607586E-02 -0.22646847996E-01  0.10190771261E+01  0.10187740297E+01 0.  0.
     999903    2    3    3    0    0  0.39234377501E-01 -0.26657168747E-02 -0.12477221870E+00  0.13255809776E+00  0.21379904108E-01 0.  0.
         14    1    1    2    0    0 -0.66706230393E-02  0.77645607586E-02  0.22646847996E-01  0.24852873871E-01  0.00000000000E+00 0.  1.
     999901    1    3    3    0    0 -0.32563754462E-01 -0.50988438839E-02  0.10212537070E+00  0.88651902837E+00  0.88000000000E+00 0.  1.
        -11    1    4    4    0    0  0.22770064518E-01 -0.46340799426E-02 -0.40737461512E-01  0.46901518382E-01  0.51100000000E-03 0. -1.
         11    1    4    4    0    0  0.16464312983E-01  0.19683630678E-02 -0.84034757185E-01  0.85656579382E-01  0.51100000000E-03 0.  1.
</event>
<event>
 8    1  0.1148488E+005  0.1043930E+01  0.7957747E-01            NaN
         13   -1    0    0    0    0  0.00000000000E+00  0.00000000000E+00  0.74505805969E-08  0.10566000000E+00  0.10566000000E+00 0.  1.
     999900   -1    0    0    0    0 -0.00000000000E+00 -0.00000000000E+00 -0.74505805969E-08  0.93827000000E+00  0.93827000000E+00 0.  1.
     999902    2    1    2    0    0  0.98940670818E-02 -0.21776783903E-01  0.37693294279E-04  0.10200109218E+01  0.10197304341E+01 0.  0.
     999903    2    3    3    0    0 -0.10218895967E-01 -0.93199198491E-01 -0.91026799221E-01  0.13220551837E+00  0.20047555366E-01 0.  0.
         14    1    1    2    0    0 -0.98940670818E-02  0.21776783903E-01 -0.37693294279E-04  0.23919078188E-01  0.00000000000E+00 0. -1.
     999901    1    3    3    0    0  0.20112963049E-01  0.71422414589E-01  0.91064492516E-01  0.88780540344E+00  0.88000000000E+00 0.  1.
        -11    1    4    4    0    0  0.69695465969E-03 -0.52710138743E-01 -0.61019022585E-01  0.80637625897E-01  0.51100000000E-03 0. -1.
         11    1    4    4    0    0 -0.10915850626E-01 -0.40489059748E-01 -0.30007776637E-01  0.51567892471E-01  0.51100000000E-03 0.  1.
</event>
<event>
 8    1  0.1148488E+005  0.1043930E+01  0.7957747E-01            NaN
         13   -1    0    0    0    0  0.00000000000E+00  0.00000000000E+00  0.74505805969E-08  0.10566000000E+00  0.10566000000E+00 0. -1.
     999900   -1    0    0    0    0 -0.00000000000E+00 -0.00000000000E+00 -0.74505805969E-08  0.93827000000E+00  0.93827000000E+00 0.  1.
     999902    2    1    2    0    0  0.20443456588E-01  0.73626556056E-03 -0.10267680296E-01  0.10210410886E+01  0.10207845034E+01 0.  0.
     999903    2    3    3    0    0  0.68790634793E-01 -0.69304880848E-02 -0.11272849518E+00  0.13374494454E+00  0.19995336071E-01 0.  0.
         14    1    1    2    0    0 -0.20443456588E-01 -0.73626556056E-03  0.10267680296E-01  0.22888911352E-01  0.00000000000E+00 0. -1.
     999901    1    3    3    0    0 -0.48347178205E-01  0.76667536454E-02  0.10246081489E+00  0.88729614410E+00  0.88000000000E+00 0. -1.
        -11    1    4    4    0    0  0.29037639062E-01 -0.32298276465E-02 -0.29969533508E-01  0.41857500267E-01  0.51100000000E-03 0.  1.
         11    1    4    4    0    0  0.39752995731E-01 -0.37006604383E-02 -0.82758961675E-01  0.91887444278E-01  0.51100000000E-03 0. -1.
</event>
<event>
 8    1  0.1148488E+005  0.1043930E+01  0.7957747E-01            NaN
         13   -1    0    0    0    0  0.00000000000E+00  0.00000000000E+00  0.74505805969E-08  0.10566000000E+00  0.10566000000E+00 0. -1.
     999900   -1    0    0    0    0 -0.00000000000E+00 -0.00000000000E+00 -0.74505805969E-08  0.93827000000E+00  0.93827000000E+00 0. -1.
     999902    2    1    2    0    0  0.93812306743E-02 -0.46472496304E-02 -0.16688287001E-01  0.10242296614E+01  0.10240401828E+01 0.  0.
     999903    2    3    3    0    0  0.75498063828E-01  0.74233133190E-01 -0.82348030885E-01  0.13580141309E+00  0.21220506634E-01 0.  0.
         14    1    1    2    0    0 -0.93812306743E-02  0.46472496304E-02  0.16688287001E-01  0.19700338604E-01  0.00000000000E+00 0. -1.
     999901    1    3    3    0    0 -0.66116833153E-01 -0.78880382820E-01  0.65659743884E-01  0.88842824831E+00  0.88000000000E+00 0.  1.
        -11    1    4    4    0    0  0.65861030502E-01  0.59975981516E-01 -0.59214126301E-01  0.10696432850E+00  0.51100000000E-03 0.  1.
         11    1    4    4    0    0  0.96370333258E-02  0.14257151674E-01 -0.23133904584E-01  0.28837084587E-01  0.51100000000E-03 0. -1.
</event>
<event>
 8    1  0.1148488E+005  0.1043930E+01  0.7957747E-01            NaN
         13   -1    0    0    0    0  0.00000000000E+00  0.00000000000E+00  0.74505805969E-08  0.10566000000E+00  0.10566000000E+00 0. -1.
     999900   -1    0    0    0    0 -0.00000000000E+00 -0.00000000000E+00 -0.74505805969E-08  0.93827000000E+00  0.93827000000E+00 0. -1.
     999902    2    1    2    0    0 -0.59111069814E-02  0.13544854528E-01  0.18328308976E-01  0.10203857612E+01  0.10201140968E+01 0.  0.
     999903    2    3    3    0    0 -0.37186176550E-01  0.83188819993E-01  0.95750442496E-01  0.13369381998E+00  0.20067355667E-01 0.  0.
         14    1    1    2    0    0  0.59111069814E-02 -0.13544854528E-01 -0.18328308976E-01  0.23544238783E-01  0.00000000000E+00 0.  1.
     999901    1    3    3    0    0  0.31275069569E-01 -0.69643965464E-01 -0.77422133520E-01  0.88669194124E+00  0.88000000000E+00 0.  1.
        -11    1    4    4    0    0 -0.16414775061E-01  0.34352601241E-01  0.26255381583E-01  0.46250970102E-01  0.51100000000E-03 0. -1.
         11    1    4    4    0    0 -0.20771401489E-01  0.48836218752E-01  0.69495060913E-01  0.87442849874E-01  0.51100000000E-03 0.  1.
</event>
<event>
 8    1  0.1148488E+005  0.1043930E+01  0.7957747E-01            NaN
         13   -1    0    0    0    0  0.00000000000E+00  0.00000000000E+00  0.74505805969E-08  0.10566000000E+00  0.10566000000E+00 0.  1.
     999900   -1    0    0    0    0 -0.00000000000E+00 -0.00000000000E+00 -0.74505805969E-08  0.93827000000E+00  0.93827000000E+00 0. -1.
     999902    2    1    2    0    0  0.18231572769E-01  0.59303805313E-02 -0.12118220738E-01  0.10212493710E+01  0.10209974862E+01 0.  0.
     999903    2    3    3    0    0  0.61959861145E-01 -0.50617987010E-01 -0.10498338457E+00  0.13348035838E+00  0.19856737800E-01 0.  0.
         14    1    1    2    0    0 -0.18231572769E-01 -0.59303805313E-02  0.12118220738E-01  0.22680629020E-01  0.00000000000E+00 0. -1.
     999901    1    3    3    0    0 -0.43728288376E-01  0.56548367541E-01  0.92865163831E-01  0.88776901260E+00  0.88000000000E+00 0.  1.
        -11    1    4    4    0    0  0.30640860528E-01 -0.12729660664E-01 -0.39248665336E-01  0.51396745483E-01  0.51100000000E-03 0. -1.
         11    1    4    4    0    0  0.31319000617E-01 -0.37888326346E-01 -0.65734719233E-01  0.82083612899E-01  0.51100000000E-03 0.  1.
</event>
<event>
 8    1  0.1148488E+005  0.1043930E+01  0.7957747E-01            NaN
         13   -1    0    0    0    0  0.00000000000E+00  0.00000000000E+00  0.74505805969E-08  0.10566000000E+00  0.10566000000E+00 0. -1.
     999900   -1    0    0    0    0 -0.00000000000E+00 -0.00000000000E+00 -0.74505805969E-08  0.93827000000E+00  0.93827000000E+00 0.  1.
     999902    2    1    2    0    0  0.24152944652E-02 -0.19251852933E-01 -0.80280542745E-02  0.10229319729E+01  0.10227164338E+01 0.  0.
     999903    2    3    3    0    0  0.10613648440E+00  0.58286364644E-01 -0.49795415975E-01  0.13247435290E+00  0.20189529491E-01 0.  0.
         14    1    1    2    0    0 -0.24152944652E-02  0.19251852933E-01  0.80280542745E-02  0.20998027149E-01  0.00000000000E+00 0. -1.
     999901    1    3    3    0    0 -0.10372118993E+00 -0.77538217576E-01  0.41767361701E-01  0.89045761995E+00  0.88000000000E+00 0.  1.
        -11    1    4    4    0    0  0.42156503031E-01  0.33495027736E-01 -0.26477834862E-01  0.60003537319E-01  0.51100000000E-03 0. -1.
         11    1    4    4    0    0  0.63979981364E-01  0.24791336907E-01 -0.23317581113E-01  0.72470815581E-01  0.51100000000E-03 0.  1.
</event>
<event>
 8    1  0.1148488E+005  0.1043930E+01  0.7957747E-01            NaN
         13   -1    0    0    0    0  0.00000000000E+00  0.00000000000E+00  0.74505805969E-08  0.10566000000E+00  0.10566000000E+00 0. -1.
     999900   -1    0    0    0    0 -0.00000000000E+00 -0.00000000000E+00 -0.74505805969E-08  0.93827000000E+00  0.93827000000E+00 0.  1.
     999902    2    1    2    0    0  0.17983440570E-01  0.91058479478E-02  0.12956237153E-01  0.10199678490E+01  0.10196863382E+01 0.  0.
     999903    2    3    3    0    0  0.92382194264E-01 -0.49190241047E-01  0.78745819978E-01  0.13246467840E+00  0.19794878812E-01 0.  0.
         14    1    1    2    0    0 -0.17983440570E-01 -0.91058479478E-02 -0.12956237153E-01  0.23962151046E-01  0.00000000000E+00 0.  1.
     999901    1    3    3    0    0 -0.74398753694E-01  0.58296088995E-01 -0.65789582825E-01  0.88750317056E+00  0.88000000000E+00 0. -1.
        -11    1    4    4    0    0  0.53684820353E-01 -0.21642330600E-01  0.33601301946E-01  0.66931001962E-01  0.51100000000E-03 0.  1.
         11    1    4    4    0    0  0.38697373910E-01 -0.27547910447E-01  0.45144518032E-01  0.65533676433E-01  0.51100000000E-03 0. -1.
</event>
<event>
 8    1  0.1148488E+005  0.1043930E+01  0.7957747E-01            NaN
         13   -1    0    0    0    0  0.00000000000E+00  0.00000000000E+00  0.74505805969E-08  0.10566000000E+00  0.10566000000E+00 0. -1.
     999900   -1    0    0    0    0 -0.00000000000E+00 -0.00000000000E+00 -0.74505805969E-08  0.93827000000E+00  0.93827000000E+00 0.  1.
     999902    2    1    2    0    0 -0.14702409412E-01 -0.15173506155E-01 -0.11482514996E-01  0.10198832896E+01  0.10195997647E+01 0.  0.
     999903    2    3    3    0    0  0.18396338961E-01 -0.11122726016E+00  0.63357511856E-01  0.13088223197E+00  0.20150822495E-01 0.  0.
         14    1    1    2    0    0  0.14702409412E-01  0.15173506155E-01  0.11482514996E-01  0.24046710424E-01  0.00000000000E+00 0. -1.
     999901    1    3    3    0    0 -0.33098748373E-01  0.96053754006E-01 -0.74840026853E-01  0.88900105760E+00  0.88000000000E+00 0.  1.
        -11    1    4    4    0    0  0.12768444720E-01 -0.35487649481E-01  0.28713383127E-01  0.47403859947E-01  0.51100000000E-03 0. -1.
         11    1    4    4    0    0  0.56278942415E-02 -0.75739610680E-01  0.34644128729E-01  0.83478372025E-01  0.51100000000E-03 0.  1.
</event>
<event>
 8    1  0.1148488E+005  0.1043930E+01  0.7957747E-01            NaN
         13   -1    0    0    0    0  0.00000000000E+00  0.00000000000E+00  0.74505805969E-08  0.10566000000E+00  0.10566000000E+00 0. -1.
     999900   -1    0    0    0    0 -0.00000000000E+00 -0.00000000000E+00 -0.74505805969E-08  0.93827000000E+00  0.93827000000E+00 0.  1.
     999902    2    1    2    0    0 -0.90382982541E-03 -0.14129565765E-01  0.19670702344E-01  0.10196937035E+01  0.10194056361E+01 0.  0.
     999903    2    3    3    0    0  0.94013945160E-01  0.26537484847E-01  0.85494235175E-01  0.13121414241E+00  0.19105678029E-01 0.  0.
         14    1    1    2    0    0  0.90382982541E-03  0.14129565765E-01 -0.19670702344E-01  0.24236296495E-01  0.00000000000E+00 0.  1.
     999901    1    3    3    0    0 -0.94917774985E-01 -0.40667050612E-01 -0.65823532831E-01  0.88847956110E+00  0.88000000000E+00 0.  1.
        -11    1    4    4    0    0  0.51056015849E-01  0.22928637912E-01  0.54461017668E-01  0.78094191572E-01  0.51100000000E-03 0. -1.
         11    1    4    4    0    0  0.42957929311E-01  0.36088469348E-02  0.31033217507E-01  0.53119950836E-01  0.51100000000E-03 0.  1.
</event>
<event>
 8    1  0.1148488E+005  0.1043930E+01  0.7957747E-01            NaN
         13   -1    0    0    0    0  0.00000000000E+00  0.00000000000E+00  0.74505805969E-08  0.10566000000E+00  0.10566000000E+00 0. -1.
     999900   -1    0    0    0    0 -0.00000000000E+00 -0.00000000000E+00 -0.74505805969E-08  0.93827000000E+00  0.93827000000E+00 0.  1.
     999902    2    1    2    0    0 -0.12017642067E-01 -0.21760652856E-01 -0.38395826022E-03  0.10190684402E+01  0.10187651293E+01 0.  0.
     999903    2    3    3    0    0 -0.11817873232E+00  0.47811854247E-01 -0.10043129594E-01  0.12990939341E+00  0.22877934011E-01 0.  0.
         14    1    1    2    0    0  0.12017642067E-01  0.21760652856E-01  0.38395826022E-03  0.24861559837E-01  0.00000000000E+00 0. -1.
     999901    1    3    3    0    0  0.10616109026E+00 -0.69572507103E-01  0.96591713333E-02  0.88915904675E+00  0.88000000000E+00 0.  1.
        -11    1    4    4    0    0 -0.95918506103E-01  0.40056012076E-01  0.81579564922E-03  0.10395080837E+00  0.51100000000E-03 0. -1.
         11    1    4    4    0    0 -0.22260226220E-01  0.77558421709E-02 -0.10858925243E-01  0.25958585046E-01  0.51100000000E-03 0.  1.
</event>
<event>
 8    1  0.1148488E+005  0.1043930E+01  0.7957747E-01            NaN
         13   -1    0    0    0    0  0.00000000000E+00  0.00000000000E+00  0.74505805969E-08  0.10566000000E+00  0.10566000000E+00 0.  1.
     999900   -1    0    0    0    0 -0.00000000000E+00 -0.00000000000E+00 -0.74505805969E-08  0.93827000000E+00  0.93827000000E+00 0.  1.
     999902    2    1    2    0    0 -0.20761575539E-01  0.10731958152E-01 -0.16407496004E-01  0.10153743724E+01  0.10149727544E+01 0.  0.
     999903    2    3    3    0    0  0.82082674219E-01 -0.33629427483E-01  0.82495850711E-01  0.12277886250E+00  0.20014492040E-01 0.  0.
         14    1    1    2    0    0  0.20761575539E-01 -0.10731958152E-01  0.16407496004E-01  0.28555627637E-01  0.00000000000E+00 0.  1.
     999901    1    3    3    0    0 -0.10284424976E+00  0.44361385635E-01 -0.98903346714E-01  0.89259550987E+00  0.88000000000E+00 0.  1.
        -11    1    4    4    0    0  0.40629641731E-01 -0.18184749066E-01  0.54726789078E-01  0.70545981102E-01  0.51100000000E-03 0. -1.
         11    1    4    4    0    0  0.41453032488E-01 -0.15444678417E-01  0.27769061633E-01  0.52232881395E-01  0.51100000000E-03 0.  1.
</event>
<event>
 8    1  0.1148488E+005  0.1043930E+01  0.7957747E-01            NaN
         13   -1    0    0    0    0  0.00000000000E+00  0.00000000000E+00  0.74505805969E-08  0.10566000000E+00  0.10566000000E+00 0. -1.
     999900   -1    0    0    0    0 -0.00000000000E+00 -0.00000000000E+00 -0.74505805969E-08  0.93827000000E+00  0.93827000000E+00 0.  1.
     999902    2    1    2    0    0  0.55022444860E-02 -0.81843681868E-03  0.25371771837E-01  0.10179555637E+01  0.10176241243E+01 0.  0.
     999903    2    3    3    0    0  0.84553256304E-02 -0.10171012992E+00  0.78993491838E-01  0.13056436292E+00  0.19764565584E-01 0.  0.
         14    1    1    2    0    0 -0.55022444860E-02  0.81843681868E-03 -0.25371771837E-01  0.25974436266E-01  0.00000000000E+00 0.  1.
     999901    1    3    3    0    0 -0.29530811444E-02  0.10089169310E+00 -0.53621720001E-01  0.88739120081E+00  0.88000000000E+00 0.  1.
        -11    1    4    4    0    0  0.91007191289E-02 -0.37604358773E-01  0.20546155706E-01  0.43810004825E-01  0.51100000000E-03 0. -1.
         11    1    4    4    0    0 -0.64539349850E-03 -0.64105771145E-01  0.58447336131E-01  0.86754358096E-01  0.51100000000E-03 0.  1.
</event>
<event>
 8    1  0.1148488E+005  0.1043930E+01  0.7957747E-01            NaN
         13   -1    0    0    0    0  0.00000000000E+00  0.00000000000E+00  0.74505805969E-08  0.10566000000E+00  0.10566000000E+00 0. -1.
     999900   -1    0    0    0    0 -0.00000000000E+00 -0.00000000000E+00 -0.74505805969E-08  0.93827000000E+00  0.93827000000E+00 0.  1.
     999902    2    1    2    0    0 -0.20018212456E-01 -0.13565698073E-01 -0.10017936810E-02  0.10197275087E+01  0.10194402540E+01 0.  0.
     999903    2    3    3    0    0 -0.35503932832E-01  0.32508497181E-02  0.12413057545E+00  0.13058145005E+00  0.19287769888E-01 0.  0.
         14    1    1    2    0    0  0.20018212456E-01  0.13565698073E-01  0.10017936810E-02  0.24202491292E-01  0.00000000000E+00 0. -1.
     999901    1    3    3    0    0  0.15485720376E-01 -0.16816547791E-01 -0.12513236913E+00  0.88914605865E+00  0.88000000000E+00 0.  1.
        -11    1    4    4    0    0 -0.18378980696E-01  0.83883670465E-02  0.87681078699E-01  0.89979910624E-01  0.51100000000E-03 0.  1.
         11    1    4    4    0    0 -0.17124952136E-01 -0.51375173285E-02  0.36449496748E-01  0.40601539431E-01  0.51100000000E-03 0. -1.
</event>
<event>
 8    1  0.1148488E+005  0.1043930E+01  0.7957747E-01            NaN
         13   -1    0    0    0    0  0.00000000000E+00  0.00000000000E+00  0.74505805969E-08  0.10566000000E+00  0.10566000000E+00 0. -1.
     999900   -1    0    0    0    0 -0.00000000000E+00 -0.00000000000E+00 -0.74505805969E-08  0.93827000000E+00  0.93827000000E+00 0. -1.
     999902    2    1    2    0    0  0.12215107851E-01 -0.21758894428E-01  0.92979346477E-02  0.10173008818E+01  0.10169522969E+01 0.  0.
     999903    2    3    3    0    0 -0.33212379640E-02  0.14106077234E-01 -0.12399869069E+00  0.12640489206E+00  0.19811850221E-01 0.  0.
         14    1    1    2    0    0 -0.12215107851E-01  0.21758894428E-01 -0.92979346477E-02  0.26629118184E-01  0.00000000000E+00 0.  1.
     999901    1    3    3    0    0  0.15536345815E-01 -0.35864971662E-01  0.13329662533E+00  0.89089598975E+00  0.88000000000E+00 0.  1.
        -11    1    4    4    0    0 -0.53845854178E-02  0.24984341736E-03 -0.86320541179E-02  0.10189684055E-01  0.51100000000E-03 0.  1.
         11    1    4    4    0    0  0.20633474538E-02  0.13856233817E-01 -0.11536663657E+00  0.11621520801E+00  0.51100000000E-03 0. -1.
</event>
<event>
 8    1  0.1148488E+005  0.1043930E+01  0.7957747E-01            NaN
         13   -1    0    0    0    0  0.00000000000E+00  0.00000000000E+00  0.74505805969E-08  0.10566000000E+00  0.10566000000E+00 0. -1.
     999900   -1    0    0    0    0 -0.00000000000E+00 -0.00000000000E+00 -0.74505805969E-08  0.93827000000E+00  0.93827000000E+00 0.  1.
     999902    2    1    2    0    0 -0.11469389218E-01  0.53435716474E-02 -0.85834774123E-03  0.10312478311E+01  0.10311698462E+01 0.  0.
     999903    2    3    3    0    0 -0.72238417570E-01 -0.10217217096E+00  0.60085555335E-01  0.14053650355E+00  0.21970284007E-01 0.  0.
         14    1    1    2    0    0  0.11469389218E-01 -0.53435716474E-02  0.85834774123E-03  0.12682168893E-01  0.00000000000E+00 0. -1.
     999901    1    3    3    0    0  0.60769028352E-01  0.10751574260E+00 -0.60943903076E-01  0.89071132756E+00  0.88000000000E+00 0.  1.
        -11    1    4    4    0    0 -0.28101107053E-01 -0.48318210657E-01  0.16080262447E-01  0.58164917778E-01  0.51100000000E-03 0.  1.
         11    1    4    4    0    0 -0.44137310518E-01 -0.53853960299E-01  0.44005292888E-01  0.82371585773E-01  0.51100000000E-03 0. -1.
</event>
<event>
 8    1  0.1148488E+005  0.1043930E+01  0.7957747E-01            NaN
         13   -1    0    0    0    0  0.00000000000E+00  0.00000000000E+00  0.74505805969E-08  0.10566000000E+00  0.10566000000E+00 0. -1.
     999900   -1    0    0    0    0 -0.00000000000E+00 -0.00000000000E+00 -0.74505805969E-08  0.93827000000E+00  0.93827000000E+00 0. -1.
     999902    2    1    2    0    0  0.20781336535E-01 -0.62915663487E-03 -0.11642922457E-01  0.10201010800E+01  0.10198227277E+01 0.  0.
     999903    2    3    3    0    0  0.45959004129E-01  0.11390691509E+00  0.40635762332E-01  0.13078365208E+00  0.19133298365E-01 0.  0.
         14    1    1    2    0    0 -0.20781336535E-01  0.62915663487E-03  0.11642922457E-01  0.23828920025E-01  0.00000000000E+00 0. -1.
     999901    1    3    3    0    0 -0.25177667594E-01 -0.11453607172E+00 -0.52278684790E-01  0.88931742789E+00  0.88000000000E+00 0. -1.
        -11    1    4    4    0    0  0.41143303835E-01  0.79303086951E-01  0.30440449407E-01  0.94385555735E-01  0.51100000000E-03 0.  1.
         11    1    4    4    0    0  0.48157002943E-02  0.34603828136E-01  0.10195312926E-01  0.36398096346E-01  0.51100000000E-03 0. -1.
</event>
<event>
 8    1  0.1148488E+005  0.1043930E+01  0.7957747E-01            NaN
         13   -1    0    0    0    0  0.00000000000E+00  0.00000000000E+00  0.74505805969E-08  0.10566000000E+00  0.10566000000E+00 0.  1.
     999900   -1    0    0    0    0 -0.00000000000E+00 -0.00000000000E+00 -0.74505805969E-08  0.93827000000E+00  0.93827000000E+00 0.  1.
     999902    2    1    2    0    0  0.55396425388E-02  0.23113791142E-01 -0.41361104027E-02  0.10198044453E+01  0.10195190358E+01 0.  0.
     999903    2    3    3    0    0 -0.23116309074E-01 -0.12352971356E+00 -0.14038090409E-01  0.12715472103E+00  0.13315450373E-01 0.  0.
         14    1    1    2    0    0 -0.55396425388E-02 -0.23113791142E-01  0.41361104027E-02  0.24125554702E-01  0.00000000000E+00 0. -1.
     999901    1    3    3    0    0  0.28655951613E-01  0.14664350471E+00  0.99019800060E-02  0.89264972427E+00  0.88000000000E+00 0.  1.
        -11    1    4    4    0    0 -0.18105817181E-01 -0.10809546294E+00 -0.82269818677E-02  0.10991084603E+00  0.51100000000E-03 0.  1.
         11    1    4    4    0    0 -0.50104918929E-02 -0.15434250626E-01 -0.58111085410E-02  0.17243874996E-01  0.51100000000E-03 0. -1.
</event>
<event>
 8    1  0.1148488E+005  0.1043930E+01  0.7957747E-01            NaN
         13   -1    0    0    0    0  0.00000000000E+00  0.00000000000E+00  0.74505805969E-08  0.10566000000E+00  0.10566000000E+00 0. -1.
     999900   -1    0    0    0    0 -0.00000000000E+00 -0.00000000000E+00 -0.74505805969E-08  0.93827000000E+00  0.93827000000E+00 0.  1.
     999902    2    1    2    0    0 -0.16084363674E-01  0.60751463100E-02  0.16616422785E-01  0.10200193400E+01  0.10197390520E+01 0.  0.
     999903    2    3    3    0    0 -0.86116846167E-01 -0.41903393586E-01 -0.85907015023E-01  0.13000948372E+00  0.18720177352E-01 0.  0.
         14    1    1    2    0    0  0.16084363674E-01 -0.60751463100E-02 -0.16616422785E-01  0.23910660042E-01  0.00000000000E+00 0.  1.
     999901    1    3    3    0    0  0.70032482493E-01  0.47978539896E-01  0.10252343781E+00  0.89000985623E+00  0.88000000000E+00 0. -1.
        -11    1    4    4    0    0 -0.72750844710E-01 -0.40798544122E-01 -0.67918140532E-01  0.10756552209E+00  0.51100000000E-03 0. -1.
         11    1    4    4    0    0 -0.13366001457E-01 -0.11048494643E-02 -0.17988874491E-01  0.22443961632E-01  0.51100000000E-03 0.  1.
</event>
<event>
 8    1  0.1148488E+005  0.1043930E+01  0.7957747E-01            NaN
         13   -1    0    0    0    0  0.00000000000E+00  0.00000000000E+00  0.74505805969E-08  0.10566000000E+00  0.10566000000E+00 0.  1.
     999900   -1    0    0    0    0 -0.00000000000E+00 -0.00000000000E+00 -0.74505805969E-08  0.93827000000E+00  0.93827000000E+00 0.  1.
     999902    2    1    2    0    0  0.96484697484E-03 -0.16501186404E-01  0.16663608916E-01  0.10204588274E+01  0.10201888661E+01 0.  0.
     999903    2    3    3    0    0 -0.11819366094E+00  0.41612452159E-01  0.29500264980E-01  0.13043594860E+00  0.21022211903E-01 0.  0.
         14    1    1    2    0    0 -0.96484697484E-03  0.16501186404E-01 -0.16663608916E-01  0.23471172628E-01  0.00000000000E+00 0. -1.
     999901    1    3    3    0    0  0.11915850791E+00 -0.58113638563E-01 -0.12836656065E-01  0.89002287877E+00  0.88000000000E+00 0.  1.
        -11    1    4    4    0    0 -0.96288505262E-01  0.36479143414E-01  0.31918672937E-01  0.10780198028E+00  0.51100000000E-03 0. -1.
         11    1    4    4    0    0 -0.21905155676E-01  0.51333087452E-02 -0.24184079565E-02  0.22633968320E-01  0.51100000000E-03 0.  1.
</event>
<event>
 8    1  0.1148488E+005  0.1043930E+01  0.7957747E-01            NaN
         13   -1    0    0    0    0  0.00000000000E+00  0.00000000000E+00  0.74505805969E-08  0.10566000000E+00  0.10566000000E+00 0. -1.
     999900   -1    0    0    0    0 -0.00000000000E+00 -0.00000000000E+00 -0.74505805969E-08  0.93827000000E+00  0.93827000000E+00 0.  1.
     999902    2    1    2    0    0 -0.20389656634E-01  0.85113304854E-02 -0.80799141325E-02  0.10204041449E+01  0.10201329095E+01 0.  0.
     999903    2    3    3    0    0 -0.34786025100E-01  0.96023850875E-01  0.80555401097E-01  0.13151612288E+00  0.19407999671E-01 0.  0.
         14    1    1    2    0    0  0.20389656634E-01 -0.85113304854E-02  0.80799141325E-02  0.23525855067E-01  0.00000000000E+00 0. -1.
     999901    1    3    3    0    0  0.14396368467E-01 -0.87512520390E-01 -0.88635315230E-01  0.88888802206E+00  0.88000000000E+00 0.  1.
        -11    1    4    4    0    0 -0.14202722599E-01  0.64225682389E-01  0.55838661318E-01  0.86283676477E-01  0.51100000000E-03 0. -1.
         11    1    4    4    0    0 -0.20583302502E-01  0.31798168486E-01  0.24716739779E-01  0.45232446399E-01  0.51100000000E-03 0.  1.
</event>
<event>
 8    1  0.1148488E+005  0.1043930E+01  0.7957747E-01            NaN
         13   -1    0    0    0    0  0.00000000000E+00  0.00000000000E+00  0.74505805969E-08  0.10566000000E+00  0.10566000000E+00 0.  1.
     999900   -1    0    0    0    0 -0.00000000000E+00 -0.00000000000E+00 -0.74505805969E-08  0.93827000000E+00  0.93827000000E+00 0.  1.
     999902    2    1    2    0    0  0.13478028244E-02  0.24569013618E-01  0.48438428705E-02  0.10188518060E+01  0.10185431197E+01 0.  0.
     999903    2    3    3    0    0  0.39066865323E-01  0.11880569750E+00  0.37854862908E-01  0.13240214145E+00  0.21361710863E-01 0.  0.
         14    1    1    2    0    0 -0.13478028244E-02 -0.24569013618E-01 -0.48438428705E-02  0.25078194042E-01  0.00000000000E+00 0. -1.
     999901    1    3    3    0    0 -0.37719062498E-01 -0.94236683877E-01 -0.33011020038E-01  0.88644966451E+00  0.88000000000E+00 0.  1.
        -11    1    4    4    0    0  0.64936505367E-02  0.14885322167E-01  0.12713498003E-01  0.20630910445E-01  0.51100000000E-03 0.  1.
         11    1    4    4    0    0  0.32573214786E-01  0.10392037533E+00  0.25141364905E-01  0.11177123100E+00  0.51100000000E-03 0. -1.
</event>
<event>
 8    1  0.1148488E+005  0.1043930E+01  0.7957747E-01            NaN
         13   -1    0    0    0    0  0.00000000000E+00  0.00000000000E+00  0.74505805969E-08  0.10566000000E+00  0.10566000000E+00 0.  1.
     999900   -1    0    0    0    0 -0.00000000000E+00 -0.00000000000E+00 -0.74505805969E-08  0.93827000000E+00  0.93827000000E+00 0. -1.
     999902    2    1    2    0    0 -0.18239417595E-01 -0.14706279129E-01  0.19611706864E-02  0.10204183605E+01  0.10201474567E+01 0.  0.
     999903    2    3    3    0    0 -0.48314950267E-01 -0.95995562418E-01  0.75828748623E-01  0.13308026019E+00  0.20270029892E-01 0.  0.
         14    1    1    2    0    0  0.18239417595E-01  0.14706279129E-01 -0.19611706864E-02  0.23511639468E-01  0.00000000000E+00 0. -1.
     999901    1    3    3    0    0  0.30075532673E-01  0.81289283289E-01 -0.73867577936E-01  0.88733810034E+00  0.88000000000E+00 0. -1.
        -11    1    4    4    0    0 -0.22317886536E-01 -0.23991650585E-01  0.21149399742E-01  0.39003148433E-01  0.51100000000E-03 0.  1.
         11    1    4    4    0    0 -0.25997063731E-01 -0.72003911834E-01  0.54679348881E-01  0.94077111760E-01  0.51100000000E-03 0. -1.
</event>
<event>
 8    1  0.1256805E+005  0.1043930E+01  0.7957747E-01            NaN
         13   -1    0    0    0    0  0.00000000000E+00  0.00000000000E+00  0.74505805969E-08  0.10566000000E+00  0.10566000000E+00 0.  1.
     999900   -1    0    0    0    0 -0.00000000000E+00 -0.00000000000E+00 -0.74505805969E-08  0.93827000000E+00  0.93827000000E+00 0. -1.
     999902    2    1    2    0    0 -0.13568951428E-01 -0.11138352787E-01  0.16687202401E-01  0.10197093049E+01  0.10194216127E+01 0.  0.
     999903    2    3    3    0    0 -0.62474538586E-01  0.94444840976E-01 -0.56048324829E-01  0.12907468614E+00  0.26381128262E-01 0.  0.
         14    1    1    2    0    0  0.13568951428E-01  0.11138352787E-01 -0.16687202401E-01  0.24220695069E-01  0.00000000000E+00 0. -1.
     999901    1    3    3    0    0  0.48905587158E-01 -0.10558319376E+00  0.72735527231E-01  0.89063461879E+00  0.88000000000E+00 0. -1.
        -11    1    4    4    0    0 -0.33199948167E-01  0.28929699521E-01 -0.27009937568E-01  0.51661996875E-01  0.51100000000E-03 0.  1.
         11    1    4    4    0    0 -0.29274590419E-01  0.65515141456E-01 -0.29038387261E-01  0.77412689269E-01  0.51100000000E-03 0. -1.
</event>
<event>
 8    1  0.1148488E+005  0.1043930E+01  0.7957747E-01            NaN
         13   -1    0    0    0    0  0.00000000000E+00  0.00000000000E+00  0.74505805969E-08  0.10566000000E+00  0.10566000000E+00 0.  1.
     999900   -1    0    0    0    0 -0.00000000000E+00 -0.00000000000E+00 -0.74505805969E-08  0.93827000000E+00  0.93827000000E+00 0.  1.
     999902    2    1    2    0    0 -0.85709965195E-02 -0.87512139652E-02  0.22222419815E-01  0.10185551765E+01  0.10182390514E+01 0.  0.
     999903    2    3    3    0    0 -0.21820188091E-01 -0.11964146903E+00  0.45341951827E-01  0.13119577774E+00  0.19137339976E-01 0.  0.
         14    1    1    2    0    0  0.85709965195E-02  0.87512139652E-02 -0.22222419815E-01  0.25374823539E-01  0.00000000000E+00 0. -1.
     999901    1    3    3    0    0  0.13249191572E-01  0.11089025506E+00 -0.23119532012E-01  0.88735939872E+00  0.88000000000E+00 0.  1.
        -11    1    4    4    0    0  0.27681315376E-02 -0.25893390867E-01  0.70303742010E-02  0.26978093431E-01  0.51100000000E-03 0.  1.
         11    1    4    4    0    0 -0.24588319629E-01 -0.93748078159E-01  0.38311577626E-01  0.10421768430E+00  0.51100000000E-03 0. -1.
</event>
<event>
 8    1  0.1148488E+005  0.1043930E+01  0.7957747E-01            NaN
         13   -1    0    0    0    0  0.00000000000E+00  0.00000000000E+00  0.74505805969E-08  0.10566000000E+00  0.10566000000E+00 0.  1.
     999900   -1    0    0    0    0 -0.00000000000E+00 -0.00000000000E+00 -0.74505805969E-08  0.93827000000E+00  0.93827000000E+00 0. -1.
     999902    2    1    2    0    0 -0.22577616457E-01  0.69471700323E-02  0.32884445727E-02  0.10200799307E+01  0.10198010783E+01 0.  0.
     999903    2    3    3    0    0 -0.50852016317E-01 -0.91994293757E-01 -0.74815104747E-01  0.13064807873E+00  0.20560713259E-01 0.  0.
         14    1    1    2    0    0  0.22577616457E-01 -0.69471700323E-02 -0.32884445727E-02  0.23850069267E-01  0.00000000000E+00 0. -1.
     999901    1    3    3    0    0  0.28274399861E-01  0.98941463789E-01  0.78103549320E-01  0.88943185200E+00  0.88000000000E+00 0.  1.
        -11    1    4    4    0    0 -0.19929143182E-01 -0.36090379843E-01 -0.17400525082E-01  0.44751822972E-01  0.51100000000E-03 0. -1.
         11    1    4    4    0    0 -0.30922873135E-01 -0.55903913913E-01 -0.57414579665E-01  0.85896255756E-01  0.51100000000E-03 0.  1.
</event>
<event>
 8    1  0.1148488E+005  0.1043930E+01  0.7957747E-01            NaN
         13   -1    0    0    0    0  0.00000000000E+00  0.00000000000E+00  0.74505805969E-08  0.10566000000E+00  0.10566000000E+00 0.  1.
     999900   -1    0    0    0    0 -0.00000000000E+00 -0.00000000000E+00 -0.74505805969E-08  0.93827000000E+00  0.93827000000E+00 0.  1.
     999902    2    1    2    0    0 -0.16992709974E-01 -0.13031851932E-01 -0.13205539239E-01  0.10187711522E+01  0.10184604523E+01 0.  0.
     999903    2    3    3    0    0 -0.39293350628E-01 -0.11812764762E+00 -0.38641323196E-01  0.13187238459E+00  0.19976621934E-01 0.  0.
         14    1    1    2    0    0  0.16992709974E-01  0.13031851932E-01  0.13205539239E-01  0.25158847820E-01  0.00000000000E+00 0.  1.
     999901    1    3    3    0    0  0.22300640653E-01  0.10509579569E+00  0.25435783957E-01  0.88689876759E+00  0.88000000000E+00 0.  1.
        -11    1    4    4    0    0 -0.26583845228E-01 -0.63390468939E-01 -0.12394339664E-01  0.69849360456E-01  0.51100000000E-03 0.  1.
         11    1    4    4    0    0 -0.12709505400E-01 -0.54737178680E-01 -0.26246983532E-01  0.62023024136E-01  0.51100000000E-03 0. -1.
</event>
<event>
 8    1  0.1148488E+005  0.1043930E+01  0.7957747E-01            NaN
         13   -1    0    0    0    0  0.00000000000E+00  0.00000000000E+00  0.74505805969E-08  0.10566000000E+00  0.10566000000E+00 0. -1.
     999900   -1    0    0    0    0 -0.00000000000E+00 -0.00000000000E+00 -0.74505805969E-08  0.93827000000E+00  0.93827000000E+00 0. -1.
     999902    2    1    2    0    0  0.12999289788E-01 -0.12598106137E-01 -0.14017644375E-01  0.10210348440E+01  0.10207781172E+01 0.  0.
     999903    2    3    3    0    0 -0.10514978063E+00 -0.34374020877E-01 -0.67649971649E-01  0.13125407337E+00  0.20323962048E-01 0.  0.
         14    1    1    2    0    0 -0.12999289788E-01  0.12598106137E-01  0.14017644375E-01  0.22895155973E-01  0.00000000000E+00 0.  1.
     999901    1    3    3    0    0  0.11814907042E+00  0.21775914740E-01  0.53632327274E-01  0.88978077066E+00  0.88000000000E+00 0. -1.
        -11    1    4    4    0    0 -0.36001863437E-01 -0.19217442493E-01 -0.32744021922E-01  0.52324720349E-01  0.51100000000E-03 0. -1.
         11    1    4    4    0    0 -0.69147917196E-01 -0.15156578383E-01 -0.34905949727E-01  0.78929353020E-01  0.51100000000E-03 0.  1.
</event>
<event>
 8    1  0.1148488E+005  0.1043930E+01  0.7957747E-01            NaN
         13   -1    0    0    0    0  0.00000000000E+00  0.00000000000E+00  0.74505805969E-08  0.10566000000E+00  0.10566000000E+00 0. -1.
     999900   -1    0    0    0    0 -0.00000000000E+00 -0.00000000000E+00 -0.74505805969E-08  0.93827000000E+00  0.93827000000E+00 0. -1.
     999902    2    1    2    0    0 -0.14518031774E-01 -0.12839498383E-01 -0.13455823201E-01  0.10203358240E+01  0.10200629924E+01 0.  0.
     999903    2    3    3    0    0 -0.41828575020E-01  0.11603910720E+00 -0.37211109265E-01  0.13021230760E+00  0.18864631157E-01 0.  0.
         14    1    1    2    0    0  0.14518031774E-01  0.12839498383E-01  0.13455823201E-01  0.23594176047E-01  0.00000000000E+00 0.  1.
     999901    1    3    3    0    0  0.27310543246E-01 -0.12887860559E+00  0.23755286064E-01  0.89012351635E+00  0.88000000000E+00 0.  1.
        -11    1    4    4    0    0 -0.33307251350E-01  0.66587412752E-01 -0.25289866483E-01  0.78632658592E-01  0.51100000000E-03 0. -1.
         11    1    4    4    0    0 -0.85213236704E-02  0.49451694452E-01 -0.11921242782E-01  0.51579649008E-01  0.51100000000E-03 0.  1.
</event>
<event>
 8    1  0.1148488E+005  0.1043930E+01  0.7957747E-01            NaN
         13   -1    0    0    0    0  0.00000000000E+00  0.00000000000E+00  0.74505805969E-08  0.10566000000E+00  0.10566000000E+00 0. -1.
     999900   -1    0    0    0    0 -0.00000000000E+00 -0.00000000000E+00 -0.74505805969E-08  0.93827000000E+00  0.93827000000E+00 0.  1.
     999902    2    1    2    0    0 -0.52995978683E-02 -0.98695027167E-02  0.19860385476E-01  0.10211280761E+01  0.10208734594E+01 0.  0.
     999903    2    3    3    0    0  0.40175811056E-01 -0.72261534001E-01  0.10328978605E+00  0.13381683238E+00  0.20058405637E-01 0.  0.
         14    1    1    2    0    0  0.52995978683E-02  0.98695027167E-02 -0.19860385476E-01  0.22801923881E-01  0.00000000000E+00 0.  1.
     999901    1    3    3    0    0 -0.45475408924E-01  0.62392031285E-01 -0.83429400571E-01  0.88731124374E+00  0.88000000000E+00 0.  1.
        -11    1    4    4    0    0  0.23943370241E-01 -0.44894481136E-01  0.78181030380E-01  0.93280941500E-01  0.51100000000E-03 0.  1.
         11    1    4    4    0    0  0.16232440814E-01 -0.27367052865E-01  0.25108755667E-01  0.40535890880E-01  0.51100000000E-03 0. -1.
</event>
<event>
 8    1  0.1148488E+005  0.1043930E+01  0.7957747E-01            NaN
         13   -1    0    0    0    0  0.00000000000E+00  0.00000000000E+00  0.74505805969E-08  0.10566000000E+00  0.10566000000E+00 0.  1.
     999900   -1    0    0    0    0 -0.00000000000E+00 -0.00000000000E+00 -0.74505805969E-08  0.93827000000E+00  0.93827000000E+00 0.  1.
     999902    2    1    2    0    0  0.13830621631E-01 -0.12783760157E-01  0.13006407511E-01  0.10210416349E+01  0.10207850621E+01 0.  0.
     999903    2    3    3    0    0  0.10920537516E+00 -0.23716752151E-02 -0.71229183228E-01  0.13182828042E+00  0.19330291455E-01 0.  0.
         14    1    1    2    0    0 -0.13830621631E-01  0.12783760157E-01 -0.13006407511E-01  0.22888365053E-01  0.00000000000E+00 0. -1.
     999901    1    3    3    0    0 -0.95374753529E-01 -0.10412084942E-01  0.84235590740E-01  0.88921335453E+00  0.88000000000E+00 0.  1.
        -11    1    4    4    0    0  0.18222385304E-01 -0.58009434158E-02 -0.68582091922E-02  0.20322461096E-01  0.51100000000E-03 0. -1.
         11    1    4    4    0    0  0.90982989855E-01  0.34292682007E-02 -0.64370974036E-01  0.11150581932E+00  0.51100000000E-03 0.  1.
</event>
<event>
 8    1  0.1148488E+005  0.1043930E+01  0.7957747E-01            NaN
         13   -1    0    0    0    0  0.00000000000E+00  0.00000000000E+00  0.74505805969E-08  0.10566000000E+00  0.10566000000E+00 0.  1.
     999900   -1    0    0    0    0 -0.00000000000E+00 -0.00000000000E+00 -0.74505805969E-08  0.93827000000E+00  0.93827000000E+00 0. -1.
     999902    2    1    2    0    0  0.15967102857E-01  0.13077535445E-01  0.11499417662E-01  0.10203035971E+01  0.10200300110E+01 0.  0.
     999903    2    3    3    0    0  0.76308903912E-01 -0.47362185431E-01 -0.91962142544E-01  0.13013597961E+00  0.20300544362E-01 0.  0.
         14    1    1    2    0    0 -0.15967102857E-01 -0.13077535445E-01 -0.11499417662E-01  0.23626402890E-01  0.00000000000E+00 0. -1.
     999901    1    3    3    0    0 -0.60341801055E-01  0.60439720876E-01  0.10346156021E+00  0.89016761750E+00  0.88000000000E+00 0.  1.
        -11    1    4    4    0    0  0.65019686913E-01 -0.30606638588E-01 -0.72174948570E-01  0.10185190393E+00  0.51100000000E-03 0.  1.
         11    1    4    4    0    0  0.11289216999E-01 -0.16755546843E-01 -0.19787193974E-01  0.28284075676E-01  0.51100000000E-03 0. -1.
</event>
<event>
 8    1  0.1148488E+005  0.1043930E+01  0.7957747E-01            NaN
         13   -1    0    0    0    0  0.00000000000E+00  0.00000000000E+00  0.74505805969E-08  0.10566000000E+00  0.10566000000E+00 0. -1.
     999900   -1    0    0    0    0 -0.00000000000E+00 -0.00000000000E+00 -0.74505805969E-08  0.93827000000E+00  0.93827000000E+00 0. -1.
     999902    2    1    2    0    0  0.17500833164E-01  0.15917456145E-01 -0.18385295228E-02  0.10202018572E+01  0.10199258819E+01 0.  0.
     999903    2    3    3    0    0 -0.12355989821E-01  0.10092943390E+00  0.80340880652E-01  0.13179208589E+00  0.23980735748E-01 0.  0.
         14    1    1    2    0    0 -0.17500833164E-01 -0.15917456145E-01  0.18385295228E-02  0.23728142834E-01  0.00000000000E+00 0. -1.
     999901    1    3    3    0    0  0.29856822985E-01 -0.85011977757E-01 -0.82179410175E-01  0.88840977128E+00  0.88000000000E+00 0. -1.
        -11    1    4    4    0    0  0.59569208115E-02  0.10837928333E-01  0.72676190955E-02  0.14353571139E-01  0.51100000000E-03 0. -1.
         11    1    4    4    0    0 -0.18312910633E-01  0.90091505569E-01  0.73073261556E-01  0.11743851475E+00  0.51100000000E-03 0.  1.
</event>
<event>
 8    1  0.1233699E+005  0.1043930E+01  0.7957747E-01            NaN
         13   -1    0    0    0    0  0.00000000000E+00  0.00000000000E+00  0.74505805969E-08  0.10566000000E+00  0.10566000000E+00 0.  1.
     999900   -1    0    0    0    0 -0.00000000000E+00 -0.00000000000E+00 -0.74505805969E-08  0.93827000000E+00  0.93827000000E+00 0.  1.
     999902    2    1    2    0    0  0.23121840461E-01  0.32883919968E-02  0.62573585067E-02  0.10197517543E+01  0.10194650817E+01 0.  0.
     999903    2    3    3    0    0  0.99116750489E-01  0.75674054924E-01 -0.39457743876E-01  0.13233709301E+00  0.20137026029E-01 0.  0.
         14    1    1    2    0    0 -0.23121840461E-01 -0.32883919968E-02 -0.62573585067E-02  0.24178245670E-01  0.00000000000E+00 0. -1.
     999901    1    3    3    0    0 -0.75994910028E-01 -0.72385662927E-01  0.45715102383E-01  0.88741466132E+00  0.88000000000E+00 0.  1.
        -11    1    4    4    0    0  0.35416110260E-01  0.39454218305E-01 -0.15480111794E-01  0.55234329816E-01  0.51100000000E-03 0. -1.
         11    1    4    4    0    0  0.63700640229E-01  0.36219836618E-01 -0.23977632082E-01  0.77102763190E-01  0.51100000000E-03 0.  1.
</event>
<event>
 8    1  0.1148488E+005  0.1043930E+01  0.7957747E-01            NaN
         13   -1    0    0    0    0  0.00000000000E+00  0.00000000000E+00  0.74505805969E-08  0.10566000000E+00  0.10566000000E+00 0.  1.
     999900   -1    0    0    0    0 -0.00000000000E+00 -0.00000000000E+00 -0.74505805969E-08  0.93827000000E+00  0.93827000000E+00 0.  1.
     999902    2    1    2    0    0 -0.18606380233E-01  0.28071541617E-02  0.11280080159E-01  0.10219910459E+01  0.10217555383E+01 0.  0.
     999903    2    3    3    0    0 -0.33828363338E-01  0.11873999820E+00 -0.44084264276E-01  0.13253202842E+00  0.19436328354E-01 0.  0.
         14    1    1    2    0    0  0.18606380233E-01 -0.28071541617E-02 -0.11280080159E-01  0.21938954128E-01  0.00000000000E+00 0. -1.
     999901    1    3    3    0    0  0.15221983105E-01 -0.11593284404E+00  0.55364344435E-01  0.88945901746E+00  0.88000000000E+00 0.  1.
        -11    1    4    4    0    0 -0.32276347126E-01  0.92037232358E-01 -0.28688819476E-01  0.10166574747E+00  0.51100000000E-03 0. -1.
         11    1    4    4    0    0 -0.15520162128E-02  0.26702765846E-01 -0.15395444800E-01  0.30866280951E-01  0.51100000000E-03 0.  1.
</event>
<event>
 8    1  0.1148488E+005  0.1043930E+01  0.7957747E-01            NaN
         13   -1    0    0    0    0  0.00000000000E+00  0.00000000000E+00  0.74505805969E-08  0.10566000000E+00  0.10566000000E+00 0. -1.
     999900   -1    0    0    0    0 -0.00000000000E+00 -0.00000000000E+00 -0.74505805969E-08  0.93827000000E+00  0.93827000000E+00 0.  1.
     999902    2    1    2    0    0  0.21233129926E-01 -0.99171235083E-02  0.53012650309E-02  0.10199029620E+01  0.10196199063E+01 0.  0.
     999903    2    3    3    0    0 -0.57098620812E-01  0.11316480171E+00 -0.61695870414E-02  0.12781742576E+00  0.15254693657E-01 0.  0.
         14    1    1    2    0    0 -0.21233129926E-01  0.99171235083E-02 -0.53012650309E-02  0.24027038021E-01  0.00000000000E+00 0. -1.
     999901    1    3    3    0    0  0.78331750738E-01 -0.12308192522E+00  0.11470852072E-01  0.89208553622E+00  0.88000000000E+00 0.  1.
        -11    1    4    4    0    0 -0.20866209737E-01  0.43289460038E-01 -0.96928303081E-02  0.49026402474E-01  0.51100000000E-03 0.  1.
         11    1    4    4    0    0 -0.36232411075E-01  0.69875341670E-01  0.35232432667E-02  0.78791023283E-01  0.51100000000E-03 0. -1.
</event>
<event>
 8    1  0.1148488E+005  0.1043930E+01  0.7957747E-01            NaN
         13   -1    0    0    0    0  0.00000000000E+00  0.00000000000E+00  0.74505805969E-08  0.10566000000E+00  0.10566000000E+00 0.  1.
     999900   -1    0    0    0    0 -0.00000000000E+00 -0.00000000000E+00 -0.74505805969E-08  0.93827000000E+00  0.93827000000E+00 0.  1.
     999902    2    1    2    0    0  0.33447636765E-02  0.23504055737E-01  0.54014768904E-04  0.10201890860E+01  0.10199128101E+01 0.  0.
     999903    2    3    3    0    0  0.50955703938E-01  0.25566091643E-01 -0.11695375871E+00  0.13116609829E+00  0.16620916253E-01 0.  0.
         14    1    1    2    0    0 -0.33447636765E-02 -0.23504055737E-01 -0.54014768904E-04  0.23740914004E-01  0.00000000000E+00 0.  1.
     999901    1    3    3    0    0 -0.47610940262E-01 -0.20620359059E-02  0.11700777348E+00  0.88902298771E+00  0.88000000000E+00 0. -1.
        -11    1    4    4    0    0  0.34470914503E-01  0.25368183955E-01 -0.87524708533E-01  0.97430100219E-01  0.51100000000E-03 0.  1.
         11    1    4    4    0    0  0.16484789435E-01  0.19790768727E-03 -0.29429050178E-01  0.33735998066E-01  0.51100000000E-03 0. -1.
</event>
<event>
 8    1  0.1148488E+005  0.1043930E+01  0.7957747E-01            NaN
         13   -1    0    0    0    0  0.00000000000E+00  0.00000000000E+00  0.74505805969E-08  0.10566000000E+00  0.10566000000E+00 0.  1.
     999900   -1    0    0    0    0 -0.00000000000E+00 -0.00000000000E+00 -0.74505805969E-08  0.93827000000E+00  0.93827000000E+00 0.  1.
     999902    2    1    2    0    0  0.17471011521E-01  0.19894671186E-03  0.15581937710E-01  0.10205190494E+01  0.10202504877E+01 0.  0.
     999903    2    3    3    0    0  0.13030038796E+00 -0.97577286317E-02  0.17326120608E-01  0.13325773182E+00  0.19596537047E-01 0.  0.
         14    1    1    2    0    0 -0.17471011521E-01 -0.19894671186E-03 -0.15581937710E-01  0.23410950561E-01  0.00000000000E+00 0. -1.
     999901    1    3    3    0    0 -0.11282937644E+00  0.99566753436E-02 -0.17441828984E-02  0.88726131762E+00  0.88000000000E+00 0.  1.
        -11    1    4    4    0    0  0.75394254529E-01  0.24951062470E-02  0.15232410589E-01  0.76959772768E-01  0.51100000000E-03 0. -1.
         11    1    4    4    0    0  0.54906133429E-01 -0.12252834879E-01  0.20937100192E-02  0.56297959051E-01  0.51100000000E-03 0.  1.
</event>
<event>
 8    1  0.1148488E+005  0.1043930E+01  0.7957747E-01            NaN
         13   -1    0    0    0    0  0.00000000000E+00  0.00000000000E+00  0.74505805969E-08  0.10566000000E+00  0.10566000000E+00 0. -1.
     999900   -1    0    0    0    0 -0.00000000000E+00 -0.00000000000E+00 -0.74505805969E-08  0.93827000000E+00  0.93827000000E+00 0.  1.
     999902    2    1    2    0    0 -0.17776900708E-03 -0.20223630551E-01 -0.11495408506E-01  0.10206669123E+01  0.10204017711E+01 0.  0.
     999903    2    3    3    0    0 -0.61675537451E-02  0.79828065271E-01  0.98171975446E-01  0.12821346560E+00  0.19758473458E-01 0.  0.
         14    1    1    2    0    0  0.17776900708E-03  0.20223630551E-01  0.11495408506E-01  0.23263087740E-01  0.00000000000E+00 0.  1.
     999901    1    3    3    0    0  0.59897847380E-02 -0.10005169582E+00 -0.10966738395E+00  0.89245344666E+00  0.88000000000E+00 0.  1.
        -11    1    4    4    0    0  0.41676429745E-02  0.38109053869E-01  0.56989394289E-01  0.68685671120E-01  0.51100000000E-03 0.  1.
         11    1    4    4    0    0 -0.10335196720E-01  0.41719011402E-01  0.41182581156E-01  0.59527794477E-01  0.51100000000E-03 0. -1.
</event>
<event>
 8    1  0.1148488E+005  0.1043930E+01  0.7957747E-01            NaN
         13   -1    0    0    0    0  0.00000000000E+00  0.00000000000E+00  0.74505805969E-08  0.10566000000E+00  0.10566000000E+00 0.  1.
     999900   -1    0    0    0    0 -0.00000000000E+00 -0.00000000000E+00 -0.74505805969E-08  0.93827000000E+00  0.93827000000E+00 0. -1.
     999902    2    1    2    0    0 -0.39247450394E-02  0.19198156071E-01  0.12303368689E-01  0.10207924612E+01  0.10205302069E+01 0.  0.
     999903    2    3    3    0    0 -0.11283445054E+00  0.29590693754E-01  0.60301647685E-01  0.13271973695E+00  0.19261813953E-01 0.  0.
         14    1    1    2    0    0  0.39247450394E-02 -0.19198156071E-01 -0.12303368689E-01  0.23137538790E-01  0.00000000000E+00 0.  1.
     999901    1    3    3    0    0  0.10890970550E+00 -0.10392537683E-01 -0.47998278996E-01  0.88807272426E+00  0.88000000000E+00 0. -1.
        -11    1    4    4    0    0 -0.33179705831E-01 -0.10839839392E-03  0.15528180231E-01  0.36637277894E-01  0.51100000000E-03 0.  1.
         11    1    4    4    0    0 -0.79654744708E-01  0.29699092148E-01  0.44773467454E-01  0.96082459054E-01  0.51100000000E-03 0. -1.
</event>
<event>
 8    1  0.1148488E+005  0.1043930E+01  0.7957747E-01            NaN
         13   -1    0    0    0    0  0.00000000000E+00  0.00000000000E+00  0.74505805969E-08  0.10566000000E+00  0.10566000000E+00 0.  1.
     999900   -1    0    0    0    0 -0.00000000000E+00 -0.00000000000E+00 -0.74505805969E-08  0.93827000000E+00  0.93827000000E+00 0. -1.
     999902    2    1    2    0    0 -0.96852506369E-02 -0.15007055806E-01  0.12539247102E-01  0.10221068810E+01  0.10218738805E+01 0.  0.
     999903    2    3    3    0    0  0.54689660389E-01 -0.50192592597E-01  0.10983646699E+00  0.13371006644E+00  0.17437806101E-01 0.  0.
         14    1    1    2    0    0  0.96852506369E-02  0.15007055806E-01 -0.12539247102E-01  0.21823118974E-01  0.00000000000E+00 0. -1.
     999901    1    3    3    0    0 -0.64374911026E-01  0.35185536791E-01 -0.97297219888E-01  0.88839681459E+00  0.88000000000E+00 0. -1.
        -11    1    4    4    0    0  0.49396308973E-01 -0.50321429210E-01  0.10523572835E+00  0.12667699562E+00  0.51100000000E-03 0. -1.
         11    1    4    4    0    0  0.52933514160E-02  0.12883661360E-03  0.46007386431E-02  0.70330708192E-02  0.51100000000E-03 0.  1.
</event>
<event>
 8    1  0.1148488E+005  0.1043930E+01  0.7957747E-01            NaN
         13   -1    0    0    0    0  0.00000000000E+00  0.00000000000E+00  0.74505805969E-08  0.10566000000E+00  0.10566000000E+00 0.  1.
     999900   -1    0    0    0    0 -0.00000000000E+00 -0.00000000000E+00 -0.74505805969E-08  0.93827000000E+00  0.93827000000E+00 0. -1.
     999902    2    1    2    0    0 -0.26222903081E-02  0.37364725487E-02 -0.23331601703E-01  0.10201560379E+01  0.10198789833E+01 0.  0.
     999903    2    3    3    0    0 -0.10745752018E+00 -0.49508868543E-01 -0.56291904523E-01  0.13172378204E+00  0.13569433841E-01 0.  0.
         14    1    1    2    0    0  0.26222903081E-02 -0.37364725487E-02  0.23331601703E-01  0.23773962051E-01  0.00000000000E+00 0.  1.
     999901    1    3    3    0    0  0.10483522987E+00  0.53245341091E-01  0.32960302820E-01  0.88843225590E+00  0.88000000000E+00 0. -1.
        -11    1    4    4    0    0 -0.70147471160E-02 -0.72922859889E-02 -0.45246767641E-02  0.11095852057E-01  0.51100000000E-03 0. -1.
         11    1    4    4    0    0 -0.10044277306E+00 -0.42216582554E-01 -0.51767227759E-01  0.12062792999E+00  0.51100000000E-03 0.  1.
</event>
<event>
 8    1  0.1148488E+005  0.1043930E+01  0.7957747E-01            NaN
         13   -1    0    0    0    0  0.00000000000E+00  0.00000000000E+00  0.74505805969E-08  0.10566000000E+00  0.10566000000E+00 0.  1.
     999900   -1    0    0    0    0 -0.00000000000E+00 -0.00000000000E+00 -0.74505805969E-08  0.93827000000E+00  0.93827000000E+00 0.  1.
     999902    2    1    2    0    0 -0.26559750144E-02 -0.62691348464E-02  0.22438971697E-01  0.10204808272E+01  0.10202113776E+01 0.  0.
     999903    2    3    3    0    0 -0.57506270730E-01  0.97654642546E-01 -0.58190416239E-01  0.12901585050E+00  0.20385405441E-01 0.  0.
         14    1    1    2    0    0  0.26559750144E-02  0.62691348464E-02 -0.22438971697E-01  0.23449172817E-01  0.00000000000E+00 0. -1.
     999901    1    3    3    0    0  0.54850295715E-01 -0.10392377739E+00  0.80629387936E-01  0.89146497668E+00  0.88000000000E+00 0. -1.
        -11    1    4    4    0    0 -0.20448397397E-01  0.45789120975E-01 -0.16279782720E-01  0.52726397584E-01  0.51100000000E-03 0.  1.
         11    1    4    4    0    0 -0.37057873333E-01  0.51865521571E-01 -0.41910633519E-01  0.76289452919E-01  0.51100000000E-03 0. -1.
</event>
<event>
 8    1  0.1148488E+005  0.1043930E+01  0.7957747E-01            NaN
         13   -1    0    0    0    0  0.00000000000E+00  0.00000000000E+00  0.74505805969E-08  0.10566000000E+00  0.10566000000E+00 0. -1.
     999900   -1    0    0    0    0 -0.00000000000E+00 -0.00000000000E+00 -0.74505805969E-08  0.93827000000E+00  0.93827000000E+00 0.  1.
     999902    2    1    2    0    0 -0.21274120366E-01  0.82172338234E-03 -0.98166803634E-02  0.10204857973E+01  0.10202164632E+01 0.  0.
     999903    2    3    3    0    0  0.47248605851E-01  0.10650942093E+00 -0.55014072467E-01  0.13036891865E+00  0.19819668954E-01 0.  0.
         14    1    1    2    0    0  0.21274120366E-01 -0.82172338234E-03  0.98166803634E-02  0.23444202695E-01  0.00000000000E+00 0. -1.
     999901    1    3    3    0    0 -0.68522726217E-01 -0.10568769755E+00  0.45197392104E-01  0.89011687866E+00  0.88000000000E+00 0.  1.
        -11    1    4    4    0    0  0.16783969758E-01  0.34125555328E-01 -0.28328233609E-01  0.47423676658E-01  0.51100000000E-03 0. -1.
         11    1    4    4    0    0  0.30464636093E-01  0.72383865602E-01 -0.26685838858E-01  0.82945241988E-01  0.51100000000E-03 0.  1.
</event>
<event>
 8    1  0.1148488E+005  0.1043930E+01  0.7957747E-01            NaN
         13   -1    0    0    0    0  0.00000000000E+00  0.00000000000E+00  0.74505805969E-08  0.10566000000E+00  0.10566000000E+00 0. -1.
     999900   -1    0    0    0    0 -0.00000000000E+00 -0.00000000000E+00 -0.74505805969E-08  0.93827000000E+00  0.93827000000E+00 0. -1.
     999902    2    1    2    0    0 -0.19584597912E-01  0.12978476576E-01 -0.79069749281E-02  0.10191405349E+01  0.10188390021E+01 0.  0.
     999903    2    3    3    0    0  0.16438905858E-01  0.29010407532E-01  0.12252905009E+00  0.12865287506E+00  0.20648311625E-01 0.  0.
         14    1    1    2    0    0  0.19584597912E-01 -0.12978476576E-01  0.79069749281E-02  0.24789465144E-01  0.00000000000E+00 0.  1.
     999901    1    3    3    0    0 -0.36023503770E-01 -0.16031930956E-01 -0.13043602502E+00  0.89048765980E+00  0.88000000000E+00 0. -1.
        -11    1    4    4    0    0 -0.14587000657E-02  0.33516547532E-02  0.43488524452E-01  0.43644865396E-01  0.51100000000E-03 0. -1.
         11    1    4    4    0    0  0.17897605923E-01  0.25658752779E-01  0.79040525639E-01  0.85008009659E-01  0.51100000000E-03 0.  1.
</event>
<event>
 8    1  0.1148488E+005  0.1043930E+01  0.7957747E-01            NaN
         13   -1    0    0    0    0  0.00000000000E+00  0.00000000000E+00  0.74505805969E-08  0.10566000000E+00  0.10566000000E+00 0. -1.
     999900   -1    0    0    0    0 -0.00000000000E+00 -0.00000000000E+00 -0.74505805969E-08  0.93827000000E+00  0.93827000000E+00 0.  1.
     999902    2    1    2    0    0  0.20914036343E-01  0.93804371711E-02 -0.50186510167E-02  0.10204656360E+01  0.10201958332E+01 0.  0.
     999903    2    3    3    0    0  0.13921104816E-01 -0.10607895435E+00  0.70460545759E-01  0.12969244307E+00  0.20221265164E-01 0.  0.
         14    1    1    2    0    0 -0.20914036343E-01 -0.93804371711E-02  0.50186510167E-02  0.23464363953E-01  0.00000000000E+00 0.  1.
     999901    1    3    3    0    0  0.69929315275E-02  0.11545939152E+00 -0.75479196775E-01  0.89077319298E+00  0.88000000000E+00 0.  1.
        -11    1    4    4    0    0 -0.40565665023E-03 -0.67787129873E-01  0.47772697417E-01  0.82932208901E-01  0.51100000000E-03 0.  1.
         11    1    4    4    0    0  0.14326761466E-01 -0.38291824479E-01  0.22687848342E-01  0.46760234168E-01  0.51100000000E-03 0. -1.
</event>
<event>
 8    1  0.1148488E+005  0.1043930E+01  0.7957747E-01            NaN
         13   -1    0    0    0    0  0.00000000000E+00  0.00000000000E+00  0.74505805969E-08  0.10566000000E+00  0.10566000000E+00 0. -1.
     999900   -1    0    0    0    0 -0.00000000000E+00 -0.00000000000E+00 -0.74505805969E-08  0.93827000000E+00  0.93827000000E+00 0. -1.
     999902    2    1    2    0    0 -0.12537960945E-01 -0.12745543832E-02 -0.20070674948E-01  0.10202306973E+01  0.10199554004E+01 0.  0.
     999903    2    3    3    0    0  0.28529570630E-01 -0.11870757975E+00 -0.43487163402E-01  0.13117198751E+00  0.20236873204E-01 0.  0.
         14    1    1    2    0    0  0.12537960945E-01  0.12745543832E-02  0.20070674948E-01  0.23699302657E-01  0.00000000000E+00 0. -1.
     999901    1    3    3    0    0 -0.41067531575E-01  0.11743302536E+00  0.23416488454E-01  0.88905870983E+00  0.88000000000E+00 0.  1.
        -11    1    4    4    0    0  0.14056105730E-01 -0.42586700982E-01 -0.25624383831E-01  0.51653377203E-01  0.51100000000E-03 0.  1.
         11    1    4    4    0    0  0.14473464900E-01 -0.76120878766E-01 -0.17862779571E-01  0.79518610308E-01  0.51100000000E-03 0. -1.
</event>
<event>
 8    1  0.1148488E+005  0.1043930E+01  0.7957747E-01            NaN
         13   -1    0    0    0    0  0.00000000000E+00  0.00000000000E+00  0.74505805969E-08  0.10566000000E+00  0.10566000000E+00 0. -1.
     999900   -1    0    0    0    0 -0.00000000000E+00 -0.00000000000E+00 -0.74505805969E-08  0.93827000000E+00  0.93827000000E+00 0.  1.
     999902    2    1    2    0    0 -0.14460066594E-01  0.49385561336E-02 -0.17559812638E-01  0.10206527604E+01  0.10203872929E+01 0.  0.
     999903    2    3    3    0    0 -0.13027141621E+00 -0.17156690113E-03 -0.16325868591E-01  0.13304929903E+00  0.21561787264E-01 0.  0.
         14    1    1    2    0    0  0.14460066594E-01 -0.49385561336E-02  0.17559812638E-01  0.23277239580E-01  0.00000000000E+00 0. -1.
     999901    1    3    3    0    0  0.11581134962E+00  0.51101230348E-02 -0.12339440474E-02  0.88760346139E+00  0.88000000000E+00 0.  1.
        -11    1    4    4    0    0 -0.18068533555E-01 -0.75047512728E-02 -0.34081987835E-02  0.19866306562E-01  0.51100000000E-03 0. -1.
         11    1    4    4    0    0 -0.11220288266E+00  0.73331843717E-02 -0.12917669808E-01  0.11318299247E+00  0.51100000000E-03 0.  1.
</event>
<event>
 8    1  0.1148488E+005  0.1043930E+01  0.7957747E-01            NaN
         13   -1    0    0    0    0  0.00000000000E+00  0.00000000000E+00  0.74505805969E-08  0.10566000000E+00  0.10566000000E+00 0.  1.
     999900   -1    0    0    0    0 -0.00000000000E+00 -0.00000000000E+00 -0.74505805969E-08  0.93827000000E+00  0.93827000000E+00 0. -1.
     999902    2    1    2    0    0 -0.33657031385E-02  0.88161988895E-02  0.21317493684E-01  0.10206171525E+01  0.10203508628E+01 0.  0.
     999903    2    3    3    0    0 -0.75230589800E-01  0.10599012929E+00 -0.95532254079E-02  0.13182002383E+00  0.19791549127E-01 0.  0.
         14    1    1    2    0    0  0.33657031385E-02 -0.88161988895E-02 -0.21317493684E-01  0.23312847476E-01  0.00000000000E+00 0. -1.
     999901    1    3    3    0    0  0.71864886662E-01 -0.97173930402E-01  0.30870719092E-01  0.88879712870E+00  0.88000000000E+00 0.  1.
        -11    1    4    4    0    0 -0.31033268702E-01  0.28126523592E-01 -0.12996988238E-02  0.41906030994E-01  0.51100000000E-03 0.  1.
         11    1    4    4    0    0 -0.44197321098E-01  0.77863605699E-01 -0.82535265840E-02  0.89913992831E-01  0.51100000000E-03 0. -1.
</event>
<event>
 8    1  0.1148488E+005  0.1043930E+01  0.7957747E-01            NaN
         13   -1    0    0    0    0  0.00000000000E+00  0.00000000000E+00  0.74505805969E-08  0.10566000000E+00  0.10566000000E+00 0.  1.
     999900   -1    0    0    0    0 -0.00000000000E+00 -0.00000000000E+00 -0.74505805969E-08  0.93827000000E+00  0.93827000000E+00 0. -1.
     999902    2    1    2    0    0 -0.17007378061E-01  0.78011658957E-02 -0.12620604980E-01  0.10213603574E+01  0.10211109591E+01 0.  0.
     999903    2    3    3    0    0 -0.34738724838E-01  0.11801186866E+00  0.44909439137E-01  0.13244500391E+00  0.19779817709E-01 0.  0.
         14    1    1    2    0    0  0.17007378061E-01 -0.78011658957E-02  0.12620604980E-01  0.22569642618E-01  0.00000000000E+00 0. -1.
     999901    1    3    3    0    0  0.17731346777E-01 -0.11021070277E+00 -0.57530044118E-01  0.88891535347E+00  0.88000000000E+00 0.  1.
        -11    1    4    4    0    0 -0.87054029240E-02  0.60517935672E-01  0.17209861415E-01  0.63518855697E-01  0.51100000000E-03 0. -1.
         11    1    4    4    0    0 -0.26033321914E-01  0.57493932989E-01  0.27699577722E-01  0.68926148213E-01  0.51100000000E-03 0.  1.
</event>
<event>
 8    1  0.1148488E+005  0.1043930E+01  0.7957747E-01            NaN
         13   -1    0    0    0    0  0.00000000000E+00  0.00000000000E+00  0.74505805969E-08  0.10566000000E+00  0.10566000000E+00 0.  1.
     999900   -1    0    0    0    0 -0.00000000000E+00 -0.00000000000E+00 -0.74505805969E-08  0.93827000000E+00  0.93827000000E+00 0. -1.
     999902    2    1    2    0    0  0.11390359834E-01  0.61394014551E-02  0.13810502862E-01  0.10250048174E+01  0.10248300899E+01 0.  0.
     999903    2    3    3    0    0  0.10245037934E+00  0.45757628561E-01  0.76588936987E-01  0.13719703253E+00  0.19165585532E-01 0.  0.
         14    1    1    2    0    0 -0.11390359834E-01 -0.61394014551E-02 -0.13810502862E-01  0.18925182606E-01  0.00000000000E+00 0. -1.
     999901    1    3    3    0    0 -0.91060019503E-01 -0.39618227106E-01 -0.62778434125E-01  0.88780778486E+00  0.88000000000E+00 0. -1.
        -11    1    4    4    0    0  0.96768227990E-01  0.43756295450E-01  0.66106765972E-01  0.12509623882E+00  0.51100000000E-03 0. -1.
         11    1    4    4    0    0  0.56821513478E-02  0.20013331112E-02  0.10482171014E-01  0.12100793707E-01  0.51100000000E-03 0.  1.
</event>
<event>
 8    1  0.1148488E+005  0.1043930E+01  0.7957747E-01            NaN
         13   -1    0    0    0    0  0.00000000000E+00  0.00000000000E+00  0.74505805969E-08  0.10566000000E+00  0.10566000000E+00 0. -1.
     999900   -1    0    0    0    0 -0.00000000000E+00 -0.00000000000E+00 -0.74505805969E-08  0.93827000000E+00  0.93827000000E+00 0. -1.
     999902    2    1    2    0    0 -0.20347696365E-01 -0.54870645453E-02  0.60896862474E-02  0.10219932522E+01  0.10217577926E+01 0.  0.
     999903    2    3    3    0    0  0.93169280735E-01  0.53103809589E-01 -0.70489167023E-01  0.12947808966E+00  0.17184980927E-01 0.  0.
         14    1    1    2    0    0  0.20347696365E-01  0.54870645453E-02 -0.60896862474E-02  0.21936747783E-01  0.00000000000E+00 0. -1.
     999901    1    3    3    0    0 -0.11351697710E+00 -0.58590874135E-01  0.76578853270E-01  0.89251516255E+00  0.88000000000E+00 0.  1.
        -11    1    4    4    0    0  0.21780560364E-01  0.45419263282E-02 -0.13667166555E-01  0.26116555423E-01  0.51100000000E-03 0. -1.
         11    1    4    4    0    0  0.71388720372E-01  0.48561883261E-01 -0.56822000467E-01  0.10336153424E+00  0.51100000000E-03 0.  1.
</event>
<event>
 8    1  0.1148488E+005  0.1043930E+01  0.7957747E-01            NaN
         13   -1    0    0    0    0  0.00000000000E+00  0.00000000000E+00  0.74505805969E-08  0.10566000000E+00  0.10566000000E+00 0.  1.
     999900   -1    0    0    0    0 -0.00000000000E+00 -0.00000000000E+00 -0.74505805969E-08  0.93827000000E+00  0.93827000000E+00 0. -1.
     999902    2    1    2    0    0 -0.11747521409E-01  0.12652038164E-01 -0.16461071262E-01  0.10200753318E+01  0.10197963705E+01 0.  0.
     999903    2    3    3    0    0  0.25969966518E-01 -0.12414188063E+00 -0.10298256050E-01  0.12868699586E+00  0.19200081749E-01 0.  0.
         14    1    1    2    0    0  0.11747521409E-01 -0.12652038164E-01  0.16461071262E-01  0.23854668224E-01  0.00000000000E+00 0.  1.
     999901    1    3    3    0    0 -0.37717487928E-01  0.13679391879E+00 -0.61628152126E-02  0.89138833592E+00  0.88000000000E+00 0.  1.
        -11    1    4    4    0    0  0.10940760645E-01 -0.74062880421E-01 -0.14391213897E-01  0.76238957614E-01  0.51100000000E-03 0. -1.
         11    1    4    4    0    0  0.15029205873E-01 -0.50079000208E-01  0.40929578475E-02  0.52448038247E-01  0.51100000000E-03 0.  1.
</event>
<event>
 8    1  0.1148488E+005  0.1043930E+01  0.7957747E-01            NaN
         13   -1    0    0    0    0  0.00000000000E+00  0.00000000000E+00  0.74505805969E-08  0.10566000000E+00  0.10566000000E+00 0.  1.
     999900   -1    0    0    0    0 -0.00000000000E+00 -0.00000000000E+00 -0.74505805969E-08  0.93827000000E+00  0.93827000000E+00 0.  1.
     999902    2    1    2    0    0 -0.12888549592E-02 -0.44634468787E-02  0.21890939396E-01  0.10215515118E+01  0.10213063667E+01 0.  0.
     999903    2    3    3    0    0 -0.11903589366E+00 -0.48412276444E-01  0.26141987543E-01  0.13261172976E+00  0.19727515468E-01 0.  0.
         14    1    1    2    0    0  0.12888549592E-02  0.44634468787E-02 -0.21890939396E-01  0.22378488170E-01  0.00000000000E+00 0. -1.
     999901    1    3    3    0    0  0.11774703870E+00  0.43948829566E-01 -0.42510481471E-02  0.88893978207E+00  0.88000000000E+00 0. -1.
        -11    1    4    4    0    0 -0.51450637713E-01 -0.20810045417E-01  0.21286818505E-01  0.59444224904E-01  0.51100000000E-03 0. -1.
         11    1    4    4    0    0 -0.67585255945E-01 -0.27602231028E-01  0.48551690383E-02  0.73167504852E-01  0.51100000000E-03 0.  1.
</event>
<event>
 8    1  0.1148488E+005  0.1043930E+01  0.7957747E-01            NaN
         13   -1    0    0    0    0  0.00000000000E+00  0.00000000000E+00  0.74505805969E-08  0.10566000000E+00  0.10566000000E+00 0.  1.
     999900   -1    0    0    0    0 -0.00000000000E+00 -0.00000000000E+00 -0.74505805969E-08  0.93827000000E+00  0.93827000000E+00 0. -1.
     999902    2    1    2    0    0  0.21807866624E-02  0.21390064225E-01 -0.96151802602E-02  0.10203770306E+01  0.10201051623E+01 0.  0.
     999903    2    3    3    0    0 -0.81252618107E-01  0.54856154901E-01  0.84166482608E-01  0.13084000910E+00  0.20589451351E-01 0.  0.
         14    1    1    2    0    0 -0.21807866624E-02 -0.21390064225E-01  0.96151802602E-02  0.23552969440E-01  0.00000000000E+00 0.  1.
     999901    1    3    3    0    0  0.83433404769E-01 -0.33466090676E-01 -0.93781662869E-01  0.88953702146E+00  0.88000000000E+00 0. -1.
        -11    1    4    4    0    0 -0.37990877959E-01  0.29322055569E-01  0.28334896640E-01  0.55733448121E-01  0.51100000000E-03 0.  1.
         11    1    4    4    0    0 -0.43261740147E-01  0.25534099332E-01  0.55831585969E-01  0.75106560979E-01  0.51100000000E-03 0. -1.
</event>
<event>
 8    1  0.1148488E+005  0.1043930E+01  0.7957747E-01            NaN
         13   -1    0    0    0    0  0.00000000000E+00  0.00000000000E+00  0.74505805969E-08  0.10566000000E+00  0.10566000000E+00 0. -1.
     999900   -1    0    0    0    0 -0.00000000000E+00 -0.00000000000E+00 -0.74505805969E-08  0.93827000000E+00  0.93827000000E+00 0. -1.
     999902    2    1    2    0    0 -0.18893155983E-01  0.13014821155E-01 -0.68624751994E-02  0.10199835915E+01  0.10197024549E+01 0.  0.
     999903    2    3    3    0    0  0.97556013326E-01  0.69739244063E-01 -0.45185592981E-01  0.12967649252E+00  0.19837262959E-01 0.  0.
         14    1    1    2    0    0  0.18893155983E-01 -0.13014821155E-01  0.68624751994E-02  0.23946408468E-01  0.00000000000E+00 0.  1.
     999901    1    3    3    0    0 -0.11644916931E+00 -0.56724422908E-01  0.38323117781E-01  0.89030709901E+00  0.88000000000E+00 0.  1.
        -11    1    4    4    0    0  0.59642892103E-01  0.43378487402E-01 -0.37920701281E-01  0.82928936170E-01  0.51100000000E-03 0. -1.
         11    1    4    4    0    0  0.37913121223E-01  0.26360756661E-01 -0.72648916998E-02  0.46747556354E-01  0.51100000000E-03 0.  1.
</event>
<event>
 8    1  0.1148488E+005  0.1043930E+01  0.7957747E-01            NaN
         13   -1    0    0    0    0  0.00000000000E+00  0.00000000000E+00  0.74505805969E-08  0.10566000000E+00  0.10566000000E+00 0.  1.
     999900   -1    0    0    0    0 -0.00000000000E+00 -0.00000000000E+00 -0.74505805969E-08  0.93827000000E+00  0.93827000000E+00 0.  1.
     999902    2    1    2    0    0 -0.22446091427E-01 -0.60208044920E-02  0.99077129938E-02  0.10186665900E+01  0.10183532696E+01 0.  0.
     999903    2    3    3    0    0  0.70767663847E-01  0.10298665486E+00 -0.76035482875E-02  0.12688294213E+00  0.20667697790E-01 0.  0.
         14    1    1    2    0    0  0.22446091427E-01  0.60208044920E-02 -0.99077129938E-02  0.25263409981E-01  0.00000000000E+00 0.  1.
     999901    1    3    3    0    0 -0.93213755274E-01 -0.10900745935E+00  0.17511261281E-01  0.89178364789E+00  0.88000000000E+00 0. -1.
        -11    1    4    4    0    0  0.24671331368E-01  0.52575701064E-01 -0.75847321658E-02  0.58571906379E-01  0.51100000000E-03 0.  1.
         11    1    4    4    0    0  0.46096332479E-01  0.50410953796E-01 -0.18816121758E-04  0.68311035753E-01  0.51100000000E-03 0. -1.
</event>
<event>
 8    1  0.1148488E+005  0.1043930E+01  0.7957747E-01            NaN
         13   -1    0    0    0    0  0.00000000000E+00  0.00000000000E+00  0.74505805969E-08  0.10566000000E+00  0.10566000000E+00 0. -1.
     999900   -1    0    0    0    0 -0.00000000000E+00 -0.00000000000E+00 -0.74505805969E-08  0.93827000000E+00  0.93827000000E+00 0.  1.
     999902    2    1    2    0    0 -0.12548758799E-01 -0.11440102043E-01  0.13472751315E-01  0.10222536924E+01  0.10220238497E+01 0.  0.
     999903    2    3    3    0    0  0.94780491879E-01  0.85963294553E-01  0.16635641436E-01  0.13039215968E+00  0.18770750860E-01 0.  0.
         14    1    1    2    0    0  0.12548758799E-01  0.11440102043E-01 -0.13472751315E-01  0.21676307576E-01  0.00000000000E+00 0.  1.
     999901    1    3    3    0    0 -0.10732925068E+00 -0.97403396596E-01 -0.31628901209E-02  0.89186153275E+00  0.88000000000E+00 0. -1.
        -11    1    4    4    0    0  0.93531874985E-01  0.79608009597E-01  0.16049632895E-01  0.12386887691E+00  0.51100000000E-03 0.  1.
         11    1    4    4    0    0  0.12486168940E-02  0.63552849565E-02  0.58600854100E-03  0.65232827654E-02  0.51100000000E-03 0. -1.
</event>
<event>
 8    1  0.1148488E+005  0.1043930E+01  0.7957747E-01            NaN
         13   -1    0    0    0    0  0.00000000000E+00  0.00000000000E+00  0.74505805969E-08  0.10566000000E+00  0.10566000000E+00 0.  1.
     999900   -1    0    0    0    0 -0.00000000000E+00 -0.00000000000E+00 -0.74505805969E-08  0.93827000000E+00  0.93827000000E+00 0.  1.
     999902    2    1    2    0    0 -0.26474708882E-03  0.12365512958E-01 -0.20590111515E-01  0.10199106600E+01  0.10196277878E+01 0.  0.
     999903    2    3    3    0    0 -0.29759842564E-01 -0.12455190260E-01  0.12189555728E+00  0.12761687779E+00  0.19666230391E-01 0.  0.
         14    1    1    2    0    0  0.26474708882E-03 -0.12365512958E-01  0.20590111515E-01  0.24019339998E-01  0.00000000000E+00 0.  1.
     999901    1    3    3    0    0  0.29495095476E-01  0.24820703218E-01 -0.14248566880E+00  0.89229378221E+00  0.88000000000E+00 0.  1.
        -11    1    4    4    0    0 -0.26687281693E-01 -0.28278336924E-02  0.99210708760E-01  0.10277759241E+00  0.51100000000E-03 0. -1.
         11    1    4    4    0    0 -0.30725608719E-02 -0.96273565681E-02  0.22684848520E-01  0.24839285380E-01  0.51100000000E-03 0.  1.
</event>
<event>
 8    1  0.1148488E+005  0.1043930E+01  0.7957747E-01            NaN
         13   -1    0    0    0    0  0.00000000000E+00  0.00000000000E+00  0.74505805969E-08  0.10566000000E+00  0.10566000000E+00 0. -1.
     999900   -1    0    0    0    0 -0.00000000000E+00 -0.00000000000E+00 -0.74505805969E-08  0.93827000000E+00  0.93827000000E+00 0. -1.
     999902    2    1    2    0    0  0.76577477203E-02  0.87498622217E-02 -0.20445320721E-01  0.10204095338E+01  0.10201384241E+01 0.  0.
     999903    2    3    3    0    0 -0.59498991949E-01  0.11505096645E+00 -0.57955343762E-02  0.13135128565E+00  0.21040843590E-01 0.  0.
         14    1    1    2    0    0 -0.76577477203E-02 -0.87498622217E-02  0.20445320721E-01  0.23520466161E-01  0.00000000000E+00 0. -1.
     999901    1    3    3    0    0  0.67156739669E-01 -0.10630110422E+00 -0.14649786344E-01  0.88905824819E+00  0.88000000000E+00 0. -1.
        -11    1    4    4    0    0 -0.11850937133E-01  0.31549619978E-01 -0.98788006704E-02  0.35123710729E-01  0.51100000000E-03 0. -1.
         11    1    4    4    0    0 -0.47648054816E-01  0.83501346468E-01  0.40832662942E-02  0.96227574916E-01  0.51100000000E-03 0.  1.
</event>
<event>
 8    1  0.1148488E+005  0.1043930E+01  0.7957747E-01            NaN
         13   -1    0    0    0    0  0.00000000000E+00  0.00000000000E+00  0.74505805969E-08  0.10566000000E+00  0.10566000000E+00 0. -1.
     999900   -1    0    0    0    0 -0.00000000000E+00 -0.00000000000E+00 -0.74505805969E-08  0.93827000000E+00  0.93827000000E+00 0. -1.
     999902    2    1    2    0    0  0.22514195224E-01 -0.15860359477E-02 -0.65780427258E-02  0.10204209562E+01  0.10201501128E+01 0.  0.
     999903    2    3    3    0    0 -0.81672728097E-01 -0.73037049197E-02 -0.98227821929E-01  0.12952966718E+00  0.20135815336E-01 0.  0.
         14    1    1    2    0    0 -0.22514195224E-01  0.15860359477E-02  0.65780427258E-02  0.23509043850E-01  0.00000000000E+00 0. -1.
     999901    1    3    3    0    0  0.10418692332E+00  0.57176689720E-02  0.91649779203E-01  0.89089128897E+00  0.88000000000E+00 0.  1.
        -11    1    4    4    0    0 -0.44235826410E-01  0.76488176190E-03 -0.38904289573E-01  0.58916875770E-01  0.51100000000E-03 0. -1.
         11    1    4    4    0    0 -0.37436901687E-01 -0.80685866816E-02 -0.59323532356E-01  0.70612791414E-01  0.51100000000E-03 0.  1.
</event>
<event>
 8    1  0.1148488E+005  0.1043930E+01  0.7957747E-01            NaN
         13   -1    0    0    0    0  0.00000000000E+00  0.00000000000E+00  0.74505805969E-08  0.10566000000E+00  0.10566000000E+00 0.  1.
     999900   -1    0    0    0    0 -0.00000000000E+00 -0.00000000000E+00 -0.74505805969E-08  0.93827000000E+00  0.93827000000E+00 0.  1.
     999902    2    1    2    0    0 -0.16302120395E-01 -0.11474738701E-01  0.12489369280E-01  0.10204052662E+01  0.10201340569E+01 0.  0.
     999903    2    3    3    0    0  0.95745553678E-01  0.43321002586E-01  0.72974895017E-01  0.12955412631E+00  0.20371942167E-01 0.  0.
         14    1    1    2    0    0  0.16302120395E-01  0.11474738701E-01 -0.12489369280E-01  0.23524733849E-01  0.00000000000E+00 0. -1.
     999901    1    3    3    0    0 -0.11204767407E+00 -0.54795741287E-01 -0.60485525737E-01  0.89085113984E+00  0.88000000000E+00 0.  1.
        -11    1    4    4    0    0  0.15851955034E-01  0.14400574636E-01  0.92000291805E-02  0.23314430856E-01  0.51100000000E-03 0. -1.
         11    1    4    4    0    0  0.79893598644E-01  0.28920427951E-01  0.63774865836E-01  0.10623969546E+00  0.51100000000E-03 0.  1.
</event>
<event>
 8    1  0.1148488E+005  0.1043930E+01  0.7957747E-01            NaN
         13   -1    0    0    0    0  0.00000000000E+00  0.00000000000E+00  0.74505805969E-08  0.10566000000E+00  0.10566000000E+00 0. -1.
     999900   -1    0    0    0    0 -0.00000000000E+00 -0.00000000000E+00 -0.74505805969E-08  0.93827000000E+00  0.93827000000E+00 0.  1.
     999902    2    1    2    0    0 -0.95787229391E-02  0.20037456203E-01 -0.98633403765E-02  0.10196290315E+01  0.10193394061E+01 0.  0.
     999903    2    3    3    0    0 -0.80039657407E-01 -0.96633730446E-01  0.20155227204E-01  0.12863070188E+00  0.19879629368E-01 0.  0.
         14    1    1    2    0    0  0.95787229391E-02 -0.20037456203E-01  0.98633403765E-02  0.24300968450E-01  0.00000000000E+00 0. -1.
     999901    1    3    3    0    0  0.70460934468E-01  0.11667118665E+00 -0.30018567581E-01  0.89099832967E+00  0.88000000000E+00 0.  1.
        -11    1    4    4    0    0 -0.15250760408E-01 -0.89800257469E-02 -0.39627058368E-03  0.17710017132E-01  0.51100000000E-03 0.  1.
         11    1    4    4    0    0 -0.64788896999E-01 -0.87653704699E-01  0.20551497788E-01  0.11092068474E+00  0.51100000000E-03 0. -1.
</event>
<event>
 8    1  0.1148488E+005  0.1043930E+01  0.7957747E-01            NaN
         13   -1    0    0    0    0  0.00000000000E+00  0.00000000000E+00  0.74505805969E-08  0.10566000000E+00  0.10566000000E+00 0.  1.
     999900   -1    0    0    0    0 -0.00000000000E+00 -0.00000000000E+00 -0.74505805969E-08  0.93827000000E+00  0.93827000000E+00 0.  1.
     999902    2    1    2    0    0 -0.84803908553E-02  0.16211880051E-01  0.13827725669E-01  0.10209964420E+01  0.10207388435E+01 0.  0.
     999903    2    3    3    0    0  0.90795552918E-01 -0.85561155358E-01  0.24778053894E-01  0.12951824632E+00  0.24422949012E-01 0.  0.
         14    1    1    2    0    0  0.84803908553E-02 -0.16211880051E-01 -0.13827725669E-01  0.22933557967E-01  0.00000000000E+00 0.  1.
     999901    1    3    3    0    0 -0.99275943773E-01  0.10177303541E+00 -0.10950328225E-01  0.89147819572E+00  0.88000000000E+00 0. -1.
        -11    1    4    4    0    0  0.50306666262E-01 -0.59933141890E-01  0.76261255199E-02  0.78620360458E-01  0.51100000000E-03 0.  1.
         11    1    4    4    0    0  0.40488886656E-01 -0.25628013469E-01  0.17151928374E-01  0.50897885859E-01  0.51100000000E-03 0. -1.
</event>
<event>
 8    1  0.1148488E+005  0.1043930E+01  0.7957747E-01            NaN
         13   -1    0    0    0    0  0.00000000000E+00  0.00000000000E+00  0.74505805969E-08  0.10566000000E+00  0.10566000000E+00 0. -1.
     999900   -1    0    0    0    0 -0.00000000000E+00 -0.00000000000E+00 -0.74505805969E-08  0.93827000000E+00  0.93827000000E+00 0.  1.
     999902    2    1    2    0    0 -0.22040976560E-01  0.10757643068E-01 -0.57790373634E-03  0.10193970527E+01  0.10191018033E+01 0.  0.
     999903    2    3    3    0    0 -0.81817707836E-01  0.55398256966E-01 -0.85527366008E-01  0.13216402062E+00  0.19730530161E-01 0.  0.
         14    1    1    2    0    0  0.22040976560E-01 -0.10757643068E-01  0.57790373634E-03  0.24532947332E-01  0.00000000000E+00 0. -1.
     999901    1    3    3    0    0  0.59776731276E-01 -0.44640613899E-01  0.84949462271E-01  0.88723303204E+00  0.88000000000E+00 0. -1.
        -11    1    4    4    0    0 -0.61744310976E-01  0.39924313159E-01 -0.51673240560E-01  0.89870438021E-01  0.51100000000E-03 0. -1.
         11    1    4    4    0    0 -0.20073396861E-01  0.15473943807E-01 -0.33854125448E-01  0.42293582602E-01  0.51100000000E-03 0.  1.
</event>
<event>
 8    1  0.1148488E+005  0.1043930E+01  0.7957747E-01            NaN
         13   -1    0    0    0    0  0.00000000000E+00  0.00000000000E+00  0.74505805969E-08  0.10566000000E+00  0.10566000000E+00 0.  1.
     999900   -1    0    0    0    0 -0.00000000000E+00 -0.00000000000E+00 -0.74505805969E-08  0.93827000000E+00  0.93827000000E+00 0. -1.
     999902    2    1    2    0    0  0.28043748062E-02 -0.25279474059E-01  0.25590879911E-02  0.10183670335E+01  0.10180461432E+01 0.  0.
     999903    2    3    3    0    0 -0.10843920100E+00 -0.16627517268E-01 -0.64476340406E-01  0.12879200112E+00  0.19865710034E-01 0.  0.
         14    1    1    2    0    0 -0.28043748062E-02  0.25279474059E-01 -0.25590879911E-02  0.25562966535E-01  0.00000000000E+00 0.  1.
     999901    1    3    3    0    0  0.11124357581E+00 -0.86519567907E-02  0.67035428397E-01  0.88957503235E+00  0.88000000000E+00 0.  1.
        -11    1    4    4    0    0 -0.48149427864E-01 -0.16228103924E-01 -0.24183787902E-01  0.56274643303E-01  0.51100000000E-03 0. -1.
         11    1    4    4    0    0 -0.60289773138E-01 -0.39941334416E-03 -0.40292552504E-01  0.72517357815E-01  0.51100000000E-03 0.  1.
</event>
<event>
 8    1  0.1148488E+005  0.1043930E+01  0.7957747E-01            NaN
         13   -1    0    0    0    0  0.00000000000E+00  0.00000000000E+00  0.74505805969E-08  0.10566000000E+00  0.10566000000E+00 0. -1.
     999900   -1    0    0    0    0 -0.00000000000E+00 -0.00000000000E+00 -0.74505805969E-08  0.93827000000E+00  0.93827000000E+00 0. -1.
     999902    2    1    2    0    0  0.98252354904E-02 -0.18903011014E-01 -0.85657865153E-02  0.10209684718E+01  0.10207102374E+01 0.  0.
     999903    2    3    3    0    0  0.64960567898E-01  0.10976542434E+00  0.12259778241E-01  0.12966090690E+00  0.19832419218E-01 0.  0.
         14    1    1    2    0    0 -0.98252354904E-02  0.18903011014E-01  0.85657865153E-02  0.22961528182E-01  0.00000000000E+00 0.  1.
     999901    1    3    3    0    0 -0.55135332408E-01 -0.12866843536E+00 -0.20825564756E-01  0.89130756492E+00  0.88000000000E+00 0.  1.
        -11    1    4    4    0    0  0.36622900211E-01  0.44128218926E-01  0.93626401442E-02  0.58107285919E-01  0.51100000000E-03 0.  1.
         11    1    4    4    0    0  0.28337667688E-01  0.65637205417E-01  0.28971380968E-02  0.71553620979E-01  0.51100000000E-03 0. -1.
</event>
<event>
 8    1  0.1148488E+005  0.1043930E+01  0.7957747E-01            NaN
         13   -1    0    0    0    0  0.00000000000E+00  0.00000000000E+00  0.74505805969E-08  0.10566000000E+00  0.10566000000E+00 0.  1.
     999900   -1    0    0    0    0 -0.00000000000E+00 -0.00000000000E+00 -0.74505805969E-08  0.93827000000E+00  0.93827000000E+00 0.  1.
     999902    2    1    2    0    0  0.21582909641E-01  0.38035819001E-02  0.42889447773E-02  0.10215987602E+01  0.10213546605E+01 0.  0.
     999903    2    3    3    0    0  0.84420277820E-01 -0.47593482702E-01  0.89888439801E-01  0.13372632193E+00  0.20270043506E-01 0.  0.
         14    1    1    2    0    0 -0.21582909641E-01 -0.38035819001E-02 -0.42889447773E-02  0.22331239803E-01  0.00000000000E+00 0. -1.
     999901    1    3    3    0    0 -0.62837368179E-01  0.51397064602E-01 -0.85599495024E-01  0.88787243827E+00  0.88000000000E+00 0.  1.
        -11    1    4    4    0    0  0.25559309288E-01 -0.95078989492E-02  0.14945314872E-01  0.31101478925E-01  0.51100000000E-03 0. -1.
         11    1    4    4    0    0  0.58860968532E-01 -0.38085583752E-01  0.74943124929E-01  0.10262484300E+00  0.51100000000E-03 0.  1.
</event>
<event>
 8    1  0.1148488E+005  0.1043930E+01  0.7957747E-01            NaN
         13   -1    0    0    0    0  0.00000000000E+00  0.00000000000E+00  0.74505805969E-08  0.10566000000E+00  0.10566000000E+00 0.  1.
     999900   -1    0    0    0    0 -0.00000000000E+00 -0.00000000000E+00 -0.74505805969E-08  0.93827000000E+00  0.93827000000E+00 0. -1.
     999902    2    1    2    0    0 -0.17571634734E-01  0.17212845770E-01  0.99969623949E-02  0.10173784715E+01  0.10170319418E+01 0.  0.
     999903    2    3    3    0    0  0.43125936625E-01  0.81919543769E-01 -0.85690865245E-01  0.12775646625E+00  0.20202282549E-01 0.  0.
         14    1    1    2    0    0  0.17571634734E-01 -0.17212845770E-01 -0.99969623949E-02  0.26551528465E-01  0.00000000000E+00 0.  1.
     999901    1    3    3    0    0 -0.60697571359E-01 -0.64706697999E-01  0.95687827640E-01  0.88962200529E+00  0.88000000000E+00 0.  1.
        -11    1    4    4    0    0  0.39091542657E-01  0.59465853834E-01 -0.71524522493E-01  0.10089774486E+00  0.51100000000E-03 0.  1.
         11    1    4    4    0    0  0.40343939677E-02  0.22453689936E-01 -0.14166342752E-01  0.26858721384E-01  0.51100000000E-03 0. -1.
</event>
<event>
 8    1  0.1148488E+005  0.1043930E+01  0.7957747E-01            NaN
         13   -1    0    0    0    0  0.00000000000E+00  0.00000000000E+00  0.74505805969E-08  0.10566000000E+00  0.10566000000E+00 0.  1.
     999900   -1    0    0    0    0 -0.00000000000E+00 -0.00000000000E+00 -0.74505805969E-08  0.93827000000E+00  0.93827000000E+00 0. -1.
     999902    2    1    2    0    0  0.15409343393E-01 -0.21527964453E-02 -0.11598617361E-01  0.10245235495E+01  0.10243397352E+01 0.  0.
     999903    2    3    3    0    0  0.11402612637E+00 -0.36806554631E-02  0.69792747811E-01  0.13528108618E+00  0.20357797353E-01 0.  0.
         14    1    1    2    0    0 -0.15409343393E-01  0.21527964453E-02  0.11598617361E-01  0.19406450501E-01  0.00000000000E+00 0. -1.
     999901    1    3    3    0    0 -0.98616782974E-01  0.15278590179E-02 -0.81391365173E-01  0.88924246331E+00  0.88000000000E+00 0. -1.
        -11    1    4    4    0    0  0.48280398571E-01 -0.92374121401E-02  0.22278109956E-01  0.53971306946E-01  0.51100000000E-03 0.  1.
         11    1    4    4    0    0  0.65745727797E-01  0.55567566770E-02  0.47514637856E-01  0.81309779239E-01  0.51100000000E-03 0. -1.
</event>
<event>
 8    1  0.1148488E+005  0.1043930E+01  0.7957747E-01            NaN
         13   -1    0    0    0    0  0.00000000000E+00  0.00000000000E+00  0.74505805969E-08  0.10566000000E+00  0.10566000000E+00 0.  1.
     999900   -1    0    0    0    0 -0.00000000000E+00 -0.00000000000E+00 -0.74505805969E-08  0.93827000000E+00  0.93827000000E+00 0.  1.
     999902    2    1    2    0    0  0.13759989774E-01  0.11912550988E-01 -0.14886031832E-01  0.10204174473E+01  0.10201465222E+01 0.  0.
     999903    2    3    3    0    0 -0.38897378114E-01 -0.11393634429E+00  0.39352537917E-01  0.12825571015E+00  0.20159572675E-01 0.  0.
         14    1    1    2    0    0 -0.13759989774E-01 -0.11912550988E-01  0.14886031832E-01  0.23512552676E-01  0.00000000000E+00 0.  1.
     999901    1    3    3    0    0  0.52657367889E-01  0.12584889528E+00 -0.54238569750E-01  0.89216173718E+00  0.88000000000E+00 0.  1.
        -11    1    4    4    0    0 -0.11282837692E-01 -0.31943965729E-01  0.20840433203E-01  0.39778186861E-01  0.51100000000E-03 0.  1.
         11    1    4    4    0    0 -0.27614540423E-01 -0.81992378560E-01  0.18512104714E-01  0.88477523285E-01  0.51100000000E-03 0. -1.
</event>
<event>
 8    1  0.1148488E+005  0.1043930E+01  0.7957747E-01            NaN
         13   -1    0    0    0    0  0.00000000000E+00  0.00000000000E+00  0.74505805969E-08  0.10566000000E+00  0.10566000000E+00 0.  1.
     999900   -1    0    0    0    0 -0.00000000000E+00 -0.00000000000E+00 -0.74505805969E-08  0.93827000000E+00  0.93827000000E+00 0.  1.
     999902    2    1    2    0    0  0.17280915401E-01 -0.15431057869E-01  0.43115034173E-02  0.10203644182E+01  0.10200922553E+01 0.  0.
     999903    2    3    3    0    0  0.59737244070E-01 -0.51707449345E-01  0.10475393945E+00  0.13289205278E+00  0.21088177128E-01 0.  0.
         14    1    1    2    0    0 -0.17280915401E-01  0.15431057869E-01 -0.43115034173E-02  0.23565581804E-01  0.00000000000E+00 0. -1.
     999901    1    3    3    0    0 -0.42456328669E-01  0.36276391476E-01 -0.10044243603E+00  0.88747236542E+00  0.88000000000E+00 0.  1.
        -11    1    4    4    0    0  0.37261956705E-01 -0.23989340918E-01  0.71440991190E-01  0.84071506698E-01  0.51100000000E-03 0. -1.
         11    1    4    4    0    0  0.22475287364E-01 -0.27718108426E-01  0.33312948261E-01  0.48820546081E-01  0.51100000000E-03 0.  1.
</event>
<event>
 8    1  0.1148488E+005  0.1043930E+01  0.7957747E-01            NaN
         13   -1    0    0    0    0  0.00000000000E+00  0.00000000000E+00  0.74505805969E-08  0.10566000000E+00  0.10566000000E+00 0. -1.
     999900   -1    0    0    0    0 -0.00000000000E+00 -0.00000000000E+00 -0.74505805969E-08  0.93827000000E+00  0.93827000000E+00 0. -1.
     999902    2    1    2    0    0 -0.19376062297E-01  0.13097347329E-01  0.21022928575E-02  0.10204482639E+01  0.10201780567E+01 0.  0.
     999903    2    3    3    0    0  0.97247421250E-01 -0.80905786119E-01 -0.23590646021E-03  0.12778758185E+00  0.18077700542E-01 0.  0.
         14    1    1    2    0    0  0.19376062297E-01 -0.13097347329E-01 -0.21022928575E-02  0.23481736146E-01  0.00000000000E+00 0. -1.
     999901    1    3    3    0    0 -0.11662348355E+00  0.94003133448E-01  0.23381993177E-02  0.89266068200E+00  0.88000000000E+00 0.  1.
        -11    1    4    4    0    0  0.64886106268E-01 -0.43290822785E-01  0.29837183661E-02  0.78060654752E-01  0.51100000000E-03 0.  1.
         11    1    4    4    0    0  0.32361314982E-01 -0.37614963334E-01 -0.32196248263E-02  0.49726927102E-01  0.51100000000E-03 0. -1.
</event>
<event>
 8    1  0.1148488E+005  0.1043930E+01  0.7957747E-01            NaN
         13   -1    0    0    0    0  0.00000000000E+00  0.00000000000E+00  0.74505805969E-08  0.10566000000E+00  0.10566000000E+00 0. -1.
     999900   -1    0    0    0    0 -0.00000000000E+00 -0.00000000000E+00 -0.74505805969E-08  0.93827000000E+00  0.93827000000E+00 0.  1.
     999902    2    1    2    0    0 -0.90259449681E-02  0.10438889271E-01 -0.18870537393E-01  0.10205519061E+01  0.10202841064E+01 0.  0.
     999903    2    3    3    0    0 -0.14654727068E-01 -0.11932496436E+00  0.39488735831E-01  0.12910580811E+00  0.25607445873E-01 0.  0.
         14    1    1    2    0    0  0.90259449681E-02 -0.10438889271E-01  0.18870537393E-01  0.23378093876E-01  0.00000000000E+00 0. -1.
     999901    1    3    3    0    0  0.56287821001E-02  0.12976385363E+00 -0.58359273223E-01  0.89144609802E+00  0.88000000000E+00 0.  1.
        -11    1    4    4    0    0  0.73324125779E-02 -0.35710432116E-01  0.11934522678E-01  0.38362653567E-01  0.51100000000E-03 0. -1.
         11    1    4    4    0    0 -0.21987139646E-01 -0.83614532247E-01  0.27554213152E-01  0.90743154541E-01  0.51100000000E-03 0.  1.
</event>
<event>
 8    1  0.1148488E+005  0.1043930E+01  0.7957747E-01            NaN
         13   -1    0    0    0    0  0.00000000000E+00  0.00000000000E+00  0.74505805969E-08  0.10566000000E+00  0.10566000000E+00 0. -1.
     999900   -1    0    0    0    0 -0.00000000000E+00 -0.00000000000E+00 -0.74505805969E-08  0.93827000000E+00  0.93827000000E+00 0. -1.
     999902    2    1    2    0    0  0.19756395143E-01 -0.12220558467E-01 -0.10657711965E-01  0.10183713611E+01  0.10180505808E+01 0.  0.
     999903    2    3    3    0    0 -0.88640157802E-02  0.93256911287E-01 -0.85782354402E-01  0.12843409564E+00  0.19007427952E-01 0.  0.
         14    1    1    2    0    0 -0.19756395143E-01  0.12220558467E-01  0.10657711965E-01  0.25558638904E-01  0.00000000000E+00 0.  1.
     999901    1    3    3    0    0  0.28620410924E-01 -0.10547746975E+00  0.75124642438E-01  0.88993726546E+00  0.88000000000E+00 0.  1.
        -11    1    4    4    0    0  0.28904421701E-02  0.57050397339E-01 -0.57086011326E-01  0.80759991968E-01  0.51100000000E-03 0.  1.
         11    1    4    4    0    0 -0.11754457950E-01  0.36206513948E-01 -0.28696343077E-01  0.47674103672E-01  0.51100000000E-03 0. -1.
</event>
<event>
 8    1  0.1148488E+005  0.1043930E+01  0.7957747E-01            NaN
         13   -1    0    0    0    0  0.00000000000E+00  0.00000000000E+00  0.74505805969E-08  0.10566000000E+00  0.10566000000E+00 0.  1.
     999900   -1    0    0    0    0 -0.00000000000E+00 -0.00000000000E+00 -0.74505805969E-08  0.93827000000E+00  0.93827000000E+00 0.  1.
     999902    2    1    2    0    0  0.17326735666E-01  0.13560728486E-01  0.85497950444E-02  0.10203247438E+01  0.10200516529E+01 0.  0.
     999903    2    3    3    0    0 -0.62804550604E-01  0.56488168841E-01  0.97816717659E-01  0.13114963636E+00  0.22288832842E-01 0.  0.
         14    1    1    2    0    0 -0.17326735666E-01 -0.13560728486E-01 -0.85497950444E-02  0.23605256220E-01  0.00000000000E+00 0. -1.
     999901    1    3    3    0    0  0.80131286270E-01 -0.42927440354E-01 -0.89266922614E-01  0.88917510742E+00  0.88000000000E+00 0. -1.
        -11    1    4    4    0    0 -0.33591116587E-01  0.44171780037E-01  0.58401333979E-01  0.80563553774E-01  0.51100000000E-03 0. -1.
         11    1    4    4    0    0 -0.29213434017E-01  0.12316388804E-01  0.39415383679E-01  0.50586082590E-01  0.51100000000E-03 0.  1.
</event>
<event>
 8    1  0.1148488E+005  0.1043930E+01  0.7957747E-01            NaN
         13   -1    0    0    0    0  0.00000000000E+00  0.00000000000E+00  0.74505805969E-08  0.10566000000E+00  0.10566000000E+00 0.  1.
     999900   -1    0    0    0    0 -0.00000000000E+00 -0.00000000000E+00 -0.74505805969E-08  0.93827000000E+00  0.93827000000E+00 0. -1.
     999902    2    1    2    0    0  0.13321779640E-01  0.15037257674E-01  0.12384043136E-01  0.10203301387E+01  0.10200571741E+01 0.  0.
     999903    2    3    3    0    0  0.92509289394E-01 -0.88393424796E-01  0.17757396714E-01  0.13072492245E+00  0.20057767548E-01 0.  0.
         14    1    1    2    0    0 -0.13321779640E-01 -0.15037257674E-01 -0.12384043136E-01  0.23599861345E-01  0.00000000000E+00 0.  1.
     999901    1    3    3    0    0 -0.79187509754E-01  0.10343068247E+00 -0.53733535777E-02  0.88960521621E+00  0.88000000000E+00 0.  1.
        -11    1    4    4    0    0  0.37913501653E-01 -0.25510894919E-01  0.63131301559E-03  0.45704475101E-01  0.51100000000E-03 0. -1.
         11    1    4    4    0    0  0.54595787741E-01 -0.62882529878E-01  0.17126083698E-01  0.85020447345E-01  0.51100000000E-03 0.  1.
</event>
<event>
 8    1  0.1148488E+005  0.1043930E+01  0.7957747E-01            NaN
         13   -1    0    0    0    0  0.00000000000E+00  0.00000000000E+00  0.74505805969E-08  0.10566000000E+00  0.10566000000E+00 0.  1.
     999900   -1    0    0    0    0 -0.00000000000E+00 -0.00000000000E+00 -0.74505805969E-08  0.93827000000E+00  0.93827000000E+00 0.  1.
     999902    2    1    2    0    0  0.19343186298E-01 -0.13852275199E-01 -0.42653534067E-03  0.10201344896E+01  0.10198569265E+01 0.  0.
     999903    2    3    3    0    0 -0.34058536014E-01 -0.98979211290E-01 -0.76453402836E-01  0.13115843602E+00  0.20013605167E-01 0.  0.
         14    1    1    2    0    0 -0.19343186298E-01  0.13852275199E-01  0.42653534067E-03  0.23795510433E-01  0.00000000000E+00 0.  1.
     999901    1    3    3    0    0  0.53401722312E-01  0.85126936091E-01  0.76026867496E-01  0.88897605354E+00  0.88000000000E+00 0. -1.
        -11    1    4    4    0    0 -0.15790335596E-01 -0.51693602585E-01 -0.51482696181E-01  0.74647788806E-01  0.51100000000E-03 0. -1.
         11    1    4    4    0    0 -0.18268200418E-01 -0.47285608705E-01 -0.24970706655E-01  0.56510647217E-01  0.51100000000E-03 0.  1.
</event>
<event>
 8    1  0.1148488E+005  0.1043930E+01  0.7957747E-01            NaN
         13   -1    0    0    0    0  0.00000000000E+00  0.00000000000E+00  0.74505805969E-08  0.10566000000E+00  0.10566000000E+00 0. -1.
     999900   -1    0    0    0    0 -0.00000000000E+00 -0.00000000000E+00 -0.74505805969E-08  0.93827000000E+00  0.93827000000E+00 0. -1.
     999902    2    1    2    0    0 -0.21263830036E-01  0.93676252359E-02 -0.42870682131E-02  0.10203020118E+01  0.10200283886E+01 0.  0.
     999903    2    3    3    0    0  0.11886810701E+00 -0.39195486684E-01  0.14922064333E-01  0.12768545005E+00  0.20371379701E-01 0.  0.
         14    1    1    2    0    0  0.21263830036E-01 -0.93676252359E-02  0.42870682131E-02  0.23627988154E-01  0.00000000000E+00 0. -1.
     999901    1    3    3    0    0 -0.14013193704E+00  0.48563111920E-01 -0.19209132546E-01  0.89261656180E+00  0.88000000000E+00 0. -1.
        -11    1    4    4    0    0  0.52923774772E-01 -0.21374247097E-01  0.16295302946E-01  0.59359770840E-01  0.51100000000E-03 0.  1.
         11    1    4    4    0    0  0.65944332234E-01 -0.17821239588E-01 -0.13732386134E-02  0.68325679210E-01  0.51100000000E-03 0. -1.
</event>
<event>
 8    1  0.1148488E+005  0.1043930E+01  0.7957747E-01            NaN
         13   -1    0    0    0    0  0.00000000000E+00  0.00000000000E+00  0.74505805969E-08  0.10566000000E+00  0.10566000000E+00 0.  1.
     999900   -1    0    0    0    0 -0.00000000000E+00 -0.00000000000E+00 -0.74505805969E-08  0.93827000000E+00  0.93827000000E+00 0. -1.
     999902    2    1    2    0    0 -0.94942323706E-02 -0.20907204995E-01  0.48863139895E-02  0.10204538902E+01  0.10201838139E+01 0.  0.
     999903    2    3    3    0    0 -0.27016648933E-01  0.12049683206E+00  0.29369774987E-01  0.12865706540E+00  0.20992163746E-01 0.  0.
         14    1    1    2    0    0  0.94942323706E-02  0.20907204995E-01 -0.48863139895E-02  0.23476109844E-01  0.00000000000E+00 0.  1.
     999901    1    3    3    0    0  0.17522416562E-01 -0.14140403706E+00 -0.24483460997E-01  0.89179682475E+00  0.88000000000E+00 0. -1.
        -11    1    4    4    0    0 -0.18451651084E-01  0.65125810842E-01  0.60324494967E-02  0.67959445506E-01  0.51100000000E-03 0.  1.
         11    1    4    4    0    0 -0.85649978492E-02  0.55371021219E-01  0.23337325490E-01  0.60697619896E-01  0.51100000000E-03 0. -1.
</event>
<event>
 8    1  0.1148488E+005  0.1043930E+01  0.7957747E-01            NaN
         13   -1    0    0    0    0  0.00000000000E+00  0.00000000000E+00  0.74505805969E-08  0.10566000000E+00  0.10566000000E+00 0.  1.
     999900   -1    0    0    0    0 -0.00000000000E+00 -0.00000000000E+00 -0.74505805969E-08  0.93827000000E+00  0.93827000000E+00 0.  1.
     999902    2    1    2    0    0 -0.12804278454E-01 -0.15634824309E-01 -0.14141712640E-01  0.10192645319E+01  0.10189660450E+01 0.  0.
     999903    2    3    3    0    0  0.10084621515E+00  0.67591331196E-03 -0.78615941819E-01  0.12946713867E+00  0.20269625497E-01 0.  0.
         14    1    1    2    0    0  0.12804278454E-01  0.15634824309E-01  0.14141712640E-01  0.24665468053E-01  0.00000000000E+00 0.  1.
     999901    1    3    3    0    0 -0.11365049360E+00 -0.16310737621E-01  0.64474229180E-01  0.88979739328E+00  0.88000000000E+00 0.  1.
        -11    1    4    4    0    0  0.21985876232E-01 -0.81771666167E-02 -0.19567229580E-01  0.30551307697E-01  0.51100000000E-03 0. -1.
         11    1    4    4    0    0  0.78860338918E-01  0.88530799286E-02 -0.59048712240E-01  0.98915830971E-01  0.51100000000E-03 0.  1.
</event>
<event>
 8    1  0.1148488E+005  0.1043930E+01  0.7957747E-01            NaN
         13   -1    0    0    0    0  0.00000000000E+00  0.00000000000E+00  0.74505805969E-08  0.10566000000E+00  0.10566000000E+00 0.  1.
     999900   -1    0    0    0    0 -0.00000000000E+00 -0.00000000000E+00 -0.74505805969E-08  0.93827000000E+00  0.93827000000E+00 0.  1.
     999902    2    1    2    0    0  0.23507097397E-01 -0.13804216868E-01 -0.10808897632E-02  0.10166479848E+01  0.10162818588E+01 0.  0.
     999903    2    3    3    0    0  0.17476270703E-01  0.71540875262E-01  0.10102418077E+00  0.12662236659E+00  0.20095316589E-01 0.  0.
         14    1    1    2    0    0 -0.23507097397E-01  0.13804216868E-01  0.10808897632E-02  0.27282015213E-01  0.00000000000E+00 0. -1.
     999901    1    3    3    0    0  0.60308266940E-02 -0.85345092131E-01 -0.10210507054E+00  0.89002561820E+00  0.88000000000E+00 0.  1.
        -11    1    4    4    0    0  0.42229686390E-02  0.13025280295E-01  0.34045616385E-01  0.36699543688E-01  0.51100000000E-03 0.  1.
         11    1    4    4    0    0  0.13253302064E-01  0.58515594967E-01  0.66978564387E-01  0.89922822900E-01  0.51100000000E-03 0. -1.
</event>
<event>
 8    1  0.1148488E+005  0.1043930E+01  0.7957747E-01            NaN
         13   -1    0    0    0    0  0.00000000000E+00  0.00000000000E+00  0.74505805969E-08  0.10566000000E+00  0.10566000000E+00 0.  1.
     999900   -1    0    0    0    0 -0.00000000000E+00 -0.00000000000E+00 -0.74505805969E-08  0.93827000000E+00  0.93827000000E+00 0. -1.
     999902    2    1    2    0    0 -0.18327835001E-01  0.38271804391E-02  0.14106549174E-01  0.10204874836E+01  0.10202181887E+01 0.  0.
     999903    2    3    3    0    0 -0.57391893446E-02  0.10152464516E+00  0.82322736107E-01  0.13236771871E+00  0.20099457890E-01 0.  0.
         14    1    1    2    0    0  0.18327835001E-01 -0.38271804391E-02 -0.14106549174E-01  0.23442516408E-01  0.00000000000E+00 0. -1.
     999901    1    3    3    0    0 -0.12588645657E-01 -0.97697464721E-01 -0.68216186933E-01  0.88811976488E+00  0.88000000000E+00 0. -1.
        -11    1    4    4    0    0 -0.17045972405E-03  0.39310724213E-01  0.19919744971E-01  0.44072887985E-01  0.51100000000E-03 0.  1.
         11    1    4    4    0    0 -0.55687296205E-02  0.62213920947E-01  0.62402991136E-01  0.88294830726E-01  0.51100000000E-03 0. -1.
</event>
<event>
 8    1  0.1148488E+005  0.1043930E+01  0.7957747E-01            NaN
         13   -1    0    0    0    0  0.00000000000E+00  0.00000000000E+00  0.74505805969E-08  0.10566000000E+00  0.10566000000E+00 0. -1.
     999900   -1    0    0    0    0 -0.00000000000E+00 -0.00000000000E+00 -0.74505805969E-08  0.93827000000E+00  0.93827000000E+00 0.  1.
     999902    2    1    2    0    0  0.75029327215E-02 -0.20210639484E-01 -0.86003394388E-02  0.10207194467E+01  0.10204555154E+01 0.  0.
     999903    2    3    3    0    0 -0.12160385388E+00  0.38238501958E-01 -0.88284607548E-02  0.12938061293E+00  0.20290908630E-01 0.  0.
         14    1    1    2    0    0 -0.75029327215E-02  0.20210639484E-01  0.86003394388E-02  0.23210553337E-01  0.00000000000E+00 0.  1.
     999901    1    3    3    0    0  0.12910678660E+00 -0.58449141441E-01  0.22812131596E-03  0.89133883373E+00  0.88000000000E+00 0. -1.
        -11    1    4    4    0    0 -0.11297574604E-01  0.24021758819E-02  0.49614356921E-02  0.12581041532E-01  0.51100000000E-03 0.  1.
         11    1    4    4    0    0 -0.11030627927E+00  0.35836326076E-01 -0.13789896447E-01  0.11679957140E+00  0.51100000000E-03 0. -1.
</event>
<event>
 8    1  0.1148488E+005  0.1043930E+01  0.7957747E-01            NaN
         13   -1    0    0    0    0  0.00000000000E+00  0.00000000000E+00  0.74505805969E-08  0.10566000000E+00  0.10566000000E+00 0. -1.
     999900   -1    0    0    0    0 -0.00000000000E+00 -0.00000000000E+00 -0.74505805969E-08  0.93827000000E+00  0.93827000000E+00 0. -1.
     999902    2    1    2    0    0  0.18897781104E-01  0.13115018603E-01  0.60022013778E-02  0.10201569845E+01  0.10198799522E+01 0.  0.
     999903    2    3    3    0    0  0.23492560495E-02 -0.12687195130E+00  0.11261222861E-01  0.12892308552E+00  0.19807468525E-01 0.  0.
         14    1    1    2    0    0 -0.18897781104E-01 -0.13115018603E-01 -0.60022013778E-02  0.23773015479E-01  0.00000000000E+00 0.  1.
     999901    1    3    3    0    0  0.16548525054E-01  0.13998696990E+00 -0.52590214833E-02  0.89123389900E+00  0.88000000000E+00 0. -1.
        -11    1    4    4    0    0  0.58773166574E-02 -0.92535784483E-01  0.36784974059E-03  0.92724380264E-01  0.51100000000E-03 0. -1.
         11    1    4    4    0    0 -0.35280606079E-02 -0.34336166815E-01  0.10893373121E-01  0.36198705255E-01  0.51100000000E-03 0.  1.
</event>
<event>
 8    1  0.1148488E+005  0.1043930E+01  0.7957747E-01            NaN
         13   -1    0    0    0    0  0.00000000000E+00  0.00000000000E+00  0.74505805969E-08  0.10566000000E+00  0.10566000000E+00 0.  1.
     999900   -1    0    0    0    0 -0.00000000000E+00 -0.00000000000E+00 -0.74505805969E-08  0.93827000000E+00  0.93827000000E+00 0. -1.
     999902    2    1    2    0    0  0.21890066045E-02  0.23969124354E-01 -0.33487612516E-03  0.10198587970E+01  0.10195746873E+01 0.  0.
     999903    2    3    3    0    0 -0.43013725143E-01 -0.87501186094E-01 -0.80592997672E-01  0.12805709081E+00  0.19918562081E-01 0.  0.
         14    1    1    2    0    0 -0.21890066045E-02 -0.23969124354E-01  0.33487612516E-03  0.24071203008E-01  0.00000000000E+00 0. -1.
     999901    1    3    3    0    0  0.45202731748E-01  0.11147031045E+00  0.80258121547E-01  0.89180170618E+00  0.88000000000E+00 0.  1.
        -11    1    4    4    0    0 -0.24252845415E-01 -0.46389090739E-01 -0.30481165363E-01  0.60576487297E-01  0.51100000000E-03 0.  1.
         11    1    4    4    0    0 -0.18760879728E-01 -0.41112095355E-01 -0.50111832309E-01  0.67480603517E-01  0.51100000000E-03 0. -1.
</event>
<event>
 8    1  0.1148488E+005  0.1043930E+01  0.7957747E-01            NaN
         13   -1    0    0    0    0  0.00000000000E+00  0.00000000000E+00  0.74505805969E-08  0.10566000000E+00  0.10566000000E+00 0.  1.
     999900   -1    0    0    0    0 -0.00000000000E+00 -0.00000000000E+00 -0.74505805969E-08  0.93827000000E+00  0.93827000000E+00 0.  1.
     999902    2    1    2    0    0 -0.45659440534E-02  0.12880426454E-01  0.19728782366E-01  0.10199304566E+01  0.10196480560E+01 0.  0.
     999903    2    3    3    0    0 -0.25849706816E-01 -0.12320267020E+00 -0.11173011548E-01  0.12868047559E+00  0.24222372344E-01 0.  0.
         14    1    1    2    0    0  0.45659440534E-02 -0.12880426454E-01 -0.19728782366E-01  0.23999543420E-01  0.00000000000E+00 0.  1.
     999901    1    3    3    0    0  0.21283762762E-01  0.13608309666E+00  0.30901793914E-01  0.89124998099E+00  0.88000000000E+00 0. -1.
        -11    1    4    4    0    0 -0.24977492079E-01 -0.93814230155E-01 -0.17378900094E-01  0.98626934352E-01  0.51100000000E-03 0. -1.
         11    1    4    4    0    0 -0.87221473698E-03 -0.29388440050E-01  0.62058885452E-02  0.30053541235E-01  0.51100000000E-03 0.  1.
</event>
<event>
 8    1  0.1148488E+005  0.1043930E+01  0.7957747E-01            NaN
         13   -1    0    0    0    0  0.00000000000E+00  0.00000000000E+00  0.74505805969E-08  0.10566000000E+00  0.10566000000E+00 0. -1.
     999900   -1    0    0    0    0 -0.00000000000E+00 -0.00000000000E+00 -0.74505805969E-08  0.93827000000E+00  0.93827000000E+00 0.  1.
     999902    2    1    2    0    0  0.27911333860E-02 -0.18997752249E-01  0.13384689370E-01  0.10205236990E+01  0.10202552452E+01 0.  0.
     999903    2    3    3    0    0 -0.35744160122E-01  0.10846428128E+00 -0.54199119774E-01  0.12794366894E+00  0.19745696758E-01 0.  0.
         14    1    1    2    0    0 -0.27911333860E-02  0.18997752249E-01 -0.13384689370E-01  0.23406300981E-01  0.00000000000E+00 0.  1.
     999901    1    3    3    0    0  0.38535293508E-01 -0.12746203353E+00  0.67583809144E-01  0.89258003008E+00  0.88000000000E+00 0. -1.
        -11    1    4    4    0    0 -0.99568915138E-04  0.23719118677E-01 -0.78961245739E-02  0.25004327807E-01  0.51100000000E-03 0.  1.
         11    1    4    4    0    0 -0.35644591207E-01  0.84745162605E-01 -0.46302995201E-01  0.10293934113E+00  0.51100000000E-03 0. -1.
</event>
<event>
 8    1  0.1148488E+005  0.1043930E+01  0.7957747E-01            NaN
         13   -1    0    0    0    0  0.00000000000E+00  0.00000000000E+00  0.74505805969E-08  0.10566000000E+00  0.10566000000E+00 0. -1.
     999900   -1    0    0    0    0 -0.00000000000E+00 -0.00000000000E+00 -0.74505805969E-08  0.93827000000E+00  0.93827000000E+00 0.  1.
     999902    2    1    2    0    0  0.82023531804E-02 -0.20665202323E-01  0.74507432299E-02  0.10204812738E+01  0.10202118346E+01 0.  0.
     999903    2    3    3    0    0 -0.74895215896E-01 -0.10702632232E+00  0.35433083379E-02  0.13234912314E+00  0.20971607672E-01 0.  0.
         14    1    1    2    0    0 -0.82023531804E-02  0.20665202323E-01 -0.74507432299E-02  0.23448726179E-01  0.00000000000E+00 0.  1.
     999901    1    3    3    0    0  0.83097569076E-01  0.86361119993E-01  0.39074348919E-02  0.88813215068E+00  0.88000000000E+00 0.  1.
        -11    1    4    4    0    0 -0.16057462446E-01 -0.13737489210E-01 -0.50079774357E-02  0.21723297839E-01  0.51100000000E-03 0.  1.
         11    1    4    4    0    0 -0.58837753449E-01 -0.93288833106E-01  0.85512857737E-02  0.11062582530E+00  0.51100000000E-03 0. -1.
</event>
<event>
 8    1  0.1148488E+005  0.1043930E+01  0.7957747E-01            NaN
         13   -1    0    0    0    0  0.00000000000E+00  0.00000000000E+00  0.74505805969E-08  0.10566000000E+00  0.10566000000E+00 0. -1.
     999900   -1    0    0    0    0 -0.00000000000E+00 -0.00000000000E+00 -0.74505805969E-08  0.93827000000E+00  0.93827000000E+00 0.  1.
     999902    2    1    2    0    0  0.17944115236E-01 -0.97813565923E-02  0.12740300055E-01  0.10198471959E+01  0.10195628090E+01 0.  0.
     999903    2    3    3    0    0  0.91214081763E-01 -0.21167854255E-01  0.92401362664E-01  0.13314317243E+00  0.20518425297E-01 0.  0.
         14    1    1    2    0    0 -0.17944115236E-01  0.97813565923E-02 -0.12740300055E-01  0.24082804112E-01  0.00000000000E+00 0.  1.
     999901    1    3    3    0    0 -0.73269966527E-01  0.11386497662E-01 -0.79661062609E-01  0.88670402346E+00  0.88000000000E+00 0.  1.
        -11    1    4    4    0    0  0.29342677975E-01 -0.16440397703E-01  0.36286639588E-01  0.49479902596E-01  0.51100000000E-03 0.  1.
         11    1    4    4    0    0  0.61871403788E-01 -0.47274565518E-02  0.56114723076E-01  0.83663269832E-01  0.51100000000E-03 0. -1.
</event>
<event>
 8    1  0.1148488E+005  0.1043930E+01  0.7957747E-01            NaN
         13   -1    0    0    0    0  0.00000000000E+00  0.00000000000E+00  0.74505805969E-08  0.10566000000E+00  0.10566000000E+00 0. -1.
     999900   -1    0    0    0    0 -0.00000000000E+00 -0.00000000000E+00 -0.74505805969E-08  0.93827000000E+00  0.93827000000E+00 0. -1.
     999902    2    1    2    0    0  0.56202246636E-02  0.21575646250E-01 -0.22085347990E-02  0.10215252446E+01  0.10212795173E+01 0.  0.
     999903    2    3    3    0    0  0.12634640280E+00  0.26629500694E-01 -0.27310680880E-01  0.13291370451E+00  0.15736446538E-01 0.  0.
         14    1    1    2    0    0 -0.56202246636E-02 -0.21575646250E-01  0.22085347990E-02  0.22404755351E-01  0.00000000000E+00 0. -1.
     999901    1    3    3    0    0 -0.12072617813E+00 -0.50538544433E-02  0.25102146081E-01  0.88861154014E+00  0.88000000000E+00 0. -1.
        -11    1    4    4    0    0  0.56092201604E-01  0.18287139552E-01 -0.17121020730E-01  0.61434070561E-01  0.51100000000E-03 0. -1.
         11    1    4    4    0    0  0.70254201191E-01  0.83423611413E-02 -0.10189660150E-01  0.71479633948E-01  0.51100000000E-03 0.  1.
</event>
<event>
 8    1  0.1148488E+005  0.1043930E+01  0.7957747E-01            NaN
         13   -1    0    0    0    0  0.00000000000E+00  0.00000000000E+00  0.74505805969E-08  0.10566000000E+00  0.10566000000E+00 0. -1.
     999900   -1    0    0    0    0 -0.00000000000E+00 -0.00000000000E+00 -0.74505805969E-08  0.93827000000E+00  0.93827000000E+00 0.  1.
     999902    2    1    2    0    0  0.74939573793E-02  0.12232224372E-01  0.18873934379E-01  0.10202232054E+01  0.10199477324E+01 0.  0.
     999903    2    3    3    0    0  0.62504710701E-01 -0.39708143715E-01 -0.10320881332E+00  0.12857967682E+00  0.19927333145E-01 0.  0.
         14    1    1    2    0    0 -0.74939573793E-02 -0.12232224372E-01 -0.18873934379E-01  0.23706794579E-01  0.00000000000E+00 0.  1.
     999901    1    3    3    0    0 -0.55010753322E-01  0.51940368087E-01  0.12208274770E+00  0.89164352861E+00  0.88000000000E+00 0. -1.
        -11    1    4    4    0    0  0.53315371631E-01 -0.40268107667E-01 -0.95546605610E-01  0.11659101300E+00  0.51100000000E-03 0.  1.
         11    1    4    4    0    0  0.91893390697E-02  0.55996395201E-03 -0.76622077080E-02  0.11988663817E-01  0.51100000000E-03 0. -1.
</event>
<event>
 8    1  0.1148488E+005  0.1043930E+01  0.7957747E-01            NaN
         13   -1    0    0    0    0  0.00000000000E+00  0.00000000000E+00  0.74505805969E-08  0.10566000000E+00  0.10566000000E+00 0. -1.
     999900   -1    0    0    0    0 -0.00000000000E+00 -0.00000000000E+00 -0.74505805969E-08  0.93827000000E+00  0.93827000000E+00 0.  1.
     999902    2    1    2    0    0  0.10912645199E-01  0.30248939957E-02 -0.20540600967E-01  0.10204746787E+01  0.10202050861E+01 0.  0.
     999903    2    3    3    0    0 -0.12546738613E+00  0.21842338925E-01  0.84213540317E-02  0.12929994611E+00  0.20697925226E-01 0.  0.
         14    1    1    2    0    0 -0.10912645199E-01 -0.30248939957E-02  0.20540600967E-01  0.23455321294E-01  0.00000000000E+00 0. -1.
     999901    1    3    3    0    0  0.13638003133E+00 -0.18817444929E-01 -0.28961954999E-01  0.89117473260E+00  0.88000000000E+00 0.  1.
        -11    1    4    4    0    0 -0.47425939240E-01 -0.18477326933E-02  0.28218505348E-02  0.47548478318E-01  0.51100000000E-03 0. -1.
         11    1    4    4    0    0 -0.78041446889E-01  0.23690071618E-01  0.55995034969E-02  0.81751467793E-01  0.51100000000E-03 0.  1.
</event>
<event>
 8    1  0.1148488E+005  0.1043930E+01  0.7957747E-01            NaN
         13   -1    0    0    0    0  0.00000000000E+00  0.00000000000E+00  0.74505805969E-08  0.10566000000E+00  0.10566000000E+00 0.  1.
     999900   -1    0    0    0    0 -0.00000000000E+00 -0.00000000000E+00 -0.74505805969E-08  0.93827000000E+00  0.93827000000E+00 0.  1.
     999902    2    1    2    0    0  0.11826130910E-01  0.68094848271E-03  0.20729458556E-01  0.10200546672E+01  0.10197752167E+01 0.  0.
     999903    2    3    3    0    0  0.12540190269E+00  0.34147945799E-01  0.13433689744E-01  0.13209480096E+00  0.19412702540E-01 0.  0.
         14    1    1    2    0    0 -0.11826130910E-01 -0.68094848271E-03 -0.20729458556E-01  0.23875332776E-01  0.00000000000E+00 0. -1.
     999901    1    3    3    0    0 -0.11357577178E+00 -0.33466997317E-01  0.72957688116E-02  0.88795986626E+00  0.88000000000E+00 0. -1.
        -11    1    4    4    0    0  0.69418360005E-01  0.14655651808E-01 -0.14789445332E-02  0.70965803269E-01  0.51100000000E-03 0. -1.
         11    1    4    4    0    0  0.55983542690E-01  0.19492293991E-01  0.14912634278E-01  0.61128997695E-01  0.51100000000E-03 0.  1.
</event>
<event>
 8    1  0.1148488E+005  0.1043930E+01  0.7957747E-01            NaN
         13   -1    0    0    0    0  0.00000000000E+00  0.00000000000E+00  0.74505805969E-08  0.10566000000E+00  0.10566000000E+00 0.  1.
     999900   -1    0    0    0    0 -0.00000000000E+00 -0.00000000000E+00 -0.74505805969E-08  0.93827000000E+00  0.93827000000E+00 0.  1.
     999902    2    1    2    0    0 -0.94654349046E-03  0.16768894698E-01  0.16180359823E-01  0.10206084259E+01  0.10203419345E+01 0.  0.
     999903    2    3    3    0    0  0.35519588877E-01  0.12002483060E+00  0.41522271401E-01  0.13345918278E+00  0.20485440982E-01 0.  0.
         14    1    1    2    0    0  0.94654349046E-03 -0.16768894698E-01 -0.16180359823E-01  0.23321574088E-01  0.00000000000E+00 0. -1.
     999901    1    3    3    0    0 -0.36466132368E-01 -0.10325593590E+00 -0.25341911579E-01  0.88714924313E+00  0.88000000000E+00 0.  1.
        -11    1    4    4    0    0  0.37417318023E-01  0.10729417609E+00  0.34326329699E-01  0.11870406035E+00  0.51100000000E-03 0. -1.
         11    1    4    4    0    0 -0.18977291453E-02  0.12730654504E-01  0.71959417027E-02  0.14755122432E-01  0.51100000000E-03 0.  1.
</event>
<event>
 8    1  0.1148488E+005  0.1043930E+01  0.7957747E-01            NaN
         13   -1    0    0    0    0  0.00000000000E+00  0.00000000000E+00  0.74505805969E-08  0.10566000000E+00  0.10566000000E+00 0.  1.
     999900   -1    0    0    0    0 -0.00000000000E+00 -0.00000000000E+00 -0.74505805969E-08  0.93827000000E+00  0.93827000000E+00 0. -1.
     999902    2    1    2    0    0 -0.73655968009E-02  0.10881869609E-01 -0.20475781518E-01  0.10196004967E+01  0.10193101825E+01 0.  0.
     999903    2    3    3    0    0 -0.74356265973E-01  0.82604851064E-01  0.64278600493E-01  0.13009769113E+00  0.21006071703E-01 0.  0.
         14    1    1    2    0    0  0.73655968009E-02 -0.10881869609E-01  0.20475781518E-01  0.24329503308E-01  0.00000000000E+00 0.  1.
     999901    1    3    3    0    0  0.66990669172E-01 -0.71722981455E-01 -0.84754382012E-01  0.88950280556E+00  0.88000000000E+00 0. -1.
        -11    1    4    4    0    0 -0.22882171023E-01  0.12643542107E-01  0.17240543826E-01  0.31320127397E-01  0.51100000000E-03 0.  1.
         11    1    4    4    0    0 -0.51474094950E-01  0.69961308957E-01  0.47038056668E-01  0.98777563738E-01  0.51100000000E-03 0. -1.
</event>
<event>
 8    1  0.1148488E+005  0.1043930E+01  0.7957747E-01            NaN
         13   -1    0    0    0    0  0.00000000000E+00  0.00000000000E+00  0.74505805969E-08  0.10566000000E+00  0.10566000000E+00 0. -1.
     999900   -1    0    0    0    0 -0.00000000000E+00 -0.00000000000E+00 -0.74505805969E-08  0.93827000000E+00  0.93827000000E+00 0.  1.
     999902    2    1    2    0    0  0.22774597399E-01 -0.66288838332E-02 -0.35161950592E-02  0.10199510923E+01  0.10196691829E+01 0.  0.
     999903    2    3    3    0    0  0.12171356691E+00 -0.50509971670E-01 -0.34344834696E-02  0.13332012269E+00  0.19925105539E-01 0.  0.
         14    1    1    2    0    0 -0.22774597399E-01  0.66288838332E-02  0.35161950592E-02  0.23978907716E-01  0.00000000000E+00 0.  1.
     999901    1    3    3    0    0 -0.98938969510E-01  0.43881087837E-01 -0.81711589562E-04  0.88663096959E+00  0.88000000000E+00 0. -1.
        -11    1    4    4    0    0  0.60383660848E-01 -0.25227546258E-01 -0.11657132771E-01  0.66473795236E-01  0.51100000000E-03 0. -1.
         11    1    4    4    0    0  0.61329906061E-01 -0.25282425411E-01  0.82226493018E-02  0.66846327458E-01  0.51100000000E-03 0.  1.
</event>
<event>
 8    1  0.1148488E+005  0.1043930E+01  0.7957747E-01            NaN
         13   -1    0    0    0    0  0.00000000000E+00  0.00000000000E+00  0.74505805969E-08  0.10566000000E+00  0.10566000000E+00 0. -1.
     999900   -1    0    0    0    0 -0.00000000000E+00 -0.00000000000E+00 -0.74505805969E-08  0.93827000000E+00  0.93827000000E+00 0. -1.
     999902    2    1    2    0    0  0.20521465790E-01  0.10810313701E-01 -0.10965042267E-01  0.10182740924E+01  0.10179508346E+01 0.  0.
     999903    2    3    3    0    0 -0.24624839386E-01 -0.11965888541E+00  0.27119060706E-01  0.12669638990E+00  0.19796469074E-01 0.  0.
         14    1    1    2    0    0 -0.20521465790E-01 -0.10810313701E-01  0.10965042267E-01  0.25655907553E-01  0.00000000000E+00 0. -1.
     999901    1    3    3    0    0  0.45146305175E-01  0.13046919911E+00 -0.38084102973E-01  0.89157770255E+00  0.88000000000E+00 0. -1.
        -11    1    4    4    0    0 -0.15284043847E-01 -0.83940360037E-01  0.97034144768E-02  0.85872017636E-01  0.51100000000E-03 0. -1.
         11    1    4    4    0    0 -0.93407955389E-02 -0.35718525369E-01  0.17415646229E-01  0.40824372260E-01  0.51100000000E-03 0.  1.
</event>
<event>
 8    1  0.1148488E+005  0.1043930E+01  0.7957747E-01            NaN
         13   -1    0    0    0    0  0.00000000000E+00  0.00000000000E+00  0.74505805969E-08  0.10566000000E+00  0.10566000000E+00 0. -1.
     999900   -1    0    0    0    0 -0.00000000000E+00 -0.00000000000E+00 -0.74505805969E-08  0.93827000000E+00  0.93827000000E+00 0.  1.
     999902    2    1    2    0    0 -0.84125942530E-03  0.18718229204E-01 -0.13278468166E-01  0.10209648625E+01  0.10207065460E+01 0.  0.
     999903    2    3    3    0    0  0.91107495566E-01  0.73501855503E-01 -0.61836504044E-01  0.13315086056E+00  0.14223217803E-01 0.  0.
         14    1    1    2    0    0  0.84125942530E-03 -0.18718229204E-01  0.13278468166E-01  0.22965137465E-01  0.00000000000E+00 0. -1.
     999901    1    3    3    0    0 -0.91948754992E-01 -0.54783626299E-01  0.48558035878E-01  0.88781400198E+00  0.88000000000E+00 0. -1.
        -11    1    4    4    0    0  0.58890696879E-01  0.51822126620E-01 -0.34729492843E-01  0.85790709173E-01  0.51100000000E-03 0. -1.
         11    1    4    4    0    0  0.32216798687E-01  0.21679728883E-01 -0.27107011201E-01  0.47360151386E-01  0.51100000000E-03 0.  1.
</event>
<event>
 8    1  0.1148488E+005  0.1043930E+01  0.7957747E-01            NaN
         13   -1    0    0    0    0  0.00000000000E+00  0.00000000000E+00  0.74505805969E-08  0.10566000000E+00  0.10566000000E+00 0. -1.
     999900   -1    0    0    0    0 -0.00000000000E+00 -0.00000000000E+00 -0.74505805969E-08  0.93827000000E+00  0.93827000000E+00 0. -1.
     999902    2    1    2    0    0  0.16947187316E-01 -0.15220452189E-02  0.18241706577E-01  0.10189843864E+01  0.10186789956E+01 0.  0.
     999903    2    3    3    0    0  0.25887956434E-01  0.81600044533E-01 -0.92926229646E-01  0.12805928898E+00  0.20860100210E-01 0.  0.
         14    1    1    2    0    0 -0.16947187316E-01  0.15220452189E-02 -0.18241706577E-01  0.24945613610E-01  0.00000000000E+00 0. -1.
     999901    1    3    3    0    0 -0.89407691185E-02 -0.83122089752E-01  0.11116793622E+00  0.89092509741E+00  0.88000000000E+00 0.  1.
        -11    1    4    4    0    0  0.32943627350E-02  0.39498334720E-01 -0.34235971244E-01  0.52376847170E-01  0.51100000000E-03 0. -1.
         11    1    4    4    0    0  0.22593593699E-01  0.42101709813E-01 -0.58690258402E-01  0.75682441806E-01  0.51100000000E-03 0.  1.
</event>
<event>
 7    1  0.1148488E+005  0.1043930E+01  0.7957747E-01            NaN
         13   -1    0    0    0    0  0.00000000000E+00  0.00000000000E+00  0.74505805969E-08  0.10566000000E+00  0.10566000000E+00 0. -1.
     999900   -1    0    0    0    0 -0.00000000000E+00 -0.00000000000E+00 -0.74505805969E-08  0.93827000000E+00  0.93827000000E+00 0.  1.
     999902    2    1    2    0    0 -0.24694024686E-01 -0.13945526275E-02  0.14163929958E-01  0.10154281309E+01  0.10150280451E+01 0.  0.
         14    1    1    2    0    0  0.24694024686E-01  0.13945526275E-02 -0.14163929958E-01  0.28501869133E-01  0.00000000000E+00 0.  1.
     999901    1    3    3    0    0  0.43399365241E-01 -0.96010805546E-01  0.19969391642E-01  0.88651021217E+00  0.88000000000E+00 0. -1.
        -11    1    3    3    0    0 -0.43412545006E-01  0.40565055234E-01 -0.27744089298E-01  0.65575669131E-01  0.51100000000E-03 0.  1.
         11    1    3    3    0    0 -0.24680844921E-01  0.54051197684E-01  0.21938627613E-01  0.63342249563E-01  0.51100000000E-03 0. -1.
</event>
<event>
 8    1  0.1148488E+005  0.1043930E+01  0.7957747E-01            NaN
         13   -1    0    0    0    0  0.00000000000E+00  0.00000000000E+00  0.74505805969E-08  0.10566000000E+00  0.10566000000E+00 0. -1.
     999900   -1    0    0    0    0 -0.00000000000E+00 -0.00000000000E+00 -0.74505805969E-08  0.93827000000E+00  0.93827000000E+00 0. -1.
     999902    2    1    2    0    0 -0.37263944706E-02  0.22645665408E-01  0.62251332876E-02  0.10201505033E+01  0.10198733181E+01 0.  0.
     999903    2    3    3    0    0 -0.56215739887E-01 -0.10160890728E+00 -0.50185097153E-01  0.12808747623E+00  0.20081786296E-01 0.  0.
         14    1    1    2    0    0  0.37263944706E-02 -0.22645665408E-01 -0.62251332876E-02  0.23779496672E-01  0.00000000000E+00 0.  1.
     999901    1    3    3    0    0  0.52489345416E-01  0.12425457269E+00  0.56410230440E-01  0.89206302710E+00  0.88000000000E+00 0.  1.
        -11    1    4    4    0    0 -0.36161925097E-01 -0.77952969494E-01 -0.43673209826E-01  0.96394816547E-01  0.51100000000E-03 0.  1.
         11    1    4    4    0    0 -0.20053814790E-01 -0.23655937787E-01 -0.65118873266E-02  0.31692659683E-01  0.51100000000E-03 0. -1.
</event>
<event>
 8    1  0.1148488E+005  0.1043930E+01  0.7957747E-01            NaN
         13   -1    0    0    0    0  0.00000000000E+00  0.00000000000E+00  0.74505805969E-08  0.10566000000E+00  0.10566000000E+00 0. -1.
     999900   -1    0    0    0    0 -0.00000000000E+00 -0.00000000000E+00 -0.74505805969E-08  0.93827000000E+00  0.93827000000E+00 0. -1.
     999902    2    1    2    0    0 -0.13562907560E-01  0.12868127928E-01  0.15301887193E-01  0.10197703450E+01  0.10194841184E+01 0.  0.
     999903    2    3    3    0    0 -0.58375411295E-01  0.11432573954E+00 -0.24007260952E-01  0.13193758115E+00  0.18791311166E-01 0.  0.
         14    1    1    2    0    0  0.13562907560E-01 -0.12868127928E-01 -0.15301887193E-01  0.24159654996E-01  0.00000000000E+00 0.  1.
     999901    1    3    3    0    0  0.44812503735E-01 -0.10145761161E+00  0.39309148145E-01  0.88783276385E+00  0.88000000000E+00 0. -1.
        -11    1    4    4    0    0 -0.31979209003E-01  0.81880779538E-01 -0.16328789363E-01  0.89409296773E-01  0.51100000000E-03 0.  1.
         11    1    4    4    0    0 -0.26396202292E-01  0.32444960004E-01 -0.76784715893E-02  0.42528284377E-01  0.51100000000E-03 0. -1.
</event>
<event>
 8    1  0.1148488E+005  0.1043930E+01  0.7957747E-01            NaN
         13   -1    0    0    0    0  0.00000000000E+00  0.00000000000E+00  0.74505805969E-08  0.10566000000E+00  0.10566000000E+00 0. -1.
     999900   -1    0    0    0    0 -0.00000000000E+00 -0.00000000000E+00 -0.74505805969E-08  0.93827000000E+00  0.93827000000E+00 0. -1.
     999902    2    1    2    0    0 -0.12714704937E-02 -0.25102912361E-01  0.74086091360E-03  0.10187839919E+01  0.10184736131E+01 0.  0.
     999903    2    3    3    0    0 -0.11328289723E+00 -0.62566176300E-01 -0.36516024105E-02  0.13088233658E+00  0.19217455790E-01 0.  0.
         14    1    1    2    0    0  0.12714704937E-02  0.25102912361E-01 -0.74086091360E-03  0.25146008055E-01  0.00000000000E+00 0. -1.
     999901    1    3    3    0    0  0.11201142674E+00  0.37463263939E-01  0.43924633241E-02  0.88790165536E+00  0.88000000000E+00 0.  1.
        -11    1    4    4    0    0 -0.21804922972E-01 -0.76750841907E-02 -0.69604769364E-02  0.24146861977E-01  0.51100000000E-03 0. -1.
         11    1    4    4    0    0 -0.91477974258E-01 -0.54891092109E-01  0.33088745258E-02  0.10673547460E+00  0.51100000000E-03 0.  1.
</event>
<event>
 8    1  0.1148488E+005  0.1043930E+01  0.7957747E-01            NaN
         13   -1    0    0    0    0  0.00000000000E+00  0.00000000000E+00  0.74505805969E-08  0.10566000000E+00  0.10566000000E+00 0.  1.
     999900   -1    0    0    0    0 -0.00000000000E+00 -0.00000000000E+00 -0.74505805969E-08  0.93827000000E+00  0.93827000000E+00 0. -1.
     999902    2    1    2    0    0 -0.48385895820E-02  0.23604584167E-01 -0.58463545843E-02  0.10191354803E+01  0.10188338231E+01 0.  0.
     999903    2    3    3    0    0  0.88168182793E-01 -0.55842809446E-01 -0.71644729693E-01  0.12824178623E+00  0.20516837420E-01 0.  0.
         14    1    1    2    0    0  0.48385895820E-02 -0.23604584167E-01  0.58463545843E-02  0.24794519652E-01  0.00000000000E+00 0.  1.
     999901    1    3    3    0    0 -0.93006772375E-01  0.79447393614E-01  0.65798375109E-01  0.89089369412E+00  0.88000000000E+00 0.  1.
        -11    1    4    4    0    0  0.28709709004E-01 -0.26015705329E-01 -0.17712403339E-01  0.42603458403E-01  0.51100000000E-03 0. -1.
         11    1    4    4    0    0  0.59458473789E-01 -0.29827104118E-01 -0.53932326354E-01  0.85638327823E-01  0.51100000000E-03 0.  1.
</event>
<event>
 8    1  0.1148488E+005  0.1043930E+01  0.7957747E-01            NaN
         13   -1    0    0    0    0  0.00000000000E+00  0.00000000000E+00  0.74505805969E-08  0.10566000000E+00  0.10566000000E+00 0.  1.
     999900   -1    0    0    0    0 -0.00000000000E+00 -0.00000000000E+00 -0.74505805969E-08  0.93827000000E+00  0.93827000000E+00 0. -1.
     999902    2    1    2    0    0  0.41434470057E-03  0.18999024398E-01 -0.13339105394E-01  0.10207121977E+01  0.10204480997E+01 0.  0.
     999903    2    3    3    0    0 -0.23342341325E-01  0.24534401937E-01  0.12356434211E+00  0.12979268707E+00  0.20765191982E-01 0.  0.
         14    1    1    2    0    0 -0.41434470057E-03 -0.18999024398E-01  0.13339105394E-01  0.23217802272E-01  0.00000000000E+00 0.  1.
     999901    1    3    3    0    0  0.23756686025E-01 -0.55353775389E-02 -0.13690344751E+00  0.89091951066E+00  0.88000000000E+00 0. -1.
        -11    1    4    4    0    0 -0.23786912602E-01  0.11250840788E-01  0.77525481578E-01  0.81870996357E-01  0.51100000000E-03 0.  1.
         11    1    4    4    0    0  0.44457127704E-03  0.13283561149E-01  0.46038860533E-01  0.47921690711E-01  0.51100000000E-03 0. -1.
</event>
<event>
 8    1  0.1148488E+005  0.1043930E+01  0.7957747E-01            NaN
         13   -1    0    0    0    0  0.00000000000E+00  0.00000000000E+00  0.74505805969E-08  0.10566000000E+00  0.10566000000E+00 0. -1.
     999900   -1    0    0    0    0 -0.00000000000E+00 -0.00000000000E+00 -0.74505805969E-08  0.93827000000E+00  0.93827000000E+00 0. -1.
     999902    2    1    2    0    0  0.52712132911E-02 -0.23498986881E-01  0.75385337692E-03  0.10198352626E+01  0.10195505905E+01 0.  0.
     999903    2    3    3    0    0 -0.17598438224E-01 -0.45808805406E-01 -0.12068409081E+00  0.13092136171E+00  0.12946099626E-01 0.  0.
         14    1    1    2    0    0 -0.52712132911E-02  0.23498986881E-01 -0.75385337692E-03  0.24094737369E-01  0.00000000000E+00 0.  1.
     999901    1    3    3    0    0  0.22869651516E-01  0.22309818526E-01  0.12143794419E+00  0.88891390092E+00  0.88000000000E+00 0.  1.
        -11    1    4    4    0    0 -0.14949907529E-01 -0.23960739348E-01 -0.76697519497E-01  0.81733636792E-01  0.51100000000E-03 0.  1.
         11    1    4    4    0    0 -0.26485306952E-02 -0.21848066058E-01 -0.43986571316E-01  0.49187724917E-01  0.51100000000E-03 0. -1.
</event>
<event>
 8    1  0.1148488E+005  0.1043930E+01  0.7957747E-01            NaN
         13   -1    0    0    0    0  0.00000000000E+00  0.00000000000E+00  0.74505805969E-08  0.10566000000E+00  0.10566000000E+00 0.  1.
     999900   -1    0    0    0    0 -0.00000000000E+00 -0.00000000000E+00 -0.74505805969E-08  0.93827000000E+00  0.93827000000E+00 0.  1.
     999902    2    1    2    0    0  0.22470293847E-01 -0.37001401256E-02  0.38869090699E-02  0.10208277662E+01  0.10205663208E+01 0.  0.
     999903    2    3    3    0    0  0.56164772238E-01  0.41196977377E-01 -0.10978971020E+00  0.13174203202E+00  0.21225219650E-01 0.  0.
         14    1    1    2    0    0 -0.22470293847E-01  0.37001401256E-02 -0.38869090699E-02  0.23102233759E-01  0.00000000000E+00 0.  1.
     999901    1    3    3    0    0 -0.33694478391E-01 -0.44897117503E-01  0.11367661927E+00  0.88908573422E+00  0.88000000000E+00 0. -1.
        -11    1    4    4    0    0  0.16774094949E-01  0.23684458207E-01 -0.35580070283E-01  0.45918692754E-01  0.51100000000E-03 0.  1.
         11    1    4    4    0    0  0.39390677289E-01  0.17512519170E-01 -0.74209639914E-01  0.85823339262E-01  0.51100000000E-03 0. -1.
</event>
<event>
 8    1  0.1148488E+005  0.1043930E+01  0.7957747E-01            NaN
         13   -1    0    0    0    0  0.00000000000E+00  0.00000000000E+00  0.74505805969E-08  0.10566000000E+00  0.10566000000E+00 0.  1.
     999900   -1    0    0    0    0 -0.00000000000E+00 -0.00000000000E+00 -0.74505805969E-08  0.93827000000E+00  0.93827000000E+00 0. -1.
     999902    2    1    2    0    0  0.15001979944E-02 -0.18151988325E-02 -0.26259753012E-01  0.10175648683E+01  0.10172232503E+01 0.  0.
     999903    2    3    3    0    0  0.78027084162E-01 -0.49776623071E-01 -0.89944173922E-01  0.13065316583E+00  0.20355767061E-01 0.  0.
         14    1    1    2    0    0 -0.15001979944E-02  0.18151988325E-02  0.26259753012E-01  0.26365131691E-01  0.00000000000E+00 0.  1.
     999901    1    3    3    0    0 -0.76526886168E-01  0.47961424238E-01  0.63684420910E-01  0.88691170248E+00  0.88000000000E+00 0.  1.
        -11    1    4    4    0    0  0.46844707162E-01 -0.41192638439E-01 -0.60928513209E-01  0.87199798701E-01  0.51100000000E-03 0. -1.
         11    1    4    4    0    0  0.31182377000E-01 -0.85839846323E-02 -0.29015660713E-01  0.43453367133E-01  0.51100000000E-03 0.  1.
</event>
<event>
 8    1  0.1148488E+005  0.1043930E+01  0.7957747E-01            NaN
         13   -1    0    0    0    0  0.00000000000E+00  0.00000000000E+00  0.74505805969E-08  0.10566000000E+00  0.10566000000E+00 0.  1.
     999900   -1    0    0    0    0 -0.00000000000E+00 -0.00000000000E+00 -0.74505805969E-08  0.93827000000E+00  0.93827000000E+00 0. -1.
     999902    2    1    2    0    0  0.11241533534E-01  0.81677723700E-02  0.19610292121E-01  0.10198956883E+01  0.10196124592E+01 0.  0.
     999903    2    3    3    0    0 -0.92046038795E-02  0.10106670377E+00 -0.77725545908E-01  0.12943371755E+00  0.20313133909E-01 0.  0.
         14    1    1    2    0    0 -0.11241533534E-01 -0.81677723700E-02 -0.19610292121E-01  0.24034311697E-01  0.00000000000E+00 0. -1.
     999901    1    3    3    0    0  0.20446137414E-01 -0.92898931399E-01  0.97335838029E-01  0.89046197075E+00  0.88000000000E+00 0.  1.
        -11    1    4    4    0    0  0.12804278602E-02  0.13511265598E-02 -0.55923982425E-02  0.59161708553E-02  0.51100000000E-03 0. -1.
         11    1    4    4    0    0 -0.10485031740E-01  0.99715577209E-01 -0.72133147665E-01  0.12351754670E+00  0.51100000000E-03 0.  1.
</event>
<event>
 8    1  0.1148488E+005  0.1043930E+01  0.7957747E-01            NaN
         13   -1    0    0    0    0  0.00000000000E+00  0.00000000000E+00  0.74505805969E-08  0.10566000000E+00  0.10566000000E+00 0.  1.
     999900   -1    0    0    0    0 -0.00000000000E+00 -0.00000000000E+00 -0.74505805969E-08  0.93827000000E+00  0.93827000000E+00 0. -1.
     999902    2    1    2    0    0  0.20888859830E-01 -0.83203540207E-02 -0.61053376840E-02  0.10206309034E+01  0.10203649313E+01 0.  0.
     999903    2    3    3    0    0 -0.57510110075E-01 -0.10010639132E+00  0.56442531331E-01  0.13019094972E+00  0.20861967819E-01 0.  0.
         14    1    1    2    0    0 -0.20888859830E-01  0.83203540207E-02  0.61053376840E-02  0.23299096640E-01  0.00000000000E+00 0.  1.
     999901    1    3    3    0    0  0.78398969904E-01  0.91786037299E-01 -0.62547869015E-01  0.89043995364E+00  0.88000000000E+00 0. -1.
        -11    1    4    4    0    0 -0.48112781777E-01 -0.68122598625E-01  0.34364027632E-01  0.90203523932E-01  0.51100000000E-03 0.  1.
         11    1    4    4    0    0 -0.93973282975E-02 -0.31983792695E-01  0.22078503699E-01  0.39987425784E-01  0.51100000000E-03 0. -1.
</event>
<event>
 8    1  0.1148488E+005  0.1043930E+01  0.7957747E-01            NaN
         13   -1    0    0    0    0  0.00000000000E+00  0.00000000000E+00  0.74505805969E-08  0.10566000000E+00  0.10566000000E+00 0.  1.
     999900   -1    0    0    0    0 -0.00000000000E+00 -0.00000000000E+00 -0.74505805969E-08  0.93827000000E+00  0.93827000000E+00 0.  1.
     999902    2    1    2    0    0 -0.17823701994E-01 -0.14469470209E-01 -0.23543713964E-02  0.10208520238E+01  0.10205911334E+01 0.  0.
     999903    2    3    3    0    0  0.12068362926E+00 -0.40992985821E-01  0.10855267286E-01  0.12952589255E+00  0.20350841649E-01 0.  0.
         14    1    1    2    0    0  0.17823701994E-01  0.14469470209E-01  0.23543713964E-02  0.23077976202E-01  0.00000000000E+00 0.  1.
     999901    1    3    3    0    0 -0.13850733125E+00  0.26523515612E-01 -0.13209638683E-01  0.89132613125E+00  0.88000000000E+00 0.  1.
        -11    1    4    4    0    0  0.48200531464E-01 -0.10835590723E-01  0.12640333128E-01  0.50997454861E-01  0.51100000000E-03 0.  1.
         11    1    4    4    0    0  0.72483097793E-01 -0.30157395098E-01 -0.17850658415E-02  0.78528437689E-01  0.51100000000E-03 0. -1.
</event>
<event>
 8    1  0.1148488E+005  0.1043930E+01  0.7957747E-01            NaN
         13   -1    0    0    0    0  0.00000000000E+00  0.00000000000E+00  0.74505805969E-08  0.10566000000E+00  0.10566000000E+00 0.  1.
     999900   -1    0    0    0    0 -0.00000000000E+00 -0.00000000000E+00 -0.74505805969E-08  0.93827000000E+00  0.93827000000E+00 0.  1.
     999902    2    1    2    0    0 -0.21743929359E-01 -0.24829623852E-02  0.77501771459E-02  0.10207130060E+01  0.10204489266E+01 0.  0.
     999903    2    3    3    0    0 -0.80601355094E-01 -0.16689005318E-01  0.10323500693E+00  0.13347946234E+00  0.19600991504E-01 0.  0.
         14    1    1    2    0    0  0.21743929359E-01  0.24829623852E-02 -0.77501771459E-02  0.23216994034E-01  0.00000000000E+00 0.  1.
     999901    1    3    3    0    0  0.58857425734E-01  0.14206042933E-01 -0.95484829787E-01  0.88723354363E+00  0.88000000000E+00 0.  1.
        -11    1    4    4    0    0 -0.78387533204E-01 -0.12235799139E-01  0.94252871342E-01  0.12319977686E+00  0.51100000000E-03 0. -1.
         11    1    4    4    0    0 -0.22138218899E-02 -0.44532061793E-02  0.89821355917E-02  0.10279685473E-01  0.51100000000E-03 0.  1.
</event>
<event>
 8    1  0.1148488E+005  0.1043930E+01  0.7957747E-01            NaN
         13   -1    0    0    0    0  0.00000000000E+00  0.00000000000E+00  0.74505805969E-08  0.10566000000E+00  0.10566000000E+00 0.  1.
     999900   -1    0    0    0    0 -0.00000000000E+00 -0.00000000000E+00 -0.74505805969E-08  0.93827000000E+00  0.93827000000E+00 0. -1.
     999902    2    1    2    0    0 -0.10644558493E-01 -0.12135916980E-01 -0.17553322637E-01  0.10200824374E+01  0.10198036443E+01 0.  0.
     999903    2    3    3    0    0  0.36267910387E-01  0.80632699022E-01  0.89386177588E-01  0.12753392188E+00  0.21401378694E-01 0.  0.
         14    1    1    2    0    0  0.10644558493E-01  0.12135916980E-01  0.17553322637E-01  0.23847562602E-01  0.00000000000E+00 0.  1.
     999901    1    3    3    0    0 -0.46912468880E-01 -0.92768616002E-01 -0.10693950023E+00  0.89254851552E+00  0.88000000000E+00 0. -1.
        -11    1    4    4    0    0  0.54707788934E-02  0.37836356415E-01  0.36863058686E-01  0.53109937914E-01  0.51100000000E-03 0.  1.
         11    1    4    4    0    0  0.30797131493E-01  0.42796342606E-01  0.52523118902E-01  0.74423983963E-01  0.51100000000E-03 0. -1.
</event>
<event>
 8    1  0.1148488E+005  0.1043930E+01  0.7957747E-01            NaN
         13   -1    0    0    0    0  0.00000000000E+00  0.00000000000E+00  0.74505805969E-08  0.10566000000E+00  0.10566000000E+00 0.  1.
     999900   -1    0    0    0    0 -0.00000000000E+00 -0.00000000000E+00 -0.74505805969E-08  0.93827000000E+00  0.93827000000E+00 0. -1.
     999902    2    1    2    0    0  0.12114158722E-01 -0.78219385034E-02  0.18280113934E-01  0.10206469991E+01  0.10203813987E+01 0.  0.
     999903    2    3    3    0    0 -0.99007469641E-01 -0.43285474181E-01 -0.66298723429E-01  0.12892997094E+00  0.23479892656E-01 0.  0.
         14    1    1    2    0    0 -0.12114158722E-01  0.78219385034E-02 -0.18280113934E-01  0.23283000857E-01  0.00000000000E+00 0. -1.
     999901    1    3    3    0    0  0.11112162836E+00  0.35463535678E-01  0.84578837363E-01  0.89171702820E+00  0.88000000000E+00 0.  1.
        -11    1    4    4    0    0 -0.56500785445E-01 -0.12845113850E-01 -0.29736186935E-01  0.65129391523E-01  0.51100000000E-03 0. -1.
         11    1    4    4    0    0 -0.42506684196E-01 -0.30440360331E-01 -0.36562536494E-01  0.63800579420E-01  0.51100000000E-03 0.  1.
</event>
<event>
 8    1  0.1148488E+005  0.1043930E+01  0.7957747E-01            NaN
         13   -1    0    0    0    0  0.00000000000E+00  0.00000000000E+00  0.74505805969E-08  0.10566000000E+00  0.10566000000E+00 0. -1.
     999900   -1    0    0    0    0 -0.00000000000E+00 -0.00000000000E+00 -0.74505805969E-08  0.93827000000E+00  0.93827000000E+00 0. -1.
     999902    2    1    2    0    0  0.22310655248E-01 -0.20005906282E-02  0.96482477137E-02  0.10195403222E+01  0.10192485527E+01 0.  0.
     999903    2    3    3    0    0 -0.84756512635E-01  0.24486722732E-01 -0.89739434420E-01  0.12710384401E+00  0.17859312609E-01 0.  0.
         14    1    1    2    0    0 -0.22310655248E-01  0.20005906282E-02 -0.96482477137E-02  0.24389677825E-01  0.00000000000E+00 0. -1.
     999901    1    3    3    0    0  0.10706716788E+00 -0.26487313360E-01  0.99387682134E-01  0.89243647817E+00  0.88000000000E+00 0.  1.
        -11    1    4    4    0    0 -0.16614581840E-01  0.12144869810E-01 -0.23973909539E-01  0.31599867911E-01  0.51100000000E-03 0. -1.
         11    1    4    4    0    0 -0.68141930795E-01  0.12341852921E-01 -0.65765524881E-01  0.95503976095E-01  0.51100000000E-03 0.  1.
</event>
<event>
 8    1  0.1148488E+005  0.1043930E+01  0.7957747E-01            NaN
         13   -1    0    0    0    0  0.00000000000E+00  0.00000000000E+00  0.74505805969E-08  0.10566000000E+00  0.10566000000E+00 0.  1.
     999900   -1    0    0    0    0 -0.00000000000E+00 -0.00000000000E+00 -0.74505805969E-08  0.93827000000E+00  0.93827000000E+00 0. -1.
     999902    2    1    2    0    0 -0.13302327260E-01  0.43930559631E-02 -0.19223291827E-01  0.10201437477E+01  0.10198664031E+01 0.  0.
     999903    2    3    3    0    0 -0.12270331103E+00 -0.10618862878E-01  0.40686875098E-01  0.13122127577E+00  0.19868030133E-01 0.  0.
         14    1    1    2    0    0  0.13302327260E-01 -0.43930559631E-02  0.19223291827E-01  0.23786252330E-01  0.00000000000E+00 0.  1.
     999901    1    3    3    0    0  0.10940098377E+00  0.15011918841E-01 -0.59910166925E-01  0.88892247191E+00  0.88000000000E+00 0. -1.
        -11    1    4    4    0    0 -0.92344803339E-01 -0.25553470389E-02  0.37286590252E-01  0.99622504666E-01  0.51100000000E-03 0. -1.
         11    1    4    4    0    0 -0.30358507692E-01 -0.80635158387E-02  0.34002848465E-02  0.31598771099E-01  0.51100000000E-03 0.  1.
</event>
<event>
 8    1  0.1148488E+005  0.1043930E+01  0.7957747E-01            NaN
         13   -1    0    0    0    0  0.00000000000E+00  0.00000000000E+00  0.74505805969E-08  0.10566000000E+00  0.10566000000E+00 0. -1.
     999900   -1    0    0    0    0 -0.00000000000E+00 -0.00000000000E+00 -0.74505805969E-08  0.93827000000E+00  0.93827000000E+00 0. -1.
     999902    2    1    2    0    0  0.16617831177E-01  0.12838397099E-01  0.11122437336E-01  0.10201668907E+01  0.10198900918E+01 0.  0.
     999903    2    3    3    0    0 -0.18226316942E-01 -0.29291771924E-01 -0.12211516717E+00  0.12845991802E+00  0.19990746678E-01 0.  0.
         14    1    1    2    0    0 -0.16617831177E-01 -0.12838397099E-01 -0.11122437336E-01  0.23763109338E-01  0.00000000000E+00 0. -1.
     999901    1    3    3    0    0  0.34844148119E-01  0.42130169022E-01  0.13323760451E+00  0.89170697264E+00  0.88000000000E+00 0.  1.
        -11    1    4    4    0    0  0.76874723052E-03 -0.77261095129E-02 -0.53572558758E-01  0.54134683092E-01  0.51100000000E-03 0. -1.
         11    1    4    4    0    0 -0.18995064173E-01 -0.21565662411E-01 -0.68542608415E-01  0.74325234930E-01  0.51100000000E-03 0.  1.
</event>
<event>
 8    1  0.1148488E+005  0.1043930E+01  0.7957747E-01            NaN
         13   -1    0    0    0    0  0.00000000000E+00  0.00000000000E+00  0.74505805969E-08  0.10566000000E+00  0.10566000000E+00 0.  1.
     999900   -1    0    0    0    0 -0.00000000000E+00 -0.00000000000E+00 -0.74505805969E-08  0.93827000000E+00  0.93827000000E+00 0. -1.
     999902    2    1    2    0    0  0.81246249916E-02 -0.22503678283E-01 -0.47829861760E-02  0.10195311881E+01  0.10192391973E+01 0.  0.
     999903    2    3    3    0    0 -0.72911498353E-01  0.37057938209E-01  0.96196097925E-01  0.12806542042E+00  0.21393580211E-01 0.  0.
         14    1    1    2    0    0 -0.81246249916E-02  0.22503678283E-01  0.47829861760E-02  0.24398811944E-01  0.00000000000E+00 0. -1.
     999901    1    3    3    0    0  0.81036123345E-01 -0.59561616492E-01 -0.10097908410E+00  0.89146576764E+00  0.88000000000E+00 0. -1.
        -11    1    4    4    0    0 -0.54115944840E-01  0.36406284150E-01  0.68520930014E-01  0.94600908995E-01  0.51100000000E-03 0.  1.
         11    1    4    4    0    0 -0.18795553513E-01  0.65165405846E-03  0.27675167911E-01  0.33464511423E-01  0.51100000000E-03 0. -1.
</event>
<event>
 7    1  0.1148488E+005  0.1043930E+01  0.7957747E-01            NaN
         13   -1    0    0    0    0  0.00000000000E+00  0.00000000000E+00  0.74505805969E-08  0.10566000000E+00  0.10566000000E+00 0. -1.
     999900   -1    0    0    0    0 -0.00000000000E+00 -0.00000000000E+00 -0.74505805969E-08  0.93827000000E+00  0.93827000000E+00 0. -1.
     999903    2    1    2    0    0  0.24921003366E-01  0.24762814072E-01  0.83684065661E-01  0.92959311141E-01  0.20103664162E-01 0.  0.
         14    1    1    2    0    0 -0.10521341363E-01  0.52841076263E-01  0.27464087077E-01  0.60474408172E-01  0.00000000000E+00 0. -1.
     999901    1    1    2    0    0 -0.14399662003E-01 -0.77603890335E-01 -0.11114815274E+00  0.89049628069E+00  0.88000000000E+00 0. -1.
        -11    1    3    3    0    0  0.15040932574E-01  0.26455574113E-01  0.63463772746E-01  0.70384931814E-01  0.51100000000E-03 0. -1.
         11    1    3    3    0    0  0.98800707920E-02 -0.16927600416E-02  0.20220292915E-01  0.22574379327E-01  0.51100000000E-03 0.  1.
</event>
<event>
 8    1  0.1148488E+005  0.1043930E+01  0.7957747E-01            NaN
         13   -1    0    0    0    0  0.00000000000E+00  0.00000000000E+00  0.74505805969E-08  0.10566000000E+00  0.10566000000E+00 0. -1.
     999900   -1    0    0    0    0 -0.00000000000E+00 -0.00000000000E+00 -0.74505805969E-08  0.93827000000E+00  0.93827000000E+00 0.  1.
     999902    2    1    2    0    0  0.41491428393E-02  0.99174546527E-02 -0.20852009888E-01  0.10204698719E+01  0.10202001676E+01 0.  0.
     999903    2    3    3    0    0 -0.84371503171E-02  0.13876997547E-01  0.12540454557E+00  0.12830112512E+00  0.21705347041E-01 0.  0.
         14    1    1    2    0    0 -0.41491428393E-02 -0.99174546527E-02  0.20852009888E-01  0.23460128078E-01  0.00000000000E+00 0. -1.
     999901    1    3    3    0    0  0.12586293156E-01 -0.39595428948E-02 -0.14625655546E+00  0.89216874680E+00  0.88000000000E+00 0.  1.
        -11    1    4    4    0    0  0.59407192674E-02  0.10614839297E-01  0.49401650761E-01  0.50879771792E-01  0.51100000000E-03 0.  1.
         11    1    4    4    0    0 -0.14377869584E-01  0.32621582506E-02  0.76002894812E-01  0.77421353327E-01  0.51100000000E-03 0. -1.
</event>
<event>
 8    1  0.1148488E+005  0.1043930E+01  0.7957747E-01            NaN
         13   -1    0    0    0    0  0.00000000000E+00  0.00000000000E+00  0.74505805969E-08  0.10566000000E+00  0.10566000000E+00 0. -1.
     999900   -1    0    0    0    0 -0.00000000000E+00 -0.00000000000E+00 -0.74505805969E-08  0.93827000000E+00  0.93827000000E+00 0. -1.
     999902    2    1    2    0    0  0.20977820488E-01  0.24101113004E-02 -0.10676933142E-01  0.10202683329E+01  0.10199939199E+01 0.  0.
     999903    2    3    3    0    0 -0.36030804162E-02  0.51731821444E-01 -0.11921067342E+00  0.13188979614E+00  0.22238932796E-01 0.  0.
         14    1    1    2    0    0 -0.20977820488E-01 -0.24101113004E-02  0.10676933142E-01  0.23661667106E-01  0.00000000000E+00 0. -1.
     999901    1    3    3    0    0  0.24580900904E-01 -0.49321710144E-01  0.10853374028E+00  0.88837853675E+00  0.88000000000E+00 0.  1.
        -11    1    4    4    0    0  0.72965007329E-02  0.17382834576E-01 -0.56451198247E-01  0.59518070914E-01  0.51100000000E-03 0. -1.
         11    1    4    4    0    0 -0.10899581149E-01  0.34348986868E-01 -0.62759475170E-01  0.72371725230E-01  0.51100000000E-03 0.  1.
</event>
<event>
 8    1  0.1148488E+005  0.1043930E+01  0.7957747E-01            NaN
         13   -1    0    0    0    0  0.00000000000E+00  0.00000000000E+00  0.74505805969E-08  0.10566000000E+00  0.10566000000E+00 0. -1.
     999900   -1    0    0    0    0 -0.00000000000E+00 -0.00000000000E+00 -0.74505805969E-08  0.93827000000E+00  0.93827000000E+00 0. -1.
     999902    2    1    2    0    0 -0.14705723333E-01 -0.68629476198E-02 -0.16130657853E-01  0.10210486436E+01  0.10207922296E+01 0.  0.
     999903    2    3    3    0    0 -0.46032871189E-01  0.59392215786E-01 -0.10815337684E+00  0.13322021552E+00  0.20100059093E-01 0.  0.
         14    1    1    2    0    0  0.14705723333E-01  0.68629476198E-02  0.16130657853E-01  0.22881356418E-01  0.00000000000E+00 0. -1.
     999901    1    3    3    0    0  0.31327147856E-01 -0.66255163406E-01  0.92022718982E-01  0.88782842806E+00  0.88000000000E+00 0.  1.
        -11    1    4    4    0    0 -0.14341726692E-01  0.30242293026E-01 -0.35722267679E-01  0.48955315759E-01  0.51100000000E-03 0.  1.
         11    1    4    4    0    0 -0.31691144497E-01  0.29149922759E-01 -0.72431109157E-01  0.84264899758E-01  0.51100000000E-03 0. -1.
</event>
<event>
 8    1  0.1227715E+005  0.1043930E+01  0.7957747E-01            NaN
         13   -1    0    0    0    0  0.00000000000E+00  0.00000000000E+00  0.74505805969E-08  0.10566000000E+00  0.10566000000E+00 0. -1.
     999900   -1    0    0    0    0 -0.00000000000E+00 -0.00000000000E+00 -0.74505805969E-08  0.93827000000E+00  0.93827000000E+00 0. -1.
     999902    2    1    2    0    0 -0.86092891464E-04  0.69985711715E-02  0.23593067759E-01  0.10193206470E+01  0.10190235331E+01 0.  0.
     999903    2    3    3    0    0 -0.12473727708E+00 -0.17643348180E-01  0.25381491800E-01  0.13019279319E+00  0.20863059327E-01 0.  0.
         14    1    1    2    0    0  0.86092891464E-04 -0.69985711715E-02 -0.23593067759E-01  0.24609353033E-01  0.00000000000E+00 0.  1.
     999901    1    3    3    0    0  0.12465118418E+00  0.24641919352E-01 -0.17884240415E-02  0.88912785378E+00  0.88000000000E+00 0.  1.
        -11    1    4    4    0    0 -0.64077684361E-01 -0.12664612913E-01  0.23102580912E-01  0.69284431290E-01  0.51100000000E-03 0. -1.
         11    1    4    4    0    0 -0.60659592714E-01 -0.49787352670E-02  0.22789108884E-02  0.60908361897E-01  0.51100000000E-03 0.  1.
</event>
<event>
 8    1  0.1148488E+005  0.1043930E+01  0.7957747E-01            NaN
         13   -1    0    0    0    0  0.00000000000E+00  0.00000000000E+00  0.74505805969E-08  0.10566000000E+00  0.10566000000E+00 0. -1.
     999900   -1    0    0    0    0 -0.00000000000E+00 -0.00000000000E+00 -0.74505805969E-08  0.93827000000E+00  0.93827000000E+00 0. -1.
     999902    2    1    2    0    0  0.16091156245E-01  0.88587806852E-02 -0.16341768693E-01  0.10193442987E+01  0.10190477627E+01 0.  0.
     999903    2    3    3    0    0  0.42351163517E-01  0.12149320279E+00  0.16579081637E-01  0.13116645422E+00  0.19379199925E-01 0.  0.
         14    1    1    2    0    0 -0.16091156245E-01 -0.88587806852E-02  0.16341768693E-01  0.24585701303E-01  0.00000000000E+00 0. -1.
     999901    1    3    3    0    0 -0.26260007272E-01 -0.11263442211E+00 -0.32920850330E-01  0.88817784447E+00  0.88000000000E+00 0. -1.
        -11    1    4    4    0    0  0.35367020965E-01  0.75757746728E-01  0.14460930852E-01  0.84849525652E-01  0.51100000000E-03 0.  1.
         11    1    4    4    0    0  0.69841425522E-02  0.45735456065E-01  0.21181507856E-02  0.46316928572E-01  0.51100000000E-03 0. -1.
</event>
<event>
 8    1  0.1148488E+005  0.1043930E+01  0.7957747E-01            NaN
         13   -1    0    0    0    0  0.00000000000E+00  0.00000000000E+00  0.74505805969E-08  0.10566000000E+00  0.10566000000E+00 0.  1.
     999900   -1    0    0    0    0 -0.00000000000E+00 -0.00000000000E+00 -0.74505805969E-08  0.93827000000E+00  0.93827000000E+00 0.  1.
     999902    2    1    2    0    0 -0.10500296187E-01  0.10453048450E-01  0.18634492093E-01  0.10201231368E+01  0.10198453056E+01 0.  0.
     999903    2    3    3    0    0  0.11235357312E+00 -0.45173796688E-01 -0.36487234928E-01  0.12814453618E+00  0.20632657089E-01 0.  0.
         14    1    1    2    0    0  0.10500296187E-01 -0.10453048450E-01 -0.18634492093E-01  0.23806863243E-01  0.00000000000E+00 0. -1.
     999901    1    3    3    0    0 -0.12285386931E+00  0.55626845137E-01  0.55121727021E-01  0.89197860058E+00  0.88000000000E+00 0. -1.
        -11    1    4    4    0    0  0.50043984133E-01 -0.23183554277E-01 -0.63553688263E-02  0.55520531074E-01  0.51100000000E-03 0.  1.
         11    1    4    4    0    0  0.62309588990E-01 -0.21990242411E-01 -0.30131866102E-01  0.72624005103E-01  0.51100000000E-03 0. -1.
</event>
<event>
 8    1  0.1148488E+005  0.1043930E+01  0.7957747E-01            NaN
         13   -1    0    0    0    0  0.00000000000E+00  0.00000000000E+00  0.74505805969E-08  0.10566000000E+00  0.10566000000E+00 0.  1.
     999900   -1    0    0    0    0 -0.00000000000E+00 -0.00000000000E+00 -0.74505805969E-08  0.93827000000E+00  0.93827000000E+00 0. -1.
     999902    2    1    2    0    0 -0.22267719660E-01 -0.34612309336E-02 -0.61036505075E-02  0.10205829229E+01  0.10203158416E+01 0.  0.
     999903    2    3    3    0    0  0.35857945731E-01 -0.12277159170E+00 -0.18389027717E-01  0.13054669576E+00  0.18591057890E-01 0.  0.
         14    1    1    2    0    0  0.22267719660E-01  0.34612309336E-02  0.61036505075E-02  0.23347077075E-01  0.00000000000E+00 0.  1.
     999901    1    3    3    0    0 -0.58125665391E-01  0.11931036077E+00  0.12285377209E-01  0.89003622716E+00  0.88000000000E+00 0.  1.
        -11    1    4    4    0    0  0.26029022556E-01 -0.58858775681E-01 -0.12975282458E-01  0.65654280635E-01  0.51100000000E-03 0. -1.
         11    1    4    4    0    0  0.98289231751E-02 -0.63912816022E-01 -0.54137452585E-02  0.64892415129E-01  0.51100000000E-03 0.  1.
</event>
<event>
 8    1  0.1148488E+005  0.1043930E+01  0.7957747E-01            NaN
         13   -1    0    0    0    0  0.00000000000E+00  0.00000000000E+00  0.74505805969E-08  0.10566000000E+00  0.10566000000E+00 0.  1.
     999900   -1    0    0    0    0 -0.00000000000E+00 -0.00000000000E+00 -0.74505805969E-08  0.93827000000E+00  0.93827000000E+00 0. -1.
     999902    2    1    2    0    0 -0.15445405002E-01 -0.17157536044E-01 -0.54659302489E-02  0.10202062151E+01  0.10199303424E+01 0.  0.
     999903    2    3    3    0    0  0.11518593343E+00 -0.45651262281E-01 -0.32654640036E-01  0.12969194512E+00  0.20045899946E-01 0.  0.
         14    1    1    2    0    0  0.15445405002E-01  0.17157536044E-01  0.54659302489E-02  0.23723784948E-01  0.00000000000E+00 0.  1.
     999901    1    3    3    0    0 -0.13063133843E+00  0.28493726237E-01  0.27188709788E-01  0.89051426993E+00  0.88000000000E+00 0.  1.
        -11    1    4    4    0    0  0.59497557855E-01 -0.33854236867E-01 -0.14883312319E-01  0.70055997967E-01  0.51100000000E-03 0. -1.
         11    1    4    4    0    0  0.55688375576E-01 -0.11797025414E-01 -0.17771327717E-01  0.59635947152E-01  0.51100000000E-03 0.  1.
</event>
<event>
 8    1  0.1148488E+005  0.1043930E+01  0.7957747E-01            NaN
         13   -1    0    0    0    0  0.00000000000E+00  0.00000000000E+00  0.74505805969E-08  0.10566000000E+00  0.10566000000E+00 0.  1.
     999900   -1    0    0    0    0 -0.00000000000E+00 -0.00000000000E+00 -0.74505805969E-08  0.93827000000E+00  0.93827000000E+00 0. -1.
     999902    2    1    2    0    0  0.16269486937E-01  0.94579408122E-02  0.14794357542E-01  0.10199921249E+01  0.10197111910E+01 0.  0.
     999903    2    3    3    0    0 -0.33554017505E-01 -0.11768351308E+00  0.37552245413E-01  0.12916932975E+00  0.17299227462E-01 0.  0.
         14    1    1    2    0    0 -0.16269486937E-01 -0.94579408122E-02 -0.14794357542E-01  0.23937875108E-01  0.00000000000E+00 0. -1.
     999901    1    3    3    0    0  0.49823504442E-01  0.12714145389E+00 -0.22757887870E-01  0.89082279515E+00  0.88000000000E+00 0.  1.
        -11    1    4    4    0    0 -0.16902166127E-01 -0.39427367132E-01  0.67168272949E-02  0.43423235585E-01  0.51100000000E-03 0.  1.
         11    1    4    4    0    0 -0.16651851378E-01 -0.78256145944E-01  0.30835418118E-01  0.85746094160E-01  0.51100000000E-03 0. -1.
</event>
<event>
 8    1  0.1148488E+005  0.1043930E+01  0.7957747E-01            NaN
         13   -1    0    0    0    0  0.00000000000E+00  0.00000000000E+00  0.74505805969E-08  0.10566000000E+00  0.10566000000E+00 0. -1.
     999900   -1    0    0    0    0 -0.00000000000E+00 -0.00000000000E+00 -0.74505805969E-08  0.93827000000E+00  0.93827000000E+00 0. -1.
     999902    2    1    2    0    0 -0.72774121706E-02  0.43625425410E-02 -0.21516722390E-01  0.10208007577E+01  0.10205386936E+01 0.  0.
     999903    2    3    3    0    0  0.53199438157E-01 -0.11510461510E+00 -0.23727581270E-01  0.13066889162E+00  0.20787219326E-01 0.  0.
         14    1    1    2    0    0  0.72774121706E-02 -0.43625425410E-02  0.21516722390E-01  0.23129242265E-01  0.00000000000E+00 0. -1.
     999901    1    3    3    0    0 -0.60476850327E-01  0.11946715764E+00  0.22108588799E-02  0.89013186612E+00  0.88000000000E+00 0. -1.
        -11    1    4    4    0    0  0.12112208211E-01 -0.47787789253E-01 -0.13682465774E-01  0.51164923337E-01  0.51100000000E-03 0. -1.
         11    1    4    4    0    0  0.41087229946E-01 -0.67316825843E-01 -0.10045115497E-01  0.79503968281E-01  0.51100000000E-03 0.  1.
</event>
<event>
 8    1  0.1148488E+005  0.1043930E+01  0.7957747E-01            NaN
         13   -1    0    0    0    0  0.00000000000E+00  0.00000000000E+00  0.74505805969E-08  0.10566000000E+00  0.10566000000E+00 0.  1.
     999900   -1    0    0    0    0 -0.00000000000E+00 -0.00000000000E+00 -0.74505805969E-08  0.93827000000E+00  0.93827000000E+00 0.  1.
     999902    2    1    2    0    0 -0.13243747097E-02  0.15739317079E-01  0.17355541932E-01  0.10204631104E+01  0.10201932488E+01 0.  0.
     999903    2    3    3    0    0  0.90097443948E-01 -0.76677288893E-01  0.50811603011E-01  0.13028442836E+00  0.19881077290E-01 0.  0.
         14    1    1    2    0    0  0.13243747097E-02 -0.15739317079E-01 -0.17355541932E-01  0.23466889573E-01  0.00000000000E+00 0. -1.
     999901    1    3    3    0    0 -0.91421818658E-01  0.92416605972E-01 -0.33456061079E-01  0.89017868207E+00  0.88000000000E+00 0. -1.
        -11    1    4    4    0    0  0.28758363798E-01 -0.15244501764E-01  0.19776424993E-01  0.38089452987E-01  0.51100000000E-03 0.  1.
         11    1    4    4    0    0  0.61339080150E-01 -0.61432787129E-01  0.31035178018E-01  0.92194975371E-01  0.51100000000E-03 0. -1.
</event>
<event>
 8    1  0.1148488E+005  0.1043930E+01  0.7957747E-01            NaN
         13   -1    0    0    0    0  0.00000000000E+00  0.00000000000E+00  0.74505805969E-08  0.10566000000E+00  0.10566000000E+00 0. -1.
     999900   -1    0    0    0    0 -0.00000000000E+00 -0.00000000000E+00 -0.74505805969E-08  0.93827000000E+00  0.93827000000E+00 0.  1.
     999902    2    1    2    0    0  0.21078333214E-02 -0.23626520372E-01  0.26474987477E-02  0.10200623509E+01  0.10197830823E+01 0.  0.
     999903    2    3    3    0    0  0.47734085797E-01 -0.12283061329E+00  0.13623174207E-02  0.13331274772E+00  0.20112938339E-01 0.  0.
         14    1    1    2    0    0 -0.21078333214E-02  0.23626520372E-01 -0.26474987477E-02  0.23867649147E-01  0.00000000000E+00 0.  1.
     999901    1    3    3    0    0 -0.45626252476E-01  0.99204092915E-01  0.12851813271E-02  0.88674960313E+00  0.88000000000E+00 0.  1.
        -11    1    4    4    0    0  0.26449840206E-01 -0.70173390421E-01 -0.91471944274E-02  0.75550188994E-01  0.51100000000E-03 0. -1.
         11    1    4    4    0    0  0.21284245591E-01 -0.52657222866E-01  0.10509511848E-01  0.57762558726E-01  0.51100000000E-03 0.  1.
</event>
<event>
 8    1  0.1148488E+005  0.1043930E+01  0.7957747E-01            NaN
         13   -1    0    0    0    0  0.00000000000E+00  0.00000000000E+00  0.74505805969E-08  0.10566000000E+00  0.10566000000E+00 0. -1.
     999900   -1    0    0    0    0 -0.00000000000E+00 -0.00000000000E+00 -0.74505805969E-08  0.93827000000E+00  0.93827000000E+00 0.  1.
     999902    2    1    2    0    0  0.26634638509E-02 -0.21786191750E-01  0.19394682277E-01  0.10146403108E+01  0.10142174690E+01 0.  0.
     999903    2    3    3    0    0  0.24416982862E-01  0.95417062071E-01 -0.69419034430E-01  0.12217311560E+00  0.20165888239E-01 0.  0.
         14    1    1    2    0    0 -0.26634638509E-02  0.21786191750E-01 -0.19394682277E-01  0.29289689163E-01  0.00000000000E+00 0.  1.
     999901    1    3    3    0    0 -0.21753519011E-01 -0.11720325382E+00  0.88813716707E-01  0.89246719524E+00  0.88000000000E+00 0. -1.
        -11    1    4    4    0    0  0.16839141258E-01  0.34052622493E-01 -0.33577830880E-01  0.50703743694E-01  0.51100000000E-03 0. -1.
         11    1    4    4    0    0  0.75778416039E-02  0.61364439578E-01 -0.35841203550E-01  0.71469371909E-01  0.51100000000E-03 0.  1.
</event>
<event>
 8    1  0.1148488E+005  0.1043930E+01  0.7957747E-01            NaN
         13   -1    0    0    0    0  0.00000000000E+00  0.00000000000E+00  0.74505805969E-08  0.10566000000E+00  0.10566000000E+00 0. -1.
     999900   -1    0    0    0    0 -0.00000000000E+00 -0.00000000000E+00 -0.74505805969E-08  0.93827000000E+00  0.93827000000E+00 0. -1.
     999902    2    1    2    0    0  0.19017454020E-02  0.10168907986E-01 -0.20409717086E-01  0.10210481321E+01  0.10207917066E+01 0.  0.
     999903    2    3    3    0    0  0.12552449386E+00  0.29978611082E-01 -0.50194570066E-02  0.13205326805E+00  0.27527349523E-01 0.  0.
         14    1    1    2    0    0 -0.19017454020E-02 -0.10168907986E-01  0.20409717086E-01  0.22881867859E-01  0.00000000000E+00 0. -1.
     999901    1    3    3    0    0 -0.12362274846E+00 -0.19809703096E-01 -0.15390260079E-01  0.88899486409E+00  0.88000000000E+00 0. -1.
        -11    1    4    4    0    0  0.54106477432E-01  0.22647796021E-01 -0.12157908709E-01  0.59904168718E-01  0.51100000000E-03 0. -1.
         11    1    4    4    0    0  0.71418016433E-01  0.73308150611E-02  0.71384517027E-02  0.72149099332E-01  0.51100000000E-03 0.  1.
</event>
<event>
 8    1  0.1148488E+005  0.1043930E+01  0.7957747E-01            NaN
         13   -1    0    0    0    0  0.00000000000E+00  0.00000000000E+00  0.74505805969E-08  0.10566000000E+00  0.10566000000E+00 0.  1.
     999900   -1    0    0    0    0 -0.00000000000E+00 -0.00000000000E+00 -0.74505805969E-08  0.93827000000E+00  0.93827000000E+00 0.  1.
     999902    2    1    2    0    0 -0.27376952370E-02  0.20279370284E-01 -0.12149485876E-01  0.10201317261E+01  0.10198540978E+01 0.  0.
     999903    2    3    3    0    0 -0.10051160833E+00 -0.55339595093E-01  0.55768399670E-01  0.12890178652E+00  0.18452695495E-01 0.  0.
         14    1    1    2    0    0  0.27376952370E-02 -0.20279370284E-01  0.12149485876E-01  0.23798273916E-01  0.00000000000E+00 0.  1.
     999901    1    3    3    0    0  0.97773913092E-01  0.75618965378E-01 -0.67917885546E-01  0.89122993957E+00  0.88000000000E+00 0.  1.
        -11    1    4    4    0    0 -0.46609795430E-01 -0.23530419685E-01  0.35389010857E-01  0.63077705182E-01  0.51100000000E-03 0.  1.
         11    1    4    4    0    0 -0.53901812900E-01 -0.31809175408E-01  0.20379388813E-01  0.65824081333E-01  0.51100000000E-03 0. -1.
</event>
<event>
 8    1  0.1148488E+005  0.1043930E+01  0.7957747E-01            NaN
         13   -1    0    0    0    0  0.00000000000E+00  0.00000000000E+00  0.74505805969E-08  0.10566000000E+00  0.10566000000E+00 0.  1.
     999900   -1    0    0    0    0 -0.00000000000E+00 -0.00000000000E+00 -0.74505805969E-08  0.93827000000E+00  0.93827000000E+00 0. -1.
     999902    2    1    2    0    0  0.91322405313E-03  0.18707554858E-01 -0.16475296950E-01  0.10189852211E+01  0.10186798510E+01 0.  0.
     999903    2    3    3    0    0 -0.60039643742E-01  0.24489992653E-01  0.10855638928E+00  0.12804099652E+00  0.20136746896E-01 0.  0.
         14    1    1    2    0    0 -0.91322405313E-03 -0.18707554858E-01  0.16475296950E-01  0.24944778943E-01  0.00000000000E+00 0.  1.
     999901    1    3    3    0    0  0.60952867795E-01 -0.57824377951E-02 -0.12503168623E+00  0.89094422454E+00  0.88000000000E+00 0. -1.
        -11    1    4    4    0    0 -0.47893181174E-01  0.99706179414E-02  0.80140567544E-01  0.93893246362E-01  0.51100000000E-03 0.  1.
         11    1    4    4    0    0 -0.12146462568E-01  0.14519374712E-01  0.28415821732E-01  0.34147750155E-01  0.51100000000E-03 0. -1.
</event>
<event>
 8    1  0.1148488E+005  0.1043930E+01  0.7957747E-01            NaN
         13   -1    0    0    0    0  0.00000000000E+00  0.00000000000E+00  0.74505805969E-08  0.10566000000E+00  0.10566000000E+00 0.  1.
     999900   -1    0    0    0    0 -0.00000000000E+00 -0.00000000000E+00 -0.74505805969E-08  0.93827000000E+00  0.93827000000E+00 0. -1.
     999902    2    1    2    0    0 -0.18224593347E-01 -0.12781406461E-01 -0.66956159987E-02  0.10206849698E+01  0.10204202449E+01 0.  0.
     999903    2    3    3    0    0  0.46159241834E-01 -0.50017099851E-01 -0.11077931460E+00  0.13143517849E+00  0.19255225706E-01 0.  0.
         14    1    1    2    0    0  0.18224593347E-01  0.12781406461E-01  0.66956159987E-02  0.23245030165E-01  0.00000000000E+00 0. -1.
     999901    1    3    3    0    0 -0.64383835181E-01  0.37235693391E-01  0.10408369860E+00  0.88924979135E+00  0.88000000000E+00 0.  1.
        -11    1    4    4    0    0  0.24610677498E-01 -0.37473372286E-01 -0.60410392998E-01  0.75230417921E-01  0.51100000000E-03 0. -1.
         11    1    4    4    0    0  0.21548564337E-01 -0.12543727565E-01 -0.50368921601E-01  0.56204760568E-01  0.51100000000E-03 0.  1.
</event>
<event>
 8    1  0.1148488E+005  0.1043930E+01  0.7957747E-01            NaN
         13   -1    0    0    0    0  0.00000000000E+00  0.00000000000E+00  0.74505805969E-08  0.10566000000E+00  0.10566000000E+00 0. -1.
     999900   -1    0    0    0    0 -0.00000000000E+00 -0.00000000000E+00 -0.74505805969E-08  0.93827000000E+00  0.93827000000E+00 0. -1.
     999902    2    1    2    0    0 -0.11917657221E-01 -0.99510174348E-02 -0.18230914730E-01  0.10199838196E+01  0.10197026884E+01 0.  0.
     999903    2    3    3    0    0 -0.47714752504E-01  0.53685467591E-01  0.10465461985E+00  0.12845037167E+00  0.19699783951E-01 0.  0.
         14    1    1    2    0    0  0.11917657221E-01  0.99510174348E-02  0.18230914730E-01  0.23946180354E-01  0.00000000000E+00 0. -1.
     999901    1    3    3    0    0  0.35797095283E-01 -0.63636485026E-01 -0.12288553458E+00  0.89153344798E+00  0.88000000000E+00 0. -1.
        -11    1    4    4    0    0 -0.63425269391E-02  0.80428985164E-03  0.16010038351E-01  0.17246941153E-01  0.51100000000E-03 0. -1.
         11    1    4    4    0    0 -0.41372225565E-01  0.52881177739E-01  0.88644581502E-01  0.11120343051E+00  0.51100000000E-03 0.  1.
</event>
<event>
 7    1  0.1148488E+005  0.1043930E+01  0.7957747E-01            NaN
         13   -1    0    0    0    0  0.00000000000E+00  0.00000000000E+00  0.74505805969E-08  0.10566000000E+00  0.10566000000E+00 0.  1.
     999900   -1    0    0    0    0 -0.00000000000E+00 -0.00000000000E+00 -0.74505805969E-08  0.93827000000E+00  0.93827000000E+00 0. -1.
     999902    2    1    2    0    0 -0.34187569089E-02  0.14149656610E-01 -0.18106537669E-01  0.10206975359E+01  0.10204331004E+01 0.  0.
         14    1    1    2    0    0  0.34187569089E-02 -0.14149656610E-01  0.18106537669E-01  0.23232464083E-01  0.00000000000E+00 0.  1.
     999901    1    3    3    0    0 -0.46968302229E-01  0.12558786978E+00 -0.35066883837E-01  0.89084679984E+00  0.88000000000E+00 0.  1.
        -11    1    3    3    0    0  0.95769688685E-02 -0.84955137055E-01  0.14374661423E-01  0.86694784484E-01  0.51100000000E-03 0. -1.
         11    1    3    3    0    0  0.33972576452E-01 -0.26483076110E-01  0.25856847448E-02  0.43155951590E-01  0.51100000000E-03 0.  1.
</event>
<event>
 8    1  0.1148488E+005  0.1043930E+01  0.7957747E-01            NaN
         13   -1    0    0    0    0  0.00000000000E+00  0.00000000000E+00  0.74505805969E-08  0.10566000000E+00  0.10566000000E+00 0.  1.
     999900   -1    0    0    0    0 -0.00000000000E+00 -0.00000000000E+00 -0.74505805969E-08  0.93827000000E+00  0.93827000000E+00 0.  1.
     999902    2    1    2    0    0 -0.25388101332E-03 -0.21314334771E-01 -0.10084360304E-01  0.10203490830E+01  0.10200765616E+01 0.  0.
     999903    2    3    3    0    0  0.94951434010E-01 -0.86271825745E-01  0.23834586231E-01  0.13218579704E+00  0.21128054847E-01 0.  0.
         14    1    1    2    0    0  0.25388101332E-03  0.21314334771E-01  0.10084360304E-01  0.23580916968E-01  0.00000000000E+00 0.  1.
     999901    1    3    3    0    0 -0.95205315023E-01  0.64957490974E-01 -0.33918946534E-01  0.88816328599E+00  0.88000000000E+00 0. -1.
        -11    1    4    4    0    0  0.79773451011E-01 -0.60944402573E-01  0.16266669586E-01  0.10169999681E+00  0.51100000000E-03 0. -1.
         11    1    4    4    0    0  0.15177982998E-01 -0.25327423173E-01  0.75679166447E-02  0.30485800232E-01  0.51100000000E-03 0.  1.
</event>
<event>
 8    1  0.1148488E+005  0.1043930E+01  0.7957747E-01            NaN
         13   -1    0    0    0    0  0.00000000000E+00  0.00000000000E+00  0.74505805969E-08  0.10566000000E+00  0.10566000000E+00 0.  1.
     999900   -1    0    0    0    0 -0.00000000000E+00 -0.00000000000E+00 -0.74505805969E-08  0.93827000000E+00  0.93827000000E+00 0.  1.
     999902    2    1    2    0    0 -0.11511112154E-01 -0.20825795243E-01  0.30349623136E-02  0.10199418686E+01  0.10196597398E+01 0.  0.
     999903    2    3    3    0    0  0.63164292490E-01  0.10878329697E+00  0.32682345657E-02  0.12731933516E+00  0.19390673059E-01 0.  0.
         14    1    1    2    0    0  0.11511112154E-01  0.20825795243E-01 -0.30349623136E-02  0.23988131373E-01  0.00000000000E+00 0.  1.
     999901    1    3    3    0    0 -0.74675404644E-01 -0.12960909221E+00 -0.23327225210E-03  0.89262253347E+00  0.88000000000E+00 0. -1.
        -11    1    4    4    0    0  0.29990509139E-01  0.50350398410E-01  0.11165967768E-01  0.59661823771E-01  0.51100000000E-03 0. -1.
         11    1    4    4    0    0  0.33173783351E-01  0.58432898562E-01 -0.78977332026E-02  0.67657511386E-01  0.51100000000E-03 0.  1.
</event>
<event>
 8    1  0.1148488E+005  0.1043930E+01  0.7957747E-01            NaN
         13   -1    0    0    0    0  0.00000000000E+00  0.00000000000E+00  0.74505805969E-08  0.10566000000E+00  0.10566000000E+00 0.  1.
     999900   -1    0    0    0    0 -0.00000000000E+00 -0.00000000000E+00 -0.74505805969E-08  0.93827000000E+00  0.93827000000E+00 0.  1.
     999902    2    1    2    0    0 -0.22511318535E-01 -0.80113520665E-02  0.40669747212E-02  0.10196919822E+01  0.10194038734E+01 0.  0.
     999903    2    3    3    0    0 -0.61160404218E-01  0.95129029700E-01  0.62780265278E-01  0.13088438734E+00  0.19980835934E-01 0.  0.
         14    1    1    2    0    0  0.22511318535E-01  0.80113520665E-02 -0.40669747212E-02  0.24238017813E-01  0.00000000000E+00 0.  1.
     999901    1    3    3    0    0  0.38649085683E-01 -0.10314038177E+00 -0.58713290557E-01  0.88880759485E+00  0.88000000000E+00 0. -1.
        -11    1    4    4    0    0 -0.41056033578E-01  0.73273317009E-01  0.37935645873E-01  0.92162634660E-01  0.51100000000E-03 0.  1.
         11    1    4    4    0    0 -0.20104370640E-01  0.21855712691E-01  0.24844619405E-01  0.38721752677E-01  0.51100000000E-03 0. -1.
</event>
<event>
 8    1  0.1148488E+005  0.1043930E+01  0.7957747E-01            NaN
         13   -1    0    0    0    0  0.00000000000E+00  0.00000000000E+00  0.74505805969E-08  0.10566000000E+00  0.10566000000E+00 0.  1.
     999900   -1    0    0    0    0 -0.00000000000E+00 -0.00000000000E+00 -0.74505805969E-08  0.93827000000E+00  0.93827000000E+00 0.  1.
     999902    2    1    2    0    0  0.29564248974E-02  0.14854244383E-01  0.17866594665E-01  0.10205076980E+01  0.10202388728E+01 0.  0.
     999903    2    3    3    0    0  0.14611280877E-01 -0.12521922743E+00 -0.22540961876E-01  0.12843753050E+00  0.97344662025E-02 0.  0.
         14    1    1    2    0    0 -0.29564248974E-02 -0.14854244383E-01 -0.17866594665E-01  0.23422301964E-01  0.00000000000E+00 0. -1.
     999901    1    3    3    0    0 -0.11654855980E-01  0.14007347182E+00  0.40407556541E-01  0.89207016753E+00  0.88000000000E+00 0.  1.
        -11    1    4    4    0    0  0.90616352464E-02 -0.87969816518E-01 -0.11452874130E-01  0.89175284123E-01  0.51100000000E-03 0. -1.
         11    1    4    4    0    0  0.55496456311E-02 -0.37249410914E-01 -0.11088087746E-01  0.39262246381E-01  0.51100000000E-03 0.  1.
</event>
<event>
 8    1  0.1148488E+005  0.1043930E+01  0.7957747E-01            NaN
         13   -1    0    0    0    0  0.00000000000E+00  0.00000000000E+00  0.74505805969E-08  0.10566000000E+00  0.10566000000E+00 0. -1.
     999900   -1    0    0    0    0 -0.00000000000E+00 -0.00000000000E+00 -0.74505805969E-08  0.93827000000E+00  0.93827000000E+00 0. -1.
     999902    2    1    2    0    0  0.22220744341E-01  0.50300066892E-02  0.70506238005E-02  0.10200810222E+01  0.10198021956E+01 0.  0.
     999903    2    3    3    0    0  0.45037283009E-01  0.12148695887E+00 -0.55895581351E-02  0.13202551135E+00  0.24739734209E-01 0.  0.
         14    1    1    2    0    0 -0.22220744341E-01 -0.50300066892E-02 -0.70506238005E-02  0.23848977805E-01  0.00000000000E+00 0.  1.
     999901    1    3    3    0    0 -0.22816538668E-01 -0.11645695219E+00  0.12640181936E-01  0.88805551085E+00  0.88000000000E+00 0.  1.
        -11    1    4    4    0    0  0.33259219253E-01  0.98789137348E-01  0.49638747350E-02  0.10435693794E+00  0.51100000000E-03 0.  1.
         11    1    4    4    0    0  0.11778063755E-01  0.22697821527E-01 -0.10553432870E-01  0.27668573404E-01  0.51100000000E-03 0. -1.
</event>
<event>
 8    1  0.1148488E+005  0.1043930E+01  0.7957747E-01            NaN
         13   -1    0    0    0    0  0.00000000000E+00  0.00000000000E+00  0.74505805969E-08  0.10566000000E+00  0.10566000000E+00 0.  1.
     999900   -1    0    0    0    0 -0.00000000000E+00 -0.00000000000E+00 -0.74505805969E-08  0.93827000000E+00  0.93827000000E+00 0. -1.
     999902    2    1    2    0    0 -0.93067596050E-02  0.21226421630E-01 -0.42664685119E-02  0.10203635089E+01  0.10200913247E+01 0.  0.
     999903    2    3    3    0    0 -0.46550804952E-01 -0.33041834868E-01 -0.11607700770E+00  0.13085029412E+00  0.19727834735E-01 0.  0.
         14    1    1    2    0    0  0.93067596050E-02 -0.21226421630E-01  0.42664685119E-02  0.23566491107E-01  0.00000000000E+00 0. -1.
     999901    1    3    3    0    0  0.37244045347E-01  0.54268256497E-01  0.11181053918E+00  0.88951321477E+00  0.88000000000E+00 0.  1.
        -11    1    4    4    0    0 -0.33732874244E-01 -0.21211410778E-01 -0.97665674293E-01  0.10548305934E+00  0.51100000000E-03 0.  1.
         11    1    4    4    0    0 -0.12817930708E-01 -0.11830424090E-01 -0.18411333403E-01  0.25367234781E-01  0.51100000000E-03 0. -1.
</event>
<event>
 8    1  0.1148488E+005  0.1043930E+01  0.7957747E-01            NaN
         13   -1    0    0    0    0  0.00000000000E+00  0.00000000000E+00  0.74505805969E-08  0.10566000000E+00  0.10566000000E+00 0. -1.
     999900   -1    0    0    0    0 -0.00000000000E+00 -0.00000000000E+00 -0.74505805969E-08  0.93827000000E+00  0.93827000000E+00 0.  1.
     999902    2    1    2    0    0  0.19759826556E-01 -0.12922820665E-01 -0.56220810052E-02  0.10196594863E+01  0.10193705951E+01 0.  0.
     999903    2    3    3    0    0 -0.60074732636E-01 -0.39124012407E-01 -0.10656962577E+00  0.12991206930E+00  0.19503814121E-01 0.  0.
         14    1    1    2    0    0 -0.19759826556E-01  0.12922820665E-01  0.56220810052E-02  0.24270513680E-01  0.00000000000E+00 0. -1.
     999901    1    3    3    0    0  0.79834559192E-01  0.26201191742E-01  0.10094754477E+00  0.88974741702E+00  0.88000000000E+00 0. -1.
        -11    1    4    4    0    0 -0.31138298284E-01 -0.29376232046E-01 -0.72171756183E-01  0.83914123607E-01  0.51100000000E-03 0.  1.
         11    1    4    4    0    0 -0.28936434352E-01 -0.97477803606E-02 -0.34397869592E-01  0.45997945698E-01  0.51100000000E-03 0. -1.
</event>
<event>
 8    1  0.1148488E+005  0.1043930E+01  0.7957747E-01            NaN
         13   -1    0    0    0    0  0.00000000000E+00  0.00000000000E+00  0.74505805969E-08  0.10566000000E+00  0.10566000000E+00 0.  1.
     999900   -1    0    0    0    0 -0.00000000000E+00 -0.00000000000E+00 -0.74505805969E-08  0.93827000000E+00  0.93827000000E+00 0.  1.
     999902    2    1    2    0    0  0.13537639059E-01 -0.19090946217E-01  0.69187328935E-02  0.10195250668E+01  0.10192329278E+01 0.  0.
     999903    2    3    3    0    0  0.71240208834E-01 -0.40363294898E-01 -0.10033925563E+00  0.13088207018E+00  0.18915262191E-01 0.  0.
         14    1    1    2    0    0 -0.13537639059E-01  0.19090946217E-01 -0.69187328935E-02  0.24404933182E-01  0.00000000000E+00 0.  1.
     999901    1    3    3    0    0 -0.57702569775E-01  0.21272348680E-01  0.10725798852E+00  0.88864299664E+00  0.88000000000E+00 0. -1.
        -11    1    4    4    0    0  0.57765519741E-01 -0.33217179770E-01 -0.91669391242E-01  0.11333037860E+00  0.51100000000E-03 0. -1.
         11    1    4    4    0    0  0.13474689093E-01 -0.71461151280E-02 -0.86698643883E-02  0.17551691574E-01  0.51100000000E-03 0.  1.
</event>
<event>
 8    1  0.1163909E+005  0.1043930E+01  0.7957747E-01            NaN
         13   -1    0    0    0    0  0.00000000000E+00  0.00000000000E+00  0.74505805969E-08  0.10566000000E+00  0.10566000000E+00 0. -1.
     999900   -1    0    0    0    0 -0.00000000000E+00 -0.00000000000E+00 -0.74505805969E-08  0.93827000000E+00  0.93827000000E+00 0.  1.
     999902    2    1    2    0    0  0.74647349757E-02  0.18850055184E-01  0.13228460712E-01  0.10197217572E+01  0.10194343642E+01 0.  0.
     999903    2    3    3    0    0  0.37147851508E-01  0.94894110910E-01  0.82970031975E-01  0.13319613848E+00  0.21733153057E-01 0.  0.
         14    1    1    2    0    0 -0.74647349757E-02 -0.18850055184E-01 -0.13228460712E-01  0.24208242842E-01  0.00000000000E+00 0.  1.
     999901    1    3    3    0    0 -0.29683116532E-01 -0.76044055726E-01 -0.69741571263E-01  0.88652561868E+00  0.88000000000E+00 0.  1.
        -11    1    4    4    0    0  0.79607292966E-02  0.48747737217E-01  0.35323690870E-01  0.60726759772E-01  0.51100000000E-03 0.  1.
         11    1    4    4    0    0  0.29187122211E-01  0.46146373693E-01  0.47646341104E-01  0.72469378703E-01  0.51100000000E-03 0. -1.
</event>
<event>
 8    1  0.1148488E+005  0.1043930E+01  0.7957747E-01            NaN
         13   -1    0    0    0    0  0.00000000000E+00  0.00000000000E+00  0.74505805969E-08  0.10566000000E+00  0.10566000000E+00 0. -1.
     999900   -1    0    0    0    0 -0.00000000000E+00 -0.00000000000E+00 -0.74505805969E-08  0.93827000000E+00  0.93827000000E+00 0.  1.
     999902    2    1    2    0    0  0.15084826952E-01 -0.18231413305E-01 -0.33347956166E-02  0.10200331948E+01  0.10197532355E+01 0.  0.
     999903    2    3    3    0    0  0.11082164543E+00  0.53682588303E-01  0.39701910808E-01  0.13088229643E+00  0.19765535999E-01 0.  0.
         14    1    1    2    0    0 -0.15084826952E-01  0.18231413305E-01  0.33347956166E-02  0.23896805164E-01  0.00000000000E+00 0.  1.
     999901    1    3    3    0    0 -0.95736818479E-01 -0.71914001608E-01 -0.43036706425E-01  0.88915089841E+00  0.88000000000E+00 0.  1.
        -11    1    4    4    0    0  0.48611505933E-01  0.22145712517E-01  0.27466576391E-01  0.60068169871E-01  0.51100000000E-03 0. -1.
         11    1    4    4    0    0  0.62210139498E-01  0.31536875786E-01  0.12235334418E-01  0.70814126557E-01  0.51100000000E-03 0.  1.
</event>
<event>
 8    1  0.1148488E+005  0.1043930E+01  0.7957747E-01            NaN
         13   -1    0    0    0    0  0.00000000000E+00  0.00000000000E+00  0.74505805969E-08  0.10566000000E+00  0.10566000000E+00 0. -1.
     999900   -1    0    0    0    0 -0.00000000000E+00 -0.00000000000E+00 -0.74505805969E-08  0.93827000000E+00  0.93827000000E+00 0.  1.
     999902    2    1    2    0    0 -0.48819990227E-02  0.47373548503E-02  0.22444518317E-01  0.10204772209E+01  0.10202076874E+01 0.  0.
     999903    2    3    3    0    0  0.11340102048E+00 -0.56673338839E-01  0.25144274753E-01  0.13043821350E+00  0.17613466624E-01 0.  0.
         14    1    1    2    0    0  0.48819990227E-02 -0.47373548503E-02 -0.22444518317E-01  0.23452779109E-01  0.00000000000E+00 0.  1.
     999901    1    3    3    0    0 -0.11828301950E+00  0.61410693690E-01 -0.26997564357E-02  0.89003900740E+00  0.88000000000E+00 0. -1.
        -11    1    4    4    0    0  0.44084539445E-01 -0.15393852951E-01  0.15409315280E-01  0.49174438941E-01  0.51100000000E-03 0.  1.
         11    1    4    4    0    0  0.69316481032E-01 -0.41279485888E-01  0.97349594733E-02  0.81263774554E-01  0.51100000000E-03 0. -1.
</event>
<event>
 8    1  0.1148488E+005  0.1043930E+01  0.7957747E-01            NaN
         13   -1    0    0    0    0  0.00000000000E+00  0.00000000000E+00  0.74505805969E-08  0.10566000000E+00  0.10566000000E+00 0.  1.
     999900   -1    0    0    0    0 -0.00000000000E+00 -0.00000000000E+00 -0.74505805969E-08  0.93827000000E+00  0.93827000000E+00 0.  1.
     999902    2    1    2    0    0  0.22066041614E-01  0.10203321133E-02  0.76631338412E-02  0.10205489202E+01  0.10202810513E+01 0.  0.
     999903    2    3    3    0    0 -0.11788290516E+00 -0.84011055730E-02 -0.44363694672E-01  0.12792287196E+00  0.20716318758E-01 0.  0.
         14    1    1    2    0    0 -0.22066041614E-01 -0.10203321133E-02 -0.76631338412E-02  0.23381079753E-01  0.00000000000E+00 0.  1.
     999901    1    3    3    0    0  0.13994894677E+00  0.94214376863E-02  0.52026828513E-01  0.89262604828E+00  0.88000000000E+00 0.  1.
        -11    1    4    4    0    0 -0.35222565396E-01  0.69577004744E-02 -0.13420073993E-01  0.38332730348E-01  0.51100000000E-03 0. -1.
         11    1    4    4    0    0 -0.82660339763E-01 -0.15358806047E-01 -0.30943620679E-01  0.89590141615E-01  0.51100000000E-03 0.  1.
</event>
<event>
 8    1  0.1148488E+005  0.1043930E+01  0.7957747E-01            NaN
         13   -1    0    0    0    0  0.00000000000E+00  0.00000000000E+00  0.74505805969E-08  0.10566000000E+00  0.10566000000E+00 0. -1.
     999900   -1    0    0    0    0 -0.00000000000E+00 -0.00000000000E+00 -0.74505805969E-08  0.93827000000E+00  0.93827000000E+00 0.  1.
     999902    2    1    2    0    0 -0.18559305875E-01  0.52015910193E-04 -0.14409754130E-01  0.10204333714E+01  0.10201628174E+01 0.  0.
     999903    2    3    3    0    0 -0.27907769724E-01  0.32202769251E-02  0.12470502714E+00  0.12945056911E+00  0.20417939537E-01 0.  0.
         14    1    1    2    0    0  0.18559305875E-01 -0.52015910193E-04  0.14409754130E-01  0.23496628573E-01  0.00000000000E+00 0. -1.
     999901    1    3    3    0    0  0.93484638487E-02 -0.31682610149E-02 -0.13911478127E+00  0.89098280232E+00  0.88000000000E+00 0.  1.
        -11    1    4    4    0    0 -0.13384254851E-01  0.68109247398E-02  0.29819514504E-01  0.33391489034E-01  0.51100000000E-03 0.  1.
         11    1    4    4    0    0 -0.14523514873E-01 -0.35906478147E-02  0.94885512636E-01  0.96059080077E-01  0.51100000000E-03 0. -1.
</event>
<event>
 8    1  0.1148488E+005  0.1043930E+01  0.7957747E-01            NaN
         13   -1    0    0    0    0  0.00000000000E+00  0.00000000000E+00  0.74505805969E-08  0.10566000000E+00  0.10566000000E+00 0.  1.
     999900   -1    0    0    0    0 -0.00000000000E+00 -0.00000000000E+00 -0.74505805969E-08  0.93827000000E+00  0.93827000000E+00 0. -1.
     999902    2    1    2    0    0 -0.11856491334E-01  0.21452306582E-01  0.81263423233E-02  0.10181072332E+01  0.10177797026E+01 0.  0.
     999903    2    3    3    0    0  0.51748531311E-01  0.10999603131E+00 -0.41669692212E-01  0.12998267262E+00  0.19547238562E-01 0.  0.
         14    1    1    2    0    0  0.11856491334E-01 -0.21452306582E-01 -0.81263423233E-02  0.25822766776E-01  0.00000000000E+00 0.  1.
     999901    1    3    3    0    0 -0.63605022645E-01 -0.88543724728E-01  0.49796034535E-01  0.88812456060E+00  0.88000000000E+00 0.  1.
        -11    1    4    4    0    0  0.21213717871E-01  0.66335534944E-01 -0.19980959425E-01  0.72456365371E-01  0.51100000000E-03 0.  1.
         11    1    4    4    0    0  0.30534813439E-01  0.43660496366E-01 -0.21688732787E-01  0.57526307248E-01  0.51100000000E-03 0. -1.
</event>
<event>
 8    1  0.1148488E+005  0.1043930E+01  0.7957747E-01            NaN
         13   -1    0    0    0    0  0.00000000000E+00  0.00000000000E+00  0.74505805969E-08  0.10566000000E+00  0.10566000000E+00 0.  1.
     999900   -1    0    0    0    0 -0.00000000000E+00 -0.00000000000E+00 -0.74505805969E-08  0.93827000000E+00  0.93827000000E+00 0. -1.
     999902    2    1    2    0    0  0.39121872638E-02 -0.13187443903E-01  0.19333802080E-01  0.10202021727E+01  0.10199262049E+01 0.  0.
     999903    2    3    3    0    0 -0.51166477448E-01  0.19390117377E-01  0.11869128386E+00  0.13230191591E+00  0.20547287474E-01 0.  0.
         14    1    1    2    0    0 -0.39121872638E-02  0.13187443903E-01 -0.19333802080E-01  0.23727827307E-01  0.00000000000E+00 0. -1.
     999901    1    3    3    0    0  0.55078664711E-01 -0.32577561280E-01 -0.99357481784E-01  0.88790025678E+00  0.88000000000E+00 0. -1.
        -11    1    4    4    0    0 -0.33314546448E-01  0.10051909015E-01  0.51523276371E-01  0.62175630346E-01  0.51100000000E-03 0. -1.
         11    1    4    4    0    0 -0.17851931000E-01  0.93382083621E-02  0.67168007492E-01  0.70126285566E-01  0.51100000000E-03 0.  1.
</event>
<event>
 8    1  0.1148488E+005  0.1043930E+01  0.7957747E-01            NaN
         13   -1    0    0    0    0  0.00000000000E+00  0.00000000000E+00  0.74505805969E-08  0.10566000000E+00  0.10566000000E+00 0.  1.
     999900   -1    0    0    0    0 -0.00000000000E+00 -0.00000000000E+00 -0.74505805969E-08  0.93827000000E+00  0.93827000000E+00 0. -1.
     999902    2    1    2    0    0  0.15487286429E-01  0.12966842824E-01  0.11362807874E-01  0.10207543995E+01  0.10204912718E+01 0.  0.
     999903    2    3    3    0    0 -0.27542643966E-01  0.12725668447E+00 -0.10344033132E-01  0.13205595251E+00  0.19465728677E-01 0.  0.
         14    1    1    2    0    0 -0.15487286429E-01 -0.12966842824E-01 -0.11362807874E-01  0.23175600457E-01  0.00000000000E+00 0. -1.
     999901    1    3    3    0    0  0.43029930395E-01 -0.11428984165E+00  0.21706841006E-01  0.88869844703E+00  0.88000000000E+00 0.  1.
        -11    1    4    4    0    0 -0.16498419378E-01  0.51098070266E-01  0.37110956766E-02  0.53826052976E-01  0.51100000000E-03 0.  1.
         11    1    4    4    0    0 -0.11044224588E-01  0.76158614204E-01 -0.14055128809E-01  0.78229899534E-01  0.51100000000E-03 0. -1.
</event>
<event>
 8    1  0.1148488E+005  0.1043930E+01  0.7957747E-01            NaN
         13   -1    0    0    0    0  0.00000000000E+00  0.00000000000E+00  0.74505805969E-08  0.10566000000E+00  0.10566000000E+00 0.  1.
     999900   -1    0    0    0    0 -0.00000000000E+00 -0.00000000000E+00 -0.74505805969E-08  0.93827000000E+00  0.93827000000E+00 0.  1.
     999902    2    1    2    0    0 -0.14406859551E-01  0.18253817550E-01 -0.13747635301E-01  0.10169159863E+01  0.10165571142E+01 0.  0.
     999903    2    3    3    0    0  0.73310612468E-01 -0.98546969658E-01 -0.11510409494E-01  0.12487238653E+00  0.19356452738E-01 0.  0.
         14    1    1    2    0    0  0.14406859551E-01 -0.18253817550E-01  0.13747635301E-01  0.27014013653E-01  0.00000000000E+00 0. -1.
     999901    1    3    3    0    0 -0.87717472019E-01  0.11680078721E+00 -0.22372258071E-02  0.89204359981E+00  0.88000000000E+00 0. -1.
        -11    1    4    4    0    0  0.13492365367E-01 -0.15821580637E-01 -0.92383052949E-02  0.22759036508E-01  0.51100000000E-03 0.  1.
         11    1    4    4    0    0  0.59818247101E-01 -0.82725389021E-01 -0.22721041994E-02  0.10211335003E+00  0.51100000000E-03 0. -1.
</event>
<event>
 8    1  0.1148488E+005  0.1043930E+01  0.7957747E-01            NaN
         13   -1    0    0    0    0  0.00000000000E+00  0.00000000000E+00  0.74505805969E-08  0.10566000000E+00  0.10566000000E+00 0.  1.
     999900   -1    0    0    0    0 -0.00000000000E+00 -0.00000000000E+00 -0.74505805969E-08  0.93827000000E+00  0.93827000000E+00 0.  1.
     999902    2    1    2    0    0 -0.13086055247E-01  0.15747844775E-01  0.12367536252E-01  0.10200093936E+01  0.10197288697E+01 0.  0.
     999903    2    3    3    0    0 -0.11422552583E+00 -0.41667244604E-01  0.46193975575E-01  0.13171332079E+00  0.20757780931E-01 0.  0.
         14    1    1    2    0    0  0.13086055247E-01 -0.15747844775E-01 -0.12367536252E-01  0.23920606387E-01  0.00000000000E+00 0. -1.
     999901    1    3    3    0    0  0.10113947058E+00  0.57415089379E-01 -0.33826439323E-01  0.88829607282E+00  0.88000000000E+00 0.  1.
        -11    1    4    4    0    0 -0.88638469476E-01 -0.22738824823E-01  0.34819251002E-01  0.97910539712E-01  0.51100000000E-03 0.  1.
         11    1    4    4    0    0 -0.25587056356E-01 -0.18928419781E-01  0.11374724573E-01  0.33802781076E-01  0.51100000000E-03 0. -1.
</event>
<event>
 8    1  0.1148488E+005  0.1043930E+01  0.7957747E-01            NaN
         13   -1    0    0    0    0  0.00000000000E+00  0.00000000000E+00  0.74505805969E-08  0.10566000000E+00  0.10566000000E+00 0. -1.
     999900   -1    0    0    0    0 -0.00000000000E+00 -0.00000000000E+00 -0.74505805969E-08  0.93827000000E+00  0.93827000000E+00 0.  1.
     999902    2    1    2    0    0  0.16242870948E-01 -0.13050375380E-01  0.92938484224E-02  0.10211151195E+01  0.10208602101E+01 0.  0.
     999903    2    3    3    0    0  0.62327032030E-01  0.78545123973E-01 -0.81247828068E-01  0.13054716555E+00  0.19681398463E-01 0.  0.
         14    1    1    2    0    0 -0.16242870948E-01  0.13050375380E-01 -0.92938484224E-02  0.22814880510E-01  0.00000000000E+00 0.  1.
     999901    1    3    3    0    0 -0.46084161082E-01 -0.91595499353E-01  0.90541676490E-01  0.89056795394E+00  0.88000000000E+00 0. -1.
        -11    1    4    4    0    0  0.43800168807E-01  0.51877817051E-01 -0.42982645835E-01  0.80358768367E-01  0.51100000000E-03 0.  1.
         11    1    4    4    0    0  0.18526863224E-01  0.26667306922E-01 -0.38265182233E-01  0.50188397182E-01  0.51100000000E-03 0. -1.
</event>
<event>
 8    1  0.1148488E+005  0.1043930E+01  0.7957747E-01            NaN
         13   -1    0    0    0    0  0.00000000000E+00  0.00000000000E+00  0.74505805969E-08  0.10566000000E+00  0.10566000000E+00 0.  1.
     999900   -1    0    0    0    0 -0.00000000000E+00 -0.00000000000E+00 -0.74505805969E-08  0.93827000000E+00  0.93827000000E+00 0. -1.
     999902    2    1    2    0    0  0.16424347165E-01 -0.84447642451E-02  0.14982364435E-01  0.10201488212E+01  0.10198715963E+01 0.  0.
     999903    2    3    3    0    0  0.51673005316E-01 -0.20811406142E-01  0.11921330778E+00  0.13321055314E+00  0.20737034773E-01 0.  0.
         14    1    1    2    0    0 -0.16424347165E-01  0.84447642451E-02 -0.14982364435E-01  0.23781178839E-01  0.00000000000E+00 0. -1.
     999901    1    3    3    0    0 -0.35248658152E-01  0.12366641897E-01 -0.10423094335E+00  0.88693826802E+00  0.88000000000E+00 0. -1.
        -11    1    4    4    0    0  0.13338026588E-01 -0.12811250682E-01  0.24354328254E-01  0.30584726957E-01  0.51100000000E-03 0. -1.
         11    1    4    4    0    0  0.38334978728E-01 -0.80001554595E-02  0.94858979526E-01  0.10262582618E+00  0.51100000000E-03 0.  1.
</event>
<event>
 8    1  0.1148488E+005  0.1043930E+01  0.7957747E-01            NaN
         13   -1    0    0    0    0  0.00000000000E+00  0.00000000000E+00  0.74505805969E-08  0.10566000000E+00  0.10566000000E+00 0. -1.
     999900   -1    0    0    0    0 -0.00000000000E+00 -0.00000000000E+00 -0.74505805969E-08  0.93827000000E+00  0.93827000000E+00 0. -1.
     999902    2    1    2    0    0  0.10814780267E-01 -0.18194433944E-01  0.92959321558E-02  0.10208126634E+01  0.10205508720E+01 0.  0.
     999903    2    3    3    0    0  0.89849417057E-01  0.91988128172E-01  0.50421794419E-02  0.13041681587E+00  0.21175193475E-01 0.  0.
         14    1    1    2    0    0 -0.10814780267E-01  0.18194433944E-01 -0.92959321558E-02  0.23117336642E-01  0.00000000000E+00 0.  1.
     999901    1    3    3    0    0 -0.79034636790E-01 -0.11018256212E+00  0.42537527139E-02  0.89039584749E+00  0.88000000000E+00 0.  1.
        -11    1    4    4    0    0  0.30424542546E-01  0.45974067641E-01  0.78819203857E-03  0.55137555734E-01  0.51100000000E-03 0.  1.
         11    1    4    4    0    0  0.59424874511E-01  0.46014060531E-01  0.42539874033E-02  0.75279260139E-01  0.51100000000E-03 0. -1.
</event>
<event>
 8    1  0.1148488E+005  0.1043930E+01  0.7957747E-01            NaN
         13   -1    0    0    0    0  0.00000000000E+00  0.00000000000E+00  0.74505805969E-08  0.10566000000E+00  0.10566000000E+00 0.  1.
     999900   -1    0    0    0    0 -0.00000000000E+00 -0.00000000000E+00 -0.74505805969E-08  0.93827000000E+00  0.93827000000E+00 0. -1.
     999902    2    1    2    0    0  0.14032247106E-01 -0.11790495658E-01 -0.17319345026E-01  0.10187133496E+01  0.10184012024E+01 0.  0.
     999903    2    3    3    0    0 -0.78767106243E-01 -0.59859292964E-01 -0.82232829244E-01  0.13015491610E+00  0.19765424357E-01 0.  0.
         14    1    1    2    0    0 -0.14032247106E-01  0.11790495658E-01  0.17319345026E-01  0.25216650428E-01  0.00000000000E+00 0. -1.
     999901    1    3    3    0    0  0.92799353349E-01  0.48068797306E-01  0.64913484218E-01  0.88855843347E+00  0.88000000000E+00 0.  1.
        -11    1    4    4    0    0 -0.39172520599E-01 -0.37434585494E-01 -0.54557030413E-01  0.76893206785E-01  0.51100000000E-03 0. -1.
         11    1    4    4    0    0 -0.39594585645E-01 -0.22424707470E-01 -0.27675798831E-01  0.53261709317E-01  0.51100000000E-03 0.  1.
</event>
<event>
 8    1  0.1148488E+005  0.1043930E+01  0.7957747E-01            NaN
         13   -1    0    0    0    0  0.00000000000E+00  0.00000000000E+00  0.74505805969E-08  0.10566000000E+00  0.10566000000E+00 0.  1.
     999900   -1    0    0    0    0 -0.00000000000E+00 -0.00000000000E+00 -0.74505805969E-08  0.93827000000E+00  0.93827000000E+00 0.  1.
     999902    2    1    2    0    0 -0.75901620849E-02  0.20367739467E-01 -0.98208580973E-02  0.10200782784E+01  0.10197993868E+01 0.  0.
     999903    2    3    3    0    0 -0.47380804325E-01 -0.10365007054E+00  0.55108658194E-01  0.12812561454E+00  0.19771978933E-01 0.  0.
         14    1    1    2    0    0  0.75901620849E-02 -0.20367739467E-01  0.98208580973E-02  0.23851721641E-01  0.00000000000E+00 0. -1.
     999901    1    3    3    0    0  0.39790642240E-01  0.12401781001E+00 -0.64929516291E-01  0.89195266382E+00  0.88000000000E+00 0.  1.
        -11    1    4    4    0    0 -0.31845913161E-01 -0.51312329767E-01  0.35844472133E-01  0.70229656661E-01  0.51100000000E-03 0. -1.
         11    1    4    4    0    0 -0.15534891164E-01 -0.52337740777E-01  0.19264186060E-01  0.57895957878E-01  0.51100000000E-03 0.  1.
</event>
<event>
 8    1  0.1148488E+005  0.1043930E+01  0.7957747E-01            NaN
         13   -1    0    0    0    0  0.00000000000E+00  0.00000000000E+00  0.74505805969E-08  0.10566000000E+00  0.10566000000E+00 0. -1.
     999900   -1    0    0    0    0 -0.00000000000E+00 -0.00000000000E+00 -0.74505805969E-08  0.93827000000E+00  0.93827000000E+00 0.  1.
     999902    2    1    2    0    0 -0.10599013833E-01 -0.16182177866E-01  0.11334558507E-01  0.10215096032E+01  0.10212635288E+01 0.  0.
     999903    2    3    3    0    0  0.10509611924E+00 -0.28535216195E-01  0.71386668741E-01  0.13182189548E+00  0.20530533658E-01 0.  0.
         14    1    1    2    0    0  0.10599013833E-01  0.16182177866E-01 -0.11334558507E-01  0.22420396769E-01  0.00000000000E+00 0.  1.
     999901    1    3    3    0    0 -0.11569513307E+00  0.12353038329E-01 -0.60052110234E-01  0.88968770775E+00  0.88000000000E+00 0.  1.
        -11    1    4    4    0    0  0.74880862487E-01 -0.13429482021E-01  0.41206376214E-01  0.86520061927E-01  0.51100000000E-03 0. -1.
         11    1    4    4    0    0  0.30215256754E-01 -0.15105734173E-01  0.30180292527E-01  0.45301833557E-01  0.51100000000E-03 0.  1.
</event>
<event>
 8    1  0.1148488E+005  0.1043930E+01  0.7957747E-01            NaN
         13   -1    0    0    0    0  0.00000000000E+00  0.00000000000E+00  0.74505805969E-08  0.10566000000E+00  0.10566000000E+00 0. -1.
     999900   -1    0    0    0    0 -0.00000000000E+00 -0.00000000000E+00 -0.74505805969E-08  0.93827000000E+00  0.93827000000E+00 0.  1.
     999902    2    1    2    0    0 -0.16851260829E-01 -0.14830716366E-01  0.74449636719E-02  0.10202795746E+01  0.10200054253E+01 0.  0.
     999903    2    3    3    0    0 -0.61300979793E-01  0.38557264292E-01 -0.10638424990E+00  0.13023286575E+00  0.19962914149E-01 0.  0.
         14    1    1    2    0    0  0.16851260829E-01  0.14830716366E-01 -0.74449636719E-02  0.23650425441E-01  0.00000000000E+00 0.  1.
     999901    1    3    3    0    0  0.44449718964E-01 -0.53387980658E-01  0.11382921357E+00  0.89004670881E+00  0.88000000000E+00 0. -1.
        -11    1    4    4    0    0 -0.17822576172E-01  0.17609624529E-01 -0.50614062241E-01  0.56478203894E-01  0.51100000000E-03 0.  1.
         11    1    4    4    0    0 -0.43478403621E-01  0.20947639763E-01 -0.55770187661E-01  0.73754661859E-01  0.51100000000E-03 0. -1.
</event>
<event>
 8    1  0.1260623E+005  0.1043930E+01  0.7957747E-01            NaN
         13   -1    0    0    0    0  0.00000000000E+00  0.00000000000E+00  0.74505805969E-08  0.10566000000E+00  0.10566000000E+00 0.  1.
     999900   -1    0    0    0    0 -0.00000000000E+00 -0.00000000000E+00 -0.74505805969E-08  0.93827000000E+00  0.93827000000E+00 0. -1.
     999902    2    1    2    0    0 -0.24595653435E-02 -0.23125890926E-01 -0.68110918754E-02  0.10196968148E+01  0.10194088222E+01 0.  0.
     999903    2    3    3    0    0  0.63336602621E-01 -0.10054141153E+00  0.52512292977E-01  0.13186712249E+00  0.22611864469E-01 0.  0.
         14    1    1    2    0    0  0.24595653435E-02  0.23125890926E-01  0.68110918754E-02  0.24233185209E-01  0.00000000000E+00 0.  1.
     999901    1    3    3    0    0 -0.65796167964E-01  0.77415520605E-01 -0.59323384852E-01  0.88782969231E+00  0.88000000000E+00 0. -1.
        -11    1    4    4    0    0  0.30757853170E-01 -0.49194138160E-01  0.37968336729E-01  0.69339487133E-01  0.51100000000E-03 0.  1.
         11    1    4    4    0    0  0.32578749450E-01 -0.51347273372E-01  0.14543956248E-01  0.62527635353E-01  0.51100000000E-03 0. -1.
</event>
<event>
 8    1  0.1148488E+005  0.1043930E+01  0.7957747E-01            NaN
         13   -1    0    0    0    0  0.00000000000E+00  0.00000000000E+00  0.74505805969E-08  0.10566000000E+00  0.10566000000E+00 0.  1.
     999900   -1    0    0    0    0 -0.00000000000E+00 -0.00000000000E+00 -0.74505805969E-08  0.93827000000E+00  0.93827000000E+00 0. -1.
     999902    2    1    2    0    0  0.16445770067E-02  0.14320862148E-02 -0.24404706636E-01  0.10194280570E+01  0.10191335625E+01 0.  0.
     999903    2    3    3    0    0 -0.17891744251E-01  0.76751853239E-01 -0.10446224027E+00  0.13237453898E+00  0.19992434554E-01 0.  0.
         14    1    1    2    0    0 -0.16445770067E-02 -0.14320862148E-02  0.24404706636E-01  0.24501942994E-01  0.00000000000E+00 0.  1.
     999901    1    3    3    0    0  0.19536321258E-01 -0.75319767025E-01  0.80057533635E-01  0.88705351803E+00  0.88000000000E+00 0.  1.
        -11    1    4    4    0    0 -0.25334546102E-02  0.51906408091E-01 -0.63353842725E-01  0.81943054020E-01  0.51100000000E-03 0. -1.
         11    1    4    4    0    0 -0.15358289641E-01  0.24845445149E-01 -0.41108397547E-01  0.50431484959E-01  0.51100000000E-03 0.  1.
</event>
<event>
 8    1  0.1148488E+005  0.1043930E+01  0.7957747E-01            NaN
         13   -1    0    0    0    0  0.00000000000E+00  0.00000000000E+00  0.74505805969E-08  0.10566000000E+00  0.10566000000E+00 0.  1.
     999900   -1    0    0    0    0 -0.00000000000E+00 -0.00000000000E+00 -0.74505805969E-08  0.93827000000E+00  0.93827000000E+00 0. -1.
     999902    2    1    2    0    0  0.23009628145E-01  0.76677647543E-02  0.10710958921E-01  0.10174165648E+01  0.10170710418E+01 0.  0.
     999903    2    3    3    0    0  0.56152037961E-01 -0.10231957863E+00  0.51247975503E-01  0.12902538705E+00  0.19971178538E-01 0.  0.
         14    1    1    2    0    0 -0.23009628145E-01 -0.76677647543E-02 -0.10710958921E-01  0.26513435174E-01  0.00000000000E+00 0. -1.
     999901    1    3    3    0    0 -0.33142409816E-01  0.10998734339E+00 -0.40537016582E-01  0.88839117777E+00  0.88000000000E+00 0. -1.
        -11    1    4    4    0    0  0.42648107079E-01 -0.59569980252E-01  0.36302190579E-01  0.81765235562E-01  0.51100000000E-03 0. -1.
         11    1    4    4    0    0  0.13503930883E-01 -0.42749598379E-01  0.14945784924E-01  0.47260151490E-01  0.51100000000E-03 0.  1.
</event>
<event>
 8    1  0.1148488E+005  0.1043930E+01  0.7957747E-01            NaN
         13   -1    0    0    0    0  0.00000000000E+00  0.00000000000E+00  0.74505805969E-08  0.10566000000E+00  0.10566000000E+00 0. -1.
     999900   -1    0    0    0    0 -0.00000000000E+00 -0.00000000000E+00 -0.74505805969E-08  0.93827000000E+00  0.93827000000E+00 0. -1.
     999902    2    1    2    0    0 -0.91123366643E-02 -0.24178455064E-01 -0.41755986993E-02  0.10177561964E+01  0.10174195828E+01 0.  0.
     999903    2    3    3    0    0  0.96378706158E-01 -0.81812485497E-01 -0.19493325247E-01  0.12945181486E+00  0.19890823421E-01 0.  0.
         14    1    1    2    0    0  0.91123366643E-02  0.24178455064E-01  0.41755986993E-02  0.26173803569E-01  0.00000000000E+00 0. -1.
     999901    1    3    3    0    0 -0.10549104282E+00  0.57634030433E-01  0.15317726547E-01  0.88830438158E+00  0.88000000000E+00 0.  1.
        -11    1    4    4    0    0  0.53062951211E-01 -0.35746373688E-01 -0.16841411904E-01  0.66161728355E-01  0.51100000000E-03 0. -1.
         11    1    4    4    0    0  0.43315754947E-01 -0.46066111809E-01 -0.26519133429E-02  0.63290086500E-01  0.51100000000E-03 0.  1.
</event>
<event>
 8    1  0.1148488E+005  0.1043930E+01  0.7957747E-01            NaN
         13   -1    0    0    0    0  0.00000000000E+00  0.00000000000E+00  0.74505805969E-08  0.10566000000E+00  0.10566000000E+00 0.  1.
     999900   -1    0    0    0    0 -0.00000000000E+00 -0.00000000000E+00 -0.74505805969E-08  0.93827000000E+00  0.93827000000E+00 0. -1.
     999902    2    1    2    0    0 -0.20486109558E-01 -0.84760523818E-02  0.84194712844E-02  0.10202147803E+01  0.10199391091E+01 0.  0.
     999903    2    3    3    0    0  0.67070306326E-01 -0.64958395287E-01  0.88881167553E-01  0.13042240812E+00  0.19802108097E-01 0.  0.
         14    1    1    2    0    0  0.20486109558E-01  0.84760523818E-02 -0.84194712844E-02  0.23715219702E-01  0.00000000000E+00 0. -1.
     999901    1    3    3    0    0 -0.87556415883E-01  0.56482342906E-01 -0.80461696268E-01  0.88979237218E+00  0.88000000000E+00 0. -1.
        -11    1    4    4    0    0  0.34251923248E-01 -0.22018946395E-01  0.45961763634E-01  0.61406620847E-01  0.51100000000E-03 0. -1.
         11    1    4    4    0    0  0.32818383078E-01 -0.42939448892E-01  0.42919403919E-01  0.69015787272E-01  0.51100000000E-03 0.  1.
</event>
<event>
 8    1  0.1148488E+005  0.1043930E+01  0.7957747E-01            NaN
         13   -1    0    0    0    0  0.00000000000E+00  0.00000000000E+00  0.74505805969E-08  0.10566000000E+00  0.10566000000E+00 0.  1.
     999900   -1    0    0    0    0 -0.00000000000E+00 -0.00000000000E+00 -0.74505805969E-08  0.93827000000E+00  0.93827000000E+00 0.  1.
     999902    2    1    2    0    0 -0.15818262944E-02  0.13112901525E-01  0.19542496722E-01  0.10203427251E+01  0.10200700550E+01 0.  0.
     999903    2    3    3    0    0 -0.11806599894E+00 -0.20380131950E-01  0.50833334682E-01  0.13148420859E+00  0.18685269876E-01 0.  0.
         14    1    1    2    0    0  0.15818262944E-02 -0.13112901525E-01 -0.19542496722E-01  0.23587274937E-01  0.00000000000E+00 0. -1.
     999901    1    3    3    0    0  0.11648417264E+00  0.33493033475E-01 -0.31290837960E-01  0.88885851647E+00  0.88000000000E+00 0. -1.
        -11    1    4    4    0    0 -0.80156069895E-01 -0.10913383250E-01  0.25126976347E-01  0.84709642523E-01  0.51100000000E-03 0. -1.
         11    1    4    4    0    0 -0.37909929041E-01 -0.94667486997E-02  0.25706358335E-01  0.46774566066E-01  0.51100000000E-03 0.  1.
</event>
<event>
 8    1  0.1148488E+005  0.1043930E+01  0.7957747E-01            NaN
         13   -1    0    0    0    0  0.00000000000E+00  0.00000000000E+00  0.74505805969E-08  0.10566000000E+00  0.10566000000E+00 0.  1.
     999900   -1    0    0    0    0 -0.00000000000E+00 -0.00000000000E+00 -0.74505805969E-08  0.93827000000E+00  0.93827000000E+00 0. -1.
     999902    2    1    2    0    0 -0.33074922693E-04 -0.16527546398E-01  0.17062969460E-01  0.10201748782E+01  0.10198982676E+01 0.  0.
     999903    2    3    3    0    0 -0.78111928780E-01  0.74230386519E-01 -0.62451523205E-01  0.12851582659E+00  0.31693867450E-01 0.  0.
         14    1    1    2    0    0  0.33074922693E-04  0.16527546398E-01 -0.17062969460E-01  0.23755121778E-01  0.00000000000E+00 0. -1.
     999901    1    3    3    0    0  0.78078853857E-01 -0.90757932917E-01  0.79514492665E-01  0.89165905163E+00  0.88000000000E+00 0.  1.
        -11    1    4    4    0    0 -0.51948675274E-01  0.50347883504E-01 -0.23978527349E-01  0.76215517652E-01  0.51100000000E-03 0.  1.
         11    1    4    4    0    0 -0.26163253506E-01  0.23882503015E-01 -0.38472995857E-01  0.52300308942E-01  0.51100000000E-03 0. -1.
</event>
<event>
 8    1  0.1148488E+005  0.1043930E+01  0.7957747E-01            NaN
         13   -1    0    0    0    0  0.00000000000E+00  0.00000000000E+00  0.74505805969E-08  0.10566000000E+00  0.10566000000E+00 0.  1.
     999900   -1    0    0    0    0 -0.00000000000E+00 -0.00000000000E+00 -0.74505805969E-08  0.93827000000E+00  0.93827000000E+00 0.  1.
     999902    2    1    2    0    0 -0.14658800952E-01 -0.11857296561E-01 -0.54576875445E-02  0.10243019007E+01  0.10241138226E+01 0.  0.
     999903    2    3    3    0    0  0.11113697090E+00  0.45991363606E-01  0.50025568158E-01  0.13174969759E+00  0.19717847665E-01 0.  0.
         14    1    1    2    0    0  0.14658800952E-01  0.11857296561E-01  0.54576875445E-02  0.19628099256E-01  0.00000000000E+00 0.  1.
     999901    1    3    3    0    0 -0.12579577185E+00 -0.57848660167E-01 -0.55483255703E-01  0.89255220316E+00  0.88000000000E+00 0.  1.
        -11    1    4    4    0    0  0.61776276446E-01  0.15941157644E-01  0.21705370456E-01  0.67392974902E-01  0.51100000000E-03 0.  1.
         11    1    4    4    0    0  0.49360694457E-01  0.30050205962E-01  0.28320197702E-01  0.64356722683E-01  0.51100000000E-03 0. -1.
</event>
<event>
 7    1  0.1148488E+005  0.1043930E+01  0.7957747E-01            NaN
         13   -1    0    0    0    0  0.00000000000E+00  0.00000000000E+00  0.74505805969E-08  0.10566000000E+00  0.10566000000E+00 0.  1.
     999900   -1    0    0    0    0 -0.00000000000E+00 -0.00000000000E+00 -0.74505805969E-08  0.93827000000E+00  0.93827000000E+00 0.  1.
     999903    2    1    2    0    0 -0.65567756427E-01  0.37877140050E-01 -0.56092202814E-01  0.96348182008E-01  0.20070588895E-01 0.  0.
         14    1    1    2    0    0 -0.10371600353E-01 -0.51723622810E-01  0.36199274805E-01  0.63978830458E-01  0.00000000000E+00 0.  1.
     999901    1    1    2    0    0  0.75939356781E-01  0.13846482760E-01  0.19892928009E-01  0.88360298753E+00  0.88000000000E+00 0. -1.
        -11    1    3    3    0    0 -0.88301947419E-02  0.50610867490E-03 -0.13542011719E-01  0.16182573577E-01  0.51100000000E-03 0. -1.
         11    1    3    3    0    0 -0.56737561685E-01  0.37371031375E-01 -0.42550191095E-01  0.80165608432E-01  0.51100000000E-03 0.  1.
</event>
<event>
 8    1  0.1148488E+005  0.1043930E+01  0.7957747E-01            NaN
         13   -1    0    0    0    0  0.00000000000E+00  0.00000000000E+00  0.74505805969E-08  0.10566000000E+00  0.10566000000E+00 0.  1.
     999900   -1    0    0    0    0 -0.00000000000E+00 -0.00000000000E+00 -0.74505805969E-08  0.93827000000E+00  0.93827000000E+00 0. -1.
     999902    2    1    2    0    0  0.66407769948E-02 -0.22673911076E-02  0.22707036103E-01  0.10201634169E+01  0.10198865362E+01 0.  0.
     999903    2    3    3    0    0 -0.10580551380E+00 -0.62728264761E-01 -0.33922084876E-01  0.12914908322E+00  0.19978385909E-01 0.  0.
         14    1    1    2    0    0 -0.66407769948E-02  0.22673911076E-02 -0.22707036103E-01  0.23766583055E-01  0.00000000000E+00 0. -1.
     999901    1    3    3    0    0  0.11244629080E+00  0.60460873653E-01  0.56629120979E-01  0.89101433372E+00  0.88000000000E+00 0.  1.
        -11    1    4    4    0    0 -0.23070165076E-01 -0.47952175934E-02 -0.77476422526E-02  0.24809548764E-01  0.51100000000E-03 0.  1.
         11    1    4    4    0    0 -0.82735348727E-01 -0.57933047167E-01 -0.26174442624E-01  0.10433953446E+00  0.51100000000E-03 0. -1.
</event>
<event>
 8    1  0.1148488E+005  0.1043930E+01  0.7957747E-01            NaN
         13   -1    0    0    0    0  0.00000000000E+00  0.00000000000E+00  0.74505805969E-08  0.10566000000E+00  0.10566000000E+00 0. -1.
     999900   -1    0    0    0    0 -0.00000000000E+00 -0.00000000000E+00 -0.74505805969E-08  0.93827000000E+00  0.93827000000E+00 0. -1.
     999902    2    1    2    0    0  0.17884854480E-02 -0.19299419931E-01  0.18458515978E-01  0.10171646660E+01  0.10168124580E+01 0.  0.
     999903    2    3    3    0    0  0.89946530893E-01 -0.89487195981E-01 -0.15813661378E-01  0.12931741171E+00  0.19354183542E-01 0.  0.
         14    1    1    2    0    0 -0.17884854480E-02  0.19299419931E-01 -0.18458515978E-01  0.26765333960E-01  0.00000000000E+00 0.  1.
     999901    1    3    3    0    0 -0.88158045445E-01  0.70187776050E-01  0.34272177356E-01  0.88784725433E+00  0.88000000000E+00 0.  1.
        -11    1    4    4    0    0  0.52231824383E-01 -0.53117088535E-01  0.30250822703E-03  0.74497927522E-01  0.51100000000E-03 0.  1.
         11    1    4    4    0    0  0.37714706510E-01 -0.36370107446E-01 -0.16116169605E-01  0.54819484187E-01  0.51100000000E-03 0. -1.
</event>
<event>
 8    1  0.1148488E+005  0.1043930E+01  0.7957747E-01            NaN
         13   -1    0    0    0    0  0.00000000000E+00  0.00000000000E+00  0.74505805969E-08  0.10566000000E+00  0.10566000000E+00 0.  1.
     999900   -1    0    0    0    0 -0.00000000000E+00 -0.00000000000E+00 -0.74505805969E-08  0.93827000000E+00  0.93827000000E+00 0. -1.
     999902    2    1    2    0    0  0.22709017911E-01  0.33849284774E-02  0.63699278576E-02  0.10201028471E+01  0.10198245366E+01 0.  0.
     999903    2    3    3    0    0 -0.51710804393E-01 -0.62435340407E-01 -0.97856716326E-01  0.12840008769E+00  0.18397460864E-01 0.  0.
         14    1    1    2    0    0 -0.22709017911E-01 -0.33849284774E-02 -0.63699278576E-02  0.23827152918E-01  0.00000000000E+00 0. -1.
     999901    1    3    3    0    0  0.74419822304E-01  0.65820268884E-01  0.10422664418E+00  0.89170275939E+00  0.88000000000E+00 0.  1.
        -11    1    4    4    0    0 -0.38873480125E-01 -0.33551402150E-01 -0.56594265414E-01  0.76419997657E-01  0.51100000000E-03 0.  1.
         11    1    4    4    0    0 -0.12837324268E-01 -0.28883938257E-01 -0.41262450912E-01  0.51980090033E-01  0.51100000000E-03 0. -1.
</event>
<event>
 8    1  0.1148488E+005  0.1043930E+01  0.7957747E-01            NaN
         13   -1    0    0    0    0  0.00000000000E+00  0.00000000000E+00  0.74505805969E-08  0.10566000000E+00  0.10566000000E+00 0. -1.
     999900   -1    0    0    0    0 -0.00000000000E+00 -0.00000000000E+00 -0.74505805969E-08  0.93827000000E+00  0.93827000000E+00 0. -1.
     999902    2    1    2    0    0  0.12015928036E-02 -0.22070716256E-01 -0.61841308088E-02  0.10209777928E+01  0.10207197704E+01 0.  0.
     999903    2    3    3    0    0  0.20885409681E-01  0.67555972557E-01 -0.10754202742E+00  0.13041964243E+00  0.21070968298E-01 0.  0.
         14    1    1    2    0    0 -0.12015928036E-02  0.22070716256E-01  0.61841308088E-02  0.22952207196E-01  0.00000000000E+00 0.  1.
     999901    1    3    3    0    0 -0.19683816878E-01 -0.89626688813E-01  0.10135789661E+00  0.89055815037E+00  0.88000000000E+00 0.  1.
        -11    1    4    4    0    0  0.86927498868E-02  0.65616180484E-02 -0.10393412439E-01  0.15063295627E-01  0.51100000000E-03 0. -1.
         11    1    4    4    0    0  0.12192659795E-01  0.60994354509E-01 -0.97148614976E-01  0.11535634680E+00  0.51100000000E-03 0.  1.
</event>
<event>
 8    1  0.1336088E+005  0.1043930E+01  0.7957747E-01            NaN
         13   -1    0    0    0    0  0.00000000000E+00  0.00000000000E+00  0.74505805969E-08  0.10566000000E+00  0.10566000000E+00 0. -1.
     999900   -1    0    0    0    0 -0.00000000000E+00 -0.00000000000E+00 -0.74505805969E-08  0.93827000000E+00  0.93827000000E+00 0. -1.
     999902    2    1    2    0    0  0.23016358327E-01  0.13241436871E-01  0.23006172420E-03  0.10173755027E+01  0.10170288944E+01 0.  0.
     999903    2    3    3    0    0  0.11088289118E+00  0.62344677096E-01 -0.25401227492E-01  0.13126680797E+00  0.20096721074E-01 0.  0.
         14    1    1    2    0    0 -0.23016358327E-01 -0.13241436871E-01 -0.23006172420E-03  0.26554497349E-01  0.00000000000E+00 0. -1.
     999901    1    3    3    0    0 -0.87866532856E-01 -0.49103240225E-01  0.25631289216E-01  0.88610869468E+00  0.88000000000E+00 0.  1.
        -11    1    4    4    0    0  0.50357665160E-01  0.17152032399E-01 -0.87523899519E-02  0.53916158122E-01  0.51100000000E-03 0. -1.
         11    1    4    4    0    0  0.60525226023E-01  0.45192644698E-01 -0.16648837540E-01  0.77350649851E-01  0.51100000000E-03 0.  1.
</event>
<event>
 8    1  0.1148488E+005  0.1043930E+01  0.7957747E-01            NaN
         13   -1    0    0    0    0  0.00000000000E+00  0.00000000000E+00  0.74505805969E-08  0.10566000000E+00  0.10566000000E+00 0.  1.
     999900   -1    0    0    0    0 -0.00000000000E+00 -0.00000000000E+00 -0.74505805969E-08  0.93827000000E+00  0.93827000000E+00 0.  1.
     999902    2    1    2    0    0  0.42197589437E-02  0.27171777144E-01  0.68826510043E-02  0.10155842292E+01  0.10151885755E+01 0.  0.
     999903    2    3    3    0    0 -0.89959358297E-01 -0.80767585562E-01 -0.16378179914E-01  0.12369764536E+00  0.20415035301E-01 0.  0.
         14    1    1    2    0    0 -0.42197589437E-02 -0.27171777144E-01 -0.68826510043E-02  0.28345770823E-01  0.00000000000E+00 0. -1.
     999901    1    3    3    0    0  0.94179117241E-01  0.10793936271E+00  0.23260830918E-01  0.89188658382E+00  0.88000000000E+00 0. -1.
        -11    1    4    4    0    0 -0.59263819180E-01 -0.64626148395E-01 -0.82562641954E-02  0.88074776978E-01  0.51100000000E-03 0. -1.
         11    1    4    4    0    0 -0.30695539117E-01 -0.16141437167E-01 -0.81219157181E-02  0.35622868378E-01  0.51100000000E-03 0.  1.
</event>
<event>
 8    1  0.1148488E+005  0.1043930E+01  0.7957747E-01            NaN
         13   -1    0    0    0    0  0.00000000000E+00  0.00000000000E+00  0.74505805969E-08  0.10566000000E+00  0.10566000000E+00 0.  1.
     999900   -1    0    0    0    0 -0.00000000000E+00 -0.00000000000E+00 -0.74505805969E-08  0.93827000000E+00  0.93827000000E+00 0.  1.
     999902    2    1    2    0    0 -0.18027582418E-01  0.15773998610E-01  0.94447427165E-03  0.10199569987E+01  0.10196752299E+01 0.  0.
     999903    2    3    3    0    0 -0.11896629075E+00 -0.10311372523E-01  0.53263696573E-01  0.13225976965E+00  0.19907851625E-01 0.  0.
         14    1    1    2    0    0  0.18027582418E-01 -0.15773998610E-01 -0.94447427165E-03  0.23973001306E-01  0.00000000000E+00 0. -1.
     999901    1    3    3    0    0  0.10093870834E+00  0.26085371133E-01 -0.52319222301E-01  0.88769722904E+00  0.88000000000E+00 0. -1.
        -11    1    4    4    0    0 -0.28821516500E-02  0.29694560063E-02  0.25383501995E-02  0.48814761950E-02  0.51100000000E-03 0. -1.
         11    1    4    4    0    0 -0.11608413910E+00 -0.13280828529E-01  0.50725346373E-01  0.12737829346E+00  0.51100000000E-03 0.  1.
</event>
<event>
 8    1  0.1148488E+005  0.1043930E+01  0.7957747E-01            NaN
         13   -1    0    0    0    0  0.00000000000E+00  0.00000000000E+00  0.74505805969E-08  0.10566000000E+00  0.10566000000E+00 0.  1.
     999900   -1    0    0    0    0 -0.00000000000E+00 -0.00000000000E+00 -0.74505805969E-08  0.93827000000E+00  0.93827000000E+00 0.  1.
     999902    2    1    2    0    0  0.16331522455E-01 -0.90144827027E-02 -0.13851801195E-01  0.10206952863E+01  0.10204307990E+01 0.  0.
     999903    2    3    3    0    0 -0.10321042388E-01  0.53828003732E-01 -0.11828038008E+00  0.13189560955E+00  0.20055562953E-01 0.  0.
         14    1    1    2    0    0 -0.16331522455E-01  0.90144827027E-02  0.13851801195E-01  0.23234713694E-01  0.00000000000E+00 0.  1.
     999901    1    3    3    0    0  0.26652564843E-01 -0.62842486434E-01  0.10442857888E+00  0.88879967676E+00  0.88000000000E+00 0. -1.
        -11    1    4    4    0    0  0.26115691120E-02  0.20071414109E-01 -0.59882224639E-01  0.63212529662E-01  0.51100000000E-03 0. -1.
         11    1    4    4    0    0 -0.12932611500E-01  0.33756589623E-01 -0.58398155439E-01  0.68683079888E-01  0.51100000000E-03 0.  1.
</event>
<event>
 8    1  0.1148488E+005  0.1043930E+01  0.7957747E-01            NaN
         13   -1    0    0    0    0  0.00000000000E+00  0.00000000000E+00  0.74505805969E-08  0.10566000000E+00  0.10566000000E+00 0.  1.
     999900   -1    0    0    0    0 -0.00000000000E+00 -0.00000000000E+00 -0.74505805969E-08  0.93827000000E+00  0.93827000000E+00 0. -1.
     999902    2    1    2    0    0 -0.31907209960E-02 -0.57139696360E-03  0.24406484440E-01  0.10193092023E+01  0.10190118087E+01 0.  0.
     999903    2    3    3    0    0  0.36245702680E-01 -0.50811427955E-01 -0.10894778325E+00  0.12697369764E+00  0.18898366168E-01 0.  0.
         14    1    1    2    0    0  0.31907209960E-02  0.57139696360E-03 -0.24406484440E-01  0.24620797665E-01  0.00000000000E+00 0. -1.
     999901    1    3    3    0    0 -0.39436423676E-01  0.50240030991E-01  0.13335426769E+00  0.89233550469E+00  0.88000000000E+00 0.  1.
        -11    1    4    4    0    0  0.12820248650E-01 -0.18196519702E-01 -0.57827808423E-01  0.61966028215E-01  0.51100000000E-03 0. -1.
         11    1    4    4    0    0  0.23425454030E-01 -0.32614908253E-01 -0.51119974828E-01  0.65007669426E-01  0.51100000000E-03 0.  1.
</event>
<event>
 8    1  0.1148488E+005  0.1043930E+01  0.7957747E-01            NaN
         13   -1    0    0    0    0  0.00000000000E+00  0.00000000000E+00  0.74505805969E-08  0.10566000000E+00  0.10566000000E+00 0.  1.
     999900   -1    0    0    0    0 -0.00000000000E+00 -0.00000000000E+00 -0.74505805969E-08  0.93827000000E+00  0.93827000000E+00 0.  1.
     999902    2    1    2    0    0 -0.40805247743E-02 -0.96051757834E-02 -0.18467693517E-01  0.10227176030E+01  0.10224975939E+01 0.  0.
     999903    2    3    3    0    0 -0.74516815856E-01 -0.10902053232E+00  0.10925837801E-01  0.13383703511E+00  0.18834694642E-01 0.  0.
         14    1    1    2    0    0  0.40805247743E-02  0.96051757834E-02  0.18467693517E-01  0.21212397038E-01  0.00000000000E+00 0.  1.
     999901    1    3    3    0    0  0.70436291082E-01  0.99415356541E-01 -0.29393531318E-01  0.88888056785E+00  0.88000000000E+00 0. -1.
        -11    1    4    4    0    0 -0.10885555759E-01 -0.18789967062E-01  0.87111971602E-02  0.23403082347E-01  0.51100000000E-03 0. -1.
         11    1    4    4    0    0 -0.63631260097E-01 -0.90230565263E-01  0.22146406410E-02  0.11043395277E+00  0.51100000000E-03 0.  1.
</event>
<event>
 8    1  0.1148488E+005  0.1043930E+01  0.7957747E-01            NaN
         13   -1    0    0    0    0  0.00000000000E+00  0.00000000000E+00  0.74505805969E-08  0.10566000000E+00  0.10566000000E+00 0. -1.
     999900   -1    0    0    0    0 -0.00000000000E+00 -0.00000000000E+00 -0.74505805969E-08  0.93827000000E+00  0.93827000000E+00 0.  1.
     999902    2    1    2    0    0  0.12379679863E-01  0.14222587235E-01  0.13611628661E-01  0.10206745728E+01  0.10204096082E+01 0.  0.
     999903    2    3    3    0    0  0.80973191234E-01  0.10364191989E+00 -0.40229852120E-02  0.13331226431E+00  0.21393226724E-01 0.  0.
         14    1    1    2    0    0 -0.12379679863E-01 -0.14222587235E-01 -0.13611628661E-01  0.23255427237E-01  0.00000000000E+00 0.  1.
     999901    1    3    3    0    0 -0.68593511371E-01 -0.89419332651E-01  0.17634613873E-01  0.88736230845E+00  0.88000000000E+00 0. -1.
        -11    1    4    4    0    0  0.16121064631E-01  0.36469497795E-01 -0.16332359434E-02  0.39910419378E-01  0.51100000000E-03 0. -1.
         11    1    4    4    0    0  0.64852126603E-01  0.67172422091E-01 -0.23897492686E-02  0.93401844934E-01  0.51100000000E-03 0.  1.
</event>
<event>
 8    1  0.1148488E+005  0.1043930E+01  0.7957747E-01            NaN
         13   -1    0    0    0    0  0.00000000000E+00  0.00000000000E+00  0.74505805969E-08  0.10566000000E+00  0.10566000000E+00 0. -1.
     999900   -1    0    0    0    0 -0.00000000000E+00 -0.00000000000E+00 -0.74505805969E-08  0.93827000000E+00  0.93827000000E+00 0. -1.
     999902    2    1    2    0    0  0.21708099780E-01  0.95274729493E-02  0.39514183473E-02  0.10198961064E+01  0.10196128872E+01 0.  0.
     999903    2    3    3    0    0 -0.12088475892E+00  0.82827368295E-03  0.36151987190E-01  0.12779450000E+00  0.20264675580E-01 0.  0.
         14    1    1    2    0    0 -0.21708099780E-01 -0.95274729493E-02 -0.39514183473E-02  0.24033893646E-01  0.00000000000E+00 0.  1.
     999901    1    3    3    0    0  0.14259285870E+00  0.86991992663E-02 -0.32200568842E-01  0.89210160635E+00  0.88000000000E+00 0.  1.
        -11    1    4    4    0    0 -0.58406036810E-01  0.10040359803E-01  0.20693998634E-01  0.62774012627E-01  0.51100000000E-03 0. -1.
         11    1    4    4    0    0 -0.62478722112E-01 -0.92120861205E-02  0.15457988555E-01  0.65020487376E-01  0.51100000000E-03 0.  1.
</event>
<event>
 8    1  0.1148488E+005  0.1043930E+01  0.7957747E-01            NaN
         13   -1    0    0    0    0  0.00000000000E+00  0.00000000000E+00  0.74505805969E-08  0.10566000000E+00  0.10566000000E+00 0. -1.
     999900   -1    0    0    0    0 -0.00000000000E+00 -0.00000000000E+00 -0.74505805969E-08  0.93827000000E+00  0.93827000000E+00 0.  1.
     999902    2    1    2    0    0 -0.82911521396E-02  0.11412629224E-01  0.19489919081E-01  0.10198707345E+01  0.10195869099E+01 0.  0.
     999903    2    3    3    0    0 -0.15504114813E-01  0.13439968794E-01  0.12987211080E+00  0.13294324865E+00  0.19650238183E-01 0.  0.
         14    1    1    2    0    0  0.82911521396E-02 -0.11412629224E-01 -0.19489919081E-01  0.24059265479E-01  0.00000000000E+00 0.  1.
     999901    1    3    3    0    0  0.72129626730E-02 -0.20273395698E-02 -0.11038219172E+00  0.88692748587E+00  0.88000000000E+00 0.  1.
        -11    1    4    4    0    0  0.36615962789E-03  0.11728199171E-01  0.41066927915E-01  0.42713445402E-01  0.51100000000E-03 0.  1.
         11    1    4    4    0    0 -0.15870274440E-01  0.17117696228E-02  0.88805182889E-01  0.90229803253E-01  0.51100000000E-03 0. -1.
</event>
<event>
 8    1  0.1148488E+005  0.1043930E+01  0.7957747E-01            NaN
         13   -1    0    0    0    0  0.00000000000E+00  0.00000000000E+00  0.74505805969E-08  0.10566000000E+00  0.10566000000E+00 0. -1.
     999900   -1    0    0    0    0 -0.00000000000E+00 -0.00000000000E+00 -0.74505805969E-08  0.93827000000E+00  0.93827000000E+00 0. -1.
     999902    2    1    2    0    0 -0.10895780255E-02  0.17668563420E-01  0.13719734262E-01  0.10215336516E+01  0.10212881106E+01 0.  0.
     999903    2    3    3    0    0 -0.35366941219E-01 -0.10157779316E+00  0.71896194646E-01  0.13092760416E+00  0.20102391223E-01 0.  0.
         14    1    1    2    0    0  0.10895780255E-02 -0.17668563420E-01 -0.13719734262E-01  0.22396348404E-01  0.00000000000E+00 0.  1.
     999901    1    3    3    0    0  0.34277363194E-01  0.11924635658E+00 -0.58176460385E-01  0.89060604743E+00  0.88000000000E+00 0. -1.
        -11    1    4    4    0    0 -0.10571385485E-01 -0.28336035382E-01  0.99326080047E-02  0.31837131074E-01  0.51100000000E-03 0.  1.
         11    1    4    4    0    0 -0.24795555734E-01 -0.73241757775E-01  0.61963586642E-01  0.99090473087E-01  0.51100000000E-03 0. -1.
</event>
<event>
 8    1  0.1148488E+005  0.1043930E+01  0.7957747E-01            NaN
         13   -1    0    0    0    0  0.00000000000E+00  0.00000000000E+00  0.74505805969E-08  0.10566000000E+00  0.10566000000E+00 0.  1.
     999900   -1    0    0    0    0 -0.00000000000E+00 -0.00000000000E+00 -0.74505805969E-08  0.93827000000E+00  0.93827000000E+00 0. -1.
     999902    2    1    2    0    0 -0.55310243238E-02  0.21387819660E-02  0.22961733133E-01  0.10202148612E+01  0.10199391919E+01 0.  0.
     999903    2    3    3    0    0  0.78815975928E-01 -0.64164186647E-01  0.81433578352E-01  0.13177270961E+00  0.20090256456E-01 0.  0.
         14    1    1    2    0    0  0.55310243238E-02 -0.21387819660E-02 -0.22961733133E-01  0.23715138769E-01  0.00000000000E+00 0. -1.
     999901    1    3    3    0    0 -0.84347000252E-01  0.66302968613E-01 -0.58471845218E-01  0.88844215162E+00  0.88000000000E+00 0.  1.
        -11    1    4    4    0    0  0.17771912329E-01 -0.26204900139E-01  0.23113291251E-01  0.39204885060E-01  0.51100000000E-03 0. -1.
         11    1    4    4    0    0  0.61044063599E-01 -0.37959286508E-01  0.58320287101E-01  0.92567824547E-01  0.51100000000E-03 0.  1.
</event>
<event>
 8    1  0.1148488E+005  0.1043930E+01  0.7957747E-01            NaN
         13   -1    0    0    0    0  0.00000000000E+00  0.00000000000E+00  0.74505805969E-08  0.10566000000E+00  0.10566000000E+00 0.  1.
     999900   -1    0    0    0    0 -0.00000000000E+00 -0.00000000000E+00 -0.74505805969E-08  0.93827000000E+00  0.93827000000E+00 0. -1.
     999902    2    1    2    0    0 -0.12339259411E-01  0.21723699214E-01 -0.88938241350E-03  0.10189306514E+01  0.10186239271E+01 0.  0.
     999903    2    3    3    0    0  0.84135202122E-01 -0.16696101078E-01  0.92631549629E-01  0.12790339730E+00  0.20522744140E-01 0.  0.
         14    1    1    2    0    0  0.12339259411E-01 -0.21723699214E-01  0.88938241350E-03  0.24999348620E-01  0.00000000000E+00 0.  1.
     999901    1    3    3    0    0 -0.96474461533E-01  0.38419800292E-01 -0.93520932043E-01  0.89102725408E+00  0.88000000000E+00 0. -1.
        -11    1    4    4    0    0  0.48136995031E-01 -0.12210111231E-01  0.67359268455E-01  0.83688644837E-01  0.51100000000E-03 0.  1.
         11    1    4    4    0    0  0.35998207090E-01 -0.44859898476E-02  0.25272281174E-01  0.44214752463E-01  0.51100000000E-03 0. -1.
</event>
<event>
 8    1  0.1148488E+005  0.1043930E+01  0.7957747E-01            NaN
         13   -1    0    0    0    0  0.00000000000E+00  0.00000000000E+00  0.74505805969E-08  0.10566000000E+00  0.10566000000E+00 0.  1.
     999900   -1    0    0    0    0 -0.00000000000E+00 -0.00000000000E+00 -0.74505805969E-08  0.93827000000E+00  0.93827000000E+00 0. -1.
     999902    2    1    2    0    0 -0.31819088966E-02  0.13423010650E-01  0.20876843121E-01  0.10189071237E+01  0.10185998147E+01 0.  0.
     999903    2    3    3    0    0  0.11136866317E+00 -0.27155182001E-01 -0.51660142948E-01  0.12759907504E+00  0.21734086935E-01 0.  0.
         14    1    1    2    0    0  0.31819088966E-02 -0.13423010650E-01 -0.20876843121E-01  0.25022876290E-01  0.00000000000E+00 0. -1.
     999901    1    3    3    0    0 -0.11455057207E+00  0.40578192651E-01  0.72536986069E-01  0.89130804867E+00  0.88000000000E+00 0. -1.
        -11    1    4    4    0    0  0.60686270778E-01 -0.25831103849E-01 -0.30200943690E-01  0.72542590992E-01  0.51100000000E-03 0. -1.
         11    1    4    4    0    0  0.50682392393E-01 -0.13240781514E-02 -0.21459199258E-01  0.55056484045E-01  0.51100000000E-03 0.  1.
</event>
<event>
 8    1  0.1148488E+005  0.1043930E+01  0.7957747E-01            NaN
         13   -1    0    0    0    0  0.00000000000E+00  0.00000000000E+00  0.74505805969E-08  0.10566000000E+00  0.10566000000E+00 0. -1.
     999900   -1    0    0    0    0 -0.00000000000E+00 -0.00000000000E+00 -0.74505805969E-08  0.93827000000E+00  0.93827000000E+00 0. -1.
     999902    2    1    2    0    0 -0.17921721959E-01  0.84312496540E-02  0.11494468556E-01  0.10210302861E+01  0.10207734559E+01 0.  0.
     999903    2    3    3    0    0  0.70735082776E-01 -0.10287449082E+00  0.26964467097E-01  0.12946519161E+00  0.21155154317E-01 0.  0.
         14    1    1    2    0    0  0.17921721959E-01 -0.84312496540E-02 -0.11494468556E-01  0.22899713886E-01  0.00000000000E+00 0.  1.
     999901    1    3    3    0    0 -0.88656804734E-01  0.11130574048E+00 -0.15469998542E-01  0.89156509451E+00  0.88000000000E+00 0. -1.
        -11    1    4    4    0    0  0.50261424522E-01 -0.79758212627E-01  0.28658988184E-01  0.98535181540E-01  0.51100000000E-03 0.  1.
         11    1    4    4    0    0  0.20473658253E-01 -0.23116278198E-01 -0.16945210867E-02  0.30930010066E-01  0.51100000000E-03 0. -1.
</event>
<event>
 8    1  0.1148488E+005  0.1043930E+01  0.7957747E-01            NaN
         13   -1    0    0    0    0  0.00000000000E+00  0.00000000000E+00  0.74505805969E-08  0.10566000000E+00  0.10566000000E+00 0.  1.
     999900   -1    0    0    0    0 -0.00000000000E+00 -0.00000000000E+00 -0.74505805969E-08  0.93827000000E+00  0.93827000000E+00 0.  1.
     999902    2    1    2    0    0 -0.87976248675E-02 -0.15651012504E-02 -0.20486748282E-01  0.10215792819E+01  0.10213347515E+01 0.  0.
     999903    2    3    3    0    0 -0.11339691639E+00  0.57489315797E-01  0.26771668157E-01  0.13216273499E+00  0.24215371679E-01 0.  0.
         14    1    1    2    0    0  0.87976248675E-02  0.15651012504E-02  0.20486748282E-01  0.22350718118E-01  0.00000000000E+00 0.  1.
     999901    1    3    3    0    0  0.10459929153E+00 -0.59054417048E-01 -0.47258416438E-01  0.88941654689E+00  0.88000000000E+00 0.  1.
        -11    1    4    4    0    0 -0.75594644304E-01  0.31655495509E-01  0.68972868587E-02  0.82246302837E-01  0.51100000000E-03 0. -1.
         11    1    4    4    0    0 -0.37802272090E-01  0.25833820289E-01  0.19874381298E-01  0.49916432153E-01  0.51100000000E-03 0.  1.
</event>
<event>
 8    1  0.1148488E+005  0.1043930E+01  0.7957747E-01            NaN
         13   -1    0    0    0    0  0.00000000000E+00  0.00000000000E+00  0.74505805969E-08  0.10566000000E+00  0.10566000000E+00 0. -1.
     999900   -1    0    0    0    0 -0.00000000000E+00 -0.00000000000E+00 -0.74505805969E-08  0.93827000000E+00  0.93827000000E+00 0.  1.
     999902    2    1    2    0    0 -0.23358937612E-02 -0.18845467936E-02  0.23090452624E-01  0.10206453072E+01  0.10203796677E+01 0.  0.
     999903    2    3    3    0    0 -0.29212744787E-01 -0.65938736646E-01 -0.10518579804E+00  0.12863628211E+00  0.16791054702E-01 0.  0.
         14    1    1    2    0    0  0.23358937612E-02  0.18845467936E-02 -0.23090452624E-01  0.23284692798E-01  0.00000000000E+00 0.  1.
     999901    1    3    3    0    0  0.26876851025E-01  0.64054189853E-01  0.12827625066E+00  0.89200902509E+00  0.88000000000E+00 0. -1.
        -11    1    4    4    0    0 -0.97914033531E-02 -0.34747275519E-01 -0.40623131753E-01  0.54348364189E-01  0.51100000000E-03 0.  1.
         11    1    4    4    0    0 -0.19421341433E-01 -0.31191461127E-01 -0.64562666286E-01  0.74287917923E-01  0.51100000000E-03 0. -1.
</event>
<event>
 8    1  0.1148488E+005  0.1043930E+01  0.7957747E-01            NaN
         13   -1    0    0    0    0  0.00000000000E+00  0.00000000000E+00  0.74505805969E-08  0.10566000000E+00  0.10566000000E+00 0. -1.
     999900   -1    0    0    0    0 -0.00000000000E+00 -0.00000000000E+00 -0.74505805969E-08  0.93827000000E+00  0.93827000000E+00 0. -1.
     999902    2    1    2    0    0  0.17002797009E-01  0.73361956859E-02 -0.14105568432E-01  0.10206516424E+01  0.10203861490E+01 0.  0.
     999903    2    3    3    0    0 -0.54959707277E-01  0.35327255079E-01 -0.11267814265E+00  0.13178795551E+00  0.20077774071E-01 0.  0.
         14    1    1    2    0    0 -0.17002797009E-01 -0.73361956859E-02  0.14105568432E-01  0.23278357632E-01  0.00000000000E+00 0. -1.
     999901    1    3    3    0    0  0.71962504285E-01 -0.27991059393E-01  0.98572574215E-01  0.88886368686E+00  0.88000000000E+00 0.  1.
        -11    1    4    4    0    0 -0.20734467009E-01  0.16058790397E-01 -0.27581520992E-01  0.38063161881E-01  0.51100000000E-03 0.  1.
         11    1    4    4    0    0 -0.34225240268E-01  0.19268464682E-01 -0.85096621654E-01  0.93724793628E-01  0.51100000000E-03 0. -1.
</event>
<event>
 8    1  0.1148488E+005  0.1043930E+01  0.7957747E-01            NaN
         13   -1    0    0    0    0  0.00000000000E+00  0.00000000000E+00  0.74505805969E-08  0.10566000000E+00  0.10566000000E+00 0.  1.
     999900   -1    0    0    0    0 -0.00000000000E+00 -0.00000000000E+00 -0.74505805969E-08  0.93827000000E+00  0.93827000000E+00 0.  1.
     999902    2    1    2    0    0  0.23285340252E-01  0.41302915003E-02  0.15665122567E-02  0.10202293599E+01  0.10199540316E+01 0.  0.
     999903    2    3    3    0    0  0.88093391460E-01 -0.90185082402E-01 -0.31457701815E-01  0.13220567109E+00  0.24391755918E-01 0.  0.
         14    1    1    2    0    0 -0.23285340252E-01 -0.41302915003E-02 -0.15665122567E-02  0.23700640058E-01  0.00000000000E+00 0. -1.
     999901    1    3    3    0    0 -0.64808051209E-01  0.94315373902E-01  0.33024214072E-01  0.88802368886E+00  0.88000000000E+00 0.  1.
        -11    1    4    4    0    0  0.64933867627E-01 -0.49778519988E-01 -0.19166344666E-01  0.84035219438E-01  0.51100000000E-03 0.  1.
         11    1    4    4    0    0  0.23159523834E-01 -0.40406562414E-01 -0.12291357150E-01  0.48170451647E-01  0.51100000000E-03 0. -1.
</event>
<event>
 8    1  0.1148488E+005  0.1043930E+01  0.7957747E-01            NaN
         13   -1    0    0    0    0  0.00000000000E+00  0.00000000000E+00  0.74505805969E-08  0.10566000000E+00  0.10566000000E+00 0.  1.
     999900   -1    0    0    0    0 -0.00000000000E+00 -0.00000000000E+00 -0.74505805969E-08  0.93827000000E+00  0.93827000000E+00 0.  1.
     999902    2    1    2    0    0 -0.23103052747E-02 -0.23077910439E-01 -0.43626556827E-02  0.10203299952E+01  0.10200570273E+01 0.  0.
     999903    2    3    3    0    0  0.53113885382E-01  0.11374169397E+00 -0.13710520383E-01  0.12798542745E+00  0.20833470734E-01 0.  0.
         14    1    1    2    0    0  0.23103052747E-02  0.23077910439E-01  0.43626556827E-02  0.23600004773E-01  0.00000000000E+00 0. -1.
     999901    1    3    3    0    0 -0.55424190657E-01 -0.13681960441E+00  0.93478647003E-02  0.89234456777E+00  0.88000000000E+00 0. -1.
        -11    1    4    4    0    0  0.30158473055E-01  0.71268022676E-01  0.13765927345E-02  0.77400391999E-01  0.51100000000E-03 0.  1.
         11    1    4    4    0    0  0.22955412327E-01  0.42473671297E-01 -0.15087113118E-01  0.50585035453E-01  0.51100000000E-03 0. -1.
</event>
<event>
 8    1  0.1148488E+005  0.1043930E+01  0.7957747E-01            NaN
         13   -1    0    0    0    0  0.00000000000E+00  0.00000000000E+00  0.74505805969E-08  0.10566000000E+00  0.10566000000E+00 0. -1.
     999900   -1    0    0    0    0 -0.00000000000E+00 -0.00000000000E+00 -0.74505805969E-08  0.93827000000E+00  0.93827000000E+00 0.  1.
     999902    2    1    2    0    0  0.93708422697E-02  0.46647859090E-02 -0.20971045608E-01  0.10204916198E+01  0.10202224211E+01 0.  0.
     999903    2    3    3    0    0 -0.12463139156E+00 -0.27248287101E-01  0.66106099519E-02  0.12934865112E+00  0.20295824025E-01 0.  0.
         14    1    1    2    0    0 -0.93708422697E-02 -0.46647859090E-02  0.20971045608E-01  0.23438380198E-01  0.00000000000E+00 0. -1.
     999901    1    3    3    0    0  0.13400223383E+00  0.31913073010E-01 -0.27581655560E-01  0.89114296868E+00  0.88000000000E+00 0. -1.
        -11    1    4    4    0    0 -0.35300972684E-01 -0.11142632735E-01 -0.66475541346E-02  0.37613402315E-01  0.51100000000E-03 0. -1.
         11    1    4    4    0    0 -0.89330418872E-01 -0.16105654365E-01  0.13258164086E-01  0.91735248810E-01  0.51100000000E-03 0.  1.
</event>
<event>
 7    1  0.1148488E+005  0.1043930E+01  0.7957747E-01            NaN
         13   -1    0    0    0    0  0.00000000000E+00  0.00000000000E+00  0.74505805969E-08  0.10566000000E+00  0.10566000000E+00 0.  1.
     999900   -1    0    0    0    0 -0.00000000000E+00 -0.00000000000E+00 -0.74505805969E-08  0.93827000000E+00  0.93827000000E+00 0.  1.
     999903    2    1    2    0    0  0.66835611008E-02  0.31234232274E-01  0.94751870485E-01  0.10185476198E+00  0.19396605943E-01 0.  0.
         14    1    1    2    0    0 -0.52486007911E-01 -0.13643979685E-01 -0.18986301655E-01  0.57457974717E-01  0.00000000000E+00 0. -1.
     999901    1    1    2    0    0  0.45802446810E-01 -0.17590252589E-01 -0.75765568830E-01  0.88461726331E+00  0.88000000000E+00 0.  1.
        -11    1    3    3    0    0  0.80610607520E-02  0.48762081854E-02  0.39627312685E-01  0.40735035759E-01  0.51100000000E-03 0.  1.
         11    1    3    3    0    0 -0.13774996512E-02  0.26358024088E-01  0.55124557801E-01  0.61119726217E-01  0.51100000000E-03 0. -1.
</event>
<event>
 8    1  0.1148488E+005  0.1043930E+01  0.7957747E-01            NaN
         13   -1    0    0    0    0  0.00000000000E+00  0.00000000000E+00  0.74505805969E-08  0.10566000000E+00  0.10566000000E+00 0. -1.
     999900   -1    0    0    0    0 -0.00000000000E+00 -0.00000000000E+00 -0.74505805969E-08  0.93827000000E+00  0.93827000000E+00 0. -1.
     999902    2    1    2    0    0  0.93697377414E-02  0.54987949678E-02 -0.19595005706E-01  0.10215248002E+01  0.10212790629E+01 0.  0.
     999903    2    3    3    0    0  0.51935655010E-01 -0.43979203341E-01 -0.11372905350E+00  0.13410091689E+00  0.20427327659E-01 0.  0.
         14    1    1    2    0    0 -0.93697377414E-02 -0.54987949678E-02  0.19595005706E-01  0.22405199844E-01  0.00000000000E+00 0. -1.
     999901    1    3    3    0    0 -0.42565917269E-01  0.49477998308E-01  0.94134047789E-01  0.88742388326E+00  0.88000000000E+00 0.  1.
        -11    1    4    4    0    0  0.11173108601E-01 -0.15442365787E-01 -0.18052694091E-01  0.26257682720E-01  0.51100000000E-03 0.  1.
         11    1    4    4    0    0  0.40762546409E-01 -0.28536837554E-01 -0.95676359404E-01  0.10784323417E+00  0.51100000000E-03 0. -1.
</event>
<event>
 8    1  0.1148488E+005  0.1043930E+01  0.7957747E-01            NaN
         13   -1    0    0    0    0  0.00000000000E+00  0.00000000000E+00  0.74505805969E-08  0.10566000000E+00  0.10566000000E+00 0. -1.
     999900   -1    0    0    0    0 -0.00000000000E+00 -0.00000000000E+00 -0.74505805969E-08  0.93827000000E+00  0.93827000000E+00 0. -1.
     999902    2    1    2    0    0 -0.50609166845E-02 -0.11808728028E-01  0.20297980950E-01  0.10199077818E+01  0.10196248410E+01 0.  0.
     999903    2    3    3    0    0 -0.50984608491E-01  0.11696121790E+00  0.23581664554E-02  0.12917071547E+00  0.20003899379E-01 0.  0.
         14    1    1    2    0    0  0.50609166845E-02  0.11808728028E-01 -0.20297980950E-01  0.24022218173E-01  0.00000000000E+00 0.  1.
     999901    1    3    3    0    0  0.45923691807E-01 -0.12876994592E+00  0.17939814494E-01  0.89073706636E+00  0.88000000000E+00 0.  1.
        -11    1    4    4    0    0 -0.15343487629E-01  0.55297466347E-01  0.68945050544E-02  0.57801623835E-01  0.51100000000E-03 0.  1.
         11    1    4    4    0    0 -0.35641120862E-01  0.61663751550E-01 -0.45363385989E-02  0.71369091632E-01  0.51100000000E-03 0. -1.
</event>
<event>
 8    1  0.1148488E+005  0.1043930E+01  0.7957747E-01            NaN
         13   -1    0    0    0    0  0.00000000000E+00  0.00000000000E+00  0.74505805969E-08  0.10566000000E+00  0.10566000000E+00 0. -1.
     999900   -1    0    0    0    0 -0.00000000000E+00 -0.00000000000E+00 -0.74505805969E-08  0.93827000000E+00  0.93827000000E+00 0. -1.
     999902    2    1    2    0    0 -0.47360017458E-02  0.18190484509E-01  0.11732769474E-01  0.10217719017E+01  0.10215316137E+01 0.  0.
     999903    2    3    3    0    0 -0.44014586739E-02 -0.12901648105E+00  0.31549369242E-03  0.12947130395E+00  0.99042308857E-02 0.  0.
         14    1    1    2    0    0  0.47360017458E-02 -0.18190484509E-01 -0.11732769474E-01  0.22158098265E-01  0.00000000000E+00 0. -1.
     999901    1    3    3    0    0 -0.33454307192E-03  0.14720696555E+00  0.11417275782E-01  0.89230059779E+00  0.88000000000E+00 0.  1.
        -11    1    4    4    0    0  0.23621392666E-02 -0.53043465384E-01  0.25972957089E-02  0.53161978781E-01  0.51100000000E-03 0.  1.
         11    1    4    4    0    0 -0.67635979405E-02 -0.75973015662E-01 -0.22818020164E-02  0.76309325166E-01  0.51100000000E-03 0. -1.
</event>
<event>
 8    1  0.1148488E+005  0.1043930E+01  0.7957747E-01            NaN
         13   -1    0    0    0    0  0.00000000000E+00  0.00000000000E+00  0.74505805969E-08  0.10566000000E+00  0.10566000000E+00 0. -1.
     999900   -1    0    0    0    0 -0.00000000000E+00 -0.00000000000E+00 -0.74505805969E-08  0.93827000000E+00  0.93827000000E+00 0.  1.
     999902    2    1    2    0    0  0.22105209116E-01 -0.57286294675E-02  0.82956963792E-02  0.10196344028E+01  0.10193449069E+01 0.  0.
     999903    2    3    3    0    0 -0.10223925170E+00 -0.22829473407E-01  0.71706293498E-01  0.12846949794E+00  0.19712177195E-01 0.  0.
         14    1    1    2    0    0 -0.22105209116E-01  0.57286294675E-02 -0.82956963792E-02  0.24295597216E-01  0.00000000000E+00 0.  1.
     999901    1    3    3    0    0  0.12434446082E+00  0.17100843939E-01 -0.63410597119E-01  0.89116490484E+00  0.88000000000E+00 0.  1.
        -11    1    4    4    0    0 -0.47127287433E-01 -0.18666872733E-01  0.27343421336E-01  0.57596503104E-01  0.51100000000E-03 0.  1.
         11    1    4    4    0    0 -0.55111964265E-01 -0.41626006738E-02  0.44362872162E-01  0.70872994836E-01  0.51100000000E-03 0. -1.
</event>
<event>
 8    1  0.1148488E+005  0.1043930E+01  0.7957747E-01            NaN
         13   -1    0    0    0    0  0.00000000000E+00  0.00000000000E+00  0.74505805969E-08  0.10566000000E+00  0.10566000000E+00 0.  1.
     999900   -1    0    0    0    0 -0.00000000000E+00 -0.00000000000E+00 -0.74505805969E-08  0.93827000000E+00  0.93827000000E+00 0. -1.
     999902    2    1    2    0    0  0.75660162308E-02 -0.16113305347E-02  0.21883675493E-01  0.10207193076E+01  0.10204553732E+01 0.  0.
     999903    2    3    3    0    0  0.79964405720E-02  0.86485163603E-01  0.98595029533E-01  0.13299986467E+00  0.20599941009E-01 0.  0.
         14    1    1    2    0    0 -0.75660162308E-02  0.16113305347E-02 -0.21883675493E-01  0.23210692380E-01  0.00000000000E+00 0. -1.
     999901    1    3    3    0    0 -0.43042434118E-03 -0.88096494138E-01 -0.76711354040E-01  0.88771944295E+00  0.88000000000E+00 0. -1.
        -11    1    4    4    0    0 -0.30609021333E-02  0.40371412718E-01  0.57010790445E-01  0.69926471632E-01  0.51100000000E-03 0.  1.
         11    1    4    4    0    0  0.11057342705E-01  0.46113750885E-01  0.41584239088E-01  0.63073393043E-01  0.51100000000E-03 0. -1.
</event>
<event>
 8    1  0.1148488E+005  0.1043930E+01  0.7957747E-01            NaN
         13   -1    0    0    0    0  0.00000000000E+00  0.00000000000E+00  0.74505805969E-08  0.10566000000E+00  0.10566000000E+00 0.  1.
     999900   -1    0    0    0    0 -0.00000000000E+00 -0.00000000000E+00 -0.74505805969E-08  0.93827000000E+00  0.93827000000E+00 0. -1.
     999902    2    1    2    0    0  0.62426768607E-02 -0.14992596499E-01 -0.16311357102E-01  0.10209124125E+01  0.10206529012E+01 0.  0.
     999903    2    3    3    0    0 -0.69792296404E-01 -0.10451882138E+00  0.33443496567E-01  0.13171512979E+00  0.20862868738E-01 0.  0.
         14    1    1    2    0    0 -0.62426768607E-02  0.14992596499E-01  0.16311357102E-01  0.23017587508E-01  0.00000000000E+00 0.  1.
     999901    1    3    3    0    0  0.76034973265E-01  0.89526224885E-01 -0.49754853669E-01  0.88919728270E+00  0.88000000000E+00 0. -1.
        -11    1    4    4    0    0 -0.42348669790E-01 -0.48754345067E-01  0.23753705744E-01  0.68810578063E-01  0.51100000000E-03 0.  1.
         11    1    4    4    0    0 -0.27443626615E-01 -0.55764476317E-01  0.96897908236E-02  0.62904551727E-01  0.51100000000E-03 0. -1.
</event>
<event>
 7    1  0.1148488E+005  0.1043930E+01  0.7957747E-01            NaN
         13   -1    0    0    0    0  0.00000000000E+00  0.00000000000E+00  0.74505805969E-08  0.10566000000E+00  0.10566000000E+00 0. -1.
     999900   -1    0    0    0    0 -0.00000000000E+00 -0.00000000000E+00 -0.74505805969E-08  0.93827000000E+00  0.93827000000E+00 0.  1.
     999903    2    1    2    0    0 -0.71598488589E-01  0.19210912742E-01 -0.78877876346E-01  0.10978783406E+00  0.18337022507E-01 0.  0.
         14    1    1    2    0    0 -0.33314338541E-02  0.18186538335E-01 -0.38207516442E-01  0.42446000292E-01  0.00000000000E+00 0.  1.
     999901    1    1    2    0    0  0.74929922443E-01 -0.37397451077E-01  0.11708539279E+00  0.89169616565E+00  0.88000000000E+00 0.  1.
        -11    1    3    3    0    0 -0.36010524094E-01  0.17995356410E-02 -0.30292879919E-01  0.47094754154E-01  0.51100000000E-03 0. -1.
         11    1    3    3    0    0 -0.35587964495E-01  0.17411377101E-01 -0.48584996427E-01  0.62693079907E-01  0.51100000000E-03 0.  1.
</event>
<event>
 8    1  0.1234939E+005  0.1043930E+01  0.7957747E-01            NaN
         13   -1    0    0    0    0  0.00000000000E+00  0.00000000000E+00  0.74505805969E-08  0.10566000000E+00  0.10566000000E+00 0. -1.
     999900   -1    0    0    0    0 -0.00000000000E+00 -0.00000000000E+00 -0.74505805969E-08  0.93827000000E+00  0.93827000000E+00 0.  1.
     999902    2    1    2    0    0  0.16330060730E-01 -0.16882010683E-01  0.34963174078E-02  0.10201834760E+01  0.10199070679E+01 0.  0.
     999903    2    3    3    0    0 -0.13489066561E-01 -0.15731865063E-01 -0.12650018638E+00  0.13013314358E+00  0.22425240472E-01 0.  0.
         14    1    1    2    0    0 -0.16330060730E-01  0.16882010683E-01 -0.34963174078E-02  0.23746524031E-01  0.00000000000E+00 0.  1.
     999901    1    3    3    0    0  0.29819127291E-01 -0.11501456194E-02  0.12999650378E+00  0.89005033239E+00  0.88000000000E+00 0. -1.
        -11    1    4    4    0    0 -0.15000447408E-01 -0.12422719879E-02 -0.48572121405E-01  0.50853404615E-01  0.51100000000E-03 0. -1.
         11    1    4    4    0    0  0.15113808469E-02 -0.14489593075E-01 -0.77928064971E-01  0.79279738967E-01  0.51100000000E-03 0.  1.
</event>
<event>
 8    1  0.1148488E+005  0.1043930E+01  0.7957747E-01            NaN
         13   -1    0    0    0    0  0.00000000000E+00  0.00000000000E+00  0.74505805969E-08  0.10566000000E+00  0.10566000000E+00 0.  1.
     999900   -1    0    0    0    0 -0.00000000000E+00 -0.00000000000E+00 -0.74505805969E-08  0.93827000000E+00  0.93827000000E+00 0. -1.
     999902    2    1    2    0    0 -0.19293189641E-01 -0.13328371962E-01  0.59815202088E-05  0.10204806354E+01  0.10202111813E+01 0.  0.
     999903    2    3    3    0    0  0.67176424706E-01 -0.83724307810E-01 -0.71680751019E-01  0.13055279020E+00  0.19582369833E-01 0.  0.
         14    1    1    2    0    0  0.19293189641E-01  0.13328371962E-01 -0.59815202088E-05  0.23449364628E-01  0.00000000000E+00 0. -1.
     999901    1    3    3    0    0 -0.86469614346E-01  0.70395935848E-01  0.71686732539E-01  0.88992784517E+00  0.88000000000E+00 0.  1.
        -11    1    4    4    0    0  0.32441184928E-01 -0.48791817604E-01 -0.29037118686E-01  0.65394857040E-01  0.51100000000E-03 0.  1.
         11    1    4    4    0    0  0.34735239777E-01 -0.34932490205E-01 -0.42643632333E-01  0.65157933161E-01  0.51100000000E-03 0. -1.
</event>
<event>
 8    1  0.1148488E+005  0.1043930E+01  0.7957747E-01            NaN
         13   -1    0    0    0    0  0.00000000000E+00  0.00000000000E+00  0.74505805969E-08  0.10566000000E+00  0.10566000000E+00 0.  1.
     999900   -1    0    0    0    0 -0.00000000000E+00 -0.00000000000E+00 -0.74505805969E-08  0.93827000000E+00  0.93827000000E+00 0. -1.
     999902    2    1    2    0    0  0.21207303777E-01  0.35564228501E-02  0.10113431879E-01  0.10201670166E+01  0.10198902207E+01 0.  0.
     999903    2    3    3    0    0  0.79451713833E-01 -0.79433228299E-01 -0.64667970355E-01  0.13119460327E+00  0.20195666544E-01 0.  0.
         14    1    1    2    0    0 -0.21207303777E-01 -0.35564228501E-02 -0.10113431879E-01  0.23762983427E-01  0.00000000000E+00 0. -1.
     999901    1    3    3    0    0 -0.58244410056E-01  0.82989651149E-01  0.74781402234E-01  0.88897241331E+00  0.88000000000E+00 0.  1.
        -11    1    4    4    0    0  0.49728606979E-01 -0.46216127014E-01 -0.27857810350E-01  0.73383809296E-01  0.51100000000E-03 0. -1.
         11    1    4    4    0    0  0.29723106854E-01 -0.33217101284E-01 -0.36810160005E-01  0.57810793969E-01  0.51100000000E-03 0.  1.
</event>
<event>
 8    1  0.1148488E+005  0.1043930E+01  0.7957747E-01            NaN
         13   -1    0    0    0    0  0.00000000000E+00  0.00000000000E+00  0.74505805969E-08  0.10566000000E+00  0.10566000000E+00 0. -1.
     999900   -1    0    0    0    0 -0.00000000000E+00 -0.00000000000E+00 -0.74505805969E-08  0.93827000000E+00  0.93827000000E+00 0.  1.
     999902    2    1    2    0    0 -0.98984758904E-02  0.88680961873E-02  0.16679333595E-01  0.10226034174E+01  0.10223810083E+01 0.  0.
     999903    2    3    3    0    0 -0.95138153630E-01  0.39227760693E-01 -0.81003299940E-01  0.13258689579E+00  0.20680059242E-01 0.  0.
         14    1    1    2    0    0  0.98984758904E-02 -0.88680961873E-02 -0.16679333595E-01  0.21326582570E-01  0.00000000000E+00 0.  1.
     999901    1    3    3    0    0  0.85239677739E-01 -0.30359664505E-01  0.97682633535E-01  0.89001652164E+00  0.88000000000E+00 0. -1.
        -11    1    4    4    0    0 -0.67726653539E-01  0.18713269126E-01 -0.60148545356E-01  0.92494295340E-01  0.51100000000E-03 0. -1.
         11    1    4    4    0    0 -0.27411500090E-01  0.20514491567E-01 -0.20854754585E-01  0.40092600455E-01  0.51100000000E-03 0.  1.
</event>
<event>
 8    1  0.1148488E+005  0.1043930E+01  0.7957747E-01            NaN
         13   -1    0    0    0    0  0.00000000000E+00  0.00000000000E+00  0.74505805969E-08  0.10566000000E+00  0.10566000000E+00 0. -1.
     999900   -1    0    0    0    0 -0.00000000000E+00 -0.00000000000E+00 -0.74505805969E-08  0.93827000000E+00  0.93827000000E+00 0. -1.
     999902    2    1    2    0    0 -0.11678871829E-01  0.17421427014E-01  0.15521320253E-01  0.10178375960E+01  0.10175030998E+01 0.  0.
     999903    2    3    3    0    0 -0.12505214901E+00  0.27209145801E-01 -0.11400760106E-01  0.13010221994E+00  0.20450738736E-01 0.  0.
         14    1    1    2    0    0  0.11678871829E-01 -0.17421427014E-01 -0.15521320253E-01  0.26092404044E-01  0.00000000000E+00 0.  1.
     999901    1    3    3    0    0  0.11337327718E+00 -0.97877187868E-02  0.26922080360E-01  0.88773537602E+00  0.88000000000E+00 0.  1.
        -11    1    4    4    0    0 -0.98791540020E-01  0.29299841076E-01 -0.12030412037E-01  0.10374604089E+00  0.51100000000E-03 0.  1.
         11    1    4    4    0    0 -0.26260608992E-01 -0.20906952747E-02  0.62965193035E-03  0.26356179046E-01  0.51100000000E-03 0. -1.
</event>
<event>
 8    1  0.1148488E+005  0.1043930E+01  0.7957747E-01            NaN
         13   -1    0    0    0    0  0.00000000000E+00  0.00000000000E+00  0.74505805969E-08  0.10566000000E+00  0.10566000000E+00 0.  1.
     999900   -1    0    0    0    0 -0.00000000000E+00 -0.00000000000E+00 -0.74505805969E-08  0.93827000000E+00  0.93827000000E+00 0.  1.
     999902    2    1    2    0    0 -0.88092074913E-02 -0.30092605314E-02 -0.21999715032E-01  0.10200418178E+01  0.10197620629E+01 0.  0.
     999903    2    3    3    0    0 -0.10265771044E+00 -0.38972493470E-02  0.76549095000E-01  0.12958115167E+00  0.19434939121E-01 0.  0.
         14    1    1    2    0    0  0.88092074913E-02  0.30092605314E-02  0.21999715032E-01  0.23888182163E-01  0.00000000000E+00 0.  1.
     999901    1    3    3    0    0  0.93848502945E-01  0.88798881552E-03 -0.98548810032E-01  0.89046066617E+00  0.88000000000E+00 0. -1.
        -11    1    4    4    0    0 -0.30933866700E-01 -0.35978530912E-02  0.12993856860E-01  0.33748334670E-01  0.51100000000E-03 0. -1.
         11    1    4    4    0    0 -0.71723843736E-01 -0.29939625580E-03  0.63555238140E-01  0.95832817002E-01  0.51100000000E-03 0.  1.
</event>
<event>
 8    1  0.1148488E+005  0.1043930E+01  0.7957747E-01            NaN
         13   -1    0    0    0    0  0.00000000000E+00  0.00000000000E+00  0.74505805969E-08  0.10566000000E+00  0.10566000000E+00 0. -1.
     999900   -1    0    0    0    0 -0.00000000000E+00 -0.00000000000E+00 -0.74505805969E-08  0.93827000000E+00  0.93827000000E+00 0. -1.
     999902    2    1    2    0    0 -0.23356198479E-01 -0.40379127294E-02 -0.25513661053E-02  0.10200904066E+01  0.10198118019E+01 0.  0.
     999903    2    3    3    0    0  0.83280700358E-01 -0.81780849731E-01 -0.50976863901E-01  0.12893361828E+00  0.20036337875E-01 0.  0.
         14    1    1    2    0    0  0.23356198479E-01  0.40379127294E-02  0.25513661053E-02  0.23839593445E-01  0.00000000000E+00 0.  1.
     999901    1    3    3    0    0 -0.10663689884E+00  0.77742937002E-01  0.48425497795E-01  0.89115678827E+00  0.88000000000E+00 0.  1.
        -11    1    4    4    0    0  0.81595913521E-01 -0.74508437025E-01 -0.44810876972E-01  0.11923789711E+00  0.51100000000E-03 0.  1.
         11    1    4    4    0    0  0.16847868372E-02 -0.72724127059E-02 -0.61659869285E-02  0.96957211725E-02  0.51100000000E-03 0. -1.
</event>
<event>
 8    1  0.1148488E+005  0.1043930E+01  0.7957747E-01            NaN
         13   -1    0    0    0    0  0.00000000000E+00  0.00000000000E+00  0.74505805969E-08  0.10566000000E+00  0.10566000000E+00 0.  1.
     999900   -1    0    0    0    0 -0.00000000000E+00 -0.00000000000E+00 -0.74505805969E-08  0.93827000000E+00  0.93827000000E+00 0.  1.
     999902    2    1    2    0    0 -0.13374621757E-01 -0.47417893391E-02  0.21926689819E-01  0.10178120981E+01  0.10174769394E+01 0.  0.
     999903    2    3    3    0    0 -0.74549290025E-01  0.10314523994E+00 -0.73091839548E-03  0.12882654235E+00  0.19980155306E-01 0.  0.
         14    1    1    2    0    0  0.13374621757E-01  0.47417893391E-02 -0.21926689819E-01  0.26117901901E-01  0.00000000000E+00 0. -1.
     999901    1    3    3    0    0  0.61174668268E-01 -0.10788702928E+00  0.22657608215E-01  0.88898555575E+00  0.88000000000E+00 0. -1.
        -11    1    4    4    0    0 -0.43155672171E-01  0.43177234799E-01  0.19953514723E-02  0.61081324428E-01  0.51100000000E-03 0. -1.
         11    1    4    4    0    0 -0.31393617854E-01  0.59968005141E-01 -0.27262698678E-02  0.67745217919E-01  0.51100000000E-03 0.  1.
</event>
<event>
 8    1  0.1148488E+005  0.1043930E+01  0.7957747E-01            NaN
         13   -1    0    0    0    0  0.00000000000E+00  0.00000000000E+00  0.74505805969E-08  0.10566000000E+00  0.10566000000E+00 0. -1.
     999900   -1    0    0    0    0 -0.00000000000E+00 -0.00000000000E+00 -0.74505805969E-08  0.93827000000E+00  0.93827000000E+00 0.  1.
     999902    2    1    2    0    0  0.94185745550E-02  0.11810024647E-01 -0.17646890408E-01  0.10207007303E+01  0.10204363684E+01 0.  0.
     999903    2    3    3    0    0  0.71130836299E-01  0.62981053684E-01 -0.92184790621E-01  0.13391847067E+00  0.20246287777E-01 0.  0.
         14    1    1    2    0    0 -0.94185745550E-02 -0.11810024647E-01  0.17646890408E-01  0.23229269681E-01  0.00000000000E+00 0. -1.
     999901    1    3    3    0    0 -0.61712261744E-01 -0.51171029036E-01  0.74537900213E-01  0.88678225965E+00  0.88000000000E+00 0. -1.
        -11    1    4    4    0    0  0.51142548417E-01  0.38209036450E-01 -0.71983149964E-01  0.96214997401E-01  0.51100000000E-03 0.  1.
         11    1    4    4    0    0  0.19988287882E-01  0.24772017233E-01 -0.20201640657E-01  0.37703473268E-01  0.51100000000E-03 0. -1.
</event>
<event>
 8    1  0.1148488E+005  0.1043930E+01  0.7957747E-01            NaN
         13   -1    0    0    0    0  0.00000000000E+00  0.00000000000E+00  0.74505805969E-08  0.10566000000E+00  0.10566000000E+00 0.  1.
     999900   -1    0    0    0    0 -0.00000000000E+00 -0.00000000000E+00 -0.74505805969E-08  0.93827000000E+00  0.93827000000E+00 0. -1.
     999902    2    1    2    0    0  0.12239522537E-01 -0.69970844084E-03 -0.18678655962E-01  0.10215874914E+01  0.10213431425E+01 0.  0.
     999903    2    3    3    0    0 -0.34558895936E-01 -0.86358290695E-01  0.88708212307E-01  0.12970217129E+00  0.17361873326E-01 0.  0.
         14    1    1    2    0    0 -0.12239522537E-01  0.69970844084E-03  0.18678655962E-01  0.22342508641E-01  0.00000000000E+00 0.  1.
     999901    1    3    3    0    0  0.46798418473E-01  0.85658582254E-01 -0.10738686827E+00  0.89188532007E+00  0.88000000000E+00 0. -1.
        -11    1    4    4    0    0 -0.19932192953E-01 -0.37607569041E-01  0.30426294266E-01  0.52322481486E-01  0.51100000000E-03 0.  1.
         11    1    4    4    0    0 -0.14626702983E-01 -0.48750721654E-01  0.58281918041E-01  0.77379689799E-01  0.51100000000E-03 0. -1.
</event>
<event>
 8    1  0.1148488E+005  0.1043930E+01  0.7957747E-01            NaN
         13   -1    0    0    0    0  0.00000000000E+00  0.00000000000E+00  0.74505805969E-08  0.10566000000E+00  0.10566000000E+00 0. -1.
     999900   -1    0    0    0    0 -0.00000000000E+00 -0.00000000000E+00 -0.74505805969E-08  0.93827000000E+00  0.93827000000E+00 0. -1.
     999902    2    1    2    0    0 -0.11986294810E-02  0.14419931080E-02 -0.21065251329E-01  0.10227814570E+01  0.10225627844E+01 0.  0.
     999903    2    3    3    0    0  0.12753398103E+00 -0.24751736779E-01 -0.18264421922E-01  0.13302528753E+00  0.22013023917E-01 0.  0.
         14    1    1    2    0    0  0.11986294810E-02 -0.14419931080E-02  0.21065251329E-01  0.21148542983E-01  0.00000000000E+00 0. -1.
     999901    1    3    3    0    0 -0.12873261052E+00  0.26193729887E-01 -0.28008294075E-02  0.88975616949E+00  0.88000000000E+00 0.  1.
        -11    1    4    4    0    0  0.88302539174E-01 -0.66443030637E-02 -0.12169990734E-01  0.89385988741E-01  0.51100000000E-03 0. -1.
         11    1    4    4    0    0  0.39231441860E-01 -0.18107433715E-01 -0.60944311879E-02  0.43639298788E-01  0.51100000000E-03 0.  1.
</event>
<event>
 8    1  0.1148488E+005  0.1043930E+01  0.7957747E-01            NaN
         13   -1    0    0    0    0  0.00000000000E+00  0.00000000000E+00  0.74505805969E-08  0.10566000000E+00  0.10566000000E+00 0.  1.
     999900   -1    0    0    0    0 -0.00000000000E+00 -0.00000000000E+00 -0.74505805969E-08  0.93827000000E+00  0.93827000000E+00 0. -1.
     999902    2    1    2    0    0 -0.22363176344E-01  0.95759390096E-02 -0.88700715913E-02  0.10180362086E+01  0.10177068505E+01 0.  0.
     999903    2    3    3    0    0  0.19042395873E-01  0.22501182284E-01  0.12246524720E+00  0.12723294787E+00  0.17932378746E-01 0.  0.
         14    1    1    2    0    0  0.22363176344E-01 -0.95759390096E-02  0.88700715913E-02  0.25893791421E-01  0.00000000000E+00 0. -1.
     999901    1    3    3    0    0 -0.41405572217E-01 -0.12925243274E-01 -0.13133531879E+00  0.89080326071E+00  0.88000000000E+00 0. -1.
        -11    1    4    4    0    0  0.21188457259E-01  0.17891956389E-01  0.84757405039E-01  0.89180444349E-01  0.51100000000E-03 0.  1.
         11    1    4    4    0    0 -0.21460613859E-02  0.46092258949E-02  0.37707842162E-01  0.38052503523E-01  0.51100000000E-03 0. -1.
</event>
<event>
 8    1  0.1148488E+005  0.1043930E+01  0.7957747E-01            NaN
         13   -1    0    0    0    0  0.00000000000E+00  0.00000000000E+00  0.74505805969E-08  0.10566000000E+00  0.10566000000E+00 0. -1.
     999900   -1    0    0    0    0 -0.00000000000E+00 -0.00000000000E+00 -0.74505805969E-08  0.93827000000E+00  0.93827000000E+00 0. -1.
     999902    2    1    2    0    0 -0.20508829364E-01 -0.13282478978E-01 -0.10211478558E-02  0.10194743448E+01  0.10191809754E+01 0.  0.
     999903    2    3    3    0    0 -0.16591750807E-01 -0.10801611795E-01  0.12712345899E+00  0.13018106443E+00  0.19868938027E-01 0.  0.
         14    1    1    2    0    0  0.20508829364E-01  0.13282478978E-01  0.10211478558E-02  0.24455655228E-01  0.00000000000E+00 0. -1.
     999901    1    3    3    0    0 -0.39170785576E-02 -0.24808671827E-02 -0.12814460684E+00  0.88929328035E+00  0.88000000000E+00 0. -1.
        -11    1    4    4    0    0 -0.18807370954E-01 -0.13061080079E-01  0.88179443696E-01  0.91105347959E-01  0.51100000000E-03 0.  1.
         11    1    4    4    0    0  0.22156201479E-02  0.22594682840E-02  0.38944015289E-01  0.39075716467E-01  0.51100000000E-03 0. -1.
</event>
<event>
 8    1  0.1148488E+005  0.1043930E+01  0.7957747E-01            NaN
         13   -1    0    0    0    0  0.00000000000E+00  0.00000000000E+00  0.74505805969E-08  0.10566000000E+00  0.10566000000E+00 0.  1.
     999900   -1    0    0    0    0 -0.00000000000E+00 -0.00000000000E+00 -0.74505805969E-08  0.93827000000E+00  0.93827000000E+00 0.  1.
     999902    2    1    2    0    0  0.21563390388E-01  0.27907410135E-01 -0.11575298482E-02  0.10086434130E+01  0.10080259875E+01 0.  0.
     999903    2    3    3    0    0  0.10545117700E+00  0.62041477047E-01  0.88966856462E-03  0.12399292481E+00  0.20108662027E-01 0.  0.
         14    1    1    2    0    0 -0.21563390388E-01 -0.27907410135E-01  0.11575298482E-02  0.35286586981E-01  0.00000000000E+00 0.  1.
     999901    1    3    3    0    0 -0.83887786609E-01 -0.34134066913E-01 -0.20471984128E-02  0.88465048821E+00  0.88000000000E+00 0. -1.
        -11    1    4    4    0    0  0.52248288392E-01  0.39970344292E-01  0.65642240145E-02  0.66112496705E-01  0.51100000000E-03 0.  1.
         11    1    4    4    0    0  0.53202888606E-01  0.22071132756E-01 -0.56745554499E-02  0.57880428105E-01  0.51100000000E-03 0. -1.
</event>
<event>
 8    1  0.1148488E+005  0.1043930E+01  0.7957747E-01            NaN
         13   -1    0    0    0    0  0.00000000000E+00  0.00000000000E+00  0.74505805969E-08  0.10566000000E+00  0.10566000000E+00 0.  1.
     999900   -1    0    0    0    0 -0.00000000000E+00 -0.00000000000E+00 -0.74505805969E-08  0.93827000000E+00  0.93827000000E+00 0.  1.
     999902    2    1    2    0    0 -0.82416151091E-02  0.19962778668E-01 -0.79718645358E-02  0.10209085453E+01  0.10206489458E+01 0.  0.
     999903    2    3    3    0    0 -0.63699737864E-01  0.41978382324E-01 -0.10750550420E+00  0.13328968814E+00  0.19719694335E-01 0.  0.
         14    1    1    2    0    0  0.82416151091E-02 -0.19962778668E-01  0.79718645358E-02  0.23021454687E-01  0.00000000000E+00 0.  1.
     999901    1    3    3    0    0  0.55458122755E-01 -0.22015603656E-01  0.99533639664E-01  0.88761885717E+00  0.88000000000E+00 0. -1.
        -11    1    4    4    0    0 -0.31476452688E-01  0.16425715930E-01 -0.65477675405E-01  0.74485960523E-01  0.51100000000E-03 0. -1.
         11    1    4    4    0    0 -0.32223285177E-01  0.25552666394E-01 -0.42027828795E-01  0.58803727617E-01  0.51100000000E-03 0.  1.
</event>
<event>
 8    1  0.1148488E+005  0.1043930E+01  0.7957747E-01            NaN
         13   -1    0    0    0    0  0.00000000000E+00  0.00000000000E+00  0.74505805969E-08  0.10566000000E+00  0.10566000000E+00 0.  1.
     999900   -1    0    0    0    0 -0.00000000000E+00 -0.00000000000E+00 -0.74505805969E-08  0.93827000000E+00  0.93827000000E+00 0. -1.
     999902    2    1    2    0    0 -0.17744295889E-01  0.10235577869E-01 -0.12370978246E-01  0.10199995133E+01  0.10197187548E+01 0.  0.
     999903    2    3    3    0    0  0.11642700669E+00 -0.24399878871E-01  0.41370538016E-01  0.12753679482E+00  0.20087574319E-01 0.  0.
         14    1    1    2    0    0  0.17744295889E-01 -0.10235577869E-01  0.12370978246E-01  0.23930486700E-01  0.00000000000E+00 0. -1.
     999901    1    3    3    0    0 -0.13417130258E+00  0.34635456740E-01 -0.53741516262E-01  0.89246271848E+00  0.88000000000E+00 0.  1.
        -11    1    4    4    0    0  0.77847541868E-01 -0.24551438701E-01  0.33055598317E-01  0.88067852354E-01  0.51100000000E-03 0.  1.
         11    1    4    4    0    0  0.38579464824E-01  0.15155982939E-03  0.83149396992E-02  0.39468942470E-01  0.51100000000E-03 0. -1.
</event>
<event>
 8    1  0.1148488E+005  0.1043930E+01  0.7957747E-01            NaN
         13   -1    0    0    0    0  0.00000000000E+00  0.00000000000E+00  0.74505805969E-08  0.10566000000E+00  0.10566000000E+00 0. -1.
     999900   -1    0    0    0    0 -0.00000000000E+00 -0.00000000000E+00 -0.74505805969E-08  0.93827000000E+00  0.93827000000E+00 0. -1.
     999902    2    1    2    0    0 -0.21652864359E-01 -0.76124567599E-03 -0.99644976743E-02  0.10200822067E+01  0.10198034081E+01 0.  0.
     999903    2    3    3    0    0 -0.12978488725E+00 -0.21712540086E-01 -0.41650442885E-02  0.13319713821E+00  0.20213329207E-01 0.  0.
         14    1    1    2    0    0  0.21652864359E-01  0.76124567599E-03  0.99644976743E-02  0.23847793270E-01  0.00000000000E+00 0.  1.
     999901    1    3    3    0    0  0.10813202289E+00  0.20951294410E-01 -0.57994533858E-02  0.88688506852E+00  0.88000000000E+00 0. -1.
        -11    1    4    4    0    0 -0.41690390926E-01 -0.46408391456E-02  0.77940305027E-02  0.42668889323E-01  0.51100000000E-03 0.  1.
         11    1    4    4    0    0 -0.88094496321E-01 -0.17071700940E-01 -0.11959074791E-01  0.90528248884E-01  0.51100000000E-03 0. -1.
</event>
<event>
 8    1  0.1148488E+005  0.1043930E+01  0.7957747E-01            NaN
         13   -1    0    0    0    0  0.00000000000E+00  0.00000000000E+00  0.74505805969E-08  0.10566000000E+00  0.10566000000E+00 0. -1.
     999900   -1    0    0    0    0 -0.00000000000E+00 -0.00000000000E+00 -0.74505805969E-08  0.93827000000E+00  0.93827000000E+00 0.  1.
     999902    2    1    2    0    0 -0.63619206330E-02  0.18471520207E-01 -0.14995019551E-01  0.10193023386E+01  0.10190047771E+01 0.  0.
     999903    2    3    3    0    0 -0.10980201938E+00  0.26332463256E-01  0.61114332699E-01  0.12994623338E+00  0.20029474007E-01 0.  0.
         14    1    1    2    0    0  0.63619206330E-02 -0.18471520207E-01  0.14995019551E-01  0.24627661363E-01  0.00000000000E+00 0. -1.
     999901    1    3    3    0    0  0.10344009874E+00 -0.78609430493E-02 -0.76109352250E-01  0.88935610525E+00  0.88000000000E+00 0. -1.
        -11    1    4    4    0    0 -0.35832887515E-01  0.66695134754E-03  0.25139636267E-01  0.43780167707E-01  0.51100000000E-03 0.  1.
         11    1    4    4    0    0 -0.73969131860E-01  0.25665511909E-01  0.35974696432E-01  0.86166065676E-01  0.51100000000E-03 0. -1.
</event>
<event>
 8    1  0.1148488E+005  0.1043930E+01  0.7957747E-01            NaN
         13   -1    0    0    0    0  0.00000000000E+00  0.00000000000E+00  0.74505805969E-08  0.10566000000E+00  0.10566000000E+00 0.  1.
     999900   -1    0    0    0    0 -0.00000000000E+00 -0.00000000000E+00 -0.74505805969E-08  0.93827000000E+00  0.93827000000E+00 0.  1.
     999902    2    1    2    0    0 -0.22653637918E-01 -0.11066778973E-01  0.10518639210E-02  0.10186957509E+01  0.10183831625E+01 0.  0.
     999903    2    3    3    0    0  0.80390561499E-01 -0.36492901028E-01 -0.90288738562E-01  0.12762465368E+00  0.18483011450E-01 0.  0.
         14    1    1    2    0    0  0.22653637918E-01  0.11066778973E-01 -0.10518639210E-02  0.25234249057E-01  0.00000000000E+00 0.  1.
     999901    1    3    3    0    0 -0.10304419942E+00  0.25426122055E-01  0.91340602483E-01  0.89107109726E+00  0.88000000000E+00 0. -1.
        -11    1    4    4    0    0  0.41663399824E-01 -0.87990302976E-02 -0.42298747235E-01  0.60022553743E-01  0.51100000000E-03 0. -1.
         11    1    4    4    0    0  0.38727161674E-01 -0.27693870731E-01 -0.47989991326E-01  0.67602099937E-01  0.51100000000E-03 0.  1.
</event>
<event>
 8    1  0.1148488E+005  0.1043930E+01  0.7957747E-01            NaN
         13   -1    0    0    0    0  0.00000000000E+00  0.00000000000E+00  0.74505805969E-08  0.10566000000E+00  0.10566000000E+00 0.  1.
     999900   -1    0    0    0    0 -0.00000000000E+00 -0.00000000000E+00 -0.74505805969E-08  0.93827000000E+00  0.93827000000E+00 0.  1.
     999902    2    1    2    0    0 -0.15132032387E-01 -0.16607333738E-01 -0.17158612110E-01  0.10156598761E+01  0.10152663611E+01 0.  0.
     999903    2    3    3    0    0  0.54724691123E-01  0.36284286080E-02  0.10898648403E+00  0.12369461150E+00  0.20355488243E-01 0.  0.
         14    1    1    2    0    0  0.15132032387E-01  0.16607333738E-01  0.17158612110E-01  0.28270123941E-01  0.00000000000E+00 0.  1.
     999901    1    3    3    0    0 -0.69856723510E-01 -0.20235762346E-01 -0.12614509614E+00  0.89196526456E+00  0.88000000000E+00 0.  1.
        -11    1    4    4    0    0  0.32768684364E-01  0.11874172337E-01  0.60269032884E-01  0.69623272613E-01  0.51100000000E-03 0.  1.
         11    1    4    4    0    0  0.21956006759E-01 -0.82457437286E-02  0.48717451143E-01  0.54071338889E-01  0.51100000000E-03 0. -1.
</event>
<event>
 8    1  0.1148488E+005  0.1043930E+01  0.7957747E-01            NaN
         13   -1    0    0    0    0  0.00000000000E+00  0.00000000000E+00  0.74505805969E-08  0.10566000000E+00  0.10566000000E+00 0. -1.
     999900   -1    0    0    0    0 -0.00000000000E+00 -0.00000000000E+00 -0.74505805969E-08  0.93827000000E+00  0.93827000000E+00 0.  1.
     999902    2    1    2    0    0  0.20661251393E-01 -0.10604037086E-01 -0.47537833406E-02  0.10202249084E+01  0.10199494754E+01 0.  0.
     999903    2    3    3    0    0  0.17588995644E-02 -0.12089178539E+00  0.47944429561E-01  0.13157549048E+00  0.19887781815E-01 0.  0.
         14    1    1    2    0    0 -0.20661251393E-01  0.10604037086E-01  0.47537833406E-02  0.23705091599E-01  0.00000000000E+00 0. -1.
     999901    1    3    3    0    0  0.18902351829E-01  0.11028774831E+00 -0.52698212902E-01  0.88864941792E+00  0.88000000000E+00 0.  1.
        -11    1    4    4    0    0  0.47234259581E-02 -0.10943668690E+00  0.48325158301E-01  0.11972585868E+00  0.51100000000E-03 0.  1.
         11    1    4    4    0    0 -0.29645263936E-02 -0.11455098497E-01 -0.38072873993E-03  0.11849631795E-01  0.51100000000E-03 0. -1.
</event>
<event>
 8    1  0.1148488E+005  0.1043930E+01  0.7957747E-01            NaN
         13   -1    0    0    0    0  0.00000000000E+00  0.00000000000E+00  0.74505805969E-08  0.10566000000E+00  0.10566000000E+00 0.  1.
     999900   -1    0    0    0    0 -0.00000000000E+00 -0.00000000000E+00 -0.74505805969E-08  0.93827000000E+00  0.93827000000E+00 0. -1.
     999902    2    1    2    0    0 -0.23599349133E-01 -0.39350917635E-02 -0.16673819306E-02  0.10199467894E+01  0.10196647777E+01 0.  0.
     999903    2    3    3    0    0 -0.54404551857E-01 -0.10670210768E+00  0.49312335731E-01  0.13196652406E+00  0.25263847129E-01 0.  0.
         14    1    1    2    0    0  0.23599349133E-01  0.39350917635E-02  0.16673819306E-02  0.23983210569E-01  0.00000000000E+00 0. -1.
     999901    1    3    3    0    0  0.30805202724E-01  0.10276701591E+00 -0.50979717661E-01  0.88798026537E+00  0.88000000000E+00 0. -1.
        -11    1    4    4    0    0 -0.23814597382E-01 -0.22561004685E-01  0.11290468927E-01  0.34696826806E-01  0.51100000000E-03 0.  1.
         11    1    4    4    0    0 -0.30589954475E-01 -0.84141102993E-01  0.38021866804E-01  0.97269697254E-01  0.51100000000E-03 0. -1.
</event>
<event>
 8    1  0.1148488E+005  0.1043930E+01  0.7957747E-01            NaN
         13   -1    0    0    0    0  0.00000000000E+00  0.00000000000E+00  0.74505805969E-08  0.10566000000E+00  0.10566000000E+00 0. -1.
     999900   -1    0    0    0    0 -0.00000000000E+00 -0.00000000000E+00 -0.74505805969E-08  0.93827000000E+00  0.93827000000E+00 0.  1.
     999902    2    1    2    0    0  0.12197036428E-02  0.19824141380E-01 -0.14864453141E-01  0.10191220129E+01  0.10188200238E+01 0.  0.
     999903    2    3    3    0    0  0.91017929169E-01 -0.85105364507E-01  0.19462729278E-01  0.12768930202E+00  0.19964306180E-01 0.  0.
         14    1    1    2    0    0 -0.12197036428E-02 -0.19824141380E-01  0.14864453141E-01  0.24807987134E-01  0.00000000000E+00 0. -1.
     999901    1    3    3    0    0 -0.89798225526E-01  0.10492950589E+00 -0.34327182419E-01  0.89143271085E+00  0.88000000000E+00 0. -1.
        -11    1    4    4    0    0  0.18449500332E-01 -0.17089048270E-01  0.12219124694E-01  0.27964044102E-01  0.51100000000E-03 0. -1.
         11    1    4    4    0    0  0.72568428838E-01 -0.68016316237E-01  0.72436045846E-02  0.99725257918E-01  0.51100000000E-03 0.  1.
</event>
<event>
 8    1  0.1148488E+005  0.1043930E+01  0.7957747E-01            NaN
         13   -1    0    0    0    0  0.00000000000E+00  0.00000000000E+00  0.74505805969E-08  0.10566000000E+00  0.10566000000E+00 0. -1.
     999900   -1    0    0    0    0 -0.00000000000E+00 -0.00000000000E+00 -0.74505805969E-08  0.93827000000E+00  0.93827000000E+00 0.  1.
     999902    2    1    2    0    0  0.23695245759E-01 -0.14723666408E-02 -0.68468115613E-02  0.10192214718E+01  0.10189219290E+01 0.  0.
     999903    2    3    3    0    0  0.74312817422E-01  0.35456527211E-01 -0.10140998215E+00  0.13194018894E+00  0.18565258506E-01 0.  0.
         14    1    1    2    0    0 -0.23695245759E-01  0.14723666408E-02  0.68468115613E-02  0.24708528156E-01  0.00000000000E+00 0. -1.
     999901    1    3    3    0    0 -0.50617571663E-01 -0.36928893852E-01  0.94563170585E-01  0.88728128290E+00  0.88000000000E+00 0. -1.
        -11    1    4    4    0    0  0.21357353440E-01  0.99404855693E-02 -0.43219499663E-01  0.49225360044E-01  0.51100000000E-03 0.  1.
         11    1    4    4    0    0  0.52955463982E-01  0.25516041642E-01 -0.58190482483E-01  0.82714828895E-01  0.51100000000E-03 0. -1.
</event>
<event>
 8    1  0.1148488E+005  0.1043930E+01  0.7957747E-01            NaN
         13   -1    0    0    0    0  0.00000000000E+00  0.00000000000E+00  0.74505805969E-08  0.10566000000E+00  0.10566000000E+00 0. -1.
     999900   -1    0    0    0    0 -0.00000000000E+00 -0.00000000000E+00 -0.74505805969E-08  0.93827000000E+00  0.93827000000E+00 0. -1.
     999902    2    1    2    0    0  0.31659305960E-03 -0.23064547407E-01 -0.76591776696E-02  0.10196249268E+01  0.10193352024E+01 0.  0.
     999903    2    3    3    0    0 -0.67998477378E-01 -0.10956283845E+00  0.22211859755E-01  0.13224610015E+00  0.19179567171E-01 0.  0.
         14    1    1    2    0    0 -0.31659305960E-03  0.23064547407E-01  0.76591776696E-02  0.24305073150E-01  0.00000000000E+00 0.  1.
     999901    1    3    3    0    0  0.68315070437E-01  0.86498291038E-01 -0.29871037424E-01  0.88737882670E+00  0.88000000000E+00 0. -1.
        -11    1    4    4    0    0 -0.12897831081E-01 -0.28074181247E-01 -0.19196937139E-02  0.30959005867E-01  0.51100000000E-03 0. -1.
         11    1    4    4    0    0 -0.55100646296E-01 -0.81488657198E-01  0.24131553469E-01  0.10128709428E+00  0.51100000000E-03 0.  1.
</event>
<event>
 8    1  0.1148488E+005  0.1043930E+01  0.7957747E-01            NaN
         13   -1    0    0    0    0  0.00000000000E+00  0.00000000000E+00  0.74505805969E-08  0.10566000000E+00  0.10566000000E+00 0. -1.
     999900   -1    0    0    0    0 -0.00000000000E+00 -0.00000000000E+00 -0.74505805969E-08  0.93827000000E+00  0.93827000000E+00 0.  1.
     999902    2    1    2    0    0 -0.20957968754E-01  0.14705334952E-01 -0.58376840724E-02  0.10176704896E+01  0.10173316389E+01 0.  0.
     999903    2    3    3    0    0  0.76017026556E-01 -0.94848855779E-01 -0.21122423139E-01  0.12545981176E+00  0.22784069865E-01 0.  0.
         14    1    1    2    0    0  0.20957968754E-01 -0.14705334952E-01  0.58376840724E-02  0.26259510385E-01  0.00000000000E+00 0. -1.
     999901    1    3    3    0    0 -0.96974995310E-01  0.10955419073E+00  0.15284739066E-01  0.89221067785E+00  0.88000000000E+00 0. -1.
        -11    1    4    4    0    0  0.59126577958E-01 -0.80933400679E-01 -0.95152640446E-02  0.10068251555E+00  0.51100000000E-03 0.  1.
         11    1    4    4    0    0  0.16890448598E-01 -0.13915455100E-01 -0.11607159094E-01  0.24777296215E-01  0.51100000000E-03 0. -1.
</event>
<event>
 8    1  0.1148488E+005  0.1043930E+01  0.7957747E-01            NaN
         13   -1    0    0    0    0  0.00000000000E+00  0.00000000000E+00  0.74505805969E-08  0.10566000000E+00  0.10566000000E+00 0.  1.
     999900   -1    0    0    0    0 -0.00000000000E+00 -0.00000000000E+00 -0.74505805969E-08  0.93827000000E+00  0.93827000000E+00 0.  1.
     999902    2    1    2    0    0 -0.19597847015E-01  0.78782256154E-02  0.11780518105E-01  0.10197448258E+01  0.10194579869E+01 0.  0.
     999903    2    3    3    0    0 -0.21151062577E-01  0.40923561067E-01 -0.11887228587E+00  0.12948387420E+00  0.22657184958E-01 0.  0.
         14    1    1    2    0    0  0.19597847015E-01 -0.78782256154E-02 -0.11780518105E-01  0.24185174246E-01  0.00000000000E+00 0. -1.
     999901    1    3    3    0    0  0.15532155622E-02 -0.33045335452E-01  0.13065280398E+00  0.89026095155E+00  0.88000000000E+00 0. -1.
        -11    1    4    4    0    0 -0.48880325745E-02  0.49950964503E-02 -0.46832864562E-01  0.47354220246E-01  0.51100000000E-03 0. -1.
         11    1    4    4    0    0 -0.16263030003E-01  0.35928464617E-01 -0.72039421313E-01  0.82129653955E-01  0.51100000000E-03 0.  1.
</event>
<event>
 8    1  0.1148488E+005  0.1043930E+01  0.7957747E-01            NaN
         13   -1    0    0    0    0  0.00000000000E+00  0.00000000000E+00  0.74505805969E-08  0.10566000000E+00  0.10566000000E+00 0.  1.
     999900   -1    0    0    0    0 -0.00000000000E+00 -0.00000000000E+00 -0.74505805969E-08  0.93827000000E+00  0.93827000000E+00 0.  1.
     999902    2    1    2    0    0  0.14491448352E-01  0.13450301969E-01  0.65544963762E-02  0.10231003548E+01  0.10228882939E+01 0.  0.
     999903    2    3    3    0    0  0.52055780671E-01  0.76438771871E-01 -0.95163711993E-01  0.13421047388E+00  0.20090521951E-01 0.  0.
         14    1    1    2    0    0 -0.14491448352E-01 -0.13450301969E-01 -0.65544963762E-02  0.20829645248E-01  0.00000000000E+00 0.  1.
     999901    1    3    3    0    0 -0.37564332319E-01 -0.62988469902E-01  0.10171820837E+00  0.88888988087E+00  0.88000000000E+00 0.  1.
        -11    1    4    4    0    0  0.40307547281E-01  0.54186465925E-01 -0.80515037248E-01  0.10508950376E+00  0.51100000000E-03 0. -1.
         11    1    4    4    0    0  0.11748233390E-01  0.22252305946E-01 -0.14648674745E-01  0.29120970116E-01  0.51100000000E-03 0.  1.
</event>
<event>
 8    1  0.1148488E+005  0.1043930E+01  0.7957747E-01            NaN
         13   -1    0    0    0    0  0.00000000000E+00  0.00000000000E+00  0.74505805969E-08  0.10566000000E+00  0.10566000000E+00 0. -1.
     999900   -1    0    0    0    0 -0.00000000000E+00 -0.00000000000E+00 -0.74505805969E-08  0.93827000000E+00  0.93827000000E+00 0.  1.
     999902    2    1    2    0    0  0.16889789003E-01 -0.13710119143E-01 -0.85609268621E-02  0.10205521941E+01  0.10202844011E+01 0.  0.
     999903    2    3    3    0    0  0.98782445169E-01 -0.62168288362E-01 -0.62842097814E-01  0.13375963279E+00  0.17878550111E-01 0.  0.
         14    1    1    2    0    0 -0.16889789003E-01  0.13710119143E-01  0.85609268621E-02  0.23377805890E-01  0.00000000000E+00 0. -1.
     999901    1    3    3    0    0 -0.81892656166E-01  0.48458169218E-01  0.54281170952E-01  0.88679256132E+00  0.88000000000E+00 0. -1.
        -11    1    4    4    0    0  0.71970265114E-01 -0.35473546793E-01 -0.42539206405E-01  0.90818152289E-01  0.51100000000E-03 0.  1.
         11    1    4    4    0    0  0.26812180056E-01 -0.26694741569E-01 -0.20302891410E-01  0.42941480498E-01  0.51100000000E-03 0. -1.
</event>
<event>
 8    1  0.1148488E+005  0.1043930E+01  0.7957747E-01            NaN
         13   -1    0    0    0    0  0.00000000000E+00  0.00000000000E+00  0.74505805969E-08  0.10566000000E+00  0.10566000000E+00 0.  1.
     999900   -1    0    0    0    0 -0.00000000000E+00 -0.00000000000E+00 -0.74505805969E-08  0.93827000000E+00  0.93827000000E+00 0. -1.
     999902    2    1    2    0    0 -0.84787178911E-02  0.11833233408E-01 -0.18322842891E-01  0.10205282770E+01  0.10202599293E+01 0.  0.
     999903    2    3    3    0    0 -0.79728655394E-01  0.68718955709E-01  0.75119990517E-01  0.13089683522E+00  0.20298155872E-01 0.  0.
         14    1    1    2    0    0  0.84787178911E-02 -0.11833233408E-01  0.18322842891E-01  0.23401723048E-01  0.00000000000E+00 0.  1.
     999901    1    3    3    0    0  0.71249937503E-01 -0.56885722300E-01 -0.93442833408E-01  0.88963144173E+00  0.88000000000E+00 0.  1.
        -11    1    4    4    0    0 -0.37859160594E-01  0.23209237536E-01  0.22955271650E-01  0.49991902998E-01  0.51100000000E-03 0.  1.
         11    1    4    4    0    0 -0.41869494800E-01  0.45509718173E-01  0.52164718867E-01  0.80904932226E-01  0.51100000000E-03 0. -1.
</event>
<event>
 8    1  0.1148488E+005  0.1043930E+01  0.7957747E-01            NaN
         13   -1    0    0    0    0  0.00000000000E+00  0.00000000000E+00  0.74505805969E-08  0.10566000000E+00  0.10566000000E+00 0. -1.
     999900   -1    0    0    0    0 -0.00000000000E+00 -0.00000000000E+00 -0.74505805969E-08  0.93827000000E+00  0.93827000000E+00 0. -1.
     999902    2    1    2    0    0  0.18340389003E-01  0.11088353580E-01 -0.12489960506E-01  0.10191243440E+01  0.10188224124E+01 0.  0.
     999903    2    3    3    0    0  0.88556673131E-03 -0.10455177533E+00 -0.72598944399E-01  0.12935448606E+00  0.23024299833E-01 0.  0.
         14    1    1    2    0    0 -0.18340389003E-01 -0.11088353580E-01  0.12489960506E-01  0.24805655955E-01  0.00000000000E+00 0. -1.
     999901    1    3    3    0    0  0.17454822272E-01  0.11564012891E+00  0.60108983892E-01  0.88976985799E+00  0.88000000000E+00 0.  1.
        -11    1    4    4    0    0 -0.35739037491E-02 -0.89267915390E-01 -0.69347378081E-01  0.11309665545E+00  0.51100000000E-03 0. -1.
         11    1    4    4    0    0  0.44594704804E-02 -0.15283859940E-01 -0.32515663174E-02  0.16257830610E-01  0.51100000000E-03 0.  1.
</event>
<event>
 8    1  0.1148488E+005  0.1043930E+01  0.7957747E-01            NaN
         13   -1    0    0    0    0  0.00000000000E+00  0.00000000000E+00  0.74505805969E-08  0.10566000000E+00  0.10566000000E+00 0.  1.
     999900   -1    0    0    0    0 -0.00000000000E+00 -0.00000000000E+00 -0.74505805969E-08  0.93827000000E+00  0.93827000000E+00 0. -1.
     999902    2    1    2    0    0  0.16687935181E-01 -0.16634629596E-01  0.30862936939E-02  0.10201660927E+01  0.10198892750E+01 0.  0.
     999903    2    3    3    0    0  0.93978945062E-01  0.87319957136E-01 -0.13862951430E-01  0.13052136965E+00  0.19667981153E-01 0.  0.
         14    1    1    2    0    0 -0.16687935181E-01  0.16634629596E-01 -0.30862936939E-02  0.23763907321E-01  0.00000000000E+00 0.  1.
     999901    1    3    3    0    0 -0.77291009881E-01 -0.10395458673E+00  0.16949245124E-01  0.88964472303E+00  0.88000000000E+00 0.  1.
        -11    1    4    4    0    0  0.16167057138E-01  0.15404629347E-01  0.50236135832E-02  0.22894849994E-01  0.51100000000E-03 0. -1.
         11    1    4    4    0    0  0.77811887925E-01  0.71915327788E-01 -0.18886565013E-01  0.10762651965E+00  0.51100000000E-03 0.  1.
</event>
<event>
 7    1  0.1148488E+005  0.1043930E+01  0.7957747E-01            NaN
         13   -1    0    0    0    0  0.00000000000E+00  0.00000000000E+00  0.74505805969E-08  0.10566000000E+00  0.10566000000E+00 0. -1.
     999900   -1    0    0    0    0 -0.00000000000E+00 -0.00000000000E+00 -0.74505805969E-08  0.93827000000E+00  0.93827000000E+00 0. -1.
     999903    2    1    2    0    0 -0.30017868039E-01 -0.10951494645E+00 -0.87594379951E-01  0.14478660490E+00  0.19894463097E-01 0.  0.
         14    1    1    2    0    0 -0.52139458150E-02 -0.36633409658E-02  0.33753141361E-02  0.72109668916E-02  0.00000000000E+00 0. -1.
     999901    1    1    2    0    0  0.35231813854E-01  0.11317828741E+00  0.84219065815E-01  0.89193242821E+00  0.88000000000E+00 0.  1.
        -11    1    3    3    0    0 -0.71193806401E-02 -0.49135397819E-01 -0.47867611500E-01  0.68967689908E-01  0.51100000000E-03 0. -1.
         11    1    3    3    0    0 -0.22898487399E-01 -0.60379548627E-01 -0.39726768451E-01  0.75818914989E-01  0.51100000000E-03 0.  1.
</event>
<event>
 8    1  0.1148488E+005  0.1043930E+01  0.7957747E-01            NaN
         13   -1    0    0    0    0  0.00000000000E+00  0.00000000000E+00  0.74505805969E-08  0.10566000000E+00  0.10566000000E+00 0.  1.
     999900   -1    0    0    0    0 -0.00000000000E+00 -0.00000000000E+00 -0.74505805969E-08  0.93827000000E+00  0.93827000000E+00 0. -1.
     999902    2    1    2    0    0 -0.42262688675E-02 -0.18558603570E-01  0.14903547108E-01  0.10197556576E+01  0.10194690787E+01 0.  0.
     999903    2    3    3    0    0 -0.54295599552E-01 -0.20192703672E-01 -0.11331195540E+00  0.12905434780E+00  0.21439870286E-01 0.  0.
         14    1    1    2    0    0  0.42262688675E-02  0.18558603570E-01 -0.14903547108E-01  0.24174342420E-01  0.00000000000E+00 0. -1.
     999901    1    3    3    0    0  0.50069330685E-01  0.16341001022E-02  0.12821550251E+00  0.89070130978E+00  0.88000000000E+00 0.  1.
        -11    1    4    4    0    0 -0.23827508440E-01 -0.17329230747E-01 -0.70651131069E-01  0.76549956493E-01  0.51100000000E-03 0. -1.
         11    1    4    4    0    0 -0.30468091112E-01 -0.28634729253E-02 -0.42660824330E-01  0.52504391308E-01  0.51100000000E-03 0.  1.
</event>
<event>
 7    1  0.1148488E+005  0.1043930E+01  0.7957747E-01            NaN
         13   -1    0    0    0    0  0.00000000000E+00  0.00000000000E+00  0.74505805969E-08  0.10566000000E+00  0.10566000000E+00 0.  1.
     999900   -1    0    0    0    0 -0.00000000000E+00 -0.00000000000E+00 -0.74505805969E-08  0.93827000000E+00  0.93827000000E+00 0. -1.
     999903    2    1    2    0    0  0.10003907755E+00  0.53273065931E-01 -0.89396657228E-02  0.11471204557E+00  0.15267586090E-01 0.  0.
         14    1    1    2    0    0 -0.19678574525E-01 -0.16242792826E-01 -0.35437763653E-01  0.43668177279E-01  0.00000000000E+00 0. -1.
     999901    1    1    2    0    0 -0.80360503025E-01 -0.37030273105E-01  0.44377429376E-01  0.88554977715E+00  0.88000000000E+00 0.  1.
        -11    1    3    3    0    0  0.78724214416E-01  0.34836563026E-01 -0.47989816497E-02  0.86222847348E-01  0.51100000000E-03 0.  1.
         11    1    3    3    0    0  0.21314863134E-01  0.18436502905E-01 -0.41406840731E-02  0.28489198223E-01  0.51100000000E-03 0. -1.
</event>
<event>
 8    1  0.1148488E+005  0.1043930E+01  0.7957747E-01            NaN
         13   -1    0    0    0    0  0.00000000000E+00  0.00000000000E+00  0.74505805969E-08  0.10566000000E+00  0.10566000000E+00 0. -1.
     999900   -1    0    0    0    0 -0.00000000000E+00 -0.00000000000E+00 -0.74505805969E-08  0.93827000000E+00  0.93827000000E+00 0. -1.
     999902    2    1    2    0    0 -0.16312877543E-01  0.14330070635E-01 -0.21174662632E-02  0.10221138463E+01  0.10218809961E+01 0.  0.
     999903    2    3    3    0    0  0.18882012135E-01 -0.12162080639E+00  0.37064210777E-01  0.13011803633E+00  0.20218722221E-01 0.  0.
         14    1    1    2    0    0  0.16312877543E-01 -0.14330070635E-01  0.21174662632E-02  0.21816153683E-01  0.00000000000E+00 0.  1.
     999901    1    3    3    0    0 -0.35194889678E-01  0.13595087702E+00 -0.39181677040E-01  0.89199580999E+00  0.88000000000E+00 0. -1.
        -11    1    4    4    0    0 -0.94753792064E-03 -0.11523004974E-01  0.93179792180E-02  0.14858106523E-01  0.51100000000E-03 0. -1.
         11    1    4    4    0    0  0.19829550055E-01 -0.11009780142E+00  0.27746231559E-01  0.11525992980E+00  0.51100000000E-03 0.  1.
</event>
<event>
 8    1  0.1148488E+005  0.1043930E+01  0.7957747E-01            NaN
         13   -1    0    0    0    0  0.00000000000E+00  0.00000000000E+00  0.74505805969E-08  0.10566000000E+00  0.10566000000E+00 0.  1.
     999900   -1    0    0    0    0 -0.00000000000E+00 -0.00000000000E+00 -0.74505805969E-08  0.93827000000E+00  0.93827000000E+00 0.  1.
     999902    2    1    2    0    0  0.89703906891E-02 -0.11332573562E-01  0.13728439083E-01  0.10239959795E+01  0.10238019344E+01 0.  0.
     999903    2    3    3    0    0  0.82879896544E-01 -0.29277414994E-01  0.10220848713E+00  0.13629481850E+00  0.20086274619E-01 0.  0.
         14    1    1    2    0    0 -0.89703906891E-02  0.11332573562E-01 -0.13728439083E-01  0.19934020475E-01  0.00000000000E+00 0. -1.
     999901    1    3    3    0    0 -0.73909505855E-01  0.17944841431E-01 -0.88480048045E-01  0.88770116103E+00  0.88000000000E+00 0.  1.
        -11    1    4    4    0    0  0.28374459215E-01 -0.30124936237E-02  0.43225611362E-01  0.51796714685E-01  0.51100000000E-03 0.  1.
         11    1    4    4    0    0  0.54505437329E-01 -0.26264921370E-01  0.58982875766E-01  0.84498103811E-01  0.51100000000E-03 0. -1.
</event>
<event>
 8    1  0.1148488E+005  0.1043930E+01  0.7957747E-01            NaN
         13   -1    0    0    0    0  0.00000000000E+00  0.00000000000E+00  0.74505805969E-08  0.10566000000E+00  0.10566000000E+00 0. -1.
     999900   -1    0    0    0    0 -0.00000000000E+00 -0.00000000000E+00 -0.74505805969E-08  0.93827000000E+00  0.93827000000E+00 0. -1.
     999902    2    1    2    0    0 -0.10097214746E-01  0.31235858629E-02 -0.21323730902E-01  0.10201305875E+01  0.10198529323E+01 0.  0.
     999903    2    3    3    0    0  0.42591745228E-01 -0.84804665947E-01  0.83546398963E-01  0.12799536902E+00  0.19922991318E-01 0.  0.
         14    1    1    2    0    0  0.10097214746E-01 -0.31235858629E-02  0.21323730902E-01  0.23799412469E-01  0.00000000000E+00 0. -1.
     999901    1    3    3    0    0 -0.52688959974E-01  0.87928251810E-01 -0.10487012986E+00  0.89213521851E+00  0.88000000000E+00 0. -1.
        -11    1    4    4    0    0  0.33237599811E-01 -0.44362236801E-01  0.46478778817E-01  0.72341441073E-01  0.51100000000E-03 0.  1.
         11    1    4    4    0    0  0.93541454171E-02 -0.40442429146E-01  0.37067620146E-01  0.55653927947E-01  0.51100000000E-03 0. -1.
</event>
<event>
 8    1  0.1148488E+005  0.1043930E+01  0.7957747E-01            NaN
         13   -1    0    0    0    0  0.00000000000E+00  0.00000000000E+00  0.74505805969E-08  0.10566000000E+00  0.10566000000E+00 0. -1.
     999900   -1    0    0    0    0 -0.00000000000E+00 -0.00000000000E+00 -0.74505805969E-08  0.93827000000E+00  0.93827000000E+00 0. -1.
     999902    2    1    2    0    0  0.28053119672E-02 -0.13015659300E-02 -0.23046995959E-01  0.10206764439E+01  0.10204115225E+01 0.  0.
     999903    2    3    3    0    0  0.14413777782E-01  0.63693878651E-02  0.12551881372E+00  0.12811529763E+00  0.20254155010E-01 0.  0.
         14    1    1    2    0    0 -0.28053119672E-02  0.13015659300E-02  0.23046995959E-01  0.23253556111E-01  0.00000000000E+00 0. -1.
     999901    1    3    3    0    0 -0.11608465815E-01 -0.76709537951E-02 -0.14856580968E+00  0.89256114626E+00  0.88000000000E+00 0. -1.
        -11    1    4    4    0    0 -0.48230873140E-02  0.27129901862E-02  0.18424617454E-01  0.19244483270E-01  0.51100000000E-03 0.  1.
         11    1    4    4    0    0  0.19236865096E-01  0.36563976789E-02  0.10709419627E+00  0.10887081436E+00  0.51100000000E-03 0. -1.
</event>
<event>
 8    1  0.1148488E+005  0.1043930E+01  0.7957747E-01            NaN
         13   -1    0    0    0    0  0.00000000000E+00  0.00000000000E+00  0.74505805969E-08  0.10566000000E+00  0.10566000000E+00 0. -1.
     999900   -1    0    0    0    0 -0.00000000000E+00 -0.00000000000E+00 -0.74505805969E-08  0.93827000000E+00  0.93827000000E+00 0.  1.
     999902    2    1    2    0    0 -0.18429294388E-01  0.12213027853E-01  0.86421216432E-02  0.10201921988E+01  0.10199159962E+01 0.  0.
     999903    2    3    3    0    0  0.15796620372E-01 -0.97455752524E-01  0.81922185114E-01  0.12970434240E+00  0.19100133724E-01 0.  0.
         14    1    1    2    0    0  0.18429294388E-01 -0.12213027853E-01 -0.86421216432E-02  0.23737801236E-01  0.00000000000E+00 0. -1.
     999901    1    3    3    0    0 -0.34225914761E-01  0.10966878038E+00 -0.73280063471E-01  0.89048785636E+00  0.88000000000E+00 0. -1.
        -11    1    4    4    0    0  0.10724913053E-02 -0.11597533583E-01  0.18817566610E-01  0.22136281461E-01  0.51100000000E-03 0. -1.
         11    1    4    4    0    0  0.14724129067E-01 -0.85858218941E-01  0.63104618504E-01  0.10756806094E+00  0.51100000000E-03 0.  1.
</event>
<event>
 8    1  0.1148488E+005  0.1043930E+01  0.7957747E-01            NaN
         13   -1    0    0    0    0  0.00000000000E+00  0.00000000000E+00  0.74505805969E-08  0.10566000000E+00  0.10566000000E+00 0. -1.
     999900   -1    0    0    0    0 -0.00000000000E+00 -0.00000000000E+00 -0.74505805969E-08  0.93827000000E+00  0.93827000000E+00 0. -1.
     999902    2    1    2    0    0  0.29661630274E-03 -0.22231234065E-01 -0.94310366710E-02  0.10197792194E+01  0.10194932056E+01 0.  0.
     999903    2    3    3    0    0 -0.57338466859E-01  0.52271353227E-02  0.11346260112E+00  0.12894892635E+00  0.20953305910E-01 0.  0.
         14    1    1    2    0    0 -0.29661630274E-03  0.22231234065E-01  0.94310366710E-02  0.24150780567E-01  0.00000000000E+00 0.  1.
     999901    1    3    3    0    0  0.57635083162E-01 -0.27458369388E-01 -0.12289363779E+00  0.89083029308E+00  0.88000000000E+00 0. -1.
        -11    1    4    4    0    0 -0.49569105716E-01  0.55287736818E-02  0.77587954345E-01  0.92237819577E-01  0.51100000000E-03 0.  1.
         11    1    4    4    0    0 -0.77693611432E-02 -0.30163835908E-03  0.35874646777E-01  0.36711106775E-01  0.51100000000E-03 0. -1.
</event>
<event>
 8    1  0.1148488E+005  0.1043930E+01  0.7957747E-01            NaN
         13   -1    0    0    0    0  0.00000000000E+00  0.00000000000E+00  0.74505805969E-08  0.10566000000E+00  0.10566000000E+00 0. -1.
     999900   -1    0    0    0    0 -0.00000000000E+00 -0.00000000000E+00 -0.74505805969E-08  0.93827000000E+00  0.93827000000E+00 0. -1.
     999902    2    1    2    0    0  0.59869338007E-02  0.22067633688E-01  0.56531763168E-02  0.10203761843E+01  0.10201042962E+01 0.  0.
     999903    2    3    3    0    0 -0.11337104362E+00 -0.54423347292E-01  0.14361507208E-01  0.12898792320E+00  0.24834193767E-01 0.  0.
         14    1    1    2    0    0 -0.59869338007E-02 -0.22067633688E-01 -0.56531763168E-02  0.23553815729E-01  0.00000000000E+00 0. -1.
     999901    1    3    3    0    0  0.11935797742E+00  0.76490980980E-01 -0.87083308910E-02  0.89138826107E+00  0.88000000000E+00 0. -1.
        -11    1    4    4    0    0 -0.71076008268E-01 -0.21194519558E-01  0.45401268133E-02  0.74309356632E-01  0.51100000000E-03 0. -1.
         11    1    4    4    0    0 -0.42295035354E-01 -0.33228827734E-01  0.98213803945E-02  0.54678566569E-01  0.51100000000E-03 0.  1.
</event>
<event>
 8    1  0.1148488E+005  0.1043930E+01  0.7957747E-01            NaN
         13   -1    0    0    0    0  0.00000000000E+00  0.00000000000E+00  0.74505805969E-08  0.10566000000E+00  0.10566000000E+00 0. -1.
     999900   -1    0    0    0    0 -0.00000000000E+00 -0.00000000000E+00 -0.74505805969E-08  0.93827000000E+00  0.93827000000E+00 0.  1.
     999902    2    1    2    0    0 -0.19598723716E-01  0.85849608935E-02 -0.26451311088E-02  0.10223705881E+01  0.10221432439E+01 0.  0.
     999903    2    3    3    0    0 -0.87121212601E-01 -0.47411518213E-01  0.87107074173E-01  0.13346657157E+00  0.19690749354E-01 0.  0.
         14    1    1    2    0    0  0.19598723716E-01 -0.85849608935E-02  0.26451311088E-02  0.21559411945E-01  0.00000000000E+00 0. -1.
     999901    1    3    3    0    0  0.67522488884E-01  0.55996479106E-01 -0.89752205282E-01  0.88890401649E+00  0.88000000000E+00 0.  1.
        -11    1    4    4    0    0 -0.58418658441E-01 -0.40263615895E-01  0.67817517420E-01  0.98149759087E-01  0.51100000000E-03 0.  1.
         11    1    4    4    0    0 -0.28702554160E-01 -0.71479023177E-02  0.19289556754E-01  0.35316812478E-01  0.51100000000E-03 0. -1.
</event>
<event>
 8    1  0.1148488E+005  0.1043930E+01  0.7957747E-01            NaN
         13   -1    0    0    0    0  0.00000000000E+00  0.00000000000E+00  0.74505805969E-08  0.10566000000E+00  0.10566000000E+00 0. -1.
     999900   -1    0    0    0    0 -0.00000000000E+00 -0.00000000000E+00 -0.74505805969E-08  0.93827000000E+00  0.93827000000E+00 0.  1.
     999902    2    1    2    0    0  0.21500893435E-01 -0.38326614710E-02  0.92931016031E-02  0.10201952270E+01  0.10199190957E+01 0.  0.
     999903    2    3    3    0    0 -0.92023907681E-01  0.16028970640E-02  0.89743916435E-01  0.12924642971E+00  0.13405230023E-01 0.  0.
         14    1    1    2    0    0 -0.21500893435E-01  0.38326614710E-02 -0.92931016031E-02  0.23734773011E-01  0.00000000000E+00 0.  1.
     999901    1    3    3    0    0  0.11352480112E+00 -0.54355585350E-02 -0.80450814832E-01  0.89094879728E+00  0.88000000000E+00 0.  1.
        -11    1    4    4    0    0 -0.70518055318E-01 -0.41222506669E-02  0.65527012962E-01  0.96352683539E-01  0.51100000000E-03 0.  1.
         11    1    4    4    0    0 -0.21505852363E-01  0.57251477309E-02  0.24216903473E-01  0.32893746172E-01  0.51100000000E-03 0. -1.
</event>
<event>
 8    1  0.1148488E+005  0.1043930E+01  0.7957747E-01            NaN
         13   -1    0    0    0    0  0.00000000000E+00  0.00000000000E+00  0.74505805969E-08  0.10566000000E+00  0.10566000000E+00 0. -1.
     999900   -1    0    0    0    0 -0.00000000000E+00 -0.00000000000E+00 -0.74505805969E-08  0.93827000000E+00  0.93827000000E+00 0.  1.
     999902    2    1    2    0    0 -0.14584861863E-01  0.17283709184E-01 -0.41815794128E-03  0.10213109891E+01  0.10210604863E+01 0.  0.
     999903    2    3    3    0    0 -0.56361386062E-01  0.33192298471E-01 -0.11096210933E+00  0.13326913963E+00  0.34201452542E-01 0.  0.
         14    1    1    2    0    0  0.14584861863E-01 -0.17283709184E-01  0.41815794128E-03  0.22619010915E-01  0.00000000000E+00 0. -1.
     999901    1    3    3    0    0  0.41776524199E-01 -0.15908589287E-01  0.11054395139E+00  0.88804184945E+00  0.88000000000E+00 0. -1.
        -11    1    4    4    0    0 -0.40138279340E-01  0.80068815423E-02 -0.81740014855E-01  0.91415987496E-01  0.51100000000E-03 0. -1.
         11    1    4    4    0    0 -0.16223106722E-01  0.25185416929E-01 -0.29222094472E-01  0.41853152139E-01  0.51100000000E-03 0.  1.
</event>
<event>
 8    1  0.1148488E+005  0.1043930E+01  0.7957747E-01            NaN
         13   -1    0    0    0    0  0.00000000000E+00  0.00000000000E+00  0.74505805969E-08  0.10566000000E+00  0.10566000000E+00 0.  1.
     999900   -1    0    0    0    0 -0.00000000000E+00 -0.00000000000E+00 -0.74505805969E-08  0.93827000000E+00  0.93827000000E+00 0.  1.
     999902    2    1    2    0    0 -0.94541777612E-02 -0.51114007280E-02 -0.21510099884E-01  0.10198843706E+01  0.10196008715E+01 0.  0.
     999903    2    3    3    0    0  0.98408456472E-01 -0.36663894045E-01  0.69757303115E-01  0.12805498866E+00  0.22439548832E-01 0.  0.
         14    1    1    2    0    0  0.94541777612E-02  0.51114007280E-02  0.21510099884E-01  0.24045629365E-01  0.00000000000E+00 0.  1.
     999901    1    3    3    0    0 -0.10786263423E+00  0.31552493317E-01 -0.91267402999E-01  0.89182938197E+00  0.88000000000E+00 0.  1.
        -11    1    4    4    0    0  0.46731186291E-01 -0.24165057467E-01  0.45730066715E-01  0.69708348835E-01  0.51100000000E-03 0. -1.
         11    1    4    4    0    0  0.51677270181E-01 -0.12498836578E-01  0.24027236400E-01  0.58346639828E-01  0.51100000000E-03 0.  1.
</event>
<event>
 8    1  0.1148488E+005  0.1043930E+01  0.7957747E-01            NaN
         13   -1    0    0    0    0  0.00000000000E+00  0.00000000000E+00  0.74505805969E-08  0.10566000000E+00  0.10566000000E+00 0.  1.
     999900   -1    0    0    0    0 -0.00000000000E+00 -0.00000000000E+00 -0.74505805969E-08  0.93827000000E+00  0.93827000000E+00 0.  1.
     999902    2    1    2    0    0  0.88604537295E-02  0.10737910934E-01 -0.19239898139E-01  0.10201816516E+01  0.10199052006E+01 0.  0.
     999903    2    3    3    0    0 -0.85713246264E-02  0.97476606475E-01 -0.88022196129E-01  0.13307485266E+00  0.19643140875E-01 0.  0.
         14    1    1    2    0    0 -0.88604537295E-02 -0.10737910934E-01  0.19239898139E-01  0.23748348404E-01  0.00000000000E+00 0.  1.
     999901    1    3    3    0    0  0.17431778356E-01 -0.86738695541E-01  0.68782297990E-01  0.88710679894E+00  0.88000000000E+00 0. -1.
        -11    1    4    4    0    0 -0.11999890157E-02  0.48650431770E-01 -0.31279610300E-01  0.57853086578E-01  0.51100000000E-03 0. -1.
         11    1    4    4    0    0 -0.73713356107E-02  0.48826174705E-01 -0.56742585829E-01  0.75221766082E-01  0.51100000000E-03 0.  1.
</event>
<event>
 8    1  0.1148488E+005  0.1043930E+01  0.7957747E-01            NaN
         13   -1    0    0    0    0  0.00000000000E+00  0.00000000000E+00  0.74505805969E-08  0.10566000000E+00  0.10566000000E+00 0.  1.
     999900   -1    0    0    0    0 -0.00000000000E+00 -0.00000000000E+00 -0.74505805969E-08  0.93827000000E+00  0.93827000000E+00 0.  1.
     999902    2    1    2    0    0 -0.10337668899E-01 -0.20400195272E-01  0.12265684605E-01  0.10179784609E+01  0.10176476131E+01 0.  0.
     999903    2    3    3    0    0 -0.32805235163E-01  0.56680717874E-01  0.10878998667E+00  0.12906721692E+00  0.23112724835E-01 0.  0.
         14    1    1    2    0    0  0.10337668899E-01  0.20400195272E-01 -0.12265684605E-01  0.25951539149E-01  0.00000000000E+00 0. -1.
     999901    1    3    3    0    0  0.22467566264E-01 -0.77080913146E-01 -0.96524302068E-01  0.88891124394E+00  0.88000000000E+00 0.  1.
        -11    1    4    4    0    0 -0.16500125760E-01  0.47577247857E-01  0.72850563891E-01  0.88562488922E-01  0.51100000000E-03 0.  1.
         11    1    4    4    0    0 -0.16305109403E-01  0.91034700167E-02  0.35939422782E-01  0.40504727994E-01  0.51100000000E-03 0. -1.
</event>
<event>
 8    1  0.1148488E+005  0.1043930E+01  0.7957747E-01            NaN
         13   -1    0    0    0    0  0.00000000000E+00  0.00000000000E+00  0.74505805969E-08  0.10566000000E+00  0.10566000000E+00 0. -1.
     999900   -1    0    0    0    0 -0.00000000000E+00 -0.00000000000E+00 -0.74505805969E-08  0.93827000000E+00  0.93827000000E+00 0. -1.
     999902    2    1    2    0    0 -0.13510340771E-01 -0.17815494716E-01  0.73899649872E-02  0.10203814811E+01  0.10201097168E+01 0.  0.
     999903    2    3    3    0    0  0.78909460389E-01  0.95113916241E-01  0.28160472559E-01  0.12812261424E+00  0.18682399850E-01 0.  0.
         14    1    1    2    0    0  0.13510340771E-01  0.17815494716E-01 -0.73899649872E-02  0.23548518897E-01  0.00000000000E+00 0.  1.
     999901    1    3    3    0    0 -0.92419801160E-01 -0.11292941096E+00 -0.20770507572E-01  0.89225886686E+00  0.88000000000E+00 0. -1.
        -11    1    4    4    0    0  0.18064460998E-01  0.21955993743E-01  0.14727492832E-01  0.32024218624E-01  0.51100000000E-03 0.  1.
         11    1    4    4    0    0  0.60844999391E-01  0.73157922499E-01  0.13432979727E-01  0.96098395619E-01  0.51100000000E-03 0. -1.
</event>
<event>
 8    1  0.1148488E+005  0.1043930E+01  0.7957747E-01            NaN
         13   -1    0    0    0    0  0.00000000000E+00  0.00000000000E+00  0.74505805969E-08  0.10566000000E+00  0.10566000000E+00 0. -1.
     999900   -1    0    0    0    0 -0.00000000000E+00 -0.00000000000E+00 -0.74505805969E-08  0.93827000000E+00  0.93827000000E+00 0. -1.
     999902    2    1    2    0    0 -0.12871699794E-01 -0.19285923603E-01 -0.65929585097E-02  0.10198240960E+01  0.10195391568E+01 0.  0.
     999903    2    3    3    0    0  0.38191594212E-01  0.10871087732E+00  0.50360883293E-01  0.12728032615E+00  0.19682737147E-01 0.  0.
         14    1    1    2    0    0  0.12871699794E-01  0.19285923603E-01  0.65929585097E-02  0.24105903981E-01  0.00000000000E+00 0. -1.
     999901    1    3    3    0    0 -0.51063294005E-01 -0.12799680092E+00 -0.56953841803E-01  0.89254376987E+00  0.88000000000E+00 0. -1.
        -11    1    4    4    0    0 -0.93696713138E-03  0.82503875913E-02  0.76943414826E-02  0.11331849569E-01  0.51100000000E-03 0. -1.
         11    1    4    4    0    0  0.39128561343E-01  0.10046048973E+00  0.42666541811E-01  0.11594847658E+00  0.51100000000E-03 0.  1.
</event>
<event>
 8    1  0.1148488E+005  0.1043930E+01  0.7957747E-01            NaN
         13   -1    0    0    0    0  0.00000000000E+00  0.00000000000E+00  0.74505805969E-08  0.10566000000E+00  0.10566000000E+00 0. -1.
     999900   -1    0    0    0    0 -0.00000000000E+00 -0.00000000000E+00 -0.74505805969E-08  0.93827000000E+00  0.93827000000E+00 0.  1.
     999902    2    1    2    0    0  0.76829594701E-02  0.11779221725E-01  0.19168069839E-01  0.10201562154E+01  0.10198791649E+01 0.  0.
     999903    2    3    3    0    0 -0.49897010739E-01  0.89336796838E-01 -0.77220009978E-01  0.12963878588E+00  0.19300515899E-01 0.  0.
         14    1    1    2    0    0 -0.76829594701E-02 -0.11779221725E-01 -0.19168069839E-01  0.23773784554E-01  0.00000000000E+00 0.  1.
     999901    1    3    3    0    0  0.57579970209E-01 -0.77557575113E-01  0.96388079818E-01  0.89051742956E+00  0.88000000000E+00 0. -1.
        -11    1    4    4    0    0 -0.10025641407E-01  0.36901735419E-01 -0.29390372464E-01  0.48231801513E-01  0.51100000000E-03 0.  1.
         11    1    4    4    0    0 -0.39871369331E-01  0.52435061418E-01 -0.47829637514E-01  0.81406984369E-01  0.51100000000E-03 0. -1.
</event>
<event>
 8    1  0.1148488E+005  0.1043930E+01  0.7957747E-01            NaN
         13   -1    0    0    0    0  0.00000000000E+00  0.00000000000E+00  0.74505805969E-08  0.10566000000E+00  0.10566000000E+00 0.  1.
     999900   -1    0    0    0    0 -0.00000000000E+00 -0.00000000000E+00 -0.74505805969E-08  0.93827000000E+00  0.93827000000E+00 0. -1.
     999902    2    1    2    0    0  0.33550048533E-02  0.20786925672E-01 -0.42195284380E-02  0.10224554393E+01  0.10222299001E+01 0.  0.
     999903    2    3    3    0    0 -0.12355173181E+00 -0.39346167387E-01  0.42183796684E-02  0.13128064895E+00  0.20091359797E-01 0.  0.
         14    1    1    2    0    0 -0.33550048533E-02 -0.20786925672E-01  0.42195284380E-02  0.21474560687E-01  0.00000000000E+00 0.  1.
     999901    1    3    3    0    0  0.12690673667E+00  0.60133093059E-01 -0.84379081065E-02  0.89117479037E+00  0.88000000000E+00 0. -1.
        -11    1    4    4    0    0 -0.98621722096E-01 -0.38631574641E-01  0.71668728489E-02  0.10616151758E+00  0.51100000000E-03 0.  1.
         11    1    4    4    0    0 -0.24930009717E-01 -0.71459274518E-03 -0.29484931805E-02  0.25119131361E-01  0.51100000000E-03 0. -1.
</event>
<event>
 8    1  0.1148488E+005  0.1043930E+01  0.7957747E-01            NaN
         13   -1    0    0    0    0  0.00000000000E+00  0.00000000000E+00  0.74505805969E-08  0.10566000000E+00  0.10566000000E+00 0.  1.
     999900   -1    0    0    0    0 -0.00000000000E+00 -0.00000000000E+00 -0.74505805969E-08  0.93827000000E+00  0.93827000000E+00 0. -1.
     999902    2    1    2    0    0 -0.20304093017E-01  0.71857641391E-03 -0.85533994153E-02  0.10218861077E+01  0.10216483172E+01 0.  0.
     999903    2    3    3    0    0  0.12651829612E+00  0.55840848765E-02  0.16831770835E-01  0.12934765253E+00  0.20234758446E-01 0.  0.
         14    1    1    2    0    0  0.20304093017E-01 -0.71857641391E-03  0.85533994153E-02  0.22043892280E-01  0.00000000000E+00 0. -1.
     999901    1    3    3    0    0 -0.14682238913E+00 -0.48655084626E-02 -0.25385170250E-01  0.89253845519E+00  0.88000000000E+00 0.  1.
        -11    1    4    4    0    0  0.39264055752E-01 -0.34838100568E-02 -0.25586755479E-02  0.39504568700E-01  0.51100000000E-03 0.  1.
         11    1    4    4    0    0  0.87254240365E-01  0.90678949333E-02  0.19390446383E-01  0.89843083830E-01  0.51100000000E-03 0. -1.
</event>
<event>
 8    1  0.1148488E+005  0.1043930E+01  0.7957747E-01            NaN
         13   -1    0    0    0    0  0.00000000000E+00  0.00000000000E+00  0.74505805969E-08  0.10566000000E+00  0.10566000000E+00 0.  1.
     999900   -1    0    0    0    0 -0.00000000000E+00 -0.00000000000E+00 -0.74505805969E-08  0.93827000000E+00  0.93827000000E+00 0. -1.
     999902    2    1    2    0    0  0.13280429029E-01 -0.12173679699E-01 -0.15555495130E-01  0.10201278635E+01  0.10198501440E+01 0.  0.
     999903    2    3    3    0    0 -0.86445048534E-01  0.58731731815E-01 -0.74318305069E-01  0.12972019503E+00  0.19543689336E-01 0.  0.
         14    1    1    2    0    0 -0.13280429029E-01  0.12173679699E-01  0.15555495130E-01  0.23802136487E-01  0.00000000000E+00 0. -1.
     999901    1    3    3    0    0  0.99725477563E-01 -0.70905411514E-01  0.58762809939E-01  0.89040766848E+00  0.88000000000E+00 0.  1.
        -11    1    4    4    0    0 -0.23576686375E-01  0.69491950147E-02 -0.13321843429E-01  0.27962190278E-01  0.51100000000E-03 0.  1.
         11    1    4    4    0    0 -0.62868362159E-01  0.51782536800E-01 -0.60996461640E-01  0.10175800475E+00  0.51100000000E-03 0. -1.
</event>
<event>
 8    1  0.1148488E+005  0.1043930E+01  0.7957747E-01            NaN
         13   -1    0    0    0    0  0.00000000000E+00  0.00000000000E+00  0.74505805969E-08  0.10566000000E+00  0.10566000000E+00 0. -1.
     999900   -1    0    0    0    0 -0.00000000000E+00 -0.00000000000E+00 -0.74505805969E-08  0.93827000000E+00  0.93827000000E+00 0. -1.
     999902    2    1    2    0    0  0.89059590408E-02 -0.21242223267E-01  0.88220024266E-02  0.10192647231E+01  0.10189662408E+01 0.  0.
     999903    2    3    3    0    0  0.66962988706E-01  0.96315269787E-01 -0.46510151860E-01  0.12783215129E+00  0.20425269288E-01 0.  0.
         14    1    1    2    0    0 -0.89059590408E-02  0.21242223267E-01 -0.88220024266E-02  0.24665276860E-01  0.00000000000E+00 0.  1.
     999901    1    3    3    0    0 -0.58057029666E-01 -0.11755749305E+00  0.55332154287E-01  0.89143257186E+00  0.88000000000E+00 0.  1.
        -11    1    4    4    0    0  0.41948756495E-01  0.42867262773E-01 -0.21144217503E-01  0.63597479855E-01  0.51100000000E-03 0. -1.
         11    1    4    4    0    0  0.25014232212E-01  0.53448007014E-01 -0.25365934357E-01  0.64234671430E-01  0.51100000000E-03 0.  1.
</event>
<event>
 8    1  0.1148488E+005  0.1043930E+01  0.7957747E-01            NaN
         13   -1    0    0    0    0  0.00000000000E+00  0.00000000000E+00  0.74505805969E-08  0.10566000000E+00  0.10566000000E+00 0.  1.
     999900   -1    0    0    0    0 -0.00000000000E+00 -0.00000000000E+00 -0.74505805969E-08  0.93827000000E+00  0.93827000000E+00 0.  1.
     999902    2    1    2    0    0  0.11362645592E-01 -0.66038658253E-02  0.18330714035E-01  0.10213748269E+01  0.10211257519E+01 0.  0.
     999903    2    3    3    0    0 -0.10221746260E+00  0.13835441661E-01 -0.74653130304E-01  0.12898242349E+00  0.20580247784E-01 0.  0.
         14    1    1    2    0    0 -0.11362645592E-01  0.66038658253E-02 -0.18330714035E-01  0.22555173147E-01  0.00000000000E+00 0. -1.
     999901    1    3    3    0    0  0.11358010819E+00 -0.20439307486E-01  0.92983844339E-01  0.89239240336E+00  0.88000000000E+00 0. -1.
        -11    1    4    4    0    0 -0.60727498420E-01 -0.63488674105E-03 -0.49491236364E-01  0.78344596134E-01  0.51100000000E-03 0.  1.
         11    1    4    4    0    0 -0.41489964182E-01  0.14470328402E-01 -0.25161893940E-01  0.50637827358E-01  0.51100000000E-03 0. -1.
</event>
<event>
 8    1  0.1148488E+005  0.1043930E+01  0.7957747E-01            NaN
         13   -1    0    0    0    0  0.00000000000E+00  0.00000000000E+00  0.74505805969E-08  0.10566000000E+00  0.10566000000E+00 0.  1.
     999900   -1    0    0    0    0 -0.00000000000E+00 -0.00000000000E+00 -0.74505805969E-08  0.93827000000E+00  0.93827000000E+00 0. -1.
     999902    2    1    2    0    0 -0.40912806955E-02  0.24117093971E-01  0.47711562409E-02  0.10190073851E+01  0.10187025642E+01 0.  0.
     999903    2    3    3    0    0  0.54064322313E-01 -0.99919556107E-01  0.53151343796E-01  0.12709494142E+00  0.20522917614E-01 0.  0.
         14    1    1    2    0    0  0.40912806955E-02 -0.24117093971E-01 -0.47711562409E-02  0.24922614855E-01  0.00000000000E+00 0.  1.
     999901    1    3    3    0    0 -0.58155603008E-01  0.12403665008E+00 -0.48380187555E-01  0.89191244373E+00  0.88000000000E+00 0. -1.
        -11    1    4    4    0    0  0.49494493067E-01 -0.82685499085E-01  0.37645055601E-01  0.10346017560E+00  0.51100000000E-03 0.  1.
         11    1    4    4    0    0  0.45698292454E-02 -0.17234057022E-01  0.15506288195E-01  0.23634765820E-01  0.51100000000E-03 0. -1.
</event>
<event>
 8    1  0.1148488E+005  0.1043930E+01  0.7957747E-01            NaN
         13   -1    0    0    0    0  0.00000000000E+00  0.00000000000E+00  0.74505805969E-08  0.10566000000E+00  0.10566000000E+00 0. -1.
     999900   -1    0    0    0    0 -0.00000000000E+00 -0.00000000000E+00 -0.74505805969E-08  0.93827000000E+00  0.93827000000E+00 0. -1.
     999902    2    1    2    0    0 -0.24305351091E-02  0.17370912766E-01 -0.15942808343E-01  0.10202270624E+01  0.10199516801E+01 0.  0.
     999903    2    3    3    0    0 -0.12081464109E+00  0.29320372390E-01  0.35568098161E-01  0.13072666355E+00  0.19196593910E-01 0.  0.
         14    1    1    2    0    0  0.24305351091E-02 -0.17370912766E-01  0.15942808343E-01  0.23702937563E-01  0.00000000000E+00 0.  1.
     999901    1    3    3    0    0  0.11838410598E+00 -0.11949459624E-01 -0.51510906504E-01  0.88950039889E+00  0.88000000000E+00 0. -1.
        -11    1    4    4    0    0 -0.78641003881E-01  0.17027741455E-01  0.32191538122E-01  0.86665493238E-01  0.51100000000E-03 0. -1.
         11    1    4    4    0    0 -0.42173637206E-01  0.12292630935E-01  0.33765600392E-02  0.44061170312E-01  0.51100000000E-03 0.  1.
</event>
<event>
 8    1  0.1148488E+005  0.1043930E+01  0.7957747E-01            NaN
         13   -1    0    0    0    0  0.00000000000E+00  0.00000000000E+00  0.74505805969E-08  0.10566000000E+00  0.10566000000E+00 0.  1.
     999900   -1    0    0    0    0 -0.00000000000E+00 -0.00000000000E+00 -0.74505805969E-08  0.93827000000E+00  0.93827000000E+00 0.  1.
     999902    2    1    2    0    0  0.14154708438E-01 -0.11790039579E-01 -0.14434236078E-01  0.10205268383E+01  0.10202584574E+01 0.  0.
     999903    2    3    3    0    0 -0.38690249284E-01  0.83820452519E-01  0.86549561345E-01  0.12804060142E+00  0.19513210745E-01 0.  0.
         14    1    1    2    0    0 -0.14154708438E-01  0.11790039579E-01  0.14434236078E-01  0.23403161654E-01  0.00000000000E+00 0.  1.
     999901    1    3    3    0    0  0.52844957721E-01 -0.95610492098E-01 -0.10098379742E+00  0.89248623692E+00  0.88000000000E+00 0.  1.
        -11    1    4    4    0    0 -0.27014500675E-01  0.36834153091E-01  0.46764076957E-01  0.65373374513E-01  0.51100000000E-03 0. -1.
         11    1    4    4    0    0 -0.11675748609E-01  0.46986299428E-01  0.39785484388E-01  0.62667226910E-01  0.51100000000E-03 0.  1.
</event>
<event>
 8    1  0.1148488E+005  0.1043930E+01  0.7957747E-01            NaN
         13   -1    0    0    0    0  0.00000000000E+00  0.00000000000E+00  0.74505805969E-08  0.10566000000E+00  0.10566000000E+00 0.  1.
     999900   -1    0    0    0    0 -0.00000000000E+00 -0.00000000000E+00 -0.74505805969E-08  0.93827000000E+00  0.93827000000E+00 0. -1.
     999902    2    1    2    0    0 -0.22807343594E-01 -0.61571882986E-02  0.41616187384E-02  0.10199423999E+01  0.10196602837E+01 0.  0.
     999903    2    3    3    0    0 -0.46638502240E-01 -0.54977719084E-01 -0.10727594044E+00  0.13125252261E+00  0.22834136857E-01 0.  0.
         14    1    1    2    0    0  0.22807343594E-01  0.61571882986E-02 -0.41616187384E-02  0.23987600132E-01  0.00000000000E+00 0. -1.
     999901    1    3    3    0    0  0.23831158646E-01  0.48820530785E-01  0.11143755918E+00  0.88868987726E+00  0.88000000000E+00 0.  1.
        -11    1    4    4    0    0 -0.11944774305E-01 -0.23793150089E-01 -0.55512701639E-01  0.61568764715E-01  0.51100000000E-03 0.  1.
         11    1    4    4    0    0 -0.34693727935E-01 -0.31184568995E-01 -0.51763238805E-01  0.69683757893E-01  0.51100000000E-03 0. -1.
</event>
<event>
 8    1  0.1148488E+005  0.1043930E+01  0.7957747E-01            NaN
         13   -1    0    0    0    0  0.00000000000E+00  0.00000000000E+00  0.74505805969E-08  0.10566000000E+00  0.10566000000E+00 0. -1.
     999900   -1    0    0    0    0 -0.00000000000E+00 -0.00000000000E+00 -0.74505805969E-08  0.93827000000E+00  0.93827000000E+00 0. -1.
     999902    2    1    2    0    0  0.13414118124E-01 -0.14043665749E-01  0.11676642795E-01  0.10212693050E+01  0.10210178677E+01 0.  0.
     999903    2    3    3    0    0  0.10155815329E+00 -0.64413734365E-01 -0.53309112880E-01  0.13305217881E+00  0.19945753849E-01 0.  0.
         14    1    1    2    0    0 -0.13414118124E-01  0.14043665749E-01 -0.11676642795E-01  0.22660695039E-01  0.00000000000E+00 0.  1.
     999901    1    3    3    0    0 -0.88144035161E-01  0.50370068616E-01  0.64985755674E-01  0.88821712615E+00  0.88000000000E+00 0.  1.
        -11    1    4    4    0    0  0.31401627009E-01 -0.16167690400E-01 -0.25182645299E-01  0.43380676999E-01  0.51100000000E-03 0.  1.
         11    1    4    4    0    0  0.70156526276E-01 -0.48246043965E-01 -0.28126467580E-01  0.89671501811E-01  0.51100000000E-03 0. -1.
</event>
<event>
 8    1  0.1148488E+005  0.1043930E+01  0.7957747E-01            NaN
         13   -1    0    0    0    0  0.00000000000E+00  0.00000000000E+00  0.74505805969E-08  0.10566000000E+00  0.10566000000E+00 0.  1.
     999900   -1    0    0    0    0 -0.00000000000E+00 -0.00000000000E+00 -0.74505805969E-08  0.93827000000E+00  0.93827000000E+00 0.  1.
     999902    2    1    2    0    0 -0.70273768148E-02  0.18846674515E-01  0.12988197552E-01  0.10199868498E+01  0.10197057906E+01 0.  0.
     999903    2    3    3    0    0 -0.28518400959E-01  0.25976687196E-01 -0.12212857878E+00  0.12938635327E+00  0.18367122420E-01 0.  0.
         14    1    1    2    0    0  0.70273768148E-02 -0.18846674515E-01 -0.12988197552E-01  0.23943150186E-01  0.00000000000E+00 0.  1.
     999901    1    3    3    0    0  0.21491024145E-01 -0.71300126805E-02  0.13511677633E+00  0.89060049655E+00  0.88000000000E+00 0. -1.
        -11    1    4    4    0    0 -0.12388337705E-01  0.17467406820E-01 -0.89256275888E-01  0.91790659212E-01  0.51100000000E-03 0. -1.
         11    1    4    4    0    0 -0.16130063254E-01  0.85092803757E-02 -0.32872302893E-01  0.37595694056E-01  0.51100000000E-03 0.  1.
</event>
<event>
 8    1  0.1148488E+005  0.1043930E+01  0.7957747E-01            NaN
         13   -1    0    0    0    0  0.00000000000E+00  0.00000000000E+00  0.74505805969E-08  0.10566000000E+00  0.10566000000E+00 0.  1.
     999900   -1    0    0    0    0 -0.00000000000E+00 -0.00000000000E+00 -0.74505805969E-08  0.93827000000E+00  0.93827000000E+00 0. -1.
     999902    2    1    2    0    0  0.13858738329E-01 -0.21073666515E-01 -0.45601915693E-02  0.10182987808E+01  0.10179761528E+01 0.  0.
     999903    2    3    3    0    0 -0.96697929255E-01 -0.44993880468E-01  0.67481733864E-01  0.12813868715E+00  0.22154004982E-01 0.  0.
         14    1    1    2    0    0 -0.13858738329E-01  0.21073666515E-01  0.45601915693E-02  0.25631219159E-01  0.00000000000E+00 0.  1.
     999901    1    3    3    0    0  0.11055666758E+00  0.23920213953E-01 -0.72041925434E-01  0.89016009369E+00  0.88000000000E+00 0. -1.
        -11    1    4    4    0    0 -0.30724635079E-01 -0.23228982987E-01  0.16198092615E-01  0.41787895098E-01  0.51100000000E-03 0.  1.
         11    1    4    4    0    0 -0.65973294177E-01 -0.21764897481E-01  0.51283641249E-01  0.86350792050E-01  0.51100000000E-03 0. -1.
</event>
<event>
 8    1  0.1148488E+005  0.1043930E+01  0.7957747E-01            NaN
         13   -1    0    0    0    0  0.00000000000E+00  0.00000000000E+00  0.74505805969E-08  0.10566000000E+00  0.10566000000E+00 0.  1.
     999900   -1    0    0    0    0 -0.00000000000E+00 -0.00000000000E+00 -0.74505805969E-08  0.93827000000E+00  0.93827000000E+00 0. -1.
     999902    2    1    2    0    0  0.66143489047E-02  0.15832512379E-01 -0.15064652553E-01  0.10210966512E+01  0.10208413243E+01 0.  0.
     999903    2    3    3    0    0 -0.41029388229E-01  0.92774988495E-01 -0.84828665555E-01  0.13370886236E+00  0.19787576532E-01 0.  0.
         14    1    1    2    0    0 -0.66143489047E-02 -0.15832512379E-01  0.15064652553E-01  0.22833348773E-01  0.00000000000E+00 0.  1.
     999901    1    3    3    0    0  0.47643737134E-01 -0.76942476116E-01  0.69764013002E-01  0.88738778887E+00  0.88000000000E+00 0.  1.
        -11    1    4    4    0    0 -0.23740968172E-01  0.63584143376E-01 -0.67032353605E-01  0.95394834291E-01  0.51100000000E-03 0. -1.
         11    1    4    4    0    0 -0.17288420057E-01  0.29190845119E-01 -0.17796311951E-01  0.38314028070E-01  0.51100000000E-03 0.  1.
</event>
<event>
 8    1  0.1148488E+005  0.1043930E+01  0.7957747E-01            NaN
         13   -1    0    0    0    0  0.00000000000E+00  0.00000000000E+00  0.74505805969E-08  0.10566000000E+00  0.10566000000E+00 0. -1.
     999900   -1    0    0    0    0 -0.00000000000E+00 -0.00000000000E+00 -0.74505805969E-08  0.93827000000E+00  0.93827000000E+00 0. -1.
     999902    2    1    2    0    0 -0.66756803874E-02 -0.19688133659E-02  0.20465728430E-01  0.10223131784E+01  0.10220846089E+01 0.  0.
     999903    2    3    3    0    0  0.91731843799E-01  0.64996574244E-01 -0.63038928431E-01  0.13038188529E+00  0.19653083340E-01 0.  0.
         14    1    1    2    0    0  0.66756803874E-02  0.19688133659E-02 -0.20465728430E-01  0.21616821572E-01  0.00000000000E+00 0.  1.
     999901    1    3    3    0    0 -0.98407524187E-01 -0.66965387610E-01  0.83504656861E-01  0.89193129313E+00  0.88000000000E+00 0.  1.
        -11    1    4    4    0    0  0.38447385301E-01  0.16394285605E-01 -0.19378215449E-01  0.46073315400E-01  0.51100000000E-03 0. -1.
         11    1    4    4    0    0  0.53284458498E-01  0.48602288639E-01 -0.43660712981E-01  0.84308569893E-01  0.51100000000E-03 0.  1.
</event>
<event>
 8    1  0.1148488E+005  0.1043930E+01  0.7957747E-01            NaN
         13   -1    0    0    0    0  0.00000000000E+00  0.00000000000E+00  0.74505805969E-08  0.10566000000E+00  0.10566000000E+00 0.  1.
     999900   -1    0    0    0    0 -0.00000000000E+00 -0.00000000000E+00 -0.74505805969E-08  0.93827000000E+00  0.93827000000E+00 0.  1.
     999902    2    1    2    0    0 -0.46489509313E-02 -0.17728384638E-01  0.14769261306E-01  0.10203919575E+01  0.10201204377E+01 0.  0.
     999903    2    3    3    0    0  0.30807497821E-01  0.10612936086E+00 -0.60849083173E-01  0.12780244661E+00  0.20452659410E-01 0.  0.
         14    1    1    2    0    0  0.46489509313E-02  0.17728384638E-01 -0.14769261306E-01  0.23538042530E-01  0.00000000000E+00 0. -1.
     999901    1    3    3    0    0 -0.35456448753E-01 -0.12385774550E+00  0.75618344480E-01  0.89258951086E+00  0.88000000000E+00 0. -1.
        -11    1    4    4    0    0  0.15335925035E-01  0.83469037402E-01 -0.43935896197E-01  0.95566180719E-01  0.51100000000E-03 0. -1.
         11    1    4    4    0    0  0.15471572786E-01  0.22660323460E-01 -0.16913186976E-01  0.32236265889E-01  0.51100000000E-03 0.  1.
</event>
<event>
 8    1  0.1148488E+005  0.1043930E+01  0.7957747E-01            NaN
         13   -1    0    0    0    0  0.00000000000E+00  0.00000000000E+00  0.74505805969E-08  0.10566000000E+00  0.10566000000E+00 0.  1.
     999900   -1    0    0    0    0 -0.00000000000E+00 -0.00000000000E+00 -0.74505805969E-08  0.93827000000E+00  0.93827000000E+00 0. -1.
     999902    2    1    2    0    0 -0.23110590467E-01  0.20704697308E-02 -0.63235585582E-02  0.10198806002E+01  0.10195970111E+01 0.  0.
     999903    2    3    3    0    0 -0.84365722792E-02  0.17805499634E-01  0.12654769868E+00  0.12964597442E+00  0.20138199378E-01 0.  0.
         14    1    1    2    0    0  0.23110590467E-01 -0.20704697308E-02  0.63235585582E-02  0.24049399774E-01  0.00000000000E+00 0. -1.
     999901    1    3    3    0    0 -0.14674018188E-01 -0.15735029903E-01 -0.13287125724E+00  0.89023462580E+00  0.88000000000E+00 0. -1.
        -11    1    4    4    0    0 -0.83083870726E-03  0.20145303115E-01  0.87894675927E-01  0.90179036965E-01  0.51100000000E-03 0. -1.
         11    1    4    4    0    0 -0.76057335720E-02 -0.23398034813E-02  0.38653022754E-01  0.39466937460E-01  0.51100000000E-03 0.  1.
</event>
<event>
 8    1  0.1148488E+005  0.1043930E+01  0.7957747E-01            NaN
         13   -1    0    0    0    0  0.00000000000E+00  0.00000000000E+00  0.74505805969E-08  0.10566000000E+00  0.10566000000E+00 0. -1.
     999900   -1    0    0    0    0 -0.00000000000E+00 -0.00000000000E+00 -0.74505805969E-08  0.93827000000E+00  0.93827000000E+00 0.  1.
     999902    2    1    2    0    0 -0.23229237497E-01 -0.69877517290E-03  0.49936806879E-02  0.10201597958E+01  0.10198828297E+01 0.  0.
     999903    2    3    3    0    0  0.73557113120E-01 -0.97036977942E-01 -0.35677203475E-01  0.12869876591E+00  0.21533358296E-01 0.  0.
         14    1    1    2    0    0  0.23229237497E-01  0.69877517290E-03 -0.49936806879E-02  0.23770204212E-01  0.00000000000E+00 0. -1.
     999901    1    3    3    0    0 -0.96786350618E-01  0.96338202769E-01  0.40670884163E-01  0.89146102988E+00  0.88000000000E+00 0. -1.
        -11    1    4    4    0    0  0.59911867806E-01 -0.71139674533E-01 -0.18745502037E-01  0.94878554818E-01  0.51100000000E-03 0.  1.
         11    1    4    4    0    0  0.13645245314E-01 -0.25897303409E-01 -0.16931701438E-01  0.33820211089E-01  0.51100000000E-03 0. -1.
</event>
<event>
 8    1  0.1148488E+005  0.1043930E+01  0.7957747E-01            NaN
         13   -1    0    0    0    0  0.00000000000E+00  0.00000000000E+00  0.74505805969E-08  0.10566000000E+00  0.10566000000E+00 0. -1.
     999900   -1    0    0    0    0 -0.00000000000E+00 -0.00000000000E+00 -0.74505805969E-08  0.93827000000E+00  0.93827000000E+00 0.  1.
     999902    2    1    2    0    0 -0.59716556712E-02 -0.79234023860E-02 -0.24638951057E-01  0.10173683945E+01  0.10170215982E+01 0.  0.
     999903    2    3    3    0    0  0.11146919869E+00  0.40471545882E-01  0.36617539768E-01  0.12614071151E+00  0.22523467724E-01 0.  0.
         14    1    1    2    0    0  0.59716556712E-02  0.79234023860E-02  0.24638951057E-01  0.26561605487E-01  0.00000000000E+00 0. -1.
     999901    1    3    3    0    0 -0.11744085436E+00 -0.48394948268E-01 -0.61256490826E-01  0.89122768301E+00  0.88000000000E+00 0. -1.
        -11    1    4    4    0    0  0.51306480962E-01  0.28256343217E-01  0.10906182592E-01  0.59581724215E-01  0.51100000000E-03 0.  1.
         11    1    4    4    0    0  0.60162717726E-01  0.12215202665E-01  0.25711357176E-01  0.66558987291E-01  0.51100000000E-03 0. -1.
</event>
<event>
 8    1  0.1148488E+005  0.1043930E+01  0.7957747E-01            NaN
         13   -1    0    0    0    0  0.00000000000E+00  0.00000000000E+00  0.74505805969E-08  0.10566000000E+00  0.10566000000E+00 0.  1.
     999900   -1    0    0    0    0 -0.00000000000E+00 -0.00000000000E+00 -0.74505805969E-08  0.93827000000E+00  0.93827000000E+00 0.  1.
     999902    2    1    2    0    0 -0.44245633601E-02  0.19524928141E-01 -0.13777222097E-01  0.10196275016E+01  0.10193378393E+01 0.  0.
     999903    2    3    3    0    0  0.30370176327E-01 -0.61267687938E-01  0.10552860690E+00  0.12723072799E+00  0.19372508191E-01 0.  0.
         14    1    1    2    0    0  0.44245633601E-02 -0.19524928141E-01  0.13777222097E-01  0.24302498401E-01  0.00000000000E+00 0. -1.
     999901    1    3    3    0    0 -0.34794739687E-01  0.80792616079E-01 -0.11930582900E+00  0.89239677361E+00  0.88000000000E+00 0.  1.
        -11    1    4    4    0    0  0.10027379035E-01 -0.27803868197E-01  0.61932523125E-01  0.68625811169E-01  0.51100000000E-03 0.  1.
         11    1    4    4    0    0  0.20342797292E-01 -0.33463819741E-01  0.43596083777E-01  0.58604916816E-01  0.51100000000E-03 0. -1.
</event>
<event>
 8    1  0.1148488E+005  0.1043930E+01  0.7957747E-01            NaN
         13   -1    0    0    0    0  0.00000000000E+00  0.00000000000E+00  0.74505805969E-08  0.10566000000E+00  0.10566000000E+00 0. -1.
     999900   -1    0    0    0    0 -0.00000000000E+00 -0.00000000000E+00 -0.74505805969E-08  0.93827000000E+00  0.93827000000E+00 0. -1.
     999902    2    1    2    0    0  0.38682160281E-02  0.14088223329E-01 -0.18526412298E-01  0.10203361643E+01  0.10200633407E+01 0.  0.
     999903    2    3    3    0    0 -0.30882390660E-02  0.74512375205E-01  0.10425762757E+00  0.12973221703E+00  0.19979087782E-01 0.  0.
         14    1    1    2    0    0 -0.38682160281E-02 -0.14088223329E-01  0.18526412298E-01  0.23593835729E-01  0.00000000000E+00 0. -1.
     999901    1    3    3    0    0  0.69564550941E-02 -0.60424151877E-01 -0.12278403987E+00  0.89060394724E+00  0.88000000000E+00 0. -1.
        -11    1    4    4    0    0 -0.62177270158E-02  0.38861646896E-01  0.39621414702E-01  0.55848055944E-01  0.51100000000E-03 0.  1.
         11    1    4    4    0    0  0.31294879498E-02  0.35650728309E-01  0.64636212871E-01  0.73884161084E-01  0.51100000000E-03 0. -1.
</event>
<event>
 8    1  0.1148488E+005  0.1043930E+01  0.7957747E-01            NaN
         13   -1    0    0    0    0  0.00000000000E+00  0.00000000000E+00  0.74505805969E-08  0.10566000000E+00  0.10566000000E+00 0. -1.
     999900   -1    0    0    0    0 -0.00000000000E+00 -0.00000000000E+00 -0.74505805969E-08  0.93827000000E+00  0.93827000000E+00 0. -1.
     999902    2    1    2    0    0 -0.21001432430E-01  0.68702892440E-02 -0.80737546063E-02  0.10204045552E+01  0.10201333294E+01 0.  0.
     999903    2    3    3    0    0  0.11767255487E-01  0.44306327365E-01  0.11976045899E+00  0.12977734364E+00  0.19951752769E-01 0.  0.
         14    1    1    2    0    0  0.21001432430E-01 -0.68702892440E-02  0.80737546063E-02  0.23525444775E-01  0.00000000000E+00 0. -1.
     999901    1    3    3    0    0 -0.32768687917E-01 -0.37436038121E-01 -0.12783421359E+00  0.89062721159E+00  0.88000000000E+00 0. -1.
        -11    1    4    4    0    0  0.74939329883E-02  0.24898232248E-01  0.41045602632E-01  0.48590982879E-01  0.51100000000E-03 0. -1.
         11    1    4    4    0    0  0.42733224987E-02  0.19408095117E-01  0.78714856353E-01  0.81186360757E-01  0.51100000000E-03 0.  1.
</event>
<event>
 8    1  0.1148488E+005  0.1043930E+01  0.7957747E-01            NaN
         13   -1    0    0    0    0  0.00000000000E+00  0.00000000000E+00  0.74505805969E-08  0.10566000000E+00  0.10566000000E+00 0.  1.
     999900   -1    0    0    0    0 -0.00000000000E+00 -0.00000000000E+00 -0.74505805969E-08  0.93827000000E+00  0.93827000000E+00 0.  1.
     999902    2    1    2    0    0  0.19036029756E-01  0.75487694420E-02  0.12101432742E-01  0.10201434697E+01  0.10198661185E+01 0.  0.
     999903    2    3    3    0    0  0.31953518970E-01  0.29605596525E-03  0.12713434323E+00  0.13253317579E+00  0.19513749799E-01 0.  0.
         14    1    1    2    0    0 -0.19036029756E-01 -0.75487694420E-02 -0.12101432742E-01  0.23786530293E-01  0.00000000000E+00 0. -1.
     999901    1    3    3    0    0 -0.12917489213E-01  0.72527134768E-02 -0.11503291049E+00  0.88761029392E+00  0.88000000000E+00 0.  1.
        -11    1    4    4    0    0  0.71638010106E-02 -0.80700045084E-02  0.47359140780E-01  0.48575655982E-01  0.51100000000E-03 0.  1.
         11    1    4    4    0    0  0.24789717959E-01  0.83660604737E-02  0.79775202451E-01  0.83957519803E-01  0.51100000000E-03 0. -1.
</event>
<event>
 8    1  0.1148488E+005  0.1043930E+01  0.7957747E-01            NaN
         13   -1    0    0    0    0  0.00000000000E+00  0.00000000000E+00  0.74505805969E-08  0.10566000000E+00  0.10566000000E+00 0. -1.
     999900   -1    0    0    0    0 -0.00000000000E+00 -0.00000000000E+00 -0.74505805969E-08  0.93827000000E+00  0.93827000000E+00 0. -1.
     999902    2    1    2    0    0 -0.19421287153E-01 -0.10373369378E-01 -0.70068343877E-02  0.10208239637E+01  0.10205624312E+01 0.  0.
     999903    2    3    3    0    0 -0.66896568620E-01 -0.10984575092E+00 -0.29809968488E-01  0.13365507334E+00  0.20827974435E-01 0.  0.
         14    1    1    2    0    0  0.19421287153E-01  0.10373369378E-01  0.70068343877E-02  0.23106036334E-01  0.00000000000E+00 0. -1.
     999901    1    3    3    0    0  0.47475281467E-01  0.99472381543E-01  0.22803134101E-01  0.88716889033E+00  0.88000000000E+00 0. -1.
        -11    1    4    4    0    0 -0.63292699190E-01 -0.10209420418E+00 -0.22113557768E-01  0.12214115955E+00  0.51100000000E-03 0. -1.
         11    1    4    4    0    0 -0.36038694294E-02 -0.77515467415E-02 -0.76964107203E-02  0.11513913788E-01  0.51100000000E-03 0.  1.
</event>
<event>
 8    1  0.1148488E+005  0.1043930E+01  0.7957747E-01            NaN
         13   -1    0    0    0    0  0.00000000000E+00  0.00000000000E+00  0.74505805969E-08  0.10566000000E+00  0.10566000000E+00 0. -1.
     999900   -1    0    0    0    0 -0.00000000000E+00 -0.00000000000E+00 -0.74505805969E-08  0.93827000000E+00  0.93827000000E+00 0. -1.
     999902    2    1    2    0    0 -0.90881901402E-02 -0.15013152809E-01  0.15179946298E-01  0.10207261054E+01  0.10204623273E+01 0.  0.
     999903    2    3    3    0    0 -0.10359546336E+00  0.76015523359E-01 -0.11948738766E-01  0.13058352681E+00  0.19972613630E-01 0.  0.
         14    1    1    2    0    0  0.90881901402E-02  0.15013152809E-01 -0.15179946298E-01  0.23203894649E-01  0.00000000000E+00 0.  1.
     999901    1    3    3    0    0  0.94507273222E-01 -0.91028676168E-01  0.27128685064E-01  0.89014257854E+00  0.88000000000E+00 0.  1.
        -11    1    4    4    0    0 -0.28283203729E-01  0.30255040589E-01 -0.91221708786E-02  0.42412052730E-01  0.51100000000E-03 0. -1.
         11    1    4    4    0    0 -0.75312259634E-01  0.45760482770E-01 -0.28265678870E-02  0.88171474081E-01  0.51100000000E-03 0.  1.
</event>
<event>
 7    1  0.1148488E+005  0.1043930E+01  0.7957747E-01            NaN
         13   -1    0    0    0    0  0.00000000000E+00  0.00000000000E+00  0.74505805969E-08  0.10566000000E+00  0.10566000000E+00 0. -1.
     999900   -1    0    0    0    0 -0.00000000000E+00 -0.00000000000E+00 -0.74505805969E-08  0.93827000000E+00  0.93827000000E+00 0.  1.
     999903    2    1    2    0    0  0.48034707773E-01 -0.66268577222E-01  0.57585592366E-01  0.10200429091E+00  0.19746327230E-01 0.  0.
         14    1    1    2    0    0  0.31982193951E-01 -0.17911868910E-01  0.33467893407E-01  0.49636636338E-01  0.00000000000E+00 0. -1.
     999901    1    1    2    0    0 -0.80016901725E-01  0.84180446132E-01 -0.91053485773E-01  0.89228907275E+00  0.88000000000E+00 0.  1.
        -11    1    3    3    0    0  0.31221423219E-01 -0.56984503983E-01  0.44094715855E-01  0.78527804308E-01  0.51100000000E-03 0.  1.
         11    1    3    3    0    0  0.16813284554E-01 -0.92840732387E-02  0.13490876511E-01  0.23476486607E-01  0.51100000000E-03 0. -1.
</event>
<event>
 8    1  0.1148488E+005  0.1043930E+01  0.7957747E-01            NaN
         13   -1    0    0    0    0  0.00000000000E+00  0.00000000000E+00  0.74505805969E-08  0.10566000000E+00  0.10566000000E+00 0. -1.
     999900   -1    0    0    0    0 -0.00000000000E+00 -0.00000000000E+00 -0.74505805969E-08  0.93827000000E+00  0.93827000000E+00 0. -1.
     999902    2    1    2    0    0  0.16761051907E-02  0.45088916441E-02 -0.23518233636E-01  0.10199248600E+01  0.10196423262E+01 0.  0.
     999903    2    3    3    0    0  0.76426433439E-01 -0.94449903484E-01 -0.44323161558E-01  0.13098543591E+00  0.20757113778E-01 0.  0.
         14    1    1    2    0    0 -0.16761051907E-02 -0.45088916441E-02  0.23518233636E-01  0.24005139988E-01  0.00000000000E+00 0. -1.
     999901    1    3    3    0    0 -0.74750328248E-01  0.98958795128E-01  0.20804927922E-01  0.88893942411E+00  0.88000000000E+00 0. -1.
        -11    1    4    4    0    0  0.14906216993E-01 -0.20955117504E-01 -0.83459320821E-03  0.25734605524E-01  0.51100000000E-03 0. -1.
         11    1    4    4    0    0  0.61520216446E-01 -0.73494785980E-01 -0.43488568350E-01  0.10525083038E+00  0.51100000000E-03 0.  1.
</event>
<event>
 8    1  0.1148488E+005  0.1043930E+01  0.7957747E-01            NaN
         13   -1    0    0    0    0  0.00000000000E+00  0.00000000000E+00  0.74505805969E-08  0.10566000000E+00  0.10566000000E+00 0. -1.
     999900   -1    0    0    0    0 -0.00000000000E+00 -0.00000000000E+00 -0.74505805969E-08  0.93827000000E+00  0.93827000000E+00 0.  1.
     999902    2    1    2    0    0  0.96162002506E-02  0.17179531151E-01 -0.12258485103E-01  0.10207378019E+01  0.10204742927E+01 0.  0.
     999903    2    3    3    0    0  0.88854443147E-01  0.68536783892E-01  0.66869809009E-01  0.13215603664E+00  0.20031072099E-01 0.  0.
         14    1    1    2    0    0 -0.96162002506E-02 -0.17179531151E-01  0.12258485103E-01  0.23192198147E-01  0.00000000000E+00 0. -1.
     999901    1    3    3    0    0 -0.79238242896E-01 -0.51357252740E-01 -0.79128294112E-01  0.88858176522E+00  0.88000000000E+00 0.  1.
        -11    1    4    4    0    0  0.57276168048E-01  0.48114309360E-01  0.54539316046E-01  0.92576154096E-01  0.51100000000E-03 0. -1.
         11    1    4    4    0    0  0.31578275099E-01  0.20422474532E-01  0.12330492963E-01  0.39579882540E-01  0.51100000000E-03 0.  1.
</event>
<event>
 8    1  0.1148488E+005  0.1043930E+01  0.7957747E-01            NaN
         13   -1    0    0    0    0  0.00000000000E+00  0.00000000000E+00  0.74505805969E-08  0.10566000000E+00  0.10566000000E+00 0. -1.
     999900   -1    0    0    0    0 -0.00000000000E+00 -0.00000000000E+00 -0.74505805969E-08  0.93827000000E+00  0.93827000000E+00 0. -1.
     999902    2    1    2    0    0  0.36203642253E-02  0.23513711849E-01 -0.38984687500E-02  0.10198219155E+01  0.10195369240E+01 0.  0.
     999903    2    3    3    0    0 -0.10932889651E+00  0.52419091766E-01  0.44809564856E-01  0.13079687136E+00  0.19983885020E-01 0.  0.
         14    1    1    2    0    0 -0.36203642253E-02 -0.23513711849E-01  0.38984687500E-02  0.24108084549E-01  0.00000000000E+00 0.  1.
     999901    1    3    3    0    0  0.11294926073E+00 -0.28905379917E-01 -0.48708033606E-01  0.88902504409E+00  0.88000000000E+00 0. -1.
        -11    1    4    4    0    0 -0.31287927874E-01  0.14218673537E-01  0.22525424575E-01  0.41094537120E-01  0.51100000000E-03 0.  1.
         11    1    4    4    0    0 -0.78040968636E-01  0.38200418229E-01  0.22284140281E-01  0.89702334237E-01  0.51100000000E-03 0. -1.
</event>
<event>
 8    1  0.1148488E+005  0.1043930E+01  0.7957747E-01            NaN
         13   -1    0    0    0    0  0.00000000000E+00  0.00000000000E+00  0.74505805969E-08  0.10566000000E+00  0.10566000000E+00 0.  1.
     999900   -1    0    0    0    0 -0.00000000000E+00 -0.00000000000E+00 -0.74505805969E-08  0.93827000000E+00  0.93827000000E+00 0. -1.
     999902    2    1    2    0    0 -0.74933143833E-02 -0.21057455301E-01  0.90021813890E-02  0.10198342441E+01  0.10195495476E+01 0.  0.
     999903    2    3    3    0    0 -0.78002234479E-01 -0.66251048524E-01  0.82952475481E-01  0.13277020203E+00  0.16530678873E-01 0.  0.
         14    1    1    2    0    0  0.74933143833E-02  0.21057455301E-01 -0.90021813890E-02  0.24095755932E-01  0.00000000000E+00 0. -1.
     999901    1    3    3    0    0  0.70508920096E-01  0.45193593223E-01 -0.73950294092E-01  0.88706404204E+00  0.88000000000E+00 0. -1.
        -11    1    4    4    0    0 -0.20253933057E-01 -0.26108790154E-01  0.21990154250E-01  0.39695323812E-01  0.51100000000E-03 0.  1.
         11    1    4    4    0    0 -0.57748301423E-01 -0.40142258370E-01  0.60962321231E-01  0.93074878217E-01  0.51100000000E-03 0. -1.
</event>
<event>
 8    1  0.1148488E+005  0.1043930E+01  0.7957747E-01            NaN
         13   -1    0    0    0    0  0.00000000000E+00  0.00000000000E+00  0.74505805969E-08  0.10566000000E+00  0.10566000000E+00 0.  1.
     999900   -1    0    0    0    0 -0.00000000000E+00 -0.00000000000E+00 -0.74505805969E-08  0.93827000000E+00  0.93827000000E+00 0.  1.
     999902    2    1    2    0    0  0.17040051173E-01 -0.19903955270E-01 -0.47699335629E-02  0.10172976316E+01  0.10169489605E+01 0.  0.
     999903    2    3    3    0    0  0.12380049732E+00 -0.33214020087E-01 -0.15739391320E-01  0.13067748765E+00  0.19978565333E-01 0.  0.
         14    1    1    2    0    0 -0.17040051173E-01  0.19903955270E-01  0.47699335629E-02  0.26632368381E-01  0.00000000000E+00 0.  1.
     999901    1    3    3    0    0 -0.10676044615E+00  0.13310064817E-01  0.10969457757E-01  0.88662014397E+00  0.88000000000E+00 0. -1.
        -11    1    4    4    0    0  0.75304057815E-01 -0.25899464616E-01 -0.16728852965E-02  0.79652639988E-01  0.51100000000E-03 0.  1.
         11    1    4    4    0    0  0.48496439505E-01 -0.73145554704E-02 -0.14066506023E-01  0.51024847664E-01  0.51100000000E-03 0. -1.
</event>
<event>
 8    1  0.1306940E+005  0.1043930E+01  0.7957747E-01            NaN
         13   -1    0    0    0    0  0.00000000000E+00  0.00000000000E+00  0.74505805969E-08  0.10566000000E+00  0.10566000000E+00 0. -1.
     999900   -1    0    0    0    0 -0.00000000000E+00 -0.00000000000E+00 -0.74505805969E-08  0.93827000000E+00  0.93827000000E+00 0.  1.
     999902    2    1    2    0    0  0.13557217133E-01  0.16367761890E-01  0.15018410996E-01  0.10179058874E+01  0.10175731626E+01 0.  0.
     999903    2    3    3    0    0  0.12321305869E+00 -0.95192449057E-03  0.38682063324E-01  0.13061543693E+00  0.19537818433E-01 0.  0.
         14    1    1    2    0    0 -0.13557217133E-01 -0.16367761890E-01 -0.15018410996E-01  0.26024112560E-01  0.00000000000E+00 0. -1.
     999901    1    3    3    0    0 -0.10965584156E+00  0.17319686381E-01 -0.23663652328E-01  0.88729045051E+00  0.88000000000E+00 0. -1.
        -11    1    4    4    0    0  0.53168634117E-01 -0.14643293570E-04  0.26867037332E-01  0.59573506564E-01  0.51100000000E-03 0.  1.
         11    1    4    4    0    0  0.70044424575E-01 -0.93728119700E-03  0.11815025992E-01  0.71041930367E-01  0.51100000000E-03 0. -1.
</event>
<event>
 8    1  0.1148488E+005  0.1043930E+01  0.7957747E-01            NaN
         13   -1    0    0    0    0  0.00000000000E+00  0.00000000000E+00  0.74505805969E-08  0.10566000000E+00  0.10566000000E+00 0.  1.
     999900   -1    0    0    0    0 -0.00000000000E+00 -0.00000000000E+00 -0.74505805969E-08  0.93827000000E+00  0.93827000000E+00 0.  1.
     999902    2    1    2    0    0  0.21907450507E-01  0.74256571253E-03  0.75778545004E-02  0.10207370771E+01  0.10204735513E+01 0.  0.
     999903    2    3    3    0    0  0.72248667266E-01  0.22654120255E-01 -0.10515734494E+00  0.13184811922E+00  0.24347079107E-01 0.  0.
         14    1    1    2    0    0 -0.21907450507E-01 -0.74256571253E-03 -0.75778545004E-02  0.23192922851E-01  0.00000000000E+00 0.  1.
     999901    1    3    3    0    0 -0.50341216760E-01 -0.21911554542E-01  0.11273519944E+00  0.88888895793E+00  0.88000000000E+00 0. -1.
        -11    1    4    4    0    0  0.32429241351E-01  0.20585313457E-01 -0.63241258434E-01  0.73994112699E-01  0.51100000000E-03 0.  1.
         11    1    4    4    0    0  0.39819425915E-01  0.20688067978E-02 -0.41916086510E-01  0.57854006526E-01  0.51100000000E-03 0. -1.
</event>
<event>
 8    1  0.1148488E+005  0.1043930E+01  0.7957747E-01            NaN
         13   -1    0    0    0    0  0.00000000000E+00  0.00000000000E+00  0.74505805969E-08  0.10566000000E+00  0.10566000000E+00 0. -1.
     999900   -1    0    0    0    0 -0.00000000000E+00 -0.00000000000E+00 -0.74505805969E-08  0.93827000000E+00  0.93827000000E+00 0.  1.
     999902    2    1    2    0    0 -0.56999845828E-02 -0.17068731307E-02  0.23356086565E-01  0.10198279250E+01  0.10195430773E+01 0.  0.
     999903    2    3    3    0    0  0.77460179025E-01 -0.10035913633E+00 -0.66375152493E-02  0.12991360440E+00  0.27594427321E-01 0.  0.
         14    1    1    2    0    0  0.56999845828E-02  0.17068731307E-02 -0.23356086565E-01  0.24102075009E-01  0.00000000000E+00 0.  1.
     999901    1    3    3    0    0 -0.83160163608E-01  0.98652263201E-01  0.29993601814E-01  0.88991432059E+00  0.88000000000E+00 0. -1.
        -11    1    4    4    0    0  0.37696502316E-01 -0.67587239633E-01 -0.11132359542E-01  0.78187286678E-01  0.51100000000E-03 0. -1.
         11    1    4    4    0    0  0.39763676709E-01 -0.32771896699E-01  0.44948442931E-02  0.51726317720E-01  0.51100000000E-03 0.  1.
</event>
<event>
 8    1  0.1148488E+005  0.1043930E+01  0.7957747E-01            NaN
         13   -1    0    0    0    0  0.00000000000E+00  0.00000000000E+00  0.74505805969E-08  0.10566000000E+00  0.10566000000E+00 0. -1.
     999900   -1    0    0    0    0 -0.00000000000E+00 -0.00000000000E+00 -0.74505805969E-08  0.93827000000E+00  0.93827000000E+00 0. -1.
     999902    2    1    2    0    0  0.19546819482E-01  0.17008350770E-01 -0.13655733734E-02  0.10179833829E+01  0.10176526622E+01 0.  0.
     999903    2    3    3    0    0  0.93852039007E-01 -0.53504233253E-01  0.68594595457E-01  0.12928336863E+00  0.18386480826E-01 0.  0.
         14    1    1    2    0    0 -0.19546819482E-01 -0.17008350770E-01  0.13655733734E-02  0.25946617090E-01  0.00000000000E+00 0.  1.
     999901    1    3    3    0    0 -0.74305219525E-01  0.70512584023E-01 -0.69960168831E-01  0.88870001428E+00  0.88000000000E+00 0. -1.
        -11    1    4    4    0    0  0.77373674973E-01 -0.48285119750E-01  0.50493514905E-01  0.10424967404E+00  0.51100000000E-03 0. -1.
         11    1    4    4    0    0  0.16478364034E-01 -0.52191135033E-02  0.18101080552E-01  0.25033694596E-01  0.51100000000E-03 0.  1.
</event>
<event>
 8    1  0.1148488E+005  0.1043930E+01  0.7957747E-01            NaN
         13   -1    0    0    0    0  0.00000000000E+00  0.00000000000E+00  0.74505805969E-08  0.10566000000E+00  0.10566000000E+00 0.  1.
     999900   -1    0    0    0    0 -0.00000000000E+00 -0.00000000000E+00 -0.74505805969E-08  0.93827000000E+00  0.93827000000E+00 0. -1.
     999902    2    1    2    0    0 -0.94219043297E-02 -0.20068721754E-01 -0.86393274851E-02  0.10201358021E+01  0.10198582700E+01 0.  0.
     999903    2    3    3    0    0  0.65114271836E-01  0.68226193630E-01  0.84606519603E-01  0.12769733272E+00  0.15926824246E-01 0.  0.
         14    1    1    2    0    0  0.94219043297E-02  0.20068721754E-01  0.86393274851E-02  0.23794197895E-01  0.00000000000E+00 0.  1.
     999901    1    3    3    0    0 -0.74536176166E-01 -0.88294915384E-01 -0.93245847088E-01  0.89243846939E+00  0.88000000000E+00 0. -1.
        -11    1    4    4    0    0  0.27374376557E-01  0.29402696595E-01  0.46684751838E-01  0.61592225435E-01  0.51100000000E-03 0. -1.
         11    1    4    4    0    0  0.37739895279E-01  0.38823497035E-01  0.37921767765E-01  0.66105107285E-01  0.51100000000E-03 0.  1.
</event>
<event>
 8    1  0.1148488E+005  0.1043930E+01  0.7957747E-01            NaN
         13   -1    0    0    0    0  0.00000000000E+00  0.00000000000E+00  0.74505805969E-08  0.10566000000E+00  0.10566000000E+00 0.  1.
     999900   -1    0    0    0    0 -0.00000000000E+00 -0.00000000000E+00 -0.74505805969E-08  0.93827000000E+00  0.93827000000E+00 0. -1.
     999902    2    1    2    0    0  0.50832117063E-02  0.12953607850E-01 -0.19304754714E-01  0.10201327617E+01  0.10198551578E+01 0.  0.
     999903    2    3    3    0    0 -0.12325446034E+00  0.29066333793E-01 -0.24906455860E-01  0.13066013305E+00  0.20377072179E-01 0.  0.
         14    1    1    2    0    0 -0.50832117063E-02 -0.12953607850E-01  0.19304754714E-01  0.23797238330E-01  0.00000000000E+00 0.  1.
     999901    1    3    3    0    0  0.12833767205E+00 -0.16112725942E-01  0.56017011463E-02  0.88947262862E+00  0.88000000000E+00 0.  1.
        -11    1    4    4    0    0 -0.74674919952E-01  0.10581557525E-01 -0.72813162069E-02  0.75773291575E-01  0.51100000000E-03 0.  1.
         11    1    4    4    0    0 -0.48579540393E-01  0.18484776268E-01 -0.17625139653E-01  0.54886841476E-01  0.51100000000E-03 0. -1.
</event>
<event>
 8    1  0.1148488E+005  0.1043930E+01  0.7957747E-01            NaN
         13   -1    0    0    0    0  0.00000000000E+00  0.00000000000E+00  0.74505805969E-08  0.10566000000E+00  0.10566000000E+00 0. -1.
     999900   -1    0    0    0    0 -0.00000000000E+00 -0.00000000000E+00 -0.74505805969E-08  0.93827000000E+00  0.93827000000E+00 0.  1.
     999902    2    1    2    0    0 -0.21209947160E-01 -0.52036269525E-02 -0.90385405199E-02  0.10202945434E+01  0.10200207452E+01 0.  0.
     999903    2    3    3    0    0  0.93550127128E-01 -0.46805592931E-01  0.71467781048E-01  0.12822847748E+00  0.19811837224E-01 0.  0.
         14    1    1    2    0    0  0.21209947160E-01  0.52036269525E-02  0.90385405199E-02  0.23635456559E-01  0.00000000000E+00 0.  1.
     999901    1    3    3    0    0 -0.11476007429E+00  0.41601965978E-01 -0.80506321568E-01  0.89206606596E+00  0.88000000000E+00 0.  1.
        -11    1    4    4    0    0  0.16378546837E-01 -0.16968379230E-01  0.18599644451E-01  0.30039816659E-01  0.51100000000E-03 0.  1.
         11    1    4    4    0    0  0.77171580291E-01 -0.29837213700E-01  0.52868136597E-01  0.98188660823E-01  0.51100000000E-03 0. -1.
</event>
<event>
 8    1  0.1148488E+005  0.1043930E+01  0.7957747E-01            NaN
         13   -1    0    0    0    0  0.00000000000E+00  0.00000000000E+00  0.74505805969E-08  0.10566000000E+00  0.10566000000E+00 0. -1.
     999900   -1    0    0    0    0 -0.00000000000E+00 -0.00000000000E+00 -0.74505805969E-08  0.93827000000E+00  0.93827000000E+00 0.  1.
     999902    2    1    2    0    0 -0.48457282209E-02 -0.98243689240E-02  0.17614969191E-01  0.10231866530E+01  0.10229763635E+01 0.  0.
     999903    2    3    3    0    0 -0.96533760467E-01 -0.26613873348E-03 -0.87848804135E-01  0.13210828239E+00  0.20404610944E-01 0.  0.
         14    1    1    2    0    0  0.48457282209E-02  0.98243689240E-02 -0.17614969191E-01  0.20743347038E-01  0.00000000000E+00 0.  1.
     999901    1    3    3    0    0  0.91688032246E-01 -0.95582301906E-02  0.10546377333E+00  0.89107837057E+00  0.88000000000E+00 0. -1.
        -11    1    4    4    0    0 -0.36631925765E-01 -0.65262496970E-02 -0.43892798955E-01  0.57544146892E-01  0.51100000000E-03 0.  1.
         11    1    4    4    0    0 -0.59901834702E-01  0.62601109635E-02 -0.43956005180E-01  0.74564135496E-01  0.51100000000E-03 0. -1.
</event>
<event>
 8    1  0.1148488E+005  0.1043930E+01  0.7957747E-01            NaN
         13   -1    0    0    0    0  0.00000000000E+00  0.00000000000E+00  0.74505805969E-08  0.10566000000E+00  0.10566000000E+00 0.  1.
     999900   -1    0    0    0    0 -0.00000000000E+00 -0.00000000000E+00 -0.74505805969E-08  0.93827000000E+00  0.93827000000E+00 0.  1.
     999902    2    1    2    0    0  0.15575746121E-01  0.16739644288E-01  0.76122068143E-02  0.10198309284E+01  0.10195461526E+01 0.  0.
     999903    2    3    3    0    0  0.11924681129E+00  0.54998265352E-01 -0.30807872982E-02  0.13285530759E+00  0.19910557749E-01 0.  0.
         14    1    1    2    0    0 -0.15575746121E-01 -0.16739644288E-01 -0.76122068143E-02  0.24099071573E-01  0.00000000000E+00 0. -1.
     999901    1    3    3    0    0 -0.10367106517E+00 -0.38258621064E-01  0.10692994113E-01  0.88697562084E+00  0.88000000000E+00 0. -1.
        -11    1    4    4    0    0  0.35703437823E-01  0.16356358634E-01 -0.10058476231E-01  0.40542570284E-01  0.51100000000E-03 0.  1.
         11    1    4    4    0    0  0.83543373466E-01  0.38641906718E-01  0.69776889329E-02  0.92312737304E-01  0.51100000000E-03 0. -1.
</event>
<event>
 8    1  0.1148488E+005  0.1043930E+01  0.7957747E-01            NaN
         13   -1    0    0    0    0  0.00000000000E+00  0.00000000000E+00  0.74505805969E-08  0.10566000000E+00  0.10566000000E+00 0. -1.
     999900   -1    0    0    0    0 -0.00000000000E+00 -0.00000000000E+00 -0.74505805969E-08  0.93827000000E+00  0.93827000000E+00 0. -1.
     999902    2    1    2    0    0  0.15466023908E-01 -0.41087716707E-02 -0.16834059540E-01  0.10207036042E+01  0.10204393084E+01 0.  0.
     999903    2    3    3    0    0 -0.29325357577E-01  0.20873829516E-01 -0.12688243172E+00  0.13236749529E+00  0.11238726525E-01 0.  0.
         14    1    1    2    0    0 -0.15466023908E-01  0.41087716707E-02  0.16834059540E-01  0.23226395776E-01  0.00000000000E+00 0. -1.
     999901    1    3    3    0    0  0.44791381485E-01 -0.24982601186E-01  0.11004837218E+00  0.88833610893E+00  0.88000000000E+00 0.  1.
        -11    1    4    4    0    0 -0.17246131925E-01  0.68369437522E-02 -0.75493798430E-01  0.77741543518E-01  0.51100000000E-03 0.  1.
         11    1    4    4    0    0 -0.12079225652E-01  0.14036885763E-01 -0.51388633292E-01  0.54625951771E-01  0.51100000000E-03 0. -1.
</event>
<event>
 8    1  0.1148488E+005  0.1043930E+01  0.7957747E-01            NaN
         13   -1    0    0    0    0  0.00000000000E+00  0.00000000000E+00  0.74505805969E-08  0.10566000000E+00  0.10566000000E+00 0. -1.
     999900   -1    0    0    0    0 -0.00000000000E+00 -0.00000000000E+00 -0.74505805969E-08  0.93827000000E+00  0.93827000000E+00 0. -1.
     999902    2    1    2    0    0  0.22265260051E-01  0.96078783966E-02  0.31670962256E-03  0.10196781251E+01  0.10193896828E+01 0.  0.
     999903    2    3    3    0    0  0.70584304933E-02 -0.56176558088E-01  0.11504442852E+00  0.12966616491E+00  0.19299395572E-01 0.  0.
         14    1    1    2    0    0 -0.22265260051E-01 -0.96078783966E-02 -0.31670962256E-03  0.24251874926E-01  0.00000000000E+00 0. -1.
     999901    1    3    3    0    0  0.15206829558E-01  0.65784436485E-01 -0.11472771890E+00  0.89001196016E+00  0.88000000000E+00 0. -1.
        -11    1    4    4    0    0 -0.64677477685E-02 -0.14699918159E-01  0.34709726190E-01  0.38248471450E-01  0.51100000000E-03 0.  1.
         11    1    4    4    0    0  0.13526178262E-01 -0.41476639929E-01  0.80334702331E-01  0.91417693462E-01  0.51100000000E-03 0. -1.
</event>
<event>
 8    1  0.1148488E+005  0.1043930E+01  0.7957747E-01            NaN
         13   -1    0    0    0    0  0.00000000000E+00  0.00000000000E+00  0.74505805969E-08  0.10566000000E+00  0.10566000000E+00 0. -1.
     999900   -1    0    0    0    0 -0.00000000000E+00 -0.00000000000E+00 -0.74505805969E-08  0.93827000000E+00  0.93827000000E+00 0. -1.
     999902    2    1    2    0    0  0.42672258554E-02  0.14764799710E-01  0.17438085308E-01  0.10206857460E+01  0.10204210389E+01 0.  0.
     999903    2    3    3    0    0  0.11059526443E+00  0.67947417445E-01  0.18196374679E-01  0.13269102884E+00  0.20679386619E-01 0.  0.
         14    1    1    2    0    0 -0.42672258554E-02 -0.14764799710E-01 -0.17438085308E-01  0.23244254047E-01  0.00000000000E+00 0. -1.
     999901    1    3    3    0    0 -0.10632803858E+00 -0.53182617735E-01 -0.75828937079E-03  0.88799471711E+00  0.88000000000E+00 0.  1.
        -11    1    4    4    0    0  0.44651890720E-01  0.29733610943E-01 -0.25231204273E-02  0.53707599297E-01  0.51100000000E-03 0. -1.
         11    1    4    4    0    0  0.65943373712E-01  0.38213806503E-01  0.20719495106E-01  0.78983429544E-01  0.51100000000E-03 0.  1.
</event>
<event>
 8    1  0.1148488E+005  0.1043930E+01  0.7957747E-01            NaN
         13   -1    0    0    0    0  0.00000000000E+00  0.00000000000E+00  0.74505805969E-08  0.10566000000E+00  0.10566000000E+00 0.  1.
     999900   -1    0    0    0    0 -0.00000000000E+00 -0.00000000000E+00 -0.74505805969E-08  0.93827000000E+00  0.93827000000E+00 0.  1.
     999902    2    1    2    0    0  0.92350832161E-02 -0.53428031495E-02 -0.20940997865E-01  0.10204277086E+01  0.10201570227E+01 0.  0.
     999903    2    3    3    0    0 -0.80334908799E-01  0.86567002721E-01 -0.52275052650E-01  0.13056703479E+00  0.19170965322E-01 0.  0.
         14    1    1    2    0    0 -0.92350832161E-02  0.53428031495E-02  0.20940997865E-01  0.23502291358E-01  0.00000000000E+00 0.  1.
     999901    1    3    3    0    0  0.89569992015E-01 -0.91909805871E-01  0.31334054785E-01  0.88986067386E+00  0.88000000000E+00 0. -1.
        -11    1    4    4    0    0 -0.60661049993E-01  0.67672899642E-01 -0.31186255511E-01  0.96084483586E-01  0.51100000000E-03 0.  1.
         11    1    4    4    0    0 -0.19673858807E-01  0.18894103079E-01 -0.21088797139E-01  0.34482551201E-01  0.51100000000E-03 0. -1.
</event>
<event>
 8    1  0.1148488E+005  0.1043930E+01  0.7957747E-01            NaN
         13   -1    0    0    0    0  0.00000000000E+00  0.00000000000E+00  0.74505805969E-08  0.10566000000E+00  0.10566000000E+00 0.  1.
     999900   -1    0    0    0    0 -0.00000000000E+00 -0.00000000000E+00 -0.74505805969E-08  0.93827000000E+00  0.93827000000E+00 0.  1.
     999902    2    1    2    0    0 -0.44257544103E-02 -0.16103914286E-01 -0.17597545108E-01  0.10196689829E+01  0.10193803204E+01 0.  0.
     999903    2    3    3    0    0  0.65291861410E-01  0.10764080671E+00 -0.14023188160E-01  0.12827340406E+00  0.20195196160E-01 0.  0.
         14    1    1    2    0    0  0.44257544103E-02  0.16103914286E-01  0.17597545108E-01  0.24261017111E-01  0.00000000000E+00 0.  1.
     999901    1    3    3    0    0 -0.69717615820E-01 -0.12374472099E+00 -0.35743569481E-02  0.89139557883E+00  0.88000000000E+00 0.  1.
        -11    1    4    4    0    0  0.16634466391E-01  0.41808519282E-01 -0.11146189814E-01  0.46358995083E-01  0.51100000000E-03 0.  1.
         11    1    4    4    0    0  0.48657395018E-01  0.65832287424E-01 -0.28769983463E-02  0.81914408977E-01  0.51100000000E-03 0. -1.
</event>
<event>
 8    1  0.1148488E+005  0.1043930E+01  0.7957747E-01            NaN
         13   -1    0    0    0    0  0.00000000000E+00  0.00000000000E+00  0.74505805969E-08  0.10566000000E+00  0.10566000000E+00 0. -1.
     999900   -1    0    0    0    0 -0.00000000000E+00 -0.00000000000E+00 -0.74505805969E-08  0.93827000000E+00  0.93827000000E+00 0. -1.
     999902    2    1    2    0    0 -0.19724304995E-01 -0.32120102676E-02  0.14046284293E-01  0.10195033072E+01  0.10192106407E+01 0.  0.
     999903    2    3    3    0    0  0.11651589619E+00 -0.34819577394E-01  0.35033900467E-01  0.12821159810E+00  0.20554383285E-01 0.  0.
         14    1    1    2    0    0  0.19724304995E-01  0.32120102676E-02 -0.14046284293E-01  0.24426692775E-01  0.00000000000E+00 0.  1.
     999901    1    3    3    0    0 -0.13624020118E+00  0.31607567126E-01 -0.20987616174E-01  0.89129170912E+00  0.88000000000E+00 0.  1.
        -11    1    4    4    0    0  0.67395445831E-01 -0.11481275657E-01  0.25656281131E-01  0.73023774840E-01  0.51100000000E-03 0.  1.
         11    1    4    4    0    0  0.49120450356E-01 -0.23338301737E-01  0.93776193358E-02  0.55187823263E-01  0.51100000000E-03 0. -1.
</event>
<event>
 8    1  0.1148488E+005  0.1043930E+01  0.7957747E-01            NaN
         13   -1    0    0    0    0  0.00000000000E+00  0.00000000000E+00  0.74505805969E-08  0.10566000000E+00  0.10566000000E+00 0. -1.
     999900   -1    0    0    0    0 -0.00000000000E+00 -0.00000000000E+00 -0.74505805969E-08  0.93827000000E+00  0.93827000000E+00 0. -1.
     999902    2    1    2    0    0  0.18448800523E-01  0.74278774072E-02 -0.11065493292E-01  0.10211708975E+01  0.10209172470E+01 0.  0.
     999903    2    3    3    0    0 -0.77194537209E-01 -0.90210488873E-01  0.45087901871E-01  0.12885139062E+00  0.21744725608E-01 0.  0.
         14    1    1    2    0    0 -0.18448800523E-01 -0.74278774072E-02  0.11065493292E-01  0.22759102471E-01  0.00000000000E+00 0. -1.
     999901    1    3    3    0    0  0.95643337732E-01  0.97638366280E-01 -0.56153395163E-01  0.89231950691E+00  0.88000000000E+00 0. -1.
        -11    1    4    4    0    0 -0.13122123759E-01 -0.52524602398E-02  0.74045904028E-02  0.15964571730E-01  0.51100000000E-03 0. -1.
         11    1    4    4    0    0 -0.64072413451E-01 -0.84958028633E-01  0.37683311468E-01  0.11288681889E+00  0.51100000000E-03 0.  1.
</event>
<event>
 8    1  0.1148488E+005  0.1043930E+01  0.7957747E-01            NaN
         13   -1    0    0    0    0  0.00000000000E+00  0.00000000000E+00  0.74505805969E-08  0.10566000000E+00  0.10566000000E+00 0.  1.
     999900   -1    0    0    0    0 -0.00000000000E+00 -0.00000000000E+00 -0.74505805969E-08  0.93827000000E+00  0.93827000000E+00 0. -1.
     999902    2    1    2    0    0 -0.69450201085E-03 -0.20188668587E-01  0.13416149784E-01  0.10196800980E+01  0.10193917032E+01 0.  0.
     999903    2    3    3    0    0  0.10979846721E+00 -0.23486382744E-01  0.64837170148E-01  0.13127495815E+00  0.20541237233E-01 0.  0.
         14    1    1    2    0    0  0.69450201085E-03  0.20188668587E-01 -0.13416149784E-01  0.24249902008E-01  0.00000000000E+00 0. -1.
     999901    1    3    3    0    0 -0.11049296922E+00  0.32977141570E-02 -0.51421020364E-01  0.88840513984E+00  0.88000000000E+00 0.  1.
        -11    1    4    4    0    0  0.72337814495E-01 -0.10102703190E-01  0.32229639775E-01  0.79836300131E-01  0.51100000000E-03 0. -1.
         11    1    4    4    0    0  0.37460652719E-01 -0.13383679554E-01  0.32607530373E-01  0.51438658017E-01  0.51100000000E-03 0.  1.
</event>
<event>
 8    1  0.1148488E+005  0.1043930E+01  0.7957747E-01            NaN
         13   -1    0    0    0    0  0.00000000000E+00  0.00000000000E+00  0.74505805969E-08  0.10566000000E+00  0.10566000000E+00 0.  1.
     999900   -1    0    0    0    0 -0.00000000000E+00 -0.00000000000E+00 -0.74505805969E-08  0.93827000000E+00  0.93827000000E+00 0. -1.
     999902    2    1    2    0    0 -0.11418293743E-01  0.22596347832E-01  0.69673195210E-02  0.10176713651E+01  0.10173325373E+01 0.  0.
     999903    2    3    3    0    0 -0.63124221531E-01 -0.27841993934E-01 -0.10544292669E+00  0.12758508119E+00  0.19997454423E-01 0.  0.
         14    1    1    2    0    0  0.11418293743E-01 -0.22596347832E-01 -0.69673195210E-02  0.26258634935E-01  0.00000000000E+00 0. -1.
     999901    1    3    3    0    0  0.51705927788E-01  0.50438341767E-01  0.11241024621E+00  0.89008628387E+00  0.88000000000E+00 0.  1.
        -11    1    4    4    0    0 -0.36482390540E-02 -0.75561767847E-02 -0.18381786724E-01  0.20212784567E-01  0.51100000000E-03 0.  1.
         11    1    4    4    0    0 -0.59475982477E-01 -0.20285817150E-01 -0.87061139965E-01  0.10737229662E+00  0.51100000000E-03 0. -1.
</event>
<event>
 8    1  0.1148488E+005  0.1043930E+01  0.7957747E-01            NaN
         13   -1    0    0    0    0  0.00000000000E+00  0.00000000000E+00  0.74505805969E-08  0.10566000000E+00  0.10566000000E+00 0. -1.
     999900   -1    0    0    0    0 -0.00000000000E+00 -0.00000000000E+00 -0.74505805969E-08  0.93827000000E+00  0.93827000000E+00 0.  1.
     999902    2    1    2    0    0  0.20734258772E-02  0.23336262041E-01 -0.16654214323E-02  0.10204426875E+01  0.10201723504E+01 0.  0.
     999903    2    3    3    0    0  0.14735215432E-01 -0.67914094530E-01 -0.10722490004E+00  0.12935921663E+00  0.20178625558E-01 0.  0.
         14    1    1    2    0    0 -0.20734258772E-02 -0.23336262041E-01  0.16654214323E-02  0.23487312521E-01  0.00000000000E+00 0.  1.
     999901    1    3    3    0    0 -0.12661789554E-01  0.91250356571E-01  0.10555947861E+00  0.89108347085E+00  0.88000000000E+00 0. -1.
        -11    1    4    4    0    0  0.18075336052E-01 -0.55751463349E-01 -0.95943992902E-01  0.11242977512E+00  0.51100000000E-03 0.  1.
         11    1    4    4    0    0 -0.33401206209E-02 -0.12162631180E-01 -0.11280907140E-01  0.16929441511E-01  0.51100000000E-03 0. -1.
</event>
<event>
 8    1  0.1148488E+005  0.1043930E+01  0.7957747E-01            NaN
         13   -1    0    0    0    0  0.00000000000E+00  0.00000000000E+00  0.74505805969E-08  0.10566000000E+00  0.10566000000E+00 0. -1.
     999900   -1    0    0    0    0 -0.00000000000E+00 -0.00000000000E+00 -0.74505805969E-08  0.93827000000E+00  0.93827000000E+00 0. -1.
     999902    2    1    2    0    0  0.64590548388E-02  0.23475569679E-01  0.41581663816E-02  0.10192295525E+01  0.10189302079E+01 0.  0.
     999903    2    3    3    0    0 -0.86187664445E-01  0.40718706669E-01 -0.85614795329E-01  0.12965666336E+00  0.19865311436E-01 0.  0.
         14    1    1    2    0    0 -0.64590548388E-02 -0.23475569679E-01 -0.41581663816E-02  0.24700447543E-01  0.00000000000E+00 0. -1.
     999901    1    3    3    0    0  0.92646719284E-01 -0.17243136990E-01  0.89772961710E-01  0.88957288910E+00  0.88000000000E+00 0.  1.
        -11    1    4    4    0    0 -0.47736834722E-01  0.11586189903E-01 -0.43534927931E-01  0.65639898360E-01  0.51100000000E-03 0. -1.
         11    1    4    4    0    0 -0.38450829723E-01  0.29132516765E-01 -0.42079867398E-01  0.64016764997E-01  0.51100000000E-03 0.  1.
</event>
<event>
 8    1  0.1148488E+005  0.1043930E+01  0.7957747E-01            NaN
         13   -1    0    0    0    0  0.00000000000E+00  0.00000000000E+00  0.74505805969E-08  0.10566000000E+00  0.10566000000E+00 0. -1.
     999900   -1    0    0    0    0 -0.00000000000E+00 -0.00000000000E+00 -0.74505805969E-08  0.93827000000E+00  0.93827000000E+00 0.  1.
     999902    2    1    2    0    0  0.15849654395E-02 -0.10148126392E-02 -0.23019110685E-01  0.10208340822E+01  0.10205727814E+01 0.  0.
     999903    2    3    3    0    0 -0.75259843038E-01  0.73503811827E-01  0.72409551519E-01  0.12922610811E+00  0.19732955631E-01 0.  0.
         14    1    1    2    0    0 -0.15849654395E-02  0.10148126392E-02  0.23019110685E-01  0.23095917753E-01  0.00000000000E+00 0. -1.
     999901    1    3    3    0    0  0.76844808478E-01 -0.74518624466E-01 -0.95428662203E-01  0.89160797414E+00  0.88000000000E+00 0. -1.
        -11    1    4    4    0    0 -0.35227616545E-01  0.24654211076E-01  0.21351389177E-01  0.48009978463E-01  0.51100000000E-03 0. -1.
         11    1    4    4    0    0 -0.40032226493E-01  0.48849600751E-01  0.51058162341E-01  0.81216129643E-01  0.51100000000E-03 0.  1.
</event>
<event>
 8    1  0.1148488E+005  0.1043930E+01  0.7957747E-01            NaN
         13   -1    0    0    0    0  0.00000000000E+00  0.00000000000E+00  0.74505805969E-08  0.10566000000E+00  0.10566000000E+00 0. -1.
     999900   -1    0    0    0    0 -0.00000000000E+00 -0.00000000000E+00 -0.74505805969E-08  0.93827000000E+00  0.93827000000E+00 0. -1.
     999902    2    1    2    0    0  0.15848851967E-01  0.10183750404E-01 -0.98900254318E-02  0.10226530763E+01  0.10224317126E+01 0.  0.
     999903    2    3    3    0    0  0.55052310666E-01 -0.34042860789E-01  0.11394659165E+00  0.13201936252E+00  0.15987903269E-01 0.  0.
         14    1    1    2    0    0 -0.15848851967E-01 -0.10183750404E-01  0.98900254318E-02  0.21276923744E-01  0.00000000000E+00 0. -1.
     999901    1    3    3    0    0 -0.39203458699E-01  0.44226611193E-01 -0.12383661708E+00  0.89063371374E+00  0.88000000000E+00 0. -1.
        -11    1    4    4    0    0  0.16475986073E-01 -0.24021577042E-02  0.32051233459E-01  0.36121616326E-01  0.51100000000E-03 0.  1.
         11    1    4    4    0    0  0.38576324592E-01 -0.31640703085E-01  0.81895358192E-01  0.95897746195E-01  0.51100000000E-03 0. -1.
</event>
<event>
 8    1  0.1148488E+005  0.1043930E+01  0.7957747E-01            NaN
         13   -1    0    0    0    0  0.00000000000E+00  0.00000000000E+00  0.74505805969E-08  0.10566000000E+00  0.10566000000E+00 0.  1.
     999900   -1    0    0    0    0 -0.00000000000E+00 -0.00000000000E+00 -0.74505805969E-08  0.93827000000E+00  0.93827000000E+00 0. -1.
     999902    2    1    2    0    0 -0.14319739653E-01  0.18169612807E-01  0.59829830433E-02  0.10200346896E+01  0.10197547657E+01 0.  0.
     999903    2    3    3    0    0 -0.13417898628E-01 -0.91232339341E-01  0.88605051063E-01  0.12941916841E+00  0.19876778730E-01 0.  0.
         14    1    1    2    0    0  0.14319739653E-01 -0.18169612807E-01 -0.59829830433E-02  0.23895310406E-01  0.00000000000E+00 0. -1.
     999901    1    3    3    0    0 -0.90184102459E-03  0.10940195215E+00 -0.82622068020E-01  0.89061552118E+00  0.88000000000E+00 0.  1.
        -11    1    4    4    0    0  0.38042719872E-03 -0.29259321965E-01  0.39461706185E-01  0.49129828239E-01  0.51100000000E-03 0. -1.
         11    1    4    4    0    0 -0.13798325827E-01 -0.61973017376E-01  0.49143344878E-01  0.80289340171E-01  0.51100000000E-03 0.  1.
</event>
<event>
 8    1  0.1148488E+005  0.1043930E+01  0.7957747E-01            NaN
         13   -1    0    0    0    0  0.00000000000E+00  0.00000000000E+00  0.74505805969E-08  0.10566000000E+00  0.10566000000E+00 0. -1.
     999900   -1    0    0    0    0 -0.00000000000E+00 -0.00000000000E+00 -0.74505805969E-08  0.93827000000E+00  0.93827000000E+00 0. -1.
     999902    2    1    2    0    0 -0.20169205683E-02  0.24617543454E-01 -0.74931841822E-03  0.10192186080E+01  0.10189189949E+01 0.  0.
     999903    2    3    3    0    0  0.77707960535E-01 -0.91366298268E-01 -0.37241260388E-01  0.12728813428E+00  0.20713040875E-01 0.  0.
         14    1    1    2    0    0  0.20169205683E-02 -0.24617543454E-01  0.74931841822E-03  0.24711391956E-01  0.00000000000E+00 0. -1.
     999901    1    3    3    0    0 -0.79724881103E-01  0.11598384172E+00  0.36491941970E-01  0.89193047377E+00  0.88000000000E+00 0. -1.
        -11    1    4    4    0    0  0.43065954245E-01 -0.54127798502E-01 -0.10954217646E-01  0.70033927428E-01  0.51100000000E-03 0. -1.
         11    1    4    4    0    0  0.34642006291E-01 -0.37238499766E-01 -0.26287042743E-01  0.57254206848E-01  0.51100000000E-03 0.  1.
</event>
<event>
 8    1  0.1148488E+005  0.1043930E+01  0.7957747E-01            NaN
         13   -1    0    0    0    0  0.00000000000E+00  0.00000000000E+00  0.74505805969E-08  0.10566000000E+00  0.10566000000E+00 0.  1.
     999900   -1    0    0    0    0 -0.00000000000E+00 -0.00000000000E+00 -0.74505805969E-08  0.93827000000E+00  0.93827000000E+00 0. -1.
     999902    2    1    2    0    0 -0.35098167379E-02 -0.23545036309E-01  0.14355351607E-02  0.10200815554E+01  0.10198027414E+01 0.  0.
     999903    2    3    3    0    0 -0.73064662456E-04  0.11008937896E+00  0.61887219734E-01  0.12793561758E+00  0.20440586603E-01 0.  0.
         14    1    1    2    0    0  0.35098167379E-02  0.23545036309E-01 -0.14355351607E-02  0.23848444593E-01  0.00000000000E+00 0.  1.
     999901    1    3    3    0    0 -0.34367520754E-02 -0.13363441527E+00 -0.60451684573E-01  0.89214593783E+00  0.88000000000E+00 0. -1.
        -11    1    4    4    0    0 -0.55594149796E-02  0.15972107408E-01  0.42886373233E-02  0.17454765569E-01  0.51100000000E-03 0.  1.
         11    1    4    4    0    0  0.54863503172E-02  0.94117271555E-01  0.57598582411E-01  0.11048085201E+00  0.51100000000E-03 0. -1.
</event>
<event>
 8    1  0.1148488E+005  0.1043930E+01  0.7957747E-01            NaN
         13   -1    0    0    0    0  0.00000000000E+00  0.00000000000E+00  0.74505805969E-08  0.10566000000E+00  0.10566000000E+00 0. -1.
     999900   -1    0    0    0    0 -0.00000000000E+00 -0.00000000000E+00 -0.74505805969E-08  0.93827000000E+00  0.93827000000E+00 0.  1.
     999902    2    1    2    0    0 -0.16928147162E-01  0.13275555013E-02  0.15974030332E-01  0.10206170376E+01  0.10203507452E+01 0.  0.
     999903    2    3    3    0    0 -0.39864272911E-01  0.12220769302E+00 -0.18374119010E-01  0.13139385479E+00  0.20071281460E-01 0.  0.
         14    1    1    2    0    0  0.16928147162E-01 -0.13275555013E-02 -0.15974030332E-01  0.23312962382E-01  0.00000000000E+00 0.  1.
     999901    1    3    3    0    0  0.22936125749E-01 -0.12088013752E+00  0.34348149342E-01  0.88922318283E+00  0.88000000000E+00 0. -1.
        -11    1    4    4    0    0 -0.17645485399E-01  0.66349469490E-01 -0.44165659187E-03  0.68659095815E-01  0.51100000000E-03 0. -1.
         11    1    4    4    0    0 -0.22218787512E-01  0.55858223532E-01 -0.17932462418E-01  0.62734758978E-01  0.51100000000E-03 0.  1.
</event>
<event>
 8    1  0.1148488E+005  0.1043930E+01  0.7957747E-01            NaN
         13   -1    0    0    0    0  0.00000000000E+00  0.00000000000E+00  0.74505805969E-08  0.10566000000E+00  0.10566000000E+00 0. -1.
     999900   -1    0    0    0    0 -0.00000000000E+00 -0.00000000000E+00 -0.74505805969E-08  0.93827000000E+00  0.93827000000E+00 0.  1.
     999902    2    1    2    0    0  0.13419670642E-01  0.24463551764E-02 -0.19256792707E-01  0.10203313501E+01  0.10200584138E+01 0.  0.
     999903    2    3    3    0    0  0.95971670125E-01  0.22220925437E-02 -0.90847116358E-01  0.13357317707E+00  0.19315691059E-01 0.  0.
         14    1    1    2    0    0 -0.13419670642E-01 -0.24463551764E-02  0.19256792707E-01  0.23598649944E-01  0.00000000000E+00 0. -1.
     999901    1    3    3    0    0 -0.82551999482E-01  0.22426263270E-03  0.71590323650E-01  0.88675817298E+00  0.88000000000E+00 0. -1.
        -11    1    4    4    0    0  0.76429506473E-01 -0.40564246767E-02 -0.63974366174E-01  0.99754221410E-01  0.51100000000E-03 0. -1.
         11    1    4    4    0    0  0.19542163652E-01  0.62785172204E-02 -0.26872750184E-01  0.33818955663E-01  0.51100000000E-03 0.  1.
</event>
<event>
 8    1  0.1148488E+005  0.1043930E+01  0.7957747E-01            NaN
         13   -1    0    0    0    0  0.00000000000E+00  0.00000000000E+00  0.74505805969E-08  0.10566000000E+00  0.10566000000E+00 0.  1.
     999900   -1    0    0    0    0 -0.00000000000E+00 -0.00000000000E+00 -0.74505805969E-08  0.93827000000E+00  0.93827000000E+00 0.  1.
     999902    2    1    2    0    0 -0.10552478038E-01 -0.20259955513E-01  0.49958927462E-02  0.10205466826E+01  0.10202787618E+01 0.  0.
     999903    2    3    3    0    0 -0.12318096463E+00  0.32513746504E-01 -0.24764805591E-01  0.13130209372E+00  0.19906040769E-01 0.  0.
         14    1    1    2    0    0  0.10552478038E-01  0.20259955513E-01 -0.49958927462E-02  0.23383317439E-01  0.00000000000E+00 0. -1.
     999901    1    3    3    0    0  0.11262848660E+00 -0.52773702018E-01  0.29760698337E-01  0.88924458884E+00  0.88000000000E+00 0.  1.
        -11    1    4    4    0    0 -0.63884457989E-01  0.15136330483E-01 -0.22722264303E-01  0.69475858318E-01  0.51100000000E-03 0.  1.
         11    1    4    4    0    0 -0.59296506646E-01  0.17377416021E-01 -0.20425412881E-02  0.61826235401E-01  0.51100000000E-03 0. -1.
</event>
<event>
 8    1  0.1148488E+005  0.1043930E+01  0.7957747E-01            NaN
         13   -1    0    0    0    0  0.00000000000E+00  0.00000000000E+00  0.74505805969E-08  0.10566000000E+00  0.10566000000E+00 0. -1.
     999900   -1    0    0    0    0 -0.00000000000E+00 -0.00000000000E+00 -0.74505805969E-08  0.93827000000E+00  0.93827000000E+00 0. -1.
     999902    2    1    2    0    0  0.24980631189E-01  0.40265176245E-02  0.31645008548E-03  0.10186249626E+01  0.10183105958E+01 0.  0.
     999903    2    3    3    0    0 -0.70303745201E-01  0.65663472021E-01  0.81334421221E-01  0.12764677082E+00  0.20593733927E-01 0.  0.
         14    1    1    2    0    0 -0.24980631189E-01 -0.40265176245E-02 -0.31645008548E-03  0.25305037432E-01  0.00000000000E+00 0. -1.
     999901    1    3    3    0    0  0.95284376390E-01 -0.61636954397E-01 -0.81017971135E-01  0.89097819175E+00  0.88000000000E+00 0. -1.
        -11    1    4    4    0    0 -0.53441755578E-01  0.44634939713E-01  0.47071300211E-01  0.84049196944E-01  0.51100000000E-03 0. -1.
         11    1    4    4    0    0 -0.16861989623E-01  0.21028532309E-01  0.34263121010E-01  0.43597573871E-01  0.51100000000E-03 0.  1.
</event>
<event>
 8    1  0.1148488E+005  0.1043930E+01  0.7957747E-01            NaN
         13   -1    0    0    0    0  0.00000000000E+00  0.00000000000E+00  0.74505805969E-08  0.10566000000E+00  0.10566000000E+00 0.  1.
     999900   -1    0    0    0    0 -0.00000000000E+00 -0.00000000000E+00 -0.74505805969E-08  0.93827000000E+00  0.93827000000E+00 0. -1.
     999902    2    1    2    0    0 -0.50372522268E-02 -0.16259623190E-01 -0.90107004880E-02  0.10246701459E+01  0.10244891244E+01 0.  0.
     999903    2    3    3    0    0 -0.12781613493E+00  0.37610106958E-02  0.37696919452E-01  0.13469425771E+00  0.19245149350E-01 0.  0.
         14    1    1    2    0    0  0.50372522268E-02  0.16259623190E-01  0.90107004880E-02  0.19259854090E-01  0.00000000000E+00 0. -1.
     999901    1    3    3    0    0  0.12277888270E+00 -0.20020633885E-01 -0.46707619940E-01  0.88997588820E+00  0.88000000000E+00 0. -1.
        -11    1    4    4    0    0 -0.15090862326E-01 -0.32810640786E-02 -0.51154335603E-03  0.15460346207E-01  0.51100000000E-03 0. -1.
         11    1    4    4    0    0 -0.11272527260E+00  0.70420747744E-02  0.38208462808E-01  0.11923391150E+00  0.51100000000E-03 0.  1.
</event>
<event>
 8    1  0.1148488E+005  0.1043930E+01  0.7957747E-01            NaN
         13   -1    0    0    0    0  0.00000000000E+00  0.00000000000E+00  0.74505805969E-08  0.10566000000E+00  0.10566000000E+00 0. -1.
     999900   -1    0    0    0    0 -0.00000000000E+00 -0.00000000000E+00 -0.74505805969E-08  0.93827000000E+00  0.93827000000E+00 0. -1.
     999902    2    1    2    0    0 -0.67635388208E-02 -0.21169381755E-01  0.81216157188E-02  0.10202688753E+01  0.10199944750E+01 0.  0.
     999903    2    3    3    0    0  0.90043260081E-01 -0.91737187901E-01  0.18477235295E-01  0.13209174743E+00  0.24152043067E-01 0.  0.
         14    1    1    2    0    0  0.67635388208E-02  0.21169381755E-01 -0.81216157188E-02  0.23661124723E-01  0.00000000000E+00 0.  1.
     999901    1    3    3    0    0 -0.96806798902E-01  0.70567806145E-01 -0.10355619576E-01  0.88817712785E+00  0.88000000000E+00 0. -1.
        -11    1    4    4    0    0  0.53841718189E-01 -0.62613068292E-01  0.22095750214E-01  0.85485731189E-01  0.51100000000E-03 0.  1.
         11    1    4    4    0    0  0.36201541892E-01 -0.29124119609E-01 -0.36185149193E-02  0.46606016238E-01  0.51100000000E-03 0. -1.
</event>
<event>
 8    1  0.1148488E+005  0.1043930E+01  0.7957747E-01            NaN
         13   -1    0    0    0    0  0.00000000000E+00  0.00000000000E+00  0.74505805969E-08  0.10566000000E+00  0.10566000000E+00 0. -1.
     999900   -1    0    0    0    0 -0.00000000000E+00 -0.00000000000E+00 -0.74505805969E-08  0.93827000000E+00  0.93827000000E+00 0.  1.
     999902    2    1    2    0    0 -0.13083033612E-01  0.63292042210E-02 -0.17532044332E-01  0.10211572713E+01  0.10209033135E+01 0.  0.
     999903    2    3    3    0    0 -0.40318342054E-01  0.12474901549E+00 -0.18352649392E-02  0.13266900315E+00  0.20243780029E-01 0.  0.
         14    1    1    2    0    0  0.13083033612E-01 -0.63292042210E-02  0.17532044332E-01  0.22772728713E-01  0.00000000000E+00 0. -1.
     999901    1    3    3    0    0  0.27235308441E-01 -0.11841981127E+00 -0.15696779393E-01  0.88848826813E+00  0.88000000000E+00 0.  1.
        -11    1    4    4    0    0 -0.22209370880E-01  0.43620929700E-01 -0.66594897925E-02  0.49402951208E-01  0.51100000000E-03 0. -1.
         11    1    4    4    0    0 -0.18108971174E-01  0.81128085786E-01  0.48242248533E-02  0.83266051947E-01  0.51100000000E-03 0.  1.
</event>
<event>
 8    1  0.1148488E+005  0.1043930E+01  0.7957747E-01            NaN
         13   -1    0    0    0    0  0.00000000000E+00  0.00000000000E+00  0.74505805969E-08  0.10566000000E+00  0.10566000000E+00 0. -1.
     999900   -1    0    0    0    0 -0.00000000000E+00 -0.00000000000E+00 -0.74505805969E-08  0.93827000000E+00  0.93827000000E+00 0.  1.
     999902    2    1    2    0    0 -0.78228467597E-02 -0.15153162757E-01  0.14822125572E-01  0.10213355166E+01  0.10210855629E+01 0.  0.
     999903    2    3    3    0    0 -0.11067219385E+00 -0.19328479477E-01  0.69100229291E-01  0.13367480778E+00  0.21729885780E-01 0.  0.
         14    1    1    2    0    0  0.78228467597E-02  0.15153162757E-01 -0.14822125572E-01  0.22594483385E-01  0.00000000000E+00 0.  1.
     999901    1    3    3    0    0  0.10284934709E+00  0.41753167196E-02 -0.54278103719E-01  0.88766070884E+00  0.88000000000E+00 0.  1.
        -11    1    4    4    0    0 -0.84734894612E-01 -0.52794144995E-02  0.52532674090E-01  0.99838958080E-01  0.51100000000E-03 0.  1.
         11    1    4    4    0    0 -0.25937299240E-01 -0.14049064977E-01  0.16567555200E-01  0.33835849700E-01  0.51100000000E-03 0. -1.
</event>
<event>
 8    1  0.1148488E+005  0.1043930E+01  0.7957747E-01            NaN
         13   -1    0    0    0    0  0.00000000000E+00  0.00000000000E+00  0.74505805969E-08  0.10566000000E+00  0.10566000000E+00 0. -1.
     999900   -1    0    0    0    0 -0.00000000000E+00 -0.00000000000E+00 -0.74505805969E-08  0.93827000000E+00  0.93827000000E+00 0. -1.
     999902    2    1    2    0    0 -0.88039046303E-02 -0.18789410543E-01 -0.11304721298E-01  0.10203006240E+01  0.10200269683E+01 0.  0.
     999903    2    3    3    0    0 -0.71601473525E-01 -0.91723220726E-01  0.58774702134E-01  0.13228373178E+00  0.22463300099E-01 0.  0.
         14    1    1    2    0    0  0.88039046303E-02  0.18789410543E-01  0.11304721298E-01  0.23629375974E-01  0.00000000000E+00 0. -1.
     999901    1    3    3    0    0  0.62797568895E-01  0.72933810182E-01 -0.70079423432E-01  0.88801689225E+00  0.88000000000E+00 0. -1.
        -11    1    4    4    0    0 -0.32278897936E-01 -0.57221363906E-01  0.26696534029E-01  0.70916696126E-01  0.51100000000E-03 0. -1.
         11    1    4    4    0    0 -0.39322575589E-01 -0.34501856819E-01  0.32078168105E-01  0.61367035654E-01  0.51100000000E-03 0.  1.
</event>
<event>
 8    1  0.1148488E+005  0.1043930E+01  0.7957747E-01            NaN
         13   -1    0    0    0    0  0.00000000000E+00  0.00000000000E+00  0.74505805969E-08  0.10566000000E+00  0.10566000000E+00 0.  1.
     999900   -1    0    0    0    0 -0.00000000000E+00 -0.00000000000E+00 -0.74505805969E-08  0.93827000000E+00  0.93827000000E+00 0.  1.
     999902    2    1    2    0    0  0.13406326493E-01  0.16127850655E-01  0.23349999787E-01  0.10125443401E+01  0.10120577953E+01 0.  0.
     999903    2    3    3    0    0  0.10431430948E+00 -0.63182682194E-01  0.14010164331E-01  0.12426417343E+00  0.19281431548E-01 0.  0.
         14    1    1    2    0    0 -0.13406326493E-01 -0.16127850655E-01 -0.23349999787E-01  0.31385659892E-01  0.00000000000E+00 0. -1.
     999901    1    3    3    0    0 -0.90907982983E-01  0.79310532849E-01  0.93398354560E-02  0.88828016668E+00  0.88000000000E+00 0. -1.
        -11    1    4    4    0    0  0.11095202614E-01 -0.25388802424E-02  0.57109340000E-02  0.12744619338E-01  0.51100000000E-03 0. -1.
         11    1    4    4    0    0  0.93219106862E-01 -0.60643801951E-01  0.82992303313E-02  0.11151955409E+00  0.51100000000E-03 0.  1.
</event>
<event>
 8    1  0.1148488E+005  0.1043930E+01  0.7957747E-01            NaN
         13   -1    0    0    0    0  0.00000000000E+00  0.00000000000E+00  0.74505805969E-08  0.10566000000E+00  0.10566000000E+00 0.  1.
     999900   -1    0    0    0    0 -0.00000000000E+00 -0.00000000000E+00 -0.74505805969E-08  0.93827000000E+00  0.93827000000E+00 0.  1.
     999902    2    1    2    0    0  0.47203092653E-02 -0.20278910631E-01  0.11125868774E-01  0.10203227873E+01  0.10200496506E+01 0.  0.
     999903    2    3    3    0    0  0.90637575372E-01 -0.79053686595E-01 -0.50569387288E-01  0.13204211345E+00  0.20327354947E-01 0.  0.
         14    1    1    2    0    0 -0.47203092653E-02  0.20278910631E-01 -0.11125868774E-01  0.23607212710E-01  0.00000000000E+00 0.  1.
     999901    1    3    3    0    0 -0.85917266106E-01  0.58774775964E-01  0.61695256062E-01  0.88828067384E+00  0.88000000000E+00 0. -1.
        -11    1    4    4    0    0  0.26164821816E-01 -0.16195037484E-01 -0.21031897883E-01  0.37275715813E-01  0.51100000000E-03 0.  1.
         11    1    4    4    0    0  0.64472753556E-01 -0.62858649111E-01 -0.29537489405E-01  0.94766397633E-01  0.51100000000E-03 0. -1.
</event>
<event>
 8    1  0.1148488E+005  0.1043930E+01  0.7957747E-01            NaN
         13   -1    0    0    0    0  0.00000000000E+00  0.00000000000E+00  0.74505805969E-08  0.10566000000E+00  0.10566000000E+00 0. -1.
     999900   -1    0    0    0    0 -0.00000000000E+00 -0.00000000000E+00 -0.74505805969E-08  0.93827000000E+00  0.93827000000E+00 0.  1.
     999902    2    1    2    0    0  0.21457756299E-01 -0.92443973070E-02  0.38241795560E-02  0.10202547273E+01  0.10199799949E+01 0.  0.
     999903    2    3    3    0    0  0.12889458272E+00 -0.17482661762E-01  0.22461103274E-01  0.13348650755E+00  0.19866796957E-01 0.  0.
         14    1    1    2    0    0 -0.21457756299E-01  0.92443973070E-02 -0.38241795560E-02  0.23675272675E-01  0.00000000000E+00 0. -1.
     999901    1    3    3    0    0 -0.10743682642E+00  0.82382644549E-02 -0.18636923718E-01  0.88676821977E+00  0.88000000000E+00 0.  1.
        -11    1    4    4    0    0  0.91857113986E-01 -0.58902656107E-02  0.93575306053E-02  0.92521614333E-01  0.51100000000E-03 0.  1.
         11    1    4    4    0    0  0.37037468734E-01 -0.11592396151E-01  0.13103572669E-01  0.40964893219E-01  0.51100000000E-03 0. -1.
</event>
<event>
 8    1  0.1148488E+005  0.1043930E+01  0.7957747E-01            NaN
         13   -1    0    0    0    0  0.00000000000E+00  0.00000000000E+00  0.74505805969E-08  0.10566000000E+00  0.10566000000E+00 0.  1.
     999900   -1    0    0    0    0 -0.00000000000E+00 -0.00000000000E+00 -0.74505805969E-08  0.93827000000E+00  0.93827000000E+00 0.  1.
     999902    2    1    2    0    0 -0.66710113151E-02 -0.18322837520E-01  0.14839264886E-01  0.10194262748E+01  0.10191317369E+01 0.  0.
     999903    2    3    3    0    0 -0.72296613776E-01 -0.26570252546E-01 -0.10052869215E+00  0.12943497985E+00  0.26732328392E-01 0.  0.
         14    1    1    2    0    0  0.66710113151E-02  0.18322837520E-01 -0.14839264886E-01  0.24503725209E-01  0.00000000000E+00 0. -1.
     999901    1    3    3    0    0  0.65625602461E-01  0.82474150269E-02  0.11536795703E+00  0.88999129494E+00  0.88000000000E+00 0. -1.
        -11    1    4    4    0    0 -0.40875980000E-01 -0.26922964257E-01 -0.71520497177E-01  0.86666800926E-01  0.51100000000E-03 0. -1.
         11    1    4    4    0    0 -0.31420633776E-01  0.35271171016E-03 -0.29008194970E-01  0.42768178928E-01  0.51100000000E-03 0.  1.
</event>
<event>
 8    1  0.1148488E+005  0.1043930E+01  0.7957747E-01            NaN
         13   -1    0    0    0    0  0.00000000000E+00  0.00000000000E+00  0.74505805969E-08  0.10566000000E+00  0.10566000000E+00 0.  1.
     999900   -1    0    0    0    0 -0.00000000000E+00 -0.00000000000E+00 -0.74505805969E-08  0.93827000000E+00  0.93827000000E+00 0.  1.
     999902    2    1    2    0    0 -0.84908698287E-02 -0.15360189928E-01  0.13838390024E-01  0.10215798022E+01  0.10213352833E+01 0.  0.
     999903    2    3    3    0    0  0.64642124840E-01 -0.85417700025E-01 -0.73546366412E-01  0.13147161475E+00  0.20023228807E-01 0.  0.
         14    1    1    2    0    0  0.84908698287E-02  0.15360189928E-01 -0.13838390024E-01  0.22350197841E-01  0.00000000000E+00 0. -1.
     999901    1    3    3    0    0 -0.73132994668E-01  0.70057510097E-01  0.87384756437E-01  0.89010818741E+00  0.88000000000E+00 0. -1.
        -11    1    4    4    0    0  0.21912262363E-01 -0.33047757737E-01 -0.16225463058E-01  0.42846567025E-01  0.51100000000E-03 0.  1.
         11    1    4    4    0    0  0.42729862476E-01 -0.52369942287E-01 -0.57320903354E-01  0.88625047728E-01  0.51100000000E-03 0. -1.
</event>
<event>
 8    1  0.1148488E+005  0.1043930E+01  0.7957747E-01            NaN
         13   -1    0    0    0    0  0.00000000000E+00  0.00000000000E+00  0.74505805969E-08  0.10566000000E+00  0.10566000000E+00 0. -1.
     999900   -1    0    0    0    0 -0.00000000000E+00 -0.00000000000E+00 -0.74505805969E-08  0.93827000000E+00  0.93827000000E+00 0.  1.
     999902    2    1    2    0    0 -0.11581351197E-01  0.97461767865E-02 -0.18535282145E-01  0.10199994266E+01  0.10197186661E+01 0.  0.
     999903    2    3    3    0    0 -0.21757824340E-01 -0.22057141929E-01 -0.12749783461E+00  0.13265065105E+00  0.19508381885E-01 0.  0.
         14    1    1    2    0    0  0.11581351197E-01 -0.97461767865E-02  0.18535282145E-01  0.23930573368E-01  0.00000000000E+00 0. -1.
     999901    1    3    3    0    0  0.10176473143E-01  0.31803318716E-01  0.10896255247E+00  0.88734877558E+00  0.88000000000E+00 0. -1.
        -11    1    4    4    0    0 -0.10091051390E-01 -0.10718864061E-01 -0.26230774282E-01  0.30083849576E-01  0.51100000000E-03 0. -1.
         11    1    4    4    0    0 -0.11666772950E-01 -0.11338277868E-01 -0.10126706033E+00  0.10256680147E+00  0.51100000000E-03 0.  1.
</event>
<event>
 8    1  0.1148488E+005  0.1043930E+01  0.7957747E-01            NaN
         13   -1    0    0    0    0  0.00000000000E+00  0.00000000000E+00  0.74505805969E-08  0.10566000000E+00  0.10566000000E+00 0.  1.
     999900   -1    0    0    0    0 -0.00000000000E+00 -0.00000000000E+00 -0.74505805969E-08  0.93827000000E+00  0.93827000000E+00 0.  1.
     999902    2    1    2    0    0 -0.16309564177E-01 -0.15236772730E-01  0.15921266412E-02  0.10215537627E+01  0.10213086674E+01 0.  0.
     999903    2    3    3    0    0 -0.10521809326E+00 -0.77901661986E-01 -0.23357154970E-01  0.13450580375E+00  0.20167758011E-01 0.  0.
         14    1    1    2    0    0  0.16309564177E-01  0.15236772730E-01 -0.15921266412E-02  0.22376237265E-01  0.00000000000E+00 0.  1.
     999901    1    3    3    0    0  0.88908529088E-01  0.62664889256E-01  0.24949281611E-01  0.88704795899E+00  0.88000000000E+00 0. -1.
        -11    1    4    4    0    0 -0.26455983505E-01 -0.29268595939E-01 -0.12012912807E-01  0.41244890187E-01  0.51100000000E-03 0. -1.
         11    1    4    4    0    0 -0.78762109760E-01 -0.48633066048E-01 -0.11344242163E-01  0.93260913562E-01  0.51100000000E-03 0.  1.
</event>
<event>
 8    1  0.1148488E+005  0.1043930E+01  0.7957747E-01            NaN
         13   -1    0    0    0    0  0.00000000000E+00  0.00000000000E+00  0.74505805969E-08  0.10566000000E+00  0.10566000000E+00 0.  1.
     999900   -1    0    0    0    0 -0.00000000000E+00 -0.00000000000E+00 -0.74505805969E-08  0.93827000000E+00  0.93827000000E+00 0. -1.
     999902    2    1    2    0    0  0.15790381388E-01 -0.70837369885E-02 -0.16934222476E-01  0.10197167110E+01  0.10194291968E+01 0.  0.
     999903    2    3    3    0    0 -0.12268414097E+00 -0.82861311458E-02 -0.33252440366E-01  0.12873807862E+00  0.18646975099E-01 0.  0.
         14    1    1    2    0    0 -0.15790381388E-01  0.70837369885E-02  0.16934222476E-01  0.24213289016E-01  0.00000000000E+00 0. -1.
     999901    1    3    3    0    0  0.13847452236E+00  0.12023941574E-02  0.16318217890E-01  0.89097863236E+00  0.88000000000E+00 0.  1.
        -11    1    4    4    0    0 -0.90749349127E-01  0.17790946310E-02 -0.21831683059E-01  0.93356805059E-01  0.51100000000E-03 0.  1.
         11    1    4    4    0    0 -0.31934791847E-01 -0.10065225777E-01 -0.11420757307E-01  0.35381273560E-01  0.51100000000E-03 0. -1.
</event>
<event>
 8    1  0.1148488E+005  0.1043930E+01  0.7957747E-01            NaN
         13   -1    0    0    0    0  0.00000000000E+00  0.00000000000E+00  0.74505805969E-08  0.10566000000E+00  0.10566000000E+00 0. -1.
     999900   -1    0    0    0    0 -0.00000000000E+00 -0.00000000000E+00 -0.74505805969E-08  0.93827000000E+00  0.93827000000E+00 0. -1.
     999902    2    1    2    0    0  0.16799456212E-01 -0.17698485601E-01  0.61897064586E-03  0.10195201404E+01  0.10192278820E+01 0.  0.
     999903    2    3    3    0    0 -0.60832046659E-01  0.73778096926E-01  0.81901891293E-01  0.12766727776E+00  0.21148723998E-01 0.  0.
         14    1    1    2    0    0 -0.16799456212E-01  0.17698485601E-01 -0.61897064586E-03  0.24409859611E-01  0.00000000000E+00 0. -1.
     999901    1    3    3    0    0  0.77631502870E-01 -0.91476582527E-01 -0.81282920647E-01  0.89185286263E+00  0.88000000000E+00 0. -1.
        -11    1    4    4    0    0 -0.39198911929E-01  0.54944302899E-01  0.67920107954E-01  0.95754024996E-01  0.51100000000E-03 0.  1.
         11    1    4    4    0    0 -0.21633134730E-01  0.18833794027E-01  0.13981783339E-01  0.31913252765E-01  0.51100000000E-03 0. -1.
</event>
<event>
 8    1  0.1148488E+005  0.1043930E+01  0.7957747E-01            NaN
         13   -1    0    0    0    0  0.00000000000E+00  0.00000000000E+00  0.74505805969E-08  0.10566000000E+00  0.10566000000E+00 0.  1.
     999900   -1    0    0    0    0 -0.00000000000E+00 -0.00000000000E+00 -0.74505805969E-08  0.93827000000E+00  0.93827000000E+00 0. -1.
     999902    2    1    2    0    0  0.47210507531E-02  0.55207798761E-02  0.21648097768E-01  0.10210956516E+01  0.10208403020E+01 0.  0.
     999903    2    3    3    0    0  0.11024585018E+00  0.67845055676E-01 -0.15333831487E-01  0.13183333835E+00  0.19692730894E-01 0.  0.
         14    1    1    2    0    0 -0.47210507531E-02 -0.55207798761E-02 -0.21648097768E-01  0.22834348417E-01  0.00000000000E+00 0. -1.
     999901    1    3    3    0    0 -0.10552479943E+00 -0.62324275800E-01  0.36981929255E-01  0.88926231323E+00  0.88000000000E+00 0. -1.
        -11    1    4    4    0    0  0.29935154551E-01  0.28517423569E-01 -0.17637523505E-02  0.41385128590E-01  0.51100000000E-03 0.  1.
         11    1    4    4    0    0  0.80310695630E-01  0.39327632107E-01 -0.13570079137E-01  0.90448209758E-01  0.51100000000E-03 0. -1.
</event>
<event>
 8    1  0.1148488E+005  0.1043930E+01  0.7957747E-01            NaN
         13   -1    0    0    0    0  0.00000000000E+00  0.00000000000E+00  0.74505805969E-08  0.10566000000E+00  0.10566000000E+00 0.  1.
     999900   -1    0    0    0    0 -0.00000000000E+00 -0.00000000000E+00 -0.74505805969E-08  0.93827000000E+00  0.93827000000E+00 0. -1.
     999902    2    1    2    0    0 -0.16234498323E-01  0.61019453853E-02 -0.99282842098E-02  0.10239459188E+01  0.10237508882E+01 0.  0.
     999903    2    3    3    0    0 -0.32674530451E-01  0.22621803320E-01 -0.12817047361E+00  0.13573175787E+00  0.20397766104E-01 0.  0.
         14    1    1    2    0    0  0.16234498323E-01 -0.61019453853E-02  0.99282842098E-02  0.19984081180E-01  0.00000000000E+00 0. -1.
     999901    1    3    3    0    0  0.16440032128E-01 -0.16519857935E-01  0.11824218940E+00  0.88821416095E+00  0.88000000000E+00 0.  1.
        -11    1    4    4    0    0 -0.10638674774E-01  0.65298450802E-02 -0.16058411289E-01  0.20345858838E-01  0.51100000000E-03 0. -1.
         11    1    4    4    0    0 -0.22035855676E-01  0.16091958240E-01 -0.11211206232E+00  0.11538589903E+00  0.51100000000E-03 0.  1.
</event>
<event>
 8    1  0.1148488E+005  0.1043930E+01  0.7957747E-01            NaN
         13   -1    0    0    0    0  0.00000000000E+00  0.00000000000E+00  0.74505805969E-08  0.10566000000E+00  0.10566000000E+00 0. -1.
     999900   -1    0    0    0    0 -0.00000000000E+00 -0.00000000000E+00 -0.74505805969E-08  0.93827000000E+00  0.93827000000E+00 0. -1.
     999902    2    1    2    0    0  0.60946759790E-02 -0.22587998133E-01  0.36887005130E-02  0.10202452107E+01  0.10199702548E+01 0.  0.
     999903    2    3    3    0    0 -0.12711293120E+00  0.64831079131E-02 -0.12445247942E-01  0.12959954592E+00  0.21010238934E-01 0.  0.
         14    1    1    2    0    0 -0.60946759790E-02  0.22587998133E-01 -0.36887005130E-02  0.23684789347E-01  0.00000000000E+00 0.  1.
     999901    1    3    3    0    0  0.13320760718E+00 -0.29071106046E-01  0.16133948455E-01  0.89064566473E+00  0.88000000000E+00 0. -1.
        -11    1    4    4    0    0 -0.10268102849E+00 -0.32452551195E-03 -0.36408063264E-02  0.10274733827E+00  0.51100000000E-03 0.  1.
         11    1    4    4    0    0 -0.24431902707E-01  0.68076334250E-02 -0.88044416158E-02  0.26852207654E-01  0.51100000000E-03 0. -1.
</event>
<event>
 8    1  0.1148488E+005  0.1043930E+01  0.7957747E-01            NaN
         13   -1    0    0    0    0  0.00000000000E+00  0.00000000000E+00  0.74505805969E-08  0.10566000000E+00  0.10566000000E+00 0.  1.
     999900   -1    0    0    0    0 -0.00000000000E+00 -0.00000000000E+00 -0.74505805969E-08  0.93827000000E+00  0.93827000000E+00 0. -1.
     999902    2    1    2    0    0  0.13964720497E-01  0.10839583284E-01 -0.15661250115E-01  0.10203125332E+01  0.10200391564E+01 0.  0.
     999903    2    3    3    0    0  0.60022875266E-01  0.48161285826E-01  0.10327044537E+00  0.13033556083E+00  0.20007961508E-01 0.  0.
         14    1    1    2    0    0 -0.13964720497E-01 -0.10839583284E-01  0.15661250115E-01  0.23617466830E-01  0.00000000000E+00 0.  1.
     999901    1    3    3    0    0 -0.46058154770E-01 -0.37321702542E-01 -0.11893169548E+00  0.88997697234E+00  0.88000000000E+00 0. -1.
        -11    1    4    4    0    0  0.35068218459E-01  0.40126613099E-01  0.69199204794E-01  0.87342521660E-01  0.51100000000E-03 0. -1.
         11    1    4    4    0    0  0.24954656807E-01  0.80346727267E-02  0.34071240571E-01  0.42993039172E-01  0.51100000000E-03 0.  1.
</event>
<event>
 8    1  0.1148488E+005  0.1043930E+01  0.7957747E-01            NaN
         13   -1    0    0    0    0  0.00000000000E+00  0.00000000000E+00  0.74505805969E-08  0.10566000000E+00  0.10566000000E+00 0.  1.
     999900   -1    0    0    0    0 -0.00000000000E+00 -0.00000000000E+00 -0.74505805969E-08  0.93827000000E+00  0.93827000000E+00 0.  1.
     999902    2    1    2    0    0 -0.14722966837E-01  0.25342375810E-02  0.18781376018E-01  0.10199314959E+01  0.10196491201E+01 0.  0.
     999903    2    3    3    0    0 -0.68682715846E-01 -0.56277473563E-01  0.96843608844E-01  0.13287784249E+00  0.19833480897E-01 0.  0.
         14    1    1    2    0    0  0.14722966837E-01 -0.25342375810E-02 -0.18781376018E-01  0.23998504072E-01  0.00000000000E+00 0. -1.
     999901    1    3    3    0    0  0.53959749008E-01  0.58811711144E-01 -0.78062232827E-01  0.88705365344E+00  0.88000000000E+00 0.  1.
        -11    1    4    4    0    0 -0.15710814226E-01 -0.23941416712E-01  0.35517938607E-01  0.45626814503E-01  0.51100000000E-03 0.  1.
         11    1    4    4    0    0 -0.52971901619E-01 -0.32336056852E-01  0.61325670238E-01  0.87251027988E-01  0.51100000000E-03 0. -1.
</event>
<event>
 8    1  0.1148488E+005  0.1043930E+01  0.7957747E-01            NaN
         13   -1    0    0    0    0  0.00000000000E+00  0.00000000000E+00  0.74505805969E-08  0.10566000000E+00  0.10566000000E+00 0.  1.
     999900   -1    0    0    0    0 -0.00000000000E+00 -0.00000000000E+00 -0.74505805969E-08  0.93827000000E+00  0.93827000000E+00 0.  1.
     999902    2    1    2    0    0  0.80064710531E-02 -0.11379633076E-01 -0.18477171414E-01  0.10207998143E+01  0.10205377285E+01 0.  0.
     999903    2    3    3    0    0  0.19676099805E-02 -0.93226290779E-01  0.89144671715E-01  0.13045280085E+00  0.19394534605E-01 0.  0.
         14    1    1    2    0    0 -0.80064710531E-02  0.11379633076E-01  0.18477171414E-01  0.23130185713E-01  0.00000000000E+00 0.  1.
     999901    1    3    3    0    0  0.60388610727E-02  0.81846657703E-01 -0.10762184313E+00  0.89034701344E+00  0.88000000000E+00 0.  1.
        -11    1    4    4    0    0 -0.27903211027E-02 -0.48856518196E-01  0.58727525774E-01  0.76445592853E-01  0.51100000000E-03 0.  1.
         11    1    4    4    0    0  0.47579310832E-02 -0.44369772583E-01  0.30417145941E-01  0.54007207995E-01  0.51100000000E-03 0. -1.
</event>
<event>
 8    1  0.1148488E+005  0.1043930E+01  0.7957747E-01            NaN
         13   -1    0    0    0    0  0.00000000000E+00  0.00000000000E+00  0.74505805969E-08  0.10566000000E+00  0.10566000000E+00 0. -1.
     999900   -1    0    0    0    0 -0.00000000000E+00 -0.00000000000E+00 -0.74505805969E-08  0.93827000000E+00  0.93827000000E+00 0. -1.
     999902    2    1    2    0    0  0.15612747093E-01 -0.16406070485E-01 -0.68515388081E-02  0.10202686263E+01  0.10199942202E+01 0.  0.
     999903    2    3    3    0    0  0.53622011998E-02  0.12274372878E+00  0.30286914601E-01  0.12850239851E+00  0.22378406335E-01 0.  0.
         14    1    1    2    0    0 -0.15612747093E-01  0.16406070485E-01  0.68515388081E-02  0.23661373683E-01  0.00000000000E+00 0. -1.
     999901    1    3    3    0    0  0.10250545893E-01 -0.13914979927E+00 -0.37138453409E-01  0.89176622780E+00  0.88000000000E+00 0. -1.
        -11    1    4    4    0    0  0.12142670449E-01  0.69197737417E-01  0.10619823400E-01  0.71055000383E-01  0.51100000000E-03 0.  1.
         11    1    4    4    0    0 -0.67804692496E-02  0.53545991368E-01  0.19667091200E-01  0.57447398132E-01  0.51100000000E-03 0. -1.
</event>
<event>
 8    1  0.1148488E+005  0.1043930E+01  0.7957747E-01            NaN
         13   -1    0    0    0    0  0.00000000000E+00  0.00000000000E+00  0.74505805969E-08  0.10566000000E+00  0.10566000000E+00 0.  1.
     999900   -1    0    0    0    0 -0.00000000000E+00 -0.00000000000E+00 -0.74505805969E-08  0.93827000000E+00  0.93827000000E+00 0.  1.
     999902    2    1    2    0    0  0.85215421757E-02  0.18527302679E-01 -0.19214446986E-01  0.10159108530E+01  0.10155243910E+01 0.  0.
     999903    2    3    3    0    0  0.57684186858E-02 -0.11526369488E+00 -0.44665114192E-01  0.12543045053E+00  0.20465372804E-01 0.  0.
         14    1    1    2    0    0 -0.85215421757E-02 -0.18527302679E-01  0.19214446986E-01  0.28019146999E-01  0.00000000000E+00 0.  1.
     999901    1    3    3    0    0  0.27531234898E-02  0.13379099756E+00  0.25450667206E-01  0.89048040247E+00  0.88000000000E+00 0.  1.
        -11    1    4    4    0    0 -0.54748928521E-03 -0.29125244505E-01 -0.20879278823E-01  0.35843897907E-01  0.51100000000E-03 0. -1.
         11    1    4    4    0    0  0.63159079711E-02 -0.86138450374E-01 -0.23785835368E-01  0.89586552626E-01  0.51100000000E-03 0.  1.
</event>
<event>
 8    1  0.1148488E+005  0.1043930E+01  0.7957747E-01            NaN
         13   -1    0    0    0    0  0.00000000000E+00  0.00000000000E+00  0.74505805969E-08  0.10566000000E+00  0.10566000000E+00 0.  1.
     999900   -1    0    0    0    0 -0.00000000000E+00 -0.00000000000E+00 -0.74505805969E-08  0.93827000000E+00  0.93827000000E+00 0.  1.
     999902    2    1    2    0    0  0.89750039691E-03 -0.69892947428E-02  0.22189173910E-01  0.10206487804E+01  0.10203832210E+01 0.  0.
     999903    2    3    3    0    0 -0.30753617167E-01  0.95276768951E-01  0.83642960258E-01  0.13203372937E+00  0.20330106275E-01 0.  0.
         14    1    1    2    0    0 -0.89750039691E-03  0.69892947428E-02 -0.22189173910E-01  0.23281219615E-01  0.00000000000E+00 0. -1.
     999901    1    3    3    0    0  0.31651117564E-01 -0.10226606369E+00 -0.61453786348E-01  0.88861505101E+00  0.88000000000E+00 0.  1.
        -11    1    4    4    0    0 -0.83263637213E-03  0.33502891943E-01  0.27893134590E-01  0.43605333735E-01  0.51100000000E-03 0.  1.
         11    1    4    4    0    0 -0.29920980795E-01  0.61773877007E-01  0.55749825667E-01  0.88428395639E-01  0.51100000000E-03 0. -1.
</event>
<event>
 8    1  0.1148488E+005  0.1043930E+01  0.7957747E-01            NaN
         13   -1    0    0    0    0  0.00000000000E+00  0.00000000000E+00  0.74505805969E-08  0.10566000000E+00  0.10566000000E+00 0.  1.
     999900   -1    0    0    0    0 -0.00000000000E+00 -0.00000000000E+00 -0.74505805969E-08  0.93827000000E+00  0.93827000000E+00 0.  1.
     999902    2    1    2    0    0 -0.25511179686E-01  0.28919683392E-03 -0.26082946869E-02  0.10182841987E+01  0.10179611988E+01 0.  0.
     999903    2    3    3    0    0 -0.48718747745E-01 -0.95134800538E-01  0.70721249233E-01  0.12979021869E+00  0.20490464073E-01 0.  0.
         14    1    1    2    0    0  0.25511179686E-01 -0.28919683392E-03  0.26082946869E-02  0.25645801312E-01  0.00000000000E+00 0. -1.
     999901    1    3    3    0    0  0.23207568060E-01  0.95423997372E-01 -0.73329543920E-01  0.88849398000E+00  0.88000000000E+00 0.  1.
        -11    1    4    4    0    0 -0.11462076267E-01 -0.44515285339E-01  0.30537777406E-01  0.55188828499E-01  0.51100000000E-03 0.  1.
         11    1    4    4    0    0 -0.37256671478E-01 -0.50619515199E-01  0.40183471828E-01  0.74601390186E-01  0.51100000000E-03 0. -1.
</event>
<event>
 8    1  0.1148488E+005  0.1043930E+01  0.7957747E-01            NaN
         13   -1    0    0    0    0  0.00000000000E+00  0.00000000000E+00  0.74505805969E-08  0.10566000000E+00  0.10566000000E+00 0. -1.
     999900   -1    0    0    0    0 -0.00000000000E+00 -0.00000000000E+00 -0.74505805969E-08  0.93827000000E+00  0.93827000000E+00 0. -1.
     999902    2    1    2    0    0  0.38361523257E-02  0.23633978428E-01  0.42211683925E-02  0.10196174669E+01  0.10193275625E+01 0.  0.
     999903    2    3    3    0    0  0.39365721869E-01  0.40461344369E-03 -0.12184928942E+00  0.12961987479E+00  0.20105691704E-01 0.  0.
         14    1    1    2    0    0 -0.38361523257E-02 -0.23633978428E-01 -0.42211683925E-02  0.24312533056E-01  0.00000000000E+00 0.  1.
     999901    1    3    3    0    0 -0.35529569543E-01  0.23229364985E-01  0.12607045781E+00  0.88999759215E+00  0.88000000000E+00 0.  1.
        -11    1    4    4    0    0  0.12048865062E-01  0.59050350048E-02 -0.64175899276E-01  0.65565629384E-01  0.51100000000E-03 0.  1.
         11    1    4    4    0    0  0.27316856806E-01 -0.55004215611E-02 -0.57673390140E-01  0.64054245405E-01  0.51100000000E-03 0. -1.
</event>
<event>
 8    1  0.1148488E+005  0.1043930E+01  0.7957747E-01            NaN
         13   -1    0    0    0    0  0.00000000000E+00  0.00000000000E+00  0.74505805969E-08  0.10566000000E+00  0.10566000000E+00 0. -1.
     999900   -1    0    0    0    0 -0.00000000000E+00 -0.00000000000E+00 -0.74505805969E-08  0.93827000000E+00  0.93827000000E+00 0. -1.
     999902    2    1    2    0    0  0.17333794631E-01 -0.21028441106E-02 -0.15843529607E-01  0.10203524721E+01  0.10200800300E+01 0.  0.
     999903    2    3    3    0    0  0.97761191115E-01 -0.80244759250E-01  0.31349489367E-01  0.13198210678E+00  0.20976514278E-01 0.  0.
         14    1    1    2    0    0 -0.17333794631E-01  0.21028441106E-02  0.15843529607E-01  0.23577527861E-01  0.00000000000E+00 0. -1.
     999901    1    3    3    0    0 -0.80427396485E-01  0.78141915139E-01 -0.47193018974E-01  0.88837036536E+00  0.88000000000E+00 0. -1.
        -11    1    4    4    0    0  0.56500254648E-01 -0.36598233046E-01  0.23997943055E-01  0.71469376863E-01  0.51100000000E-03 0. -1.
         11    1    4    4    0    0  0.41260936468E-01 -0.43646526204E-01  0.73515463121E-02  0.60512729917E-01  0.51100000000E-03 0.  1.
</event>
<event>
 8    1  0.1148488E+005  0.1043930E+01  0.7957747E-01            NaN
         13   -1    0    0    0    0  0.00000000000E+00  0.00000000000E+00  0.74505805969E-08  0.10566000000E+00  0.10566000000E+00 0. -1.
     999900   -1    0    0    0    0 -0.00000000000E+00 -0.00000000000E+00 -0.74505805969E-08  0.93827000000E+00  0.93827000000E+00 0.  1.
     999902    2    1    2    0    0 -0.17479455972E-01  0.38811529988E-02 -0.16480162386E-01  0.10195950358E+01  0.10193045897E+01 0.  0.
     999903    2    3    3    0    0  0.52746821038E-01  0.41466221680E-01  0.10641505393E+00  0.12749212608E+00  0.20697918704E-01 0.  0.
         14    1    1    2    0    0  0.17479455972E-01 -0.38811529988E-02  0.16480162386E-01  0.24334964186E-01  0.00000000000E+00 0.  1.
     999901    1    3    3    0    0 -0.70226277010E-01 -0.37585068682E-01 -0.12289521631E+00  0.89210290974E+00  0.88000000000E+00 0.  1.
        -11    1    4    4    0    0  0.89064514164E-02  0.84626422638E-02  0.75824797677E-02  0.14446325185E-01  0.51100000000E-03 0.  1.
         11    1    4    4    0    0  0.43840369621E-01  0.33003579417E-01  0.98832574160E-01  0.11304580089E+00  0.51100000000E-03 0. -1.
</event>
<event>
 8    1  0.1148488E+005  0.1043930E+01  0.7957747E-01            NaN
         13   -1    0    0    0    0  0.00000000000E+00  0.00000000000E+00  0.74505805969E-08  0.10566000000E+00  0.10566000000E+00 0. -1.
     999900   -1    0    0    0    0 -0.00000000000E+00 -0.00000000000E+00 -0.74505805969E-08  0.93827000000E+00  0.93827000000E+00 0. -1.
     999902    2    1    2    0    0  0.10530187182E-01 -0.16670285585E-01  0.13389788915E-01  0.10200957870E+01  0.10198173096E+01 0.  0.
     999903    2    3    3    0    0 -0.74835548341E-01  0.53798571723E-01 -0.85802838058E-01  0.12763158831E+00  0.20809846228E-01 0.  0.
         14    1    1    2    0    0 -0.10530187182E-01  0.16670285585E-01 -0.13389788915E-01  0.23834213029E-01  0.00000000000E+00 0.  1.
     999901    1    3    3    0    0  0.85365735522E-01 -0.70468857307E-01  0.99192626972E-01  0.89246419866E+00  0.88000000000E+00 0.  1.
        -11    1    4    4    0    0 -0.11381850131E-01  0.11245152012E-01 -0.26310950648E-01  0.30798168796E-01  0.51100000000E-03 0. -1.
         11    1    4    4    0    0 -0.63453698210E-01  0.42553419710E-01 -0.59491887410E-01  0.96833419511E-01  0.51100000000E-03 0.  1.
</event>
<event>
 8    1  0.1148488E+005  0.1043930E+01  0.7957747E-01            NaN
         13   -1    0    0    0    0  0.00000000000E+00  0.00000000000E+00  0.74505805969E-08  0.10566000000E+00  0.10566000000E+00 0. -1.
     999900   -1    0    0    0    0 -0.00000000000E+00 -0.00000000000E+00 -0.74505805969E-08  0.93827000000E+00  0.93827000000E+00 0. -1.
     999902    2    1    2    0    0  0.20014675471E-01 -0.11034548274E-01  0.48732132875E-02  0.10205612881E+01  0.10202937058E+01 0.  0.
     999903    2    3    3    0    0 -0.57179275838E-01  0.23994182454E-01  0.11249670193E+00  0.12996107843E+00  0.19727736424E-01 0.  0.
         14    1    1    2    0    0 -0.20014675471E-01  0.11034548274E-01 -0.48732132875E-02  0.23368711937E-01  0.00000000000E+00 0.  1.
     999901    1    3    3    0    0  0.77193951309E-01 -0.35028730729E-01 -0.10762348864E+00  0.89060020964E+00  0.88000000000E+00 0. -1.
        -11    1    4    4    0    0 -0.43604117616E-01  0.87081606488E-02  0.72810453927E-01  0.85315733936E-01  0.51100000000E-03 0.  1.
         11    1    4    4    0    0 -0.13575158222E-01  0.15286021806E-01  0.39686248002E-01  0.44645344492E-01  0.51100000000E-03 0. -1.
</event>
<event>
 8    1  0.1339443E+005  0.1043930E+01  0.7957747E-01            NaN
         13   -1    0    0    0    0  0.00000000000E+00  0.00000000000E+00  0.74505805969E-08  0.10566000000E+00  0.10566000000E+00 0. -1.
     999900   -1    0    0    0    0 -0.00000000000E+00 -0.00000000000E+00 -0.74505805969E-08  0.93827000000E+00  0.93827000000E+00 0. -1.
     999902    2    1    2    0    0 -0.12650270262E-02 -0.12751026827E-02 -0.24100627858E-01  0.10197625334E+01  0.10194761194E+01 0.  0.
     999903    2    3    3    0    0 -0.62515507639E-01  0.11088870205E+00  0.15452323716E-01  0.12965199167E+00  0.19140838476E-01 0.  0.
         14    1    1    2    0    0  0.12650270262E-02  0.12751026827E-02  0.24100627858E-01  0.24167466631E-01  0.00000000000E+00 0. -1.
     999901    1    3    3    0    0  0.61250480613E-01 -0.11216380473E+00 -0.39552951574E-01  0.89011054170E+00  0.88000000000E+00 0.  1.
        -11    1    4    4    0    0 -0.44703398829E-01  0.60165097830E-01  0.82562914555E-02  0.75409948504E-01  0.51100000000E-03 0. -1.
         11    1    4    4    0    0 -0.17812108810E-01  0.50723604220E-01  0.71960322605E-02  0.54242043165E-01  0.51100000000E-03 0.  1.
</event>
<event>
 8    1  0.1148488E+005  0.1043930E+01  0.7957747E-01            NaN
         13   -1    0    0    0    0  0.00000000000E+00  0.00000000000E+00  0.74505805969E-08  0.10566000000E+00  0.10566000000E+00 0. -1.
     999900   -1    0    0    0    0 -0.00000000000E+00 -0.00000000000E+00 -0.74505805969E-08  0.93827000000E+00  0.93827000000E+00 0.  1.
     999902    2    1    2    0    0  0.14162166948E-01  0.16974554454E-01  0.81307235229E-02  0.10203755708E+01  0.10201036684E+01 0.  0.
     999903    2    3    3    0    0  0.43333126632E-02  0.13247691775E-01  0.12924227226E+00  0.13201837733E+00  0.23043612566E-01 0.  0.
         14    1    1    2    0    0 -0.14162166948E-01 -0.16974554454E-01 -0.81307235229E-02  0.23554429235E-01  0.00000000000E+00 0.  1.
     999901    1    3    3    0    0  0.98288542850E-02  0.37268626796E-02 -0.12111154873E+00  0.88835719343E+00  0.88000000000E+00 0.  1.
        -11    1    4    4    0    0 -0.78850622615E-02  0.41385763285E-02  0.79298456139E-01  0.79798548157E-01  0.51100000000E-03 0. -1.
         11    1    4    4    0    0  0.12218374925E-01  0.91091154463E-02  0.49943816118E-01  0.52219829178E-01  0.51100000000E-03 0.  1.
</event>
<event>
 8    1  0.1148488E+005  0.1043930E+01  0.7957747E-01            NaN
         13   -1    0    0    0    0  0.00000000000E+00  0.00000000000E+00  0.74505805969E-08  0.10566000000E+00  0.10566000000E+00 0. -1.
     999900   -1    0    0    0    0 -0.00000000000E+00 -0.00000000000E+00 -0.74505805969E-08  0.93827000000E+00  0.93827000000E+00 0.  1.
     999902    2    1    2    0    0 -0.61558769931E-02  0.32318753771E-02 -0.22901671243E-01  0.10199962083E+01  0.10197153713E+01 0.  0.
     999903    2    3    3    0    0  0.58878843946E-01 -0.94024616204E-01  0.60776988201E-01  0.12831775832E+00  0.21546649159E-01 0.  0.
         14    1    1    2    0    0  0.61558769931E-02 -0.32318753771E-02  0.22901671243E-01  0.23933791712E-01  0.00000000000E+00 0. -1.
     999901    1    3    3    0    0 -0.65034720939E-01  0.97256491581E-01 -0.83678659444E-01  0.89167844996E+00  0.88000000000E+00 0.  1.
        -11    1    4    4    0    0  0.38667734506E-01 -0.53188417485E-01  0.46594483928E-01  0.80594717569E-01  0.51100000000E-03 0. -1.
         11    1    4    4    0    0  0.20211109439E-01 -0.40836198718E-01  0.14182504273E-01  0.47723040756E-01  0.51100000000E-03 0.  1.
</event>
<event>
 8    1  0.1148488E+005  0.1043930E+01  0.7957747E-01            NaN
         13   -1    0    0    0    0  0.00000000000E+00  0.00000000000E+00  0.74505805969E-08  0.10566000000E+00  0.10566000000E+00 0.  1.
     999900   -1    0    0    0    0 -0.00000000000E+00 -0.00000000000E+00 -0.74505805969E-08  0.93827000000E+00  0.93827000000E+00 0.  1.
     999902    2    1    2    0    0 -0.32329700782E-02 -0.17112037536E-01  0.15008851814E-01  0.10209400118E+01  0.10206811295E+01 0.  0.
     999903    2    3    3    0    0 -0.39004081455E-01  0.13722967898E-01 -0.12072653620E+00  0.12928174457E+00  0.20717980564E-01 0.  0.
         14    1    1    2    0    0  0.32329700782E-02  0.17112037536E-01 -0.15008851814E-01  0.22989988190E-01  0.00000000000E+00 0. -1.
     999901    1    3    3    0    0  0.35771111377E-01 -0.30835005434E-01  0.13573538802E+00  0.89165826724E+00  0.88000000000E+00 0. -1.
        -11    1    4    4    0    0 -0.25544291238E-01  0.87747020510E-02 -0.47340017742E-01  0.54505454881E-01  0.51100000000E-03 0. -1.
         11    1    4    4    0    0 -0.13459790217E-01  0.49482658468E-02 -0.73386518461E-01  0.74776289694E-01  0.51100000000E-03 0.  1.
</event>
<event>
 7    1  0.1148488E+005  0.1043930E+01  0.7957747E-01            NaN
         13   -1    0    0    0    0  0.00000000000E+00  0.00000000000E+00  0.74505805969E-08  0.10566000000E+00  0.10566000000E+00 0.  1.
     999900   -1    0    0    0    0 -0.00000000000E+00 -0.00000000000E+00 -0.74505805969E-08  0.93827000000E+00  0.93827000000E+00 0. -1.
     999903    2    1    2    0    0  0.42414877292E-01 -0.32579362025E-01  0.10400083873E+00  0.11882938429E+00  0.21066833371E-01 0.  0.
         14    1    1    2    0    0  0.16517931702E-01  0.24038067520E-01 -0.26980240935E-01  0.39731651850E-01  0.00000000000E+00 0. -1.
     999901    1    1    2    0    0 -0.58932808994E-01  0.85412945054E-02 -0.77020597793E-01  0.88536896386E+00  0.88000000000E+00 0.  1.
        -11    1    3    3    0    0  0.19916661093E-01 -0.92077811701E-02  0.61909219440E-01  0.65684619173E-01  0.51100000000E-03 0.  1.
         11    1    3    3    0    0  0.22498216199E-01 -0.23371580855E-01  0.42091619287E-01  0.53144765114E-01  0.51100000000E-03 0. -1.
</event>
<event>
 8    1  0.1148488E+005  0.1043930E+01  0.7957747E-01            NaN
         13   -1    0    0    0    0  0.00000000000E+00  0.00000000000E+00  0.74505805969E-08  0.10566000000E+00  0.10566000000E+00 0.  1.
     999900   -1    0    0    0    0 -0.00000000000E+00 -0.00000000000E+00 -0.74505805969E-08  0.93827000000E+00  0.93827000000E+00 0. -1.
     999902    2    1    2    0    0  0.10044441155E-01  0.21775546240E-01  0.40909360983E-02  0.10196030403E+01  0.10193127875E+01 0.  0.
     999903    2    3    3    0    0 -0.40682699571E-02 -0.74245576385E-01 -0.10259178578E+00  0.12786292803E+00  0.17172577617E-01 0.  0.
         14    1    1    2    0    0 -0.10044441155E-01 -0.21775546240E-01 -0.40909360983E-02  0.24326959743E-01  0.00000000000E+00 0. -1.
     999901    1    3    3    0    0  0.14112711112E-01  0.96021122626E-01  0.10668272188E+00  0.89174011223E+00  0.88000000000E+00 0.  1.
        -11    1    4    4    0    0  0.13793221522E-02 -0.27336061863E-01 -0.51249767284E-01  0.58103034133E-01  0.51100000000E-03 0.  1.
         11    1    4    4    0    0 -0.54475921093E-02 -0.46909514522E-01 -0.51342018496E-01  0.69759893898E-01  0.51100000000E-03 0. -1.
</event>
<event>
 8    1  0.1148488E+005  0.1043930E+01  0.7957747E-01            NaN
         13   -1    0    0    0    0  0.00000000000E+00  0.00000000000E+00  0.74505805969E-08  0.10566000000E+00  0.10566000000E+00 0. -1.
     999900   -1    0    0    0    0 -0.00000000000E+00 -0.00000000000E+00 -0.74505805969E-08  0.93827000000E+00  0.93827000000E+00 0.  1.
     999902    2    1    2    0    0 -0.39473012445E-02 -0.17422581403E-01 -0.15388937305E-01  0.10203514733E+01  0.10200790078E+01 0.  0.
     999903    2    3    3    0    0  0.42520665379E-01  0.86326966266E-01 -0.85521361995E-01  0.13027181532E+00  0.19912067193E-01 0.  0.
         14    1    1    2    0    0  0.39473012445E-02  0.17422581403E-01  0.15388937305E-01  0.23578526698E-01  0.00000000000E+00 0. -1.
     999901    1    3    3    0    0 -0.46467966623E-01 -0.10374954767E+00  0.70132424690E-01  0.89007965798E+00  0.88000000000E+00 0.  1.
        -11    1    4    4    0    0  0.22607830575E-02  0.20669371212E-01 -0.23519056180E-01  0.31396515267E-01  0.51100000000E-03 0.  1.
         11    1    4    4    0    0  0.40259882321E-01  0.65657595055E-01 -0.62002305815E-01  0.98875300051E-01  0.51100000000E-03 0. -1.
</event>
<event>
 8    1  0.1148488E+005  0.1043930E+01  0.7957747E-01            NaN
         13   -1    0    0    0    0  0.00000000000E+00  0.00000000000E+00  0.74505805969E-08  0.10566000000E+00  0.10566000000E+00 0.  1.
     999900   -1    0    0    0    0 -0.00000000000E+00 -0.00000000000E+00 -0.74505805969E-08  0.93827000000E+00  0.93827000000E+00 0.  1.
     999902    2    1    2    0    0  0.10138678715E-01 -0.22680918687E-01  0.46465392516E-02  0.10186553644E+01  0.10183417620E+01 0.  0.
     999903    2    3    3    0    0  0.47907238971E-01 -0.53997354407E-01  0.10767189854E+00  0.13128767963E+00  0.20794212136E-01 0.  0.
         14    1    1    2    0    0 -0.10138678715E-01  0.22680918687E-01 -0.46465392516E-02  0.25274635617E-01  0.00000000000E+00 0.  1.
     999901    1    3    3    0    0 -0.37768560256E-01  0.31316435720E-01 -0.10302535929E+00  0.88736768475E+00  0.88000000000E+00 0.  1.
        -11    1    4    4    0    0  0.19558481104E-01 -0.15484089461E-01  0.22451920808E-01  0.33565474501E-01  0.51100000000E-03 0.  1.
         11    1    4    4    0    0  0.28348757868E-01 -0.38513264946E-01  0.85219977731E-01  0.97722205127E-01  0.51100000000E-03 0. -1.
</event>
<event>
 8    1  0.1148488E+005  0.1043930E+01  0.7957747E-01            NaN
         13   -1    0    0    0    0  0.00000000000E+00  0.00000000000E+00  0.74505805969E-08  0.10566000000E+00  0.10566000000E+00 0.  1.
     999900   -1    0    0    0    0 -0.00000000000E+00 -0.00000000000E+00 -0.74505805969E-08  0.93827000000E+00  0.93827000000E+00 0. -1.
     999902    2    1    2    0    0  0.15436534412E-01  0.17384727157E-01  0.43614018404E-02  0.10202754622E+01  0.10200012165E+01 0.  0.
     999903    2    3    3    0    0 -0.11488796157E+00  0.87350472396E-02  0.54913066311E-01  0.12920040250E+00  0.20043811770E-01 0.  0.
         14    1    1    2    0    0 -0.15436534412E-01 -0.17384727157E-01 -0.43614018404E-02  0.23654537810E-01  0.00000000000E+00 0. -1.
     999901    1    3    3    0    0  0.13032449599E+00  0.86496799176E-02 -0.50551664471E-01  0.89107505969E+00  0.88000000000E+00 0. -1.
        -11    1    4    4    0    0 -0.10381981461E+00  0.13490146097E-01  0.46868949361E-01  0.11470613533E+00  0.51100000000E-03 0. -1.
         11    1    4    4    0    0 -0.11068146968E-01 -0.47550988569E-02  0.80441169497E-02  0.14494267175E-01  0.51100000000E-03 0.  1.
</event>
<event>
 7    1  0.1148488E+005  0.1043930E+01  0.7957747E-01            NaN
         13   -1    0    0    0    0  0.00000000000E+00  0.00000000000E+00  0.74505805969E-08  0.10566000000E+00  0.10566000000E+00 0. -1.
     999900   -1    0    0    0    0 -0.00000000000E+00 -0.00000000000E+00 -0.74505805969E-08  0.93827000000E+00  0.93827000000E+00 0.  1.
     999902    2    1    2    0    0 -0.64445312227E-02 -0.15904903278E-01 -0.16846499396E-01  0.10198820797E+01  0.10195985259E+01 0.  0.
         14    1    1    2    0    0  0.64445312227E-02  0.15904903278E-01  0.16846499396E-01  0.24047920344E-01  0.00000000000E+00 0. -1.
     999901    1    3    3    0    0 -0.52772942728E-01  0.10728897380E+00 -0.11940773128E-01  0.88816580065E+00  0.88000000000E+00 0. -1.
        -11    1    3    3    0    0  0.22731658678E-01 -0.61068777453E-01 -0.19749926828E-02  0.65194214490E-01  0.51100000000E-03 0. -1.
         11    1    3    3    0    0  0.23596752828E-01 -0.62125099621E-01 -0.29307335847E-02  0.66522064515E-01  0.51100000000E-03 0.  1.
</event>
<event>
 8    1  0.1148488E+005  0.1043930E+01  0.7957747E-01            NaN
         13   -1    0    0    0    0  0.00000000000E+00  0.00000000000E+00  0.74505805969E-08  0.10566000000E+00  0.10566000000E+00 0.  1.
     999900   -1    0    0    0    0 -0.00000000000E+00 -0.00000000000E+00 -0.74505805969E-08  0.93827000000E+00  0.93827000000E+00 0.  1.
     999902    2    1    2    0    0 -0.53044712919E-02  0.23412861080E-01  0.80572601627E-02  0.10186076991E+01  0.10182928979E+01 0.  0.
     999903    2    3    3    0    0  0.10135100285E+00  0.77732594239E-01  0.16903671298E-01  0.13046115573E+00  0.20493829917E-01 0.  0.
         14    1    1    2    0    0  0.53044712919E-02 -0.23412861080E-01 -0.80572601627E-02  0.25322300863E-01  0.00000000000E+00 0. -1.
     999901    1    3    3    0    0 -0.10665547415E+00 -0.54319733159E-01 -0.88464111349E-02  0.88814654341E+00  0.88000000000E+00 0. -1.
        -11    1    4    4    0    0  0.67352940867E-01  0.43541356952E-01  0.18125403857E-01  0.82225663845E-01  0.51100000000E-03 0.  1.
         11    1    4    4    0    0  0.33998061986E-01  0.34191237287E-01 -0.12217325595E-02  0.48235491886E-01  0.51100000000E-03 0. -1.
</event>
<event>
 8    1  0.1148488E+005  0.1043930E+01  0.7957747E-01            NaN
         13   -1    0    0    0    0  0.00000000000E+00  0.00000000000E+00  0.74505805969E-08  0.10566000000E+00  0.10566000000E+00 0. -1.
     999900   -1    0    0    0    0 -0.00000000000E+00 -0.00000000000E+00 -0.74505805969E-08  0.93827000000E+00  0.93827000000E+00 0. -1.
     999902    2    1    2    0    0  0.17500451022E-01  0.46583926517E-02  0.75693370891E-02  0.10243019264E+01  0.10241138488E+01 0.  0.
     999903    2    3    3    0    0 -0.85343437776E-01 -0.79406648593E-01  0.60640447935E-01  0.13275252262E+00  0.18895770026E-01 0.  0.
         14    1    1    2    0    0 -0.17500451022E-01 -0.46583926517E-02 -0.75693370891E-02  0.19628073570E-01  0.00000000000E+00 0.  1.
     999901    1    3    3    0    0  0.10284388880E+00  0.84065041244E-01 -0.53071110846E-01  0.89154940381E+00  0.88000000000E+00 0. -1.
        -11    1    4    4    0    0 -0.69375879296E-01 -0.69625553394E-01  0.43971523691E-01  0.10767769653E+00  0.51100000000E-03 0. -1.
         11    1    4    4    0    0 -0.15967558480E-01 -0.97810951992E-02  0.16668924244E-01  0.25074826092E-01  0.51100000000E-03 0.  1.
</event>
<event>
 8    1  0.1148488E+005  0.1043930E+01  0.7957747E-01            NaN
         13   -1    0    0    0    0  0.00000000000E+00  0.00000000000E+00  0.74505805969E-08  0.10566000000E+00  0.10566000000E+00 0.  1.
     999900   -1    0    0    0    0 -0.00000000000E+00 -0.00000000000E+00 -0.74505805969E-08  0.93827000000E+00  0.93827000000E+00 0.  1.
     999902    2    1    2    0    0  0.24661492379E-02  0.11827976497E-01 -0.19389937639E-01  0.10210837180E+01  0.10208280984E+01 0.  0.
     999903    2    3    3    0    0 -0.23666810986E-01 -0.11529644683E+00 -0.55175465936E-01  0.13084546075E+00  0.14926954301E-01 0.  0.
         14    1    1    2    0    0 -0.24661492379E-02 -0.11827976497E-01  0.19389937639E-01  0.22846282011E-01  0.00000000000E+00 0.  1.
     999901    1    3    3    0    0  0.26132960224E-01  0.12712442332E+00  0.35785528297E-01  0.89023825724E+00  0.88000000000E+00 0. -1.
        -11    1    4    4    0    0 -0.64089635438E-02 -0.53234869012E-01 -0.18529459834E-01  0.56732954226E-01  0.51100000000E-03 0.  1.
         11    1    4    4    0    0 -0.17257847443E-01 -0.62061577815E-01 -0.36646006102E-01  0.74112506525E-01  0.51100000000E-03 0. -1.
</event>
<event>
 8    1  0.1148488E+005  0.1043930E+01  0.7957747E-01            NaN
         13   -1    0    0    0    0  0.00000000000E+00  0.00000000000E+00  0.74505805969E-08  0.10566000000E+00  0.10566000000E+00 0. -1.
     999900   -1    0    0    0    0 -0.00000000000E+00 -0.00000000000E+00 -0.74505805969E-08  0.93827000000E+00  0.93827000000E+00 0.  1.
     999902    2    1    2    0    0 -0.35906263645E-02  0.19549879307E-01 -0.13419040446E-01  0.10199474850E+01  0.10196654898E+01 0.  0.
     999903    2    3    3    0    0 -0.37571704668E-01  0.12264322052E+00  0.26111374837E-01  0.13239714592E+00  0.19854667510E-01 0.  0.
         14    1    1    2    0    0  0.35906263645E-02 -0.19549879307E-01  0.13419040446E-01  0.23982514987E-01  0.00000000000E+00 0. -1.
     999901    1    3    3    0    0  0.33981078304E-01 -0.10309334121E+00 -0.39530415284E-01  0.88755033909E+00  0.88000000000E+00 0. -1.
        -11    1    4    4    0    0 -0.14460914801E-01  0.79929469660E-01  0.16215389626E-01  0.82831383900E-01  0.51100000000E-03 0. -1.
         11    1    4    4    0    0 -0.23110789867E-01  0.42713750859E-01  0.98959852112E-02  0.49565762024E-01  0.51100000000E-03 0.  1.
</event>
<event>
 8    1  0.1148488E+005  0.1043930E+01  0.7957747E-01            NaN
         13   -1    0    0    0    0  0.00000000000E+00  0.00000000000E+00  0.74505805969E-08  0.10566000000E+00  0.10566000000E+00 0.  1.
     999900   -1    0    0    0    0 -0.00000000000E+00 -0.00000000000E+00 -0.74505805969E-08  0.93827000000E+00  0.93827000000E+00 0.  1.
     999902    2    1    2    0    0  0.22710660994E-01 -0.29046841160E-02 -0.69426121406E-02  0.10200048840E+01  0.10197242530E+01 0.  0.
     999903    2    3    3    0    0 -0.87985924823E-01 -0.52617080579E-01  0.73836788683E-01  0.12801252524E+00  0.20621714770E-01 0.  0.
         14    1    1    2    0    0 -0.22710660994E-01  0.29046841160E-02  0.69426121406E-02  0.23925116007E-01  0.00000000000E+00 0. -1.
     999901    1    3    3    0    0  0.11069658582E+00  0.49712396463E-01 -0.80779400823E-01  0.89199235875E+00  0.88000000000E+00 0.  1.
        -11    1    4    4    0    0 -0.18047554966E-01 -0.86298158050E-02  0.53991249716E-02  0.20726785388E-01  0.51100000000E-03 0.  1.
         11    1    4    4    0    0 -0.69938369857E-01 -0.43987264774E-01  0.68437663711E-01  0.10728573985E+00  0.51100000000E-03 0. -1.
</event>
<event>
 8    1  0.1148488E+005  0.1043930E+01  0.7957747E-01            NaN
         13   -1    0    0    0    0  0.00000000000E+00  0.00000000000E+00  0.74505805969E-08  0.10566000000E+00  0.10566000000E+00 0. -1.
     999900   -1    0    0    0    0 -0.00000000000E+00 -0.00000000000E+00 -0.74505805969E-08  0.93827000000E+00  0.93827000000E+00 0.  1.
     999902    2    1    2    0    0 -0.54242041211E-02  0.67316685886E-02  0.23337731039E-01  0.10190425123E+01  0.10187385606E+01 0.  0.
     999903    2    3    3    0    0 -0.10041602276E+00 -0.56370403916E-01 -0.53108697185E-01  0.12839703093E+00  0.20106311664E-01 0.  0.
         14    1    1    2    0    0  0.54242041211E-02 -0.67316685886E-02 -0.23337731039E-01  0.24887487667E-01  0.00000000000E+00 0.  1.
     999901    1    3    3    0    0  0.94991818641E-01  0.63102072504E-01  0.76446428224E-01  0.89064548141E+00  0.88000000000E+00 0. -1.
        -11    1    4    4    0    0 -0.64183742950E-01 -0.24749456722E-01 -0.30292685549E-01  0.75166457851E-01  0.51100000000E-03 0. -1.
         11    1    4    4    0    0 -0.36232279812E-01 -0.31620947194E-01 -0.22816011636E-01  0.53230573074E-01  0.51100000000E-03 0.  1.
</event>
<event>
 8    1  0.1148488E+005  0.1043930E+01  0.7957747E-01            NaN
         13   -1    0    0    0    0  0.00000000000E+00  0.00000000000E+00  0.74505805969E-08  0.10566000000E+00  0.10566000000E+00 0. -1.
     999900   -1    0    0    0    0 -0.00000000000E+00 -0.00000000000E+00 -0.74505805969E-08  0.93827000000E+00  0.93827000000E+00 0. -1.
     999902    2    1    2    0    0  0.88980555632E-03 -0.14061963227E-01 -0.12618220482E-01  0.10250157183E+01  0.10248411939E+01 0.  0.
     999903    2    3    3    0    0 -0.76390952888E-01  0.92920362038E-02  0.10713326201E+00  0.13324324594E+00  0.18823048104E-01 0.  0.
         14    1    1    2    0    0 -0.88980555632E-03  0.14061963227E-01  0.12618220482E-01  0.18914281690E-01  0.00000000000E+00 0. -1.
     999901    1    3    3    0    0  0.77280758445E-01 -0.23353999431E-01 -0.11975148249E+00  0.89177247237E+00  0.88000000000E+00 0. -1.
        -11    1    4    4    0    0 -0.60440406821E-01  0.70490485658E-02  0.69929974217E-01  0.92699483695E-01  0.51100000000E-03 0. -1.
         11    1    4    4    0    0 -0.15950546067E-01  0.22429876380E-02  0.37203287794E-01  0.40543762246E-01  0.51100000000E-03 0.  1.
</event>
<event>
 8    1  0.1148488E+005  0.1043930E+01  0.7957747E-01            NaN
         13   -1    0    0    0    0  0.00000000000E+00  0.00000000000E+00  0.74505805969E-08  0.10566000000E+00  0.10566000000E+00 0. -1.
     999900   -1    0    0    0    0 -0.00000000000E+00 -0.00000000000E+00 -0.74505805969E-08  0.93827000000E+00  0.93827000000E+00 0. -1.
     999902    2    1    2    0    0  0.98708591895E-02  0.80537501470E-02 -0.19511117015E-01  0.10206280593E+01  0.10203620215E+01 0.  0.
     999903    2    3    3    0    0  0.70539079946E-01 -0.78098776569E-01  0.73049448668E-01  0.12952180909E+00  0.19091788238E-01 0.  0.
         14    1    1    2    0    0 -0.98708591895E-02 -0.80537501470E-02  0.19511117015E-01  0.23301940686E-01  0.00000000000E+00 0. -1.
     999901    1    3    3    0    0 -0.60668220756E-01  0.86152526716E-01 -0.92560565683E-01  0.89110625022E+00  0.88000000000E+00 0.  1.
        -11    1    4    4    0    0  0.53590492467E-01 -0.53692089718E-01  0.42739168203E-01  0.87072837331E-01  0.51100000000E-03 0.  1.
         11    1    4    4    0    0  0.16948587478E-01 -0.24406686850E-01  0.30310280464E-01  0.42448971759E-01  0.51100000000E-03 0. -1.
</event>
<event>
 8    1  0.1148488E+005  0.1043930E+01  0.7957747E-01            NaN
         13   -1    0    0    0    0  0.00000000000E+00  0.00000000000E+00  0.74505805969E-08  0.10566000000E+00  0.10566000000E+00 0.  1.
     999900   -1    0    0    0    0 -0.00000000000E+00 -0.00000000000E+00 -0.74505805969E-08  0.93827000000E+00  0.93827000000E+00 0.  1.
     999902    2    1    2    0    0 -0.19481322654E-01  0.64922046814E-02 -0.98736737932E-02  0.10211449152E+01  0.10208906787E+01 0.  0.
     999903    2    3    3    0    0  0.28766694477E-01 -0.76622522574E-01 -0.10083030053E+00  0.13125220428E+00  0.19022564175E-01 0.  0.
         14    1    1    2    0    0  0.19481322654E-01 -0.64922046814E-02  0.98736737932E-02  0.22785084774E-01  0.00000000000E+00 0.  1.
     999901    1    3    3    0    0 -0.48248017131E-01  0.83114727256E-01  0.90956626734E-01  0.88989271094E+00  0.88000000000E+00 0. -1.
        -11    1    4    4    0    0  0.17456783061E-01 -0.43308839849E-01 -0.71736850605E-01  0.85596914311E-01  0.51100000000E-03 0. -1.
         11    1    4    4    0    0  0.11309911416E-01 -0.33313682726E-01 -0.29093449922E-01  0.45655289971E-01  0.51100000000E-03 0.  1.
</event>
<event>
 8    1  0.1148488E+005  0.1043930E+01  0.7957747E-01            NaN
         13   -1    0    0    0    0  0.00000000000E+00  0.00000000000E+00  0.74505805969E-08  0.10566000000E+00  0.10566000000E+00 0. -1.
     999900   -1    0    0    0    0 -0.00000000000E+00 -0.00000000000E+00 -0.74505805969E-08  0.93827000000E+00  0.93827000000E+00 0. -1.
     999902    2    1    2    0    0  0.86155059656E-02 -0.10945300301E-01  0.15762097078E-01  0.10228950233E+01  0.10226787171E+01 0.  0.
     999903    2    3    3    0    0  0.87010247320E-01  0.97326727686E-01  0.13808579263E-01  0.13279818374E+00  0.20035111225E-01 0.  0.
         14    1    1    2    0    0 -0.86155059656E-02  0.10945300301E-01 -0.15762097078E-01  0.21034976730E-01  0.00000000000E+00 0.  1.
     999901    1    3    3    0    0 -0.78394741354E-01 -0.10827202799E+00  0.19535178151E-02  0.89009683953E+00  0.88000000000E+00 0.  1.
        -11    1    4    4    0    0  0.66167954838E-01  0.77898686615E-01  0.18637809207E-01  0.10389433419E+00  0.51100000000E-03 0. -1.
         11    1    4    4    0    0  0.20842292482E-01  0.19428041071E-01 -0.48292299443E-02  0.28903849546E-01  0.51100000000E-03 0.  1.
</event>
<event>
 8    1  0.1148488E+005  0.1043930E+01  0.7957747E-01            NaN
         13   -1    0    0    0    0  0.00000000000E+00  0.00000000000E+00  0.74505805969E-08  0.10566000000E+00  0.10566000000E+00 0. -1.
     999900   -1    0    0    0    0 -0.00000000000E+00 -0.00000000000E+00 -0.74505805969E-08  0.93827000000E+00  0.93827000000E+00 0.  1.
     999902    2    1    2    0    0 -0.17824190947E-01 -0.14914875459E-01 -0.46461011129E-02  0.10202289125E+01  0.10199535736E+01 0.  0.
     999903    2    3    3    0    0  0.12516486543E+00 -0.11288092591E-01 -0.17804001701E-01  0.12858315653E+00  0.20566504186E-01 0.  0.
         14    1    1    2    0    0  0.17824190947E-01  0.14914875459E-01  0.46461011129E-02  0.23701087495E-01  0.00000000000E+00 0. -1.
     999901    1    3    3    0    0 -0.14298905638E+00 -0.36267828673E-02  0.13157900588E-01  0.89164575597E+00  0.88000000000E+00 0.  1.
        -11    1    4    4    0    0  0.18762999945E-01 -0.89790902370E-02 -0.48936283830E-02  0.21374820425E-01  0.51100000000E-03 0. -1.
         11    1    4    4    0    0  0.10640186549E+00 -0.23090023545E-02 -0.12910373318E-01  0.10720833611E+00  0.51100000000E-03 0.  1.
</event>
<event>
 8    1  0.1148488E+005  0.1043930E+01  0.7957747E-01            NaN
         13   -1    0    0    0    0  0.00000000000E+00  0.00000000000E+00  0.74505805969E-08  0.10566000000E+00  0.10566000000E+00 0.  1.
     999900   -1    0    0    0    0 -0.00000000000E+00 -0.00000000000E+00 -0.74505805969E-08  0.93827000000E+00  0.93827000000E+00 0.  1.
     999902    2    1    2    0    0  0.99531497320E-02 -0.19854561347E-01  0.74358313126E-02  0.10205086340E+01  0.10202398305E+01 0.  0.
     999903    2    3    3    0    0  0.78490249939E-01 -0.88133078554E-01  0.59406921989E-01  0.13368267351E+00  0.20340008480E-01 0.  0.
         14    1    1    2    0    0 -0.99531497320E-02  0.19854561347E-01 -0.74358313126E-02  0.23421365955E-01  0.00000000000E+00 0.  1.
     999901    1    3    3    0    0 -0.68537100207E-01  0.68278517207E-01 -0.51971090676E-01  0.88682596054E+00  0.88000000000E+00 0. -1.
        -11    1    4    4    0    0  0.57210011647E-01 -0.53017103443E-01  0.45643626806E-01  0.90373671383E-01  0.51100000000E-03 0. -1.
         11    1    4    4    0    0  0.21280238293E-01 -0.35115975111E-01  0.13763295183E-01  0.43309002125E-01  0.51100000000E-03 0.  1.
</event>
<event>
 8    1  0.1148488E+005  0.1043930E+01  0.7957747E-01            NaN
         13   -1    0    0    0    0  0.00000000000E+00  0.00000000000E+00  0.74505805969E-08  0.10566000000E+00  0.10566000000E+00 0. -1.
     999900   -1    0    0    0    0 -0.00000000000E+00 -0.00000000000E+00 -0.74505805969E-08  0.93827000000E+00  0.93827000000E+00 0. -1.
     999902    2    1    2    0    0  0.91914518724E-02  0.13447186481E-01 -0.16622514122E-01  0.10206573210E+01  0.10203919587E+01 0.  0.
     999903    2    3    3    0    0  0.72211769378E-01  0.77757033249E-01  0.74860421728E-01  0.13134497747E+00  0.19665312348E-01 0.  0.
         14    1    1    2    0    0 -0.91914518724E-02 -0.13447186481E-01  0.16622514122E-01  0.23272678993E-01  0.00000000000E+00 0. -1.
     999901    1    3    3    0    0 -0.63020317505E-01 -0.64309846768E-01 -0.91482935850E-01  0.88931234353E+00  0.88000000000E+00 0. -1.
        -11    1    4    4    0    0  0.22524644729E-01  0.25323165882E-01  0.35485608080E-01  0.49072516262E-01  0.51100000000E-03 0. -1.
         11    1    4    4    0    0  0.49687124649E-01  0.52433867367E-01  0.39374813647E-01  0.82272461211E-01  0.51100000000E-03 0.  1.
</event>
<event>
 8    1  0.1148488E+005  0.1043930E+01  0.7957747E-01            NaN
         13   -1    0    0    0    0  0.00000000000E+00  0.00000000000E+00  0.74505805969E-08  0.10566000000E+00  0.10566000000E+00 0.  1.
     999900   -1    0    0    0    0 -0.00000000000E+00 -0.00000000000E+00 -0.74505805969E-08  0.93827000000E+00  0.93827000000E+00 0.  1.
     999902    2    1    2    0    0 -0.55890164653E-02 -0.20084846176E-01  0.43208021313E-02  0.10226389812E+01  0.10224173210E+01 0.  0.
     999903    2    3    3    0    0 -0.51524638730E-01  0.89895591704E-01  0.78376821645E-01  0.13152166448E+00  0.20469886486E-01 0.  0.
         14    1    1    2    0    0  0.55890164653E-02  0.20084846176E-01 -0.43208021313E-02  0.21291018811E-01  0.00000000000E+00 0.  1.
     999901    1    3    3    0    0  0.45935622265E-01 -0.10998043788E+00 -0.74056019514E-01  0.89111731671E+00  0.88000000000E+00 0.  1.
        -11    1    4    4    0    0 -0.41001154428E-01  0.64793965292E-01  0.67670930818E-01  0.10226909896E+00  0.51100000000E-03 0.  1.
         11    1    4    4    0    0 -0.10523484302E-01  0.25101626411E-01  0.10705890827E-01  0.29252565524E-01  0.51100000000E-03 0. -1.
</event>
<event>
 8    1  0.1148488E+005  0.1043930E+01  0.7957747E-01            NaN
         13   -1    0    0    0    0  0.00000000000E+00  0.00000000000E+00  0.74505805969E-08  0.10566000000E+00  0.10566000000E+00 0. -1.
     999900   -1    0    0    0    0 -0.00000000000E+00 -0.00000000000E+00 -0.74505805969E-08  0.93827000000E+00  0.93827000000E+00 0.  1.
     999902    2    1    2    0    0  0.20857935646E-01 -0.12367638456E-01  0.19146338612E-02  0.10196055723E+01  0.10193153807E+01 0.  0.
     999903    2    3    3    0    0  0.48492217484E-01 -0.38982530510E-01 -0.11347248251E+00  0.13124405093E+00  0.21860095539E-01 0.  0.
         14    1    1    2    0    0 -0.20857935646E-01  0.12367638456E-01 -0.19146338612E-02  0.24324427705E-01  0.00000000000E+00 0. -1.
     999901    1    3    3    0    0 -0.27634281838E-01  0.26614892054E-01  0.11538711637E+00  0.88836152136E+00  0.88000000000E+00 0. -1.
        -11    1    4    4    0    0  0.29451402270E-01 -0.12904673812E-01 -0.70515573354E-01  0.77502405822E-01  0.51100000000E-03 0. -1.
         11    1    4    4    0    0  0.19040815214E-01 -0.26077856698E-01 -0.42956909156E-01  0.53741645111E-01  0.51100000000E-03 0.  1.
</event>
<event>
 8    1  0.1148488E+005  0.1043930E+01  0.7957747E-01            NaN
         13   -1    0    0    0    0  0.00000000000E+00  0.00000000000E+00  0.74505805969E-08  0.10566000000E+00  0.10566000000E+00 0.  1.
     999900   -1    0    0    0    0 -0.00000000000E+00 -0.00000000000E+00 -0.74505805969E-08  0.93827000000E+00  0.93827000000E+00 0.  1.
     999902    2    1    2    0    0 -0.75923211523E-02 -0.21106628721E-01 -0.82728271930E-02  0.10200224115E+01  0.10197421965E+01 0.  0.
     999903    2    3    3    0    0 -0.41543123832E-01  0.13284715550E-01  0.12139695723E+00  0.12920835992E+00  0.74339924178E-02 0.  0.
         14    1    1    2    0    0  0.75923211523E-02  0.21106628721E-01  0.82728271930E-02  0.23907588465E-01  0.00000000000E+00 0.  1.
     999901    1    3    3    0    0  0.33950802680E-01 -0.34391344271E-01 -0.12966978442E+00  0.89081405162E+00  0.88000000000E+00 0.  1.
        -11    1    4    4    0    0 -0.89289556572E-02  0.12104147908E-03  0.28738729212E-01  0.30098448098E-01  0.51100000000E-03 0. -1.
         11    1    4    4    0    0 -0.32614168175E-01  0.13163674071E-01  0.92658228018E-01  0.99109911822E-01  0.51100000000E-03 0.  1.
</event>
<event>
 8    1  0.1148488E+005  0.1043930E+01  0.7957747E-01            NaN
         13   -1    0    0    0    0  0.00000000000E+00  0.00000000000E+00  0.74505805969E-08  0.10566000000E+00  0.10566000000E+00 0.  1.
     999900   -1    0    0    0    0 -0.00000000000E+00 -0.00000000000E+00 -0.74505805969E-08  0.93827000000E+00  0.93827000000E+00 0.  1.
     999902    2    1    2    0    0  0.10803678268E-01  0.14409903582E-02 -0.21750454992E-01  0.10196014528E+01  0.10193111617E+01 0.  0.
     999903    2    3    3    0    0 -0.88005133138E-01 -0.65566579559E-01  0.61876529409E-01  0.12761116799E+00  0.20298411059E-01 0.  0.
         14    1    1    2    0    0 -0.10803678268E-01 -0.14409903582E-02  0.21750454992E-01  0.24328547217E-01  0.00000000000E+00 0.  1.
     999901    1    3    3    0    0  0.98808811406E-01  0.67007569917E-01 -0.83626984401E-01  0.89199028479E+00  0.88000000000E+00 0.  1.
        -11    1    4    4    0    0 -0.26367471104E-01 -0.30562614939E-01  0.27379994529E-01  0.48777476213E-01  0.51100000000E-03 0. -1.
         11    1    4    4    0    0 -0.61637662034E-01 -0.35003964620E-01  0.34496534880E-01  0.78833691781E-01  0.51100000000E-03 0.  1.
</event>
<event>
 8    1  0.1148488E+005  0.1043930E+01  0.7957747E-01            NaN
         13   -1    0    0    0    0  0.00000000000E+00  0.00000000000E+00  0.74505805969E-08  0.10566000000E+00  0.10566000000E+00 0. -1.
     999900   -1    0    0    0    0 -0.00000000000E+00 -0.00000000000E+00 -0.74505805969E-08  0.93827000000E+00  0.93827000000E+00 0. -1.
     999902    2    1    2    0    0 -0.35821256256E-02  0.24984631936E-01 -0.14171947652E-02  0.10186501286E+01  0.10183363946E+01 0.  0.
     999903    2    3    3    0    0 -0.59579086432E-01 -0.10957274933E+00  0.74974582941E-02  0.12661827967E+00  0.20496876095E-01 0.  0.
         14    1    1    2    0    0  0.35821256256E-02 -0.24984631936E-01  0.14171947652E-02  0.25279871399E-01  0.00000000000E+00 0. -1.
     999901    1    3    3    0    0  0.55996960807E-01  0.13455738126E+00 -0.89146530593E-02  0.89203184893E+00  0.88000000000E+00 0. -1.
        -11    1    4    4    0    0 -0.27189741444E-01 -0.68089014280E-01  0.95919081680E-02  0.73943638866E-01  0.51100000000E-03 0.  1.
         11    1    4    4    0    0 -0.32389344988E-01 -0.41483735048E-01 -0.20944498739E-02  0.52674640801E-01  0.51100000000E-03 0. -1.
</event>
<event>
 8    1  0.1148488E+005  0.1043930E+01  0.7957747E-01            NaN
         13   -1    0    0    0    0  0.00000000000E+00  0.00000000000E+00  0.74505805969E-08  0.10566000000E+00  0.10566000000E+00 0. -1.
     999900   -1    0    0    0    0 -0.00000000000E+00 -0.00000000000E+00 -0.74505805969E-08  0.93827000000E+00  0.93827000000E+00 0.  1.
     999902    2    1    2    0    0  0.22742131966E-01 -0.28869378555E-02  0.61204549944E-02  0.10202024012E+01  0.10199264387E+01 0.  0.
     999903    2    3    3    0    0  0.78084799236E-01 -0.88390957689E-01 -0.55944133056E-01  0.13215636559E+00  0.20624298059E-01 0.  0.
         14    1    1    2    0    0 -0.22742131966E-01  0.28869378555E-02 -0.61204549944E-02  0.23727598822E-01  0.00000000000E+00 0.  1.
     999901    1    3    3    0    0 -0.55342667270E-01  0.85504019833E-01  0.62064588051E-01  0.88804603558E+00  0.88000000000E+00 0. -1.
        -11    1    4    4    0    0  0.26168695840E-01 -0.24108866545E-01 -0.74814886435E-02  0.36363056546E-01  0.51100000000E-03 0. -1.
         11    1    4    4    0    0  0.51916103396E-01 -0.64282091143E-01 -0.48462644413E-01  0.95793309047E-01  0.51100000000E-03 0.  1.
</event>
<event>
 8    1  0.1148488E+005  0.1043930E+01  0.7957747E-01            NaN
         13   -1    0    0    0    0  0.00000000000E+00  0.00000000000E+00  0.74505805969E-08  0.10566000000E+00  0.10566000000E+00 0. -1.
     999900   -1    0    0    0    0 -0.00000000000E+00 -0.00000000000E+00 -0.74505805969E-08  0.93827000000E+00  0.93827000000E+00 0. -1.
     999902    2    1    2    0    0  0.13974600717E-01 -0.14108619787E-01  0.11734428034E-01  0.10208640203E+01  0.10206034041E+01 0.  0.
     999903    2    3    3    0    0 -0.12643583161E+00  0.88055484452E-02 -0.12891554645E-01  0.12909802655E+00  0.20893804848E-01 0.  0.
         14    1    1    2    0    0 -0.13974600717E-01  0.14108619787E-01 -0.11734428034E-01  0.23065979684E-01  0.00000000000E+00 0.  1.
     999901    1    3    3    0    0  0.14041043232E+00 -0.22914168233E-01  0.24625982679E-01  0.89176599376E+00  0.88000000000E+00 0. -1.
        -11    1    4    4    0    0 -0.48667866078E-01 -0.28305753060E-02  0.31070788602E-02  0.48851698079E-01  0.51100000000E-03 0. -1.
         11    1    4    4    0    0 -0.77767965528E-01  0.11636123751E-01 -0.15998633505E-01  0.80246328473E-01  0.51100000000E-03 0.  1.
</event>
<event>
 8    1  0.1148488E+005  0.1043930E+01  0.7957747E-01            NaN
         13   -1    0    0    0    0  0.00000000000E+00  0.00000000000E+00  0.74505805969E-08  0.10566000000E+00  0.10566000000E+00 0. -1.
     999900   -1    0    0    0    0 -0.00000000000E+00 -0.00000000000E+00 -0.74505805969E-08  0.93827000000E+00  0.93827000000E+00 0.  1.
     999902    2    1    2    0    0  0.25574585908E-02 -0.14203241921E-03  0.23300936263E-01  0.10204887031E+01  0.10202194366E+01 0.  0.
     999903    2    3    3    0    0  0.85566759530E-01 -0.67853379475E-01  0.72676788801E-01  0.13261858574E+00  0.19494158371E-01 0.  0.
         14    1    1    2    0    0 -0.25574585908E-02  0.14203241921E-03 -0.23300936263E-01  0.23441296858E-01  0.00000000000E+00 0.  1.
     999901    1    3    3    0    0 -0.83009300939E-01  0.67711347056E-01 -0.49375852538E-01  0.88787011740E+00  0.88000000000E+00 0.  1.
        -11    1    4    4    0    0  0.66366271583E-01 -0.60445510644E-01  0.64160535083E-01  0.11034027888E+00  0.51100000000E-03 0.  1.
         11    1    4    4    0    0  0.19200487947E-01 -0.74078688306E-02  0.85162537180E-02  0.22278306857E-01  0.51100000000E-03 0. -1.
</event>
<event>
 8    1  0.1148488E+005  0.1043930E+01  0.7957747E-01            NaN
         13   -1    0    0    0    0  0.00000000000E+00  0.00000000000E+00  0.74505805969E-08  0.10566000000E+00  0.10566000000E+00 0. -1.
     999900   -1    0    0    0    0 -0.00000000000E+00 -0.00000000000E+00 -0.74505805969E-08  0.93827000000E+00  0.93827000000E+00 0.  1.
     999902    2    1    2    0    0 -0.65823398252E-02  0.21895313975E-01 -0.35496438019E-02  0.10207927585E+01  0.10205305110E+01 0.  0.
     999903    2    3    3    0    0  0.72688860190E-02  0.12986616008E-01  0.12840727166E+00  0.13080183223E+00  0.19980065088E-01 0.  0.
         14    1    1    2    0    0  0.65823398252E-02 -0.21895313975E-01  0.35496438019E-02  0.23137241469E-01  0.00000000000E+00 0. -1.
     999901    1    3    3    0    0 -0.13851225844E-01  0.89086979674E-02 -0.13195691546E+00  0.88999092630E+00  0.88000000000E+00 0.  1.
        -11    1    4    4    0    0  0.13583781060E-01  0.66933317013E-02  0.95929829885E-01  0.97119067025E-01  0.51100000000E-03 0. -1.
         11    1    4    4    0    0 -0.63148950405E-02  0.62932843068E-02  0.32477441775E-01  0.33682765207E-01  0.51100000000E-03 0.  1.
</event>
<event>
 8    1  0.1148488E+005  0.1043930E+01  0.7957747E-01            NaN
         13   -1    0    0    0    0  0.00000000000E+00  0.00000000000E+00  0.74505805969E-08  0.10566000000E+00  0.10566000000E+00 0.  1.
     999900   -1    0    0    0    0 -0.00000000000E+00 -0.00000000000E+00 -0.74505805969E-08  0.93827000000E+00  0.93827000000E+00 0.  1.
     999902    2    1    2    0    0  0.69201481297E-02 -0.13941164554E-01 -0.16452057160E-01  0.10212823797E+01  0.10210312358E+01 0.  0.
     999903    2    3    3    0    0 -0.10845678988E+00  0.58415257422E-01 -0.38589876138E-01  0.13053136364E+00  0.19340133988E-01 0.  0.
         14    1    1    2    0    0 -0.69201481297E-02  0.13941164554E-01  0.16452057160E-01  0.22647620273E-01  0.00000000000E+00 0.  1.
     999901    1    3    3    0    0  0.11537693801E+00 -0.72356421976E-01  0.22137818978E-01  0.89075101608E+00  0.88000000000E+00 0.  1.
        -11    1    4    4    0    0 -0.69945309856E-01  0.28414650641E-01 -0.28370298424E-01  0.80652797197E-01  0.51100000000E-03 0.  1.
         11    1    4    4    0    0 -0.38511480026E-01  0.30000606781E-01 -0.10219577714E-01  0.49878566446E-01  0.51100000000E-03 0. -1.
</event>
<event>
 8    1  0.1148488E+005  0.1043930E+01  0.7957747E-01            NaN
         13   -1    0    0    0    0  0.00000000000E+00  0.00000000000E+00  0.74505805969E-08  0.10566000000E+00  0.10566000000E+00 0.  1.
     999900   -1    0    0    0    0 -0.00000000000E+00 -0.00000000000E+00 -0.74505805969E-08  0.93827000000E+00  0.93827000000E+00 0. -1.
     999902    2    1    2    0    0 -0.16783097153E-01 -0.15599199159E-01  0.11380446111E-01  0.10183463740E+01  0.10180249582E+01 0.  0.
     999903    2    3    3    0    0 -0.92783533441E-01 -0.70687795315E-01 -0.55850258521E-01  0.13080438212E+00  0.19621073398E-01 0.  0.
         14    1    1    2    0    0  0.16783097153E-01  0.15599199159E-01 -0.11380446111E-01  0.25583625977E-01  0.00000000000E+00 0. -1.
     999901    1    3    3    0    0  0.76000436288E-01  0.55088596156E-01  0.67230704632E-01  0.88754199190E+00  0.88000000000E+00 0.  1.
        -11    1    4    4    0    0 -0.87159133980E-01 -0.59057069171E-01 -0.51104488286E-01  0.11703154233E+00  0.51100000000E-03 0. -1.
         11    1    4    4    0    0 -0.56243994602E-02 -0.11630726144E-01 -0.47457702354E-02  0.13772839796E-01  0.51100000000E-03 0.  1.
</event>
<event>
 8    1  0.1148488E+005  0.1043930E+01  0.7957747E-01            NaN
         13   -1    0    0    0    0  0.00000000000E+00  0.00000000000E+00  0.74505805969E-08  0.10566000000E+00  0.10566000000E+00 0. -1.
     999900   -1    0    0    0    0 -0.00000000000E+00 -0.00000000000E+00 -0.74505805969E-08  0.93827000000E+00  0.93827000000E+00 0.  1.
     999902    2    1    2    0    0 -0.88927844532E-02 -0.11853446371E-01  0.20286458833E-01  0.10188077744E+01  0.10184979897E+01 0.  0.
     999903    2    3    3    0    0  0.98822943784E-01  0.70580689131E-01 -0.30945088691E-01  0.12694302219E+00  0.20231768889E-01 0.  0.
         14    1    1    2    0    0  0.88927844532E-02  0.11853446371E-01 -0.20286458833E-01  0.25122225581E-01  0.00000000000E+00 0.  1.
     999901    1    3    3    0    0 -0.10771572824E+00 -0.82434135502E-01  0.51231547523E-01  0.89186475223E+00  0.88000000000E+00 0. -1.
        -11    1    4    4    0    0  0.63204833659E-01  0.48626705339E-01 -0.10709996035E-01  0.80463486166E-01  0.51100000000E-03 0.  1.
         11    1    4    4    0    0  0.35618110125E-01  0.21953983792E-01 -0.20235092655E-01  0.46479536024E-01  0.51100000000E-03 0. -1.
</event>
<event>
 8    1  0.1148488E+005  0.1043930E+01  0.7957747E-01            NaN
         13   -1    0    0    0    0  0.00000000000E+00  0.00000000000E+00  0.74505805969E-08  0.10566000000E+00  0.10566000000E+00 0.  1.
     999900   -1    0    0    0    0 -0.00000000000E+00 -0.00000000000E+00 -0.74505805969E-08  0.93827000000E+00  0.93827000000E+00 0. -1.
     999902    2    1    2    0    0 -0.21661468263E-01 -0.69778604513E-02  0.71802739114E-02  0.10200665116E+01  0.10197873416E+01 0.  0.
     999903    2    3    3    0    0 -0.12712399606E-01 -0.10215187669E+00  0.80155610878E-01  0.13188658673E+00  0.19301263884E-01 0.  0.
         14    1    1    2    0    0  0.21661468263E-01  0.69778604513E-02 -0.71802739114E-02  0.23863488371E-01  0.00000000000E+00 0. -1.
     999901    1    3    3    0    0 -0.89490686569E-02  0.95174016239E-01 -0.72975336967E-01  0.88817992490E+00  0.88000000000E+00 0. -1.
        -11    1    4    4    0    0 -0.67267167674E-02 -0.20334332631E-01  0.88097283004E-02  0.23164762803E-01  0.51100000000E-03 0.  1.
         11    1    4    4    0    0 -0.59856828386E-02 -0.81817544060E-01  0.71345882578E-01  0.10872182392E+00  0.51100000000E-03 0. -1.
</event>
<event>
 8    1  0.1148488E+005  0.1043930E+01  0.7957747E-01            NaN
         13   -1    0    0    0    0  0.00000000000E+00  0.00000000000E+00  0.74505805969E-08  0.10566000000E+00  0.10566000000E+00 0. -1.
     999900   -1    0    0    0    0 -0.00000000000E+00 -0.00000000000E+00 -0.74505805969E-08  0.93827000000E+00  0.93827000000E+00 0.  1.
     999902    2    1    2    0    0 -0.51768700238E-02 -0.18295134827E-01 -0.13821202522E-01  0.10204238821E+01  0.10201531069E+01 0.  0.
     999903    2    3    3    0    0  0.93326377515E-01  0.32380042937E-02  0.86628295664E-01  0.12898870912E+00  0.20330471218E-01 0.  0.
         14    1    1    2    0    0  0.51768700238E-02  0.18295134827E-01  0.13821202522E-01  0.23506117943E-01  0.00000000000E+00 0.  1.
     999901    1    3    3    0    0 -0.98503247539E-01 -0.21533139121E-01 -0.10044949819E+00  0.89143517293E+00  0.88000000000E+00 0.  1.
        -11    1    4    4    0    0  0.59951983855E-01  0.11401529773E-01  0.51585921017E-01  0.79909971953E-01  0.51100000000E-03 0.  1.
         11    1    4    4    0    0  0.33374393660E-01 -0.81635254794E-02  0.35042374647E-01  0.49078737171E-01  0.51100000000E-03 0. -1.
</event>
<event>
 8    1  0.1148488E+005  0.1043930E+01  0.7957747E-01            NaN
         13   -1    0    0    0    0  0.00000000000E+00  0.00000000000E+00  0.74505805969E-08  0.10566000000E+00  0.10566000000E+00 0.  1.
     999900   -1    0    0    0    0 -0.00000000000E+00 -0.00000000000E+00 -0.74505805969E-08  0.93827000000E+00  0.93827000000E+00 0. -1.
     999902    2    1    2    0    0 -0.72968765460E-02 -0.17400798057E-01  0.15356296333E-01  0.10196020733E+01  0.10193117972E+01 0.  0.
     999903    2    3    3    0    0 -0.11486838485E+00 -0.25014644731E-01  0.56776651725E-01  0.13205193618E+00  0.19840548880E-01 0.  0.
         14    1    1    2    0    0  0.72968765460E-02  0.17400798057E-01 -0.15356296333E-01  0.24327926698E-01  0.00000000000E+00 0. -1.
     999901    1    3    3    0    0  0.10757150830E+00  0.76138466740E-02 -0.41420355391E-01  0.88755013712E+00  0.88000000000E+00 0.  1.
        -11    1    4    4    0    0 -0.20114488516E-01  0.24290033356E-02  0.13337598655E-01  0.24262014845E-01  0.51100000000E-03 0.  1.
         11    1    4    4    0    0 -0.94753896332E-01 -0.27443648067E-01  0.43439053070E-01  0.10778992134E+00  0.51100000000E-03 0. -1.
</event>
<event>
 8    1  0.1148488E+005  0.1043930E+01  0.7957747E-01            NaN
         13   -1    0    0    0    0  0.00000000000E+00  0.00000000000E+00  0.74505805969E-08  0.10566000000E+00  0.10566000000E+00 0.  1.
     999900   -1    0    0    0    0 -0.00000000000E+00 -0.00000000000E+00 -0.74505805969E-08  0.93827000000E+00  0.93827000000E+00 0.  1.
     999902    2    1    2    0    0  0.51994867918E-02 -0.31261678714E-02  0.24640923314E-01  0.10185531860E+01  0.10182370107E+01 0.  0.
     999903    2    3    3    0    0 -0.49698374993E-01  0.81108023874E-01  0.87253977524E-01  0.13061762027E+00  0.19981644486E-01 0.  0.
         14    1    1    2    0    0 -0.51994867918E-02  0.31261678714E-02 -0.24640923314E-01  0.25376814029E-01  0.00000000000E+00 0. -1.
     999901    1    3    3    0    0  0.54897861785E-01 -0.84234191746E-01 -0.62613054210E-01  0.88793556571E+00  0.88000000000E+00 0.  1.
        -11    1    4    4    0    0 -0.25123379770E-01  0.58916707030E-01  0.59094805980E-01  0.87148263282E-01  0.51100000000E-03 0.  1.
         11    1    4    4    0    0 -0.24574995223E-01  0.22191316844E-01  0.28159171545E-01  0.43469356984E-01  0.51100000000E-03 0. -1.
</event>
<event>
 8    1  0.1148488E+005  0.1043930E+01  0.7957747E-01            NaN
         13   -1    0    0    0    0  0.00000000000E+00  0.00000000000E+00  0.74505805969E-08  0.10566000000E+00  0.10566000000E+00 0.  1.
     999900   -1    0    0    0    0 -0.00000000000E+00 -0.00000000000E+00 -0.74505805969E-08  0.93827000000E+00  0.93827000000E+00 0.  1.
     999902    2    1    2    0    0 -0.52846711492E-03 -0.22789765891E-01 -0.78491612492E-03  0.10211205984E+01  0.10208658128E+01 0.  0.
     999903    2    3    3    0    0 -0.37929100548E-01 -0.12355360172E+00 -0.30022620566E-01  0.13409917740E+00  0.19419641291E-01 0.  0.
         14    1    1    2    0    0  0.52846711492E-03  0.22789765891E-01  0.78491612492E-03  0.22809401574E-01  0.00000000000E+00 0.  1.
     999901    1    3    3    0    0  0.37400633433E-01  0.10076383583E+00  0.29237704441E-01  0.88702142102E+00  0.88000000000E+00 0. -1.
        -11    1    4    4    0    0 -0.35330773436E-01 -0.11843852199E+00 -0.32546869911E-01  0.12781043348E+00  0.51100000000E-03 0.  1.
         11    1    4    4    0    0 -0.25983271121E-02 -0.51150797262E-02  0.25242493460E-02  0.62887439245E-02  0.51100000000E-03 0. -1.
</event>
<event>
 8    1  0.1148488E+005  0.1043930E+01  0.7957747E-01            NaN
         13   -1    0    0    0    0  0.00000000000E+00  0.00000000000E+00  0.74505805969E-08  0.10566000000E+00  0.10566000000E+00 0.  1.
     999900   -1    0    0    0    0 -0.00000000000E+00 -0.00000000000E+00 -0.74505805969E-08  0.93827000000E+00  0.93827000000E+00 0. -1.
     999902    2    1    2    0    0  0.21708363286E-01 -0.12265009893E-01  0.47531266615E-02  0.10185474131E+01  0.10182310922E+01 0.  0.
     999903    2    3    3    0    0  0.78611205169E-01  0.90199526348E-01  0.47122566107E-01  0.12976617793E+00  0.17408290193E-01 0.  0.
         14    1    1    2    0    0 -0.21708363286E-01  0.12265009893E-01 -0.47531266615E-02  0.25382586891E-01  0.00000000000E+00 0. -1.
     999901    1    3    3    0    0 -0.56902841883E-01 -0.10246453624E+00 -0.42369439445E-01  0.88878123518E+00  0.88000000000E+00 0. -1.
        -11    1    4    4    0    0  0.38085950905E-01  0.30923870328E-01  0.17503048901E-01  0.52090721383E-01  0.51100000000E-03 0.  1.
         11    1    4    4    0    0  0.40525254264E-01  0.59275656020E-01  0.29619517206E-01  0.77675456550E-01  0.51100000000E-03 0. -1.
</event>
<event>
 8    1  0.1148488E+005  0.1043930E+01  0.7957747E-01            NaN
         13   -1    0    0    0    0  0.00000000000E+00  0.00000000000E+00  0.74505805969E-08  0.10566000000E+00  0.10566000000E+00 0. -1.
     999900   -1    0    0    0    0 -0.00000000000E+00 -0.00000000000E+00 -0.74505805969E-08  0.93827000000E+00  0.93827000000E+00 0. -1.
     999902    2    1    2    0    0 -0.44037367456E-02 -0.20375664015E-02 -0.23083597216E-01  0.10203419302E+01  0.10200692416E+01 0.  0.
     999903    2    3    3    0    0 -0.10782626003E+00  0.62481142615E-01  0.32128061237E-01  0.13022552811E+00  0.19901766681E-01 0.  0.
         14    1    1    2    0    0  0.44037367456E-02  0.20375664015E-02  0.23083597216E-01  0.23588069751E-01  0.00000000000E+00 0. -1.
     999901    1    3    3    0    0  0.10342252328E+00 -0.64518709017E-01 -0.55211658453E-01  0.89011640214E+00  0.88000000000E+00 0. -1.
        -11    1    4    4    0    0 -0.50123559937E-01  0.32491851473E-01  0.25169909154E-01  0.64821887667E-01  0.51100000000E-03 0. -1.
         11    1    4    4    0    0 -0.57702700093E-01  0.29989291142E-01  0.69581520830E-02  0.65403640439E-01  0.51100000000E-03 0.  1.
</event>
<event>
 8    1  0.1148488E+005  0.1043930E+01  0.7957747E-01            NaN
         13   -1    0    0    0    0  0.00000000000E+00  0.00000000000E+00  0.74505805969E-08  0.10566000000E+00  0.10566000000E+00 0. -1.
     999900   -1    0    0    0    0 -0.00000000000E+00 -0.00000000000E+00 -0.74505805969E-08  0.93827000000E+00  0.93827000000E+00 0.  1.
     999902    2    1    2    0    0  0.22767388807E-01  0.40288636637E-03  0.66972614142E-02  0.10201945914E+01  0.10199184451E+01 0.  0.
     999903    2    3    3    0    0  0.13092702607E+00 -0.11217447281E-01  0.10821190267E-01  0.13348689094E+00  0.20831097322E-01 0.  0.
         14    1    1    2    0    0 -0.22767388807E-01 -0.40288636637E-03 -0.66972614142E-02  0.23735408591E-01  0.00000000000E+00 0.  1.
     999901    1    3    3    0    0 -0.10815963726E+00  0.11620333647E-01 -0.41239288523E-02  0.88670770047E+00  0.88000000000E+00 0.  1.
        -11    1    4    4    0    0  0.90693335555E-01 -0.42076216160E-03  0.10766853495E-02  0.90702141801E-01  0.51100000000E-03 0.  1.
         11    1    4    4    0    0  0.40233690510E-01 -0.10796685119E-01  0.97445049170E-02  0.42784749137E-01  0.51100000000E-03 0. -1.
</event>
<event>
 8    1  0.1148488E+005  0.1043930E+01  0.7957747E-01            NaN
         13   -1    0    0    0    0  0.00000000000E+00  0.00000000000E+00  0.74505805969E-08  0.10566000000E+00  0.10566000000E+00 0. -1.
     999900   -1    0    0    0    0 -0.00000000000E+00 -0.00000000000E+00 -0.74505805969E-08  0.93827000000E+00  0.93827000000E+00 0. -1.
     999902    2    1    2    0    0 -0.39236354713E-02  0.21254692190E-01 -0.95130289611E-02  0.10203152890E+01  0.10200419768E+01 0.  0.
     999903    2    3    3    0    0  0.77308620032E-01 -0.47906460395E-01 -0.90992576842E-01  0.13013504822E+00  0.19591581248E-01 0.  0.
         14    1    1    2    0    0  0.39236354713E-02 -0.21254692190E-01  0.95130289611E-02  0.23614710996E-01  0.00000000000E+00 0. -1.
     999901    1    3    3    0    0 -0.81232255503E-01  0.69161152585E-01  0.81479547881E-01  0.89018024078E+00  0.88000000000E+00 0.  1.
        -11    1    4    4    0    0  0.15798841698E-01 -0.27173054642E-02 -0.22159097424E-01  0.27354595000E-01  0.51100000000E-03 0.  1.
         11    1    4    4    0    0  0.61509778334E-01 -0.45189154931E-01 -0.68833479418E-01  0.10278045322E+00  0.51100000000E-03 0. -1.
</event>
<event>
 8    1  0.1148488E+005  0.1043930E+01  0.7957747E-01            NaN
         13   -1    0    0    0    0  0.00000000000E+00  0.00000000000E+00  0.74505805969E-08  0.10566000000E+00  0.10566000000E+00 0.  1.
     999900   -1    0    0    0    0 -0.00000000000E+00 -0.00000000000E+00 -0.74505805969E-08  0.93827000000E+00  0.93827000000E+00 0.  1.
     999902    2    1    2    0    0  0.23085794513E-02  0.14868433803E-01  0.15726120269E-01  0.10221651035E+01  0.10219333579E+01 0.  0.
     999903    2    3    3    0    0 -0.34902517832E-01  0.12665776304E+00 -0.18098477634E-01  0.13366883261E+00  0.16716076939E-01 0.  0.
         14    1    1    2    0    0 -0.23085794513E-02 -0.14868433803E-01 -0.15726120269E-01  0.21764896543E-01  0.00000000000E+00 0. -1.
     999901    1    3    3    0    0  0.37211097284E-01 -0.11178932924E+00  0.33824597903E-01  0.88849627085E+00  0.88000000000E+00 0. -1.
        -11    1    4    4    0    0 -0.59429766810E-02  0.27653767890E-01 -0.10715477110E-01  0.30251155698E-01  0.51100000000E-03 0. -1.
         11    1    4    4    0    0 -0.28959541151E-01  0.99003995150E-01 -0.73830005237E-02  0.10341767691E+00  0.51100000000E-03 0.  1.
</event>
<event>
 8    1  0.1148488E+005  0.1043930E+01  0.7957747E-01            NaN
         13   -1    0    0    0    0  0.00000000000E+00  0.00000000000E+00  0.74505805969E-08  0.10566000000E+00  0.10566000000E+00 0.  1.
     999900   -1    0    0    0    0 -0.00000000000E+00 -0.00000000000E+00 -0.74505805969E-08  0.93827000000E+00  0.93827000000E+00 0. -1.
     999902    2    1    2    0    0 -0.96711460532E-02  0.98679705993E-02 -0.18469441789E-01  0.10208642637E+01  0.10206036531E+01 0.  0.
     999903    2    3    3    0    0 -0.11644002764E+00  0.29110304647E-01 -0.54738570758E-01  0.13346057250E+00  0.20241625680E-01 0.  0.
         14    1    1    2    0    0  0.96711460532E-02 -0.98679705993E-02  0.18469441789E-01  0.23065736271E-01  0.00000000000E+00 0.  1.
     999901    1    3    3    0    0  0.10676888158E+00 -0.19242334048E-01  0.36269128969E-01  0.88740369123E+00  0.88000000000E+00 0.  1.
        -11    1    4    4    0    0 -0.39133808927E-01  0.27877643820E-02 -0.25122402979E-01  0.46589944020E-01  0.51100000000E-03 0.  1.
         11    1    4    4    0    0 -0.77306218709E-01  0.26322540265E-01 -0.29616167780E-01  0.86870628478E-01  0.51100000000E-03 0. -1.
</event>
<event>
 8    1  0.1148488E+005  0.1043930E+01  0.7957747E-01            NaN
         13   -1    0    0    0    0  0.00000000000E+00  0.00000000000E+00  0.74505805969E-08  0.10566000000E+00  0.10566000000E+00 0. -1.
     999900   -1    0    0    0    0 -0.00000000000E+00 -0.00000000000E+00 -0.74505805969E-08  0.93827000000E+00  0.93827000000E+00 0.  1.
     999902    2    1    2    0    0  0.81573740067E-02  0.79316946992E-02  0.20585504715E-01  0.10204094231E+01  0.10201383109E+01 0.  0.
     999903    2    3    3    0    0 -0.18718106408E-01  0.24217760055E-01  0.12813086919E+00  0.13330540850E+00  0.20394726912E-01 0.  0.
         14    1    1    2    0    0 -0.81573740067E-02 -0.79316946992E-02 -0.20585504715E-01  0.23520576860E-01  0.00000000000E+00 0.  1.
     999901    1    3    3    0    0  0.26875480415E-01 -0.16286065356E-01 -0.10754536448E+00  0.88710401464E+00  0.88000000000E+00 0.  1.
        -11    1    4    4    0    0 -0.52913862019E-02  0.21234358257E-01  0.61815401724E-01  0.65576686024E-01  0.51100000000E-03 0. -1.
         11    1    4    4    0    0 -0.13426720206E-01  0.29834017982E-02  0.66315467466E-01  0.67728722474E-01  0.51100000000E-03 0.  1.
</event>
<event>
 8    1  0.1148488E+005  0.1043930E+01  0.7957747E-01            NaN
         13   -1    0    0    0    0  0.00000000000E+00  0.00000000000E+00  0.74505805969E-08  0.10566000000E+00  0.10566000000E+00 0.  1.
     999900   -1    0    0    0    0 -0.00000000000E+00 -0.00000000000E+00 -0.74505805969E-08  0.93827000000E+00  0.93827000000E+00 0. -1.
     999902    2    1    2    0    0  0.88665955206E-03 -0.23995059386E-01  0.21181318255E-02  0.10198253216E+01  0.10195404116E+01 0.  0.
     999903    2    3    3    0    0 -0.88340741559E-01  0.90126637164E-01 -0.56386862920E-02  0.12794783056E+00  0.20296679932E-01 0.  0.
         14    1    1    2    0    0 -0.88665955206E-03  0.23995059386E-01 -0.21181318255E-02  0.24104678436E-01  0.00000000000E+00 0.  1.
     999901    1    3    3    0    0  0.89227401111E-01 -0.11412169655E+00  0.77568181175E-02  0.89187749100E+00  0.88000000000E+00 0.  1.
        -11    1    4    4    0    0 -0.70174614601E-01  0.81667132251E-01 -0.28984235565E-02  0.10771563955E+00  0.51100000000E-03 0. -1.
         11    1    4    4    0    0 -0.18166126958E-01  0.84595049124E-02 -0.27402627355E-02  0.20232191005E-01  0.51100000000E-03 0.  1.
</event>
<event>
 8    1  0.1148488E+005  0.1043930E+01  0.7957747E-01            NaN
         13   -1    0    0    0    0  0.00000000000E+00  0.00000000000E+00  0.74505805969E-08  0.10566000000E+00  0.10566000000E+00 0.  1.
     999900   -1    0    0    0    0 -0.00000000000E+00 -0.00000000000E+00 -0.74505805969E-08  0.93827000000E+00  0.93827000000E+00 0.  1.
     999902    2    1    2    0    0 -0.17677148489E-01 -0.13961384751E-01 -0.81883884782E-02  0.10199622811E+01  0.10196806379E+01 0.  0.
     999903    2    3    3    0    0 -0.10586698774E+00  0.56746275824E-01  0.48153107407E-01  0.13094519175E+00  0.19999064437E-01 0.  0.
         14    1    1    2    0    0  0.17677148489E-01  0.13961384751E-01  0.81883884782E-02  0.23967718889E-01  0.00000000000E+00 0. -1.
     999901    1    3    3    0    0  0.88189839247E-01 -0.70707660575E-01 -0.56341495885E-01  0.88901708936E+00  0.88000000000E+00 0. -1.
        -11    1    4    4    0    0 -0.60425867008E-01  0.42642285665E-01  0.25365799176E-01  0.78187817588E-01  0.51100000000E-03 0. -1.
         11    1    4    4    0    0 -0.45441120729E-01  0.14103990159E-01  0.22787308231E-01  0.52757374166E-01  0.51100000000E-03 0.  1.
</event>
<event>
 8    1  0.1148488E+005  0.1043930E+01  0.7957747E-01            NaN
         13   -1    0    0    0    0  0.00000000000E+00  0.00000000000E+00  0.74505805969E-08  0.10566000000E+00  0.10566000000E+00 0. -1.
     999900   -1    0    0    0    0 -0.00000000000E+00 -0.00000000000E+00 -0.74505805969E-08  0.93827000000E+00  0.93827000000E+00 0. -1.
     999902    2    1    2    0    0  0.11525286531E-02 -0.21188450785E-01 -0.95954794015E-02  0.10206415481E+01  0.10203758218E+01 0.  0.
     999903    2    3    3    0    0  0.56659316398E-01  0.86737473726E-01  0.73412565812E-01  0.12844238630E+00  0.19348754393E-01 0.  0.
         14    1    1    2    0    0 -0.11525286531E-02  0.21188450785E-01  0.95954794015E-02  0.23288451944E-01  0.00000000000E+00 0.  1.
     999901    1    3    3    0    0 -0.55506787745E-01 -0.10792592451E+00 -0.83008045213E-01  0.89219916176E+00  0.88000000000E+00 0. -1.
        -11    1    4    4    0    0  0.43761856055E-02  0.82198447716E-02  0.14448035519E-01  0.17196618850E-01  0.51100000000E-03 0.  1.
         11    1    4    4    0    0  0.52283130793E-01  0.78517628954E-01  0.58964530293E-01  0.11124576745E+00  0.51100000000E-03 0. -1.
</event>
<event>
 8    1  0.1148488E+005  0.1043930E+01  0.7957747E-01            NaN
         13   -1    0    0    0    0  0.00000000000E+00  0.00000000000E+00  0.74505805969E-08  0.10566000000E+00  0.10566000000E+00 0.  1.
     999900   -1    0    0    0    0 -0.00000000000E+00 -0.00000000000E+00 -0.74505805969E-08  0.93827000000E+00  0.93827000000E+00 0. -1.
     999902    2    1    2    0    0 -0.19693972101E-01  0.25266255267E-02  0.77820381377E-02  0.10226040418E+01  0.10223816459E+01 0.  0.
     999903    2    3    3    0    0  0.45839275699E-01 -0.36097606664E-01 -0.11538567430E+00  0.13077629880E+00  0.19603828476E-01 0.  0.
         14    1    1    2    0    0  0.19693972101E-01 -0.25266255267E-02 -0.77820381377E-02  0.21325958156E-01  0.00000000000E+00 0. -1.
     999901    1    3    3    0    0 -0.65533247800E-01  0.38624232191E-01  0.12316771244E+00  0.89182774305E+00  0.88000000000E+00 0. -1.
        -11    1    4    4    0    0  0.36787825985E-01 -0.36540192686E-01 -0.10404663025E+00  0.11625184820E+00  0.51100000000E-03 0. -1.
         11    1    4    4    0    0  0.90514497134E-02  0.44258602215E-03 -0.11339044044E-01  0.14524450597E-01  0.51100000000E-03 0.  1.
</event>
<event>
 8    1  0.1148488E+005  0.1043930E+01  0.7957747E-01            NaN
         13   -1    0    0    0    0  0.00000000000E+00  0.00000000000E+00  0.74505805969E-08  0.10566000000E+00  0.10566000000E+00 0. -1.
     999900   -1    0    0    0    0 -0.00000000000E+00 -0.00000000000E+00 -0.74505805969E-08  0.93827000000E+00  0.93827000000E+00 0. -1.
     999902    2    1    2    0    0 -0.63535230750E-02  0.49077420183E-02  0.22158255026E-01  0.10203621946E+01  0.10200899797E+01 0.  0.
     999903    2    3    3    0    0 -0.42084822832E-01  0.82924224306E-01 -0.87768674785E-01  0.12938114696E+00  0.19712473877E-01 0.  0.
         14    1    1    2    0    0  0.63535230750E-02 -0.49077420183E-02 -0.22158255026E-01  0.23567805434E-01  0.00000000000E+00 0.  1.
     999901    1    3    3    0    0  0.35731299757E-01 -0.78016482287E-01  0.10992692981E+00  0.89098104760E+00  0.88000000000E+00 0.  1.
        -11    1    4    4    0    0 -0.65900917877E-02  0.32021898647E-01 -0.25458430069E-01  0.41439402570E-01  0.51100000000E-03 0. -1.
         11    1    4    4    0    0 -0.35494731044E-01  0.50902325658E-01 -0.62310244715E-01  0.87941744393E-01  0.51100000000E-03 0.  1.
</event>
<event>
 8    1  0.1148488E+005  0.1043930E+01  0.7957747E-01            NaN
         13   -1    0    0    0    0  0.00000000000E+00  0.00000000000E+00  0.74505805969E-08  0.10566000000E+00  0.10566000000E+00 0.  1.
     999900   -1    0    0    0    0 -0.00000000000E+00 -0.00000000000E+00 -0.74505805969E-08  0.93827000000E+00  0.93827000000E+00 0. -1.
     999902    2    1    2    0    0 -0.20106116188E-01  0.65268947802E-03  0.12617529555E-01  0.10201837590E+01  0.10199073576E+01 0.  0.
     999903    2    3    3    0    0  0.29417196746E-01  0.10595441631E+00 -0.65233287941E-01  0.12911599386E+00  0.17995783262E-01 0.  0.
         14    1    1    2    0    0  0.20106116188E-01 -0.65268947802E-03 -0.12617529555E-01  0.23746241045E-01  0.00000000000E+00 0. -1.
     999901    1    3    3    0    0 -0.49523312934E-01 -0.10530172684E+00  0.77850817495E-01  0.89106776509E+00  0.88000000000E+00 0.  1.
        -11    1    4    4    0    0  0.30250315517E-01  0.83939842481E-01 -0.55041111043E-01  0.10483684357E+00  0.51100000000E-03 0. -1.
         11    1    4    4    0    0 -0.83311877065E-03  0.22014573833E-01 -0.10192176898E-01  0.24279150291E-01  0.51100000000E-03 0.  1.
</event>
<event>
 8    1  0.1148488E+005  0.1043930E+01  0.7957747E-01            NaN
         13   -1    0    0    0    0  0.00000000000E+00  0.00000000000E+00  0.74505805969E-08  0.10566000000E+00  0.10566000000E+00 0. -1.
     999900   -1    0    0    0    0 -0.00000000000E+00 -0.00000000000E+00 -0.74505805969E-08  0.93827000000E+00  0.93827000000E+00 0.  1.
     999902    2    1    2    0    0 -0.22962469177E-01  0.19693013428E-02  0.88069519807E-02  0.10192578387E+01  0.10189591877E+01 0.  0.
     999903    2    3    3    0    0  0.16302667976E-01  0.11385430559E+00  0.56863201788E-01  0.13000567634E+00  0.20963594156E-01 0.  0.
         14    1    1    2    0    0  0.22962469177E-01 -0.19693013428E-02 -0.88069519807E-02  0.24672161269E-01  0.00000000000E+00 0.  1.
     999901    1    3    3    0    0 -0.39265137153E-01 -0.11188500424E+00 -0.48056249808E-01  0.88925216239E+00  0.88000000000E+00 0. -1.
        -11    1    4    4    0    0  0.12109902011E-01  0.90188208004E-01  0.53950533096E-01  0.10578980921E+00  0.51100000000E-03 0. -1.
         11    1    4    4    0    0  0.41927659648E-02  0.23666097581E-01  0.29126686921E-02  0.24215867134E-01  0.51100000000E-03 0.  1.
</event>
<event>
 8    1  0.1148488E+005  0.1043930E+01  0.7957747E-01            NaN
         13   -1    0    0    0    0  0.00000000000E+00  0.00000000000E+00  0.74505805969E-08  0.10566000000E+00  0.10566000000E+00 0.  1.
     999900   -1    0    0    0    0 -0.00000000000E+00 -0.00000000000E+00 -0.74505805969E-08  0.93827000000E+00  0.93827000000E+00 0.  1.
     999902    2    1    2    0    0  0.17901057421E-01 -0.14325763858E-01 -0.54855850429E-02  0.10203552888E+01  0.10200829125E+01 0.  0.
     999903    2    3    3    0    0  0.15537457759E-01 -0.12909355551E+00  0.13932937605E-01  0.13268738260E+00  0.22477902080E-01 0.  0.
         14    1    1    2    0    0 -0.17901057421E-01  0.14325763858E-01  0.54855850429E-02  0.23574711242E-01  0.00000000000E+00 0.  1.
     999901    1    3    3    0    0  0.23635996619E-02  0.11476779165E+00 -0.19418522647E-01  0.88766790616E+00  0.88000000000E+00 0.  1.
        -11    1    4    4    0    0  0.19880863747E-01 -0.99629517365E-01  0.55643683059E-02  0.10174729868E+00  0.51100000000E-03 0. -1.
         11    1    4    4    0    0 -0.43434059881E-02 -0.29464038148E-01  0.83685692987E-02  0.30940083915E-01  0.51100000000E-03 0.  1.
</event>
<event>
 8    1  0.1148488E+005  0.1043930E+01  0.7957747E-01            NaN
         13   -1    0    0    0    0  0.00000000000E+00  0.00000000000E+00  0.74505805969E-08  0.10566000000E+00  0.10566000000E+00 0. -1.
     999900   -1    0    0    0    0 -0.00000000000E+00 -0.00000000000E+00 -0.74505805969E-08  0.93827000000E+00  0.93827000000E+00 0.  1.
     999902    2    1    2    0    0  0.17333693137E-01 -0.83261862957E-02 -0.12389093411E-01  0.10210548622E+01  0.10207985891E+01 0.  0.
     999903    2    3    3    0    0 -0.82309849273E-02  0.97862830109E-01 -0.84923519835E-01  0.13134091768E+00  0.19838089785E-01 0.  0.
         14    1    1    2    0    0 -0.17333693137E-01  0.83261862957E-02  0.12389093411E-01  0.22875137848E-01  0.00000000000E+00 0. -1.
     999901    1    3    3    0    0  0.25564678064E-01 -0.10618901640E+00  0.72534426424E-01  0.88971394447E+00  0.88000000000E+00 0. -1.
        -11    1    4    4    0    0  0.14076246143E-02  0.35773934053E-01 -0.20096768744E-01  0.41059676078E-01  0.51100000000E-03 0. -1.
         11    1    4    4    0    0 -0.96386095416E-02  0.62088896056E-01 -0.64826751091E-01  0.90281241603E-01  0.51100000000E-03 0.  1.
</event>
<event>
 8    1  0.1148488E+005  0.1043930E+01  0.7957747E-01            NaN
         13   -1    0    0    0    0  0.00000000000E+00  0.00000000000E+00  0.74505805969E-08  0.10566000000E+00  0.10566000000E+00 0. -1.
     999900   -1    0    0    0    0 -0.00000000000E+00 -0.00000000000E+00 -0.74505805969E-08  0.93827000000E+00  0.93827000000E+00 0. -1.
     999902    2    1    2    0    0  0.82286516504E-02 -0.75609243339E-02  0.20469556261E-01  0.10206087432E+01  0.10203422591E+01 0.  0.
     999903    2    3    3    0    0 -0.12399754614E+00  0.31805549721E-01  0.72561743254E-02  0.12976191007E+00  0.19962885489E-01 0.  0.
         14    1    1    2    0    0 -0.82286516504E-02  0.75609243339E-02 -0.20469556261E-01  0.23321256791E-01  0.00000000000E+00 0.  1.
     999901    1    3    3    0    0  0.13222619779E+00 -0.39366474055E-01  0.13213381936E-01  0.89084683314E+00  0.88000000000E+00 0.  1.
        -11    1    4    4    0    0 -0.11235810147E+00  0.23199355628E-01  0.94251032682E-02  0.11511579718E+00  0.51100000000E-03 0.  1.
         11    1    4    4    0    0 -0.11639444664E-01  0.86061940930E-02 -0.21689289428E-02  0.14646112884E-01  0.51100000000E-03 0. -1.
</event>
<event>
 8    1  0.1148488E+005  0.1043930E+01  0.7957747E-01            NaN
         13   -1    0    0    0    0  0.00000000000E+00  0.00000000000E+00  0.74505805969E-08  0.10566000000E+00  0.10566000000E+00 0. -1.
     999900   -1    0    0    0    0 -0.00000000000E+00 -0.00000000000E+00 -0.74505805969E-08  0.93827000000E+00  0.93827000000E+00 0. -1.
     999902    2    1    2    0    0 -0.11461839821E-01  0.18570174003E-01  0.10683323557E-01  0.10196327052E+01  0.10193431684E+01 0.  0.
     999903    2    3    3    0    0 -0.75385037544E-01 -0.73772758295E-01  0.74114938225E-01  0.13023011797E+00  0.18480687382E-01 0.  0.
         14    1    1    2    0    0  0.11461839821E-01 -0.18570174003E-01 -0.10683323557E-01  0.24297294846E-01  0.00000000000E+00 0.  1.
     999901    1    3    3    0    0  0.63923197723E-01  0.92342932298E-01 -0.63431614668E-01  0.88940258719E+00  0.88000000000E+00 0. -1.
        -11    1    4    4    0    0 -0.14151652222E-01 -0.66542406061E-02  0.15996930691E-01  0.22376574608E-01  0.51100000000E-03 0.  1.
         11    1    4    4    0    0 -0.61233385322E-01 -0.67118517689E-01  0.58118007533E-01  0.10785354336E+00  0.51100000000E-03 0. -1.
</event>
<event>
 8    1  0.1148488E+005  0.1043930E+01  0.7957747E-01            NaN
         13   -1    0    0    0    0  0.00000000000E+00  0.00000000000E+00  0.74505805969E-08  0.10566000000E+00  0.10566000000E+00 0. -1.
     999900   -1    0    0    0    0 -0.00000000000E+00 -0.00000000000E+00 -0.74505805969E-08  0.93827000000E+00  0.93827000000E+00 0.  1.
     999902    2    1    2    0    0 -0.24053047272E-02 -0.18340305914E-01  0.14352356467E-01  0.10205175578E+01  0.10202489615E+01 0.  0.
     999903    2    3    3    0    0  0.12209011087E+00  0.37717496901E-01 -0.79190667934E-02  0.12971028235E+00  0.20819245528E-01 0.  0.
         14    1    1    2    0    0  0.24053047272E-02  0.18340305914E-01 -0.14352356467E-01  0.23412442163E-01  0.00000000000E+00 0.  1.
     999901    1    3    3    0    0 -0.12449541560E+00 -0.56057802816E-01  0.22271423261E-01  0.89080727548E+00  0.88000000000E+00 0. -1.
        -11    1    4    4    0    0  0.83236985568E-01  0.34189421269E-01 -0.46188920960E-03  0.89987703358E-01  0.51100000000E-03 0.  1.
         11    1    4    4    0    0  0.38853125303E-01  0.35280756325E-02 -0.74571775838E-02  0.39722578995E-01  0.51100000000E-03 0. -1.
</event>
<event>
 8    1  0.1148488E+005  0.1043930E+01  0.7957747E-01            NaN
         13   -1    0    0    0    0  0.00000000000E+00  0.00000000000E+00  0.74505805969E-08  0.10566000000E+00  0.10566000000E+00 0. -1.
     999900   -1    0    0    0    0 -0.00000000000E+00 -0.00000000000E+00 -0.74505805969E-08  0.93827000000E+00  0.93827000000E+00 0.  1.
     999902    2    1    2    0    0  0.22489376205E-01  0.76502216411E-02 -0.30445149815E-02  0.10199807410E+01  0.10196995367E+01 0.  0.
     999903    2    3    3    0    0 -0.44309819895E-01 -0.11873397624E+00  0.25284797796E-02  0.12842807499E+00  0.20646064572E-01 0.  0.
         14    1    1    2    0    0 -0.22489376205E-01 -0.76502216411E-02  0.30445149815E-02  0.23949258960E-01  0.00000000000E+00 0. -1.
     999901    1    3    3    0    0  0.66799196100E-01  0.12638419788E+00 -0.55729947612E-02  0.89155266605E+00  0.88000000000E+00 0.  1.
        -11    1    4    4    0    0 -0.24153055358E-01 -0.45406209325E-01  0.85573509238E-02  0.52140035522E-01  0.51100000000E-03 0. -1.
         11    1    4    4    0    0 -0.20156764536E-01 -0.73327766915E-01 -0.60288711442E-02  0.76288039466E-01  0.51100000000E-03 0.  1.
</event>
<event>
 8    1  0.1148488E+005  0.1043930E+01  0.7957747E-01            NaN
         13   -1    0    0    0    0  0.00000000000E+00  0.00000000000E+00  0.74505805969E-08  0.10566000000E+00  0.10566000000E+00 0. -1.
     999900   -1    0    0    0    0 -0.00000000000E+00 -0.00000000000E+00 -0.74505805969E-08  0.93827000000E+00  0.93827000000E+00 0. -1.
     999902    2    1    2    0    0 -0.45596030245E-02 -0.19832598014E-01  0.13067916483E-01  0.10197454519E+01  0.10194586281E+01 0.  0.
     999903    2    3    3    0    0  0.19709403820E-01 -0.37828879734E-01  0.12425488871E+00  0.13223466685E+00  0.15074647918E-01 0.  0.
         14    1    1    2    0    0  0.45596030245E-02  0.19832598014E-01 -0.13067916483E-01  0.24184548061E-01  0.00000000000E+00 0.  1.
     999901    1    3    3    0    0 -0.24269006844E-01  0.17996281720E-01 -0.11118697222E+00  0.88751078508E+00  0.88000000000E+00 0. -1.
        -11    1    4    4    0    0  0.18890998561E-01 -0.24271695105E-01  0.97304657783E-01  0.10205117617E+00  0.51100000000E-03 0. -1.
         11    1    4    4    0    0  0.81840525919E-03 -0.13557184629E-01  0.26950230923E-01  0.30183490687E-01  0.51100000000E-03 0.  1.
</event>
<event>
 8    1  0.1148488E+005  0.1043930E+01  0.7957747E-01            NaN
         13   -1    0    0    0    0  0.00000000000E+00  0.00000000000E+00  0.74505805969E-08  0.10566000000E+00  0.10566000000E+00 0. -1.
     999900   -1    0    0    0    0 -0.00000000000E+00 -0.00000000000E+00 -0.74505805969E-08  0.93827000000E+00  0.93827000000E+00 0.  1.
     999902    2    1    2    0    0  0.21299163361E-01  0.44160933663E-02  0.11099494636E-01  0.10195096187E+01  0.10192171053E+01 0.  0.
     999903    2    3    3    0    0  0.95819992850E-02  0.37902045101E-01 -0.12130167618E+00  0.12889821585E+00  0.19294394851E-01 0.  0.
         14    1    1    2    0    0 -0.21299163361E-01 -0.44160933663E-02 -0.11099494636E-01  0.24420381276E-01  0.00000000000E+00 0.  1.
     999901    1    3    3    0    0  0.11717164076E-01 -0.33485951734E-01  0.13240117081E+00  0.89061140287E+00  0.88000000000E+00 0. -1.
        -11    1    4    4    0    0  0.98188074490E-02  0.36368661724E-01 -0.90173691592E-01  0.97727397958E-01  0.51100000000E-03 0. -1.
         11    1    4    4    0    0 -0.23680816403E-03  0.15333833770E-02 -0.31127984586E-01  0.31170817892E-01  0.51100000000E-03 0.  1.
</event>
<event>
 8    1  0.1148488E+005  0.1043930E+01  0.7957747E-01            NaN
         13   -1    0    0    0    0  0.00000000000E+00  0.00000000000E+00  0.74505805969E-08  0.10566000000E+00  0.10566000000E+00 0. -1.
     999900   -1    0    0    0    0 -0.00000000000E+00 -0.00000000000E+00 -0.74505805969E-08  0.93827000000E+00  0.93827000000E+00 0. -1.
     999902    2    1    2    0    0 -0.11690504429E-01  0.11047588404E-01 -0.17736327047E-01  0.10199864330E+01  0.10197053639E+01 0.  0.
     999903    2    3    3    0    0 -0.77307372904E-01  0.78199985878E-01  0.68087887914E-01  0.13084031802E+00  0.19787891316E-01 0.  0.
         14    1    1    2    0    0  0.11690504429E-01 -0.11047588404E-01  0.17736327047E-01  0.23943566996E-01  0.00000000000E+00 0. -1.
     999901    1    3    3    0    0  0.65616868475E-01 -0.67152397474E-01 -0.85824214961E-01  0.88914611498E+00  0.88000000000E+00 0.  1.
        -11    1    4    4    0    0 -0.74659258646E-01  0.67555234431E-01  0.60087763557E-01  0.11725406198E+00  0.51100000000E-03 0. -1.
         11    1    4    4    0    0 -0.26481142582E-02  0.10644751447E-01  0.80001243570E-02  0.13586256041E-01  0.51100000000E-03 0.  1.
</event>
<event>
 8    1  0.1148488E+005  0.1043930E+01  0.7957747E-01            NaN
         13   -1    0    0    0    0  0.00000000000E+00  0.00000000000E+00  0.74505805969E-08  0.10566000000E+00  0.10566000000E+00 0. -1.
     999900   -1    0    0    0    0 -0.00000000000E+00 -0.00000000000E+00 -0.74505805969E-08  0.93827000000E+00  0.93827000000E+00 0.  1.
     999902    2    1    2    0    0  0.27947948296E-02  0.21153668273E-01  0.70970549584E-02  0.10214431872E+01  0.10211956365E+01 0.  0.
     999903    2    3    3    0    0  0.62929751707E-01  0.11573066144E-01  0.11445554562E+00  0.13282974681E+00  0.21203306471E-01 0.  0.
         14    1    1    2    0    0 -0.27947948296E-02 -0.21153668273E-01 -0.70970549584E-02  0.22486812772E-01  0.00000000000E+00 0.  1.
     999901    1    3    3    0    0 -0.60134956877E-01  0.95806021299E-02 -0.10735849066E+00  0.88861344042E+00  0.88000000000E+00 0.  1.
        -11    1    4    4    0    0  0.24646594478E-01  0.10195543696E-01  0.65070388825E-01  0.70326526670E-01  0.51100000000E-03 0. -1.
         11    1    4    4    0    0  0.38283157229E-01  0.13775224478E-02  0.49385156791E-01  0.62503220139E-01  0.51100000000E-03 0.  1.
</event>
<event>
 8    1  0.1148488E+005  0.1043930E+01  0.7957747E-01            NaN
         13   -1    0    0    0    0  0.00000000000E+00  0.00000000000E+00  0.74505805969E-08  0.10566000000E+00  0.10566000000E+00 0. -1.
     999900   -1    0    0    0    0 -0.00000000000E+00 -0.00000000000E+00 -0.74505805969E-08  0.93827000000E+00  0.93827000000E+00 0.  1.
     999902    2    1    2    0    0  0.21741509051E-01  0.21710464744E-03  0.10281709600E-01  0.10198789314E+01  0.10195953024E+01 0.  0.
     999903    2    3    3    0    0  0.86726730587E-03  0.12512251659E+00  0.31410086590E-01  0.13056261856E+00  0.20089985442E-01 0.  0.
         14    1    1    2    0    0 -0.21741509051E-01 -0.21710464744E-03 -0.10281709600E-01  0.24051068636E-01  0.00000000000E+00 0.  1.
     999901    1    3    3    0    0  0.20874241745E-01 -0.12490541195E+00 -0.21128376990E-01  0.88931631280E+00  0.88000000000E+00 0. -1.
        -11    1    4    4    0    0 -0.88723787941E-02  0.42012711450E-01  0.13183471897E-01  0.44920508469E-01  0.51100000000E-03 0. -1.
         11    1    4    4    0    0  0.97396461000E-02  0.83109805142E-01  0.18226614693E-01  0.85642110093E-01  0.51100000000E-03 0.  1.
</event>
<event>
 8    1  0.1148488E+005  0.1043930E+01  0.7957747E-01            NaN
         13   -1    0    0    0    0  0.00000000000E+00  0.00000000000E+00  0.74505805969E-08  0.10566000000E+00  0.10566000000E+00 0. -1.
     999900   -1    0    0    0    0 -0.00000000000E+00 -0.00000000000E+00 -0.74505805969E-08  0.93827000000E+00  0.93827000000E+00 0. -1.
     999902    2    1    2    0    0 -0.12728330409E-01  0.13220355608E-01  0.13264970769E-01  0.10212860682E+01  0.10210350070E+01 0.  0.
     999903    2    3    3    0    0  0.33725026373E-01 -0.92586939182E-01  0.83452353369E-01  0.13096064082E+00  0.21832898327E-01 0.  0.
         14    1    1    2    0    0  0.12728330409E-01 -0.13220355608E-01 -0.13264970769E-01  0.22643931790E-01  0.00000000000E+00 0. -1.
     999901    1    3    3    0    0 -0.46453356782E-01  0.10580729479E+00 -0.70187382600E-01  0.89032542739E+00  0.88000000000E+00 0. -1.
        -11    1    4    4    0    0  0.24926254726E-01 -0.72481849312E-01  0.52072944808E-01  0.92664930564E-01  0.51100000000E-03 0. -1.
         11    1    4    4    0    0  0.87987716475E-02 -0.20105089870E-01  0.31379408560E-01  0.38295710253E-01  0.51100000000E-03 0.  1.
</event>
<event>
 8    1  0.1148488E+005  0.1043930E+01  0.7957747E-01            NaN
         13   -1    0    0    0    0  0.00000000000E+00  0.00000000000E+00  0.74505805969E-08  0.10566000000E+00  0.10566000000E+00 0.  1.
     999900   -1    0    0    0    0 -0.00000000000E+00 -0.00000000000E+00 -0.74505805969E-08  0.93827000000E+00  0.93827000000E+00 0. -1.
     999902    2    1    2    0    0  0.16765724391E-01 -0.95843476084E-02  0.15878719796E-01  0.10189283405E+01  0.10186215589E+01 0.  0.
     999903    2    3    3    0    0 -0.84076496528E-02 -0.12246381418E+00  0.41653776665E-01  0.13098699884E+00  0.18827702959E-01 0.  0.
         14    1    1    2    0    0 -0.16765724391E-01  0.95843476084E-02 -0.15878719796E-01  0.25001659461E-01  0.00000000000E+00 0. -1.
     999901    1    3    3    0    0  0.25173374044E-01  0.11287946657E+00 -0.25775056869E-01  0.88794134170E+00  0.88000000000E+00 0. -1.
        -11    1    4    4    0    0  0.56514904764E-02 -0.41895875642E-01  0.16961040119E-01  0.45553723705E-01  0.51100000000E-03 0.  1.
         11    1    4    4    0    0 -0.14059140129E-01 -0.80567938540E-01  0.24692736546E-01  0.85433275139E-01  0.51100000000E-03 0. -1.
</event>
<event>
 8    1  0.1148488E+005  0.1043930E+01  0.7957747E-01            NaN
         13   -1    0    0    0    0  0.00000000000E+00  0.00000000000E+00  0.74505805969E-08  0.10566000000E+00  0.10566000000E+00 0. -1.
     999900   -1    0    0    0    0 -0.00000000000E+00 -0.00000000000E+00 -0.74505805969E-08  0.93827000000E+00  0.93827000000E+00 0.  1.
     999902    2    1    2    0    0  0.25535692111E-01  0.23399627492E-02  0.25563034221E-01  0.10077220490E+01  0.10070713541E+01 0.  0.
     999903    2    3    3    0    0  0.10854222330E+00  0.20833061306E-02  0.55156737326E-01  0.12332059188E+00  0.19492262718E-01 0.  0.
         14    1    1    2    0    0 -0.25535692111E-01 -0.23399627492E-02 -0.25563034221E-01  0.36207951003E-01  0.00000000000E+00 0. -1.
     999901    1    3    3    0    0 -0.83006531186E-01  0.25665661858E-03 -0.29593703105E-01  0.88440145712E+00  0.88000000000E+00 0.  1.
        -11    1    4    4    0    0  0.16417771262E-01 -0.47222608152E-02  0.14414822985E-01  0.22358246870E-01  0.51100000000E-03 0.  1.
         11    1    4    4    0    0  0.92124452035E-01  0.68055669459E-02  0.40741914341E-01  0.10096234501E+00  0.51100000000E-03 0. -1.
</event>
<event>
 8    1  0.1148488E+005  0.1043930E+01  0.7957747E-01            NaN
         13   -1    0    0    0    0  0.00000000000E+00  0.00000000000E+00  0.74505805969E-08  0.10566000000E+00  0.10566000000E+00 0. -1.
     999900   -1    0    0    0    0 -0.00000000000E+00 -0.00000000000E+00 -0.74505805969E-08  0.93827000000E+00  0.93827000000E+00 0.  1.
     999902    2    1    2    0    0  0.17765857955E-02 -0.10335221292E-01 -0.21246922729E-01  0.10202360180E+01  0.10199608462E+01 0.  0.
     999903    2    3    3    0    0 -0.11708046288E+00 -0.30490665957E-02  0.50871354817E-01  0.12929206242E+00  0.20283270695E-01 0.  0.
         14    1    1    2    0    0 -0.17765857955E-02  0.10335221292E-01  0.21246922729E-01  0.23693981972E-01  0.00000000000E+00 0. -1.
     999901    1    3    3    0    0  0.11885704867E+00 -0.72861546966E-02 -0.72118277546E-01  0.89094395560E+00  0.88000000000E+00 0. -1.
        -11    1    4    4    0    0 -0.16657059810E-01 -0.66877157570E-02  0.11725771034E-01  0.21446165413E-01  0.51100000000E-03 0. -1.
         11    1    4    4    0    0 -0.10042340307E+00  0.36386491612E-02  0.39145583783E-01  0.10784589701E+00  0.51100000000E-03 0.  1.
</event>
<event>
 8    1  0.1148488E+005  0.1043930E+01  0.7957747E-01            NaN
         13   -1    0    0    0    0  0.00000000000E+00  0.00000000000E+00  0.74505805969E-08  0.10566000000E+00  0.10566000000E+00 0.  1.
     999900   -1    0    0    0    0 -0.00000000000E+00 -0.00000000000E+00 -0.74505805969E-08  0.93827000000E+00  0.93827000000E+00 0. -1.
     999902    2    1    2    0    0  0.88659713803E-02  0.50798661213E-02  0.20308061799E-01  0.10211961516E+01  0.10209430700E+01 0.  0.
     999903    2    3    3    0    0  0.60653205413E-01 -0.94628899789E-01  0.68157240737E-01  0.13276309306E+00  0.18633019399E-01 0.  0.
         14    1    1    2    0    0 -0.88659713803E-02 -0.50798661213E-02 -0.20308061799E-01  0.22733848385E-01  0.00000000000E+00 0. -1.
     999901    1    3    3    0    0 -0.51787234033E-01  0.99708765911E-01 -0.47849178937E-01  0.88843305855E+00  0.88000000000E+00 0. -1.
        -11    1    4    4    0    0  0.46415450276E-01 -0.60321583976E-01  0.52423317635E-01  0.92420521913E-01  0.51100000000E-03 0. -1.
         11    1    4    4    0    0  0.14237755137E-01 -0.34307315813E-01  0.15733923102E-01  0.40342571148E-01  0.51100000000E-03 0.  1.
</event>
<event>
 8    1  0.1148488E+005  0.1043930E+01  0.7957747E-01            NaN
         13   -1    0    0    0    0  0.00000000000E+00  0.00000000000E+00  0.74505805969E-08  0.10566000000E+00  0.10566000000E+00 0.  1.
     999900   -1    0    0    0    0 -0.00000000000E+00 -0.00000000000E+00 -0.74505805969E-08  0.93827000000E+00  0.93827000000E+00 0.  1.
     999902    2    1    2    0    0  0.15239147894E-01 -0.17606030587E-01  0.64093601920E-02  0.10197787301E+01  0.10194927045E+01 0.  0.
     999903    2    3    3    0    0 -0.12374820759E+00 -0.13244424712E-02 -0.26664803238E-01  0.12810812082E+00  0.19629209310E-01 0.  0.
         14    1    1    2    0    0 -0.15239147894E-01  0.17606030587E-01 -0.64093601920E-02  0.24151269938E-01  0.00000000000E+00 0. -1.
     999901    1    3    3    0    0  0.13898735549E+00 -0.16281588116E-01  0.33074163430E-01  0.89167060924E+00  0.88000000000E+00 0.  1.
        -11    1    4    4    0    0 -0.50382219654E-01 -0.10160375640E-01 -0.11522295868E-01  0.52674716074E-01  0.51100000000E-03 0. -1.
         11    1    4    4    0    0 -0.73365987940E-01  0.88359331685E-02 -0.15142507370E-01  0.75433404747E-01  0.51100000000E-03 0.  1.
</event>
<event>
 8    1  0.1148488E+005  0.1043930E+01  0.7957747E-01            NaN
         13   -1    0    0    0    0  0.00000000000E+00  0.00000000000E+00  0.74505805969E-08  0.10566000000E+00  0.10566000000E+00 0. -1.
     999900   -1    0    0    0    0 -0.00000000000E+00 -0.00000000000E+00 -0.74505805969E-08  0.93827000000E+00  0.93827000000E+00 0.  1.
     999902    2    1    2    0    0 -0.19757452469E-02 -0.60873002644E-02 -0.29189717479E-01  0.10140469212E+01  0.10136065114E+01 0.  0.
     999903    2    3    3    0    0 -0.12415079570E-01 -0.47325429789E-01 -0.11728690949E+00  0.12862573424E+00  0.19862775877E-01 0.  0.
         14    1    1    2    0    0  0.19757452469E-02  0.60873002644E-02  0.29189717479E-01  0.29883078829E-01  0.00000000000E+00 0. -1.
     999901    1    3    3    0    0  0.10439334323E-01  0.41238129524E-01  0.88097192011E-01  0.88542118693E+00  0.88000000000E+00 0. -1.
        -11    1    4    4    0    0 -0.14308066879E-01 -0.16708442654E-01 -0.53335082492E-01  0.57695623570E-01  0.51100000000E-03 0.  1.
         11    1    4    4    0    0  0.18929873090E-02 -0.30616987135E-01 -0.63951826998E-01  0.70930110669E-01  0.51100000000E-03 0. -1.
</event>
<event>
 8    1  0.1148488E+005  0.1043930E+01  0.7957747E-01            NaN
         13   -1    0    0    0    0  0.00000000000E+00  0.00000000000E+00  0.74505805969E-08  0.10566000000E+00  0.10566000000E+00 0. -1.
     999900   -1    0    0    0    0 -0.00000000000E+00 -0.00000000000E+00 -0.74505805969E-08  0.93827000000E+00  0.93827000000E+00 0.  1.
     999902    2    1    2    0    0  0.20013744557E-01 -0.34649303213E-02 -0.11799856384E-01  0.10204397398E+01  0.10201693341E+01 0.  0.
     999903    2    3    3    0    0  0.90421259815E-03 -0.12693632476E+00 -0.27722409833E-01  0.13147186234E+00  0.20066649877E-01 0.  0.
         14    1    1    2    0    0 -0.20013744557E-01  0.34649303213E-02  0.11799856384E-01  0.23490260195E-01  0.00000000000E+00 0. -1.
     999901    1    3    3    0    0  0.19109531959E-01  0.12347139444E+00  0.15922553450E-01  0.88896787746E+00  0.88000000000E+00 0. -1.
        -11    1    4    4    0    0 -0.48528254459E-02 -0.12051625990E-01 -0.63633760040E-02  0.14475678878E-01  0.51100000000E-03 0.  1.
         11    1    4    4    0    0  0.57570380441E-02 -0.11488469877E+00 -0.21359033829E-01  0.11699618346E+00  0.51100000000E-03 0. -1.
</event>
<event>
 8    1  0.1148488E+005  0.1043930E+01  0.7957747E-01            NaN
         13   -1    0    0    0    0  0.00000000000E+00  0.00000000000E+00  0.74505805969E-08  0.10566000000E+00  0.10566000000E+00 0. -1.
     999900   -1    0    0    0    0 -0.00000000000E+00 -0.00000000000E+00 -0.74505805969E-08  0.93827000000E+00  0.93827000000E+00 0.  1.
     999902    2    1    2    0    0 -0.92461891691E-02 -0.19152591596E-01  0.10979314284E-01  0.10199955244E+01  0.10197146712E+01 0.  0.
     999903    2    3    3    0    0 -0.66066821787E-01 -0.79809641060E-01 -0.78827268545E-01  0.13152882034E+00  0.18753361494E-01 0.  0.
         14    1    1    2    0    0  0.92461891691E-02  0.19152591596E-01 -0.10979314284E-01  0.23934475577E-01  0.00000000000E+00 0.  1.
     999901    1    3    3    0    0  0.56820632618E-01  0.60657049464E-01  0.89806582828E-01  0.88846670408E+00  0.88000000000E+00 0. -1.
        -11    1    4    4    0    0 -0.45100404159E-01 -0.48055952618E-01 -0.59754166488E-01  0.88962028816E-01  0.51100000000E-03 0. -1.
         11    1    4    4    0    0 -0.20966417628E-01 -0.31753688442E-01 -0.19073102056E-01  0.42566791526E-01  0.51100000000E-03 0.  1.
</event>
<event>
 8    1  0.1148488E+005  0.1043930E+01  0.7957747E-01            NaN
         13   -1    0    0    0    0  0.00000000000E+00  0.00000000000E+00  0.74505805969E-08  0.10566000000E+00  0.10566000000E+00 0. -1.
     999900   -1    0    0    0    0 -0.00000000000E+00 -0.00000000000E+00 -0.74505805969E-08  0.93827000000E+00  0.93827000000E+00 0. -1.
     999902    2    1    2    0    0  0.21931908307E-01  0.69552710877E-02 -0.25514130253E-02  0.10207806133E+01  0.10205180872E+01 0.  0.
     999903    2    3    3    0    0 -0.91160578103E-01 -0.85625698120E-01 -0.21610232083E-01  0.12852258728E+00  0.20224790050E-01 0.  0.
         14    1    1    2    0    0 -0.21931908307E-01 -0.69552710877E-02  0.25514130253E-02  0.23149386737E-01  0.00000000000E+00 0. -1.
     999901    1    3    3    0    0  0.11309248641E+00  0.92580969208E-01  0.19058819058E-01  0.89225802598E+00  0.88000000000E+00 0. -1.
        -11    1    4    4    0    0 -0.51391653456E-01 -0.34875671300E-01 -0.79917180433E-02  0.62622225862E-01  0.51100000000E-03 0. -1.
         11    1    4    4    0    0 -0.39768924647E-01 -0.50750026820E-01 -0.13618514040E-01  0.65900361421E-01  0.51100000000E-03 0.  1.
</event>
<event>
 8    1  0.1148488E+005  0.1043930E+01  0.7957747E-01            NaN
         13   -1    0    0    0    0  0.00000000000E+00  0.00000000000E+00  0.74505805969E-08  0.10566000000E+00  0.10566000000E+00 0. -1.
     999900   -1    0    0    0    0 -0.00000000000E+00 -0.00000000000E+00 -0.74505805969E-08  0.93827000000E+00  0.93827000000E+00 0.  1.
     999902    2    1    2    0    0  0.94865743146E-02 -0.13523025666E-01 -0.72086915976E-02  0.10259068884E+01  0.10257485614E+01 0.  0.
     999903    2    3    3    0    0  0.75099273205E-02 -0.44679233405E-01 -0.12785891508E+00  0.13712621087E+00  0.20076419935E-01 0.  0.
         14    1    1    2    0    0 -0.94865743146E-02  0.13523025666E-01  0.72086915976E-02  0.18023111550E-01  0.00000000000E+00 0. -1.
     999901    1    3    3    0    0  0.19766469941E-02  0.31156207738E-01  0.12065022348E+00  0.88878067758E+00  0.88000000000E+00 0. -1.
        -11    1    4    4    0    0 -0.40674308445E-02 -0.10368647354E-01 -0.15632214865E-01  0.19201044352E-01  0.51100000000E-03 0. -1.
         11    1    4    4    0    0  0.11577358165E-01 -0.34310586050E-01 -0.11222670021E+00  0.11792516652E+00  0.51100000000E-03 0.  1.
</event>
<event>
 8    1  0.1148488E+005  0.1043930E+01  0.7957747E-01            NaN
         13   -1    0    0    0    0  0.00000000000E+00  0.00000000000E+00  0.74505805969E-08  0.10566000000E+00  0.10566000000E+00 0. -1.
     999900   -1    0    0    0    0 -0.00000000000E+00 -0.00000000000E+00 -0.74505805969E-08  0.93827000000E+00  0.93827000000E+00 0. -1.
     999902    2    1    2    0    0 -0.16756565528E-01  0.10215449941E-01  0.14229208599E-01  0.10196893671E+01  0.10194011954E+01 0.  0.
     999903    2    3    3    0    0 -0.87029512950E-01 -0.94868251177E-01 -0.32024600465E-02  0.13048481558E+00  0.21021658855E-01 0.  0.
         14    1    1    2    0    0  0.16756565528E-01 -0.10215449941E-01 -0.14229208599E-01  0.24240632895E-01  0.00000000000E+00 0.  1.
     999901    1    3    3    0    0  0.70272947423E-01  0.10508370112E+00  0.17431668646E-01  0.88920455152E+00  0.88000000000E+00 0.  1.
        -11    1    4    4    0    0 -0.59008388232E-01 -0.49163266934E-01 -0.31531868513E-02  0.76871453776E-01  0.51100000000E-03 0. -1.
         11    1    4    4    0    0 -0.28021124719E-01 -0.45704984243E-01 -0.49273195150E-04  0.53613361804E-01  0.51100000000E-03 0.  1.
</event>
<event>
 8    1  0.1148488E+005  0.1043930E+01  0.7957747E-01            NaN
         13   -1    0    0    0    0  0.00000000000E+00  0.00000000000E+00  0.74505805969E-08  0.10566000000E+00  0.10566000000E+00 0.  1.
     999900   -1    0    0    0    0 -0.00000000000E+00 -0.00000000000E+00 -0.74505805969E-08  0.93827000000E+00  0.93827000000E+00 0.  1.
     999902    2    1    2    0    0 -0.11158998602E-01  0.20266253555E-01  0.47663345110E-02  0.10203087759E+01  0.10200353111E+01 0.  0.
     999903    2    3    3    0    0  0.21270591767E-01  0.11406408463E+00  0.61534415096E-01  0.13291240088E+00  0.20400210529E-01 0.  0.
         14    1    1    2    0    0  0.11158998602E-01 -0.20266253555E-01 -0.47663345110E-02  0.23621224092E-01  0.00000000000E+00 0.  1.
     999901    1    3    3    0    0 -0.32429590369E-01 -0.93797831072E-01 -0.56768080585E-01  0.88739637503E+00  0.88000000000E+00 0. -1.
        -11    1    4    4    0    0  0.12300266914E-01  0.55143881778E-01  0.18700025435E-01  0.59515513406E-01  0.51100000000E-03 0.  1.
         11    1    4    4    0    0  0.89703248531E-02  0.58920202849E-01  0.42834389661E-01  0.73396887471E-01  0.51100000000E-03 0. -1.
</event>
<event>
 8    1  0.1148488E+005  0.1043930E+01  0.7957747E-01            NaN
         13   -1    0    0    0    0  0.00000000000E+00  0.00000000000E+00  0.74505805969E-08  0.10566000000E+00  0.10566000000E+00 0.  1.
     999900   -1    0    0    0    0 -0.00000000000E+00 -0.00000000000E+00 -0.74505805969E-08  0.93827000000E+00  0.93827000000E+00 0. -1.
     999902    2    1    2    0    0  0.86852340327E-02  0.26538605982E-02  0.21890311192E-01  0.10202305909E+01  0.10199552915E+01 0.  0.
     999903    2    3    3    0    0 -0.60148740885E-01 -0.71309403964E-01 -0.81893376138E-01  0.12838994689E+00  0.32780349034E-01 0.  0.
         14    1    1    2    0    0 -0.86852340327E-02 -0.26538605982E-02 -0.21890311192E-01  0.23699409072E-01  0.00000000000E+00 0. -1.
     999901    1    3    3    0    0  0.68833974918E-01  0.73963264562E-01  0.10378368733E+00  0.89184064404E+00  0.88000000000E+00 0.  1.
        -11    1    4    4    0    0 -0.24446317100E-01 -0.28457096268E-01 -0.54712694302E-01  0.66341305282E-01  0.51100000000E-03 0.  1.
         11    1    4    4    0    0 -0.35702423785E-01 -0.42852307696E-01 -0.27180681835E-01  0.62048641605E-01  0.51100000000E-03 0. -1.
</event>
<event>
 8    1  0.1148488E+005  0.1043930E+01  0.7957747E-01            NaN
         13   -1    0    0    0    0  0.00000000000E+00  0.00000000000E+00  0.74505805969E-08  0.10566000000E+00  0.10566000000E+00 0. -1.
     999900   -1    0    0    0    0 -0.00000000000E+00 -0.00000000000E+00 -0.74505805969E-08  0.93827000000E+00  0.93827000000E+00 0. -1.
     999902    2    1    2    0    0 -0.13296592272E-01  0.85085755759E-02 -0.17559919587E-01  0.10203175880E+01  0.10200443296E+01 0.  0.
     999903    2    3    3    0    0 -0.10233781475E+00  0.80017461375E-01  0.15544277161E-01  0.13232110834E+00  0.19784557291E-01 0.  0.
         14    1    1    2    0    0  0.13296592272E-01 -0.85085755759E-02  0.17559919587E-01  0.23612411996E-01  0.00000000000E+00 0. -1.
     999901    1    3    3    0    0  0.89041222480E-01 -0.71508885799E-01 -0.33104196747E-01  0.88799647966E+00  0.88000000000E+00 0. -1.
        -11    1    4    4    0    0 -0.62785835363E-01  0.59809646955E-01  0.62435717147E-02  0.86939624452E-01  0.51100000000E-03 0.  1.
         11    1    4    4    0    0 -0.39551979390E-01  0.20207814420E-01  0.93007054460E-02  0.45381483891E-01  0.51100000000E-03 0. -1.
</event>
<event>
 8    1  0.1148488E+005  0.1043930E+01  0.7957747E-01            NaN
         13   -1    0    0    0    0  0.00000000000E+00  0.00000000000E+00  0.74505805969E-08  0.10566000000E+00  0.10566000000E+00 0.  1.
     999900   -1    0    0    0    0 -0.00000000000E+00 -0.00000000000E+00 -0.74505805969E-08  0.93827000000E+00  0.93827000000E+00 0.  1.
     999902    2    1    2    0    0  0.20900482478E-01 -0.91343687700E-02 -0.65093552287E-02  0.10202099965E+01  0.10199342128E+01 0.  0.
     999903    2    3    3    0    0 -0.88861734800E-01  0.88418043052E-01  0.14134334592E-01  0.12780292608E+00  0.20485366793E-01 0.  0.
         14    1    1    2    0    0 -0.20900482478E-01  0.91343687700E-02  0.65093552287E-02  0.23720003502E-01  0.00000000000E+00 0.  1.
     999901    1    3    3    0    0  0.10976221728E+00 -0.97552411822E-01 -0.20643689821E-01  0.89240707041E+00  0.88000000000E+00 0.  1.
        -11    1    4    4    0    0 -0.75942451917E-01  0.63850302840E-01  0.97523798450E-02  0.99696976933E-01  0.51100000000E-03 0.  1.
         11    1    4    4    0    0 -0.12919282884E-01  0.24567740211E-01  0.43819547474E-02  0.28105949152E-01  0.51100000000E-03 0. -1.
</event>
<event>
 8    1  0.1148488E+005  0.1043930E+01  0.7957747E-01            NaN
         13   -1    0    0    0    0  0.00000000000E+00  0.00000000000E+00  0.74505805969E-08  0.10566000000E+00  0.10566000000E+00 0. -1.
     999900   -1    0    0    0    0 -0.00000000000E+00 -0.00000000000E+00 -0.74505805969E-08  0.93827000000E+00  0.93827000000E+00 0. -1.
     999902    2    1    2    0    0 -0.96542694779E-02  0.20535597584E-01 -0.34474386128E-02  0.10209778646E+01  0.10207198438E+01 0.  0.
     999903    2    3    3    0    0  0.19415724419E-01  0.11663470837E+00 -0.58563353609E-01  0.13355582985E+00  0.20660778087E-01 0.  0.
         14    1    1    2    0    0  0.96542694779E-02 -0.20535597584E-01  0.34474386128E-02  0.22952135419E-01  0.00000000000E+00 0.  1.
     999901    1    3    3    0    0 -0.29069993897E-01 -0.96099110781E-01  0.55115914996E-01  0.88742203473E+00  0.88000000000E+00 0.  1.
        -11    1    4    4    0    0  0.14795069177E-01  0.66598403568E-01 -0.44204169720E-01  0.81292749808E-01  0.51100000000E-03 0.  1.
         11    1    4    4    0    0  0.46206552424E-02  0.50036304797E-01 -0.14359183889E-01  0.52263080043E-01  0.51100000000E-03 0. -1.
</event>
<event>
 8    1  0.1148488E+005  0.1043930E+01  0.7957747E-01            NaN
         13   -1    0    0    0    0  0.00000000000E+00  0.00000000000E+00  0.74505805969E-08  0.10566000000E+00  0.10566000000E+00 0.  1.
     999900   -1    0    0    0    0 -0.00000000000E+00 -0.00000000000E+00 -0.74505805969E-08  0.93827000000E+00  0.93827000000E+00 0.  1.
     999902    2    1    2    0    0  0.20873480861E-01  0.42248120771E-02  0.99358714898E-02  0.10204295153E+01  0.10201588714E+01 0.  0.
     999903    2    3    3    0    0 -0.10907646443E+00 -0.64715316026E-01 -0.64704206870E-02  0.12806809972E+00  0.16547646342E-01 0.  0.
         14    1    1    2    0    0 -0.20873480861E-01 -0.42248120771E-02 -0.99358714898E-02  0.23500484732E-01  0.00000000000E+00 0. -1.
     999901    1    3    3    0    0  0.12994994529E+00  0.68940128103E-01  0.16406292177E-01  0.89236141555E+00  0.88000000000E+00 0.  1.
        -11    1    4    4    0    0 -0.55696046563E-01 -0.37863155914E-01 -0.10561149660E-01  0.68172334430E-01  0.51100000000E-03 0.  1.
         11    1    4    4    0    0 -0.53380417869E-01 -0.26852160112E-01  0.40907289731E-02  0.59895765285E-01  0.51100000000E-03 0. -1.
</event>
<event>
 8    1  0.1148488E+005  0.1043930E+01  0.7957747E-01            NaN
         13   -1    0    0    0    0  0.00000000000E+00  0.00000000000E+00  0.74505805969E-08  0.10566000000E+00  0.10566000000E+00 0. -1.
     999900   -1    0    0    0    0 -0.00000000000E+00 -0.00000000000E+00 -0.74505805969E-08  0.93827000000E+00  0.93827000000E+00 0. -1.
     999902    2    1    2    0    0  0.16683130529E-01  0.41690469846E-02  0.17008879415E-01  0.10197430247E+01  0.10194561425E+01 0.  0.
     999903    2    3    3    0    0 -0.85857000597E-01  0.90294290961E-01  0.29379487466E-01  0.12952672056E+00  0.19736603669E-01 0.  0.
         14    1    1    2    0    0 -0.16683130529E-01 -0.41690469846E-02 -0.17008879415E-01  0.24186975337E-01  0.00000000000E+00 0.  1.
     999901    1    3    3    0    0  0.10254013113E+00 -0.86125243977E-01 -0.12370608051E-01  0.89021630410E+00  0.88000000000E+00 0.  1.
        -11    1    4    4    0    0 -0.66238880236E-01  0.56472542600E-01  0.20596240847E-01  0.89449447067E-01  0.51100000000E-03 0. -1.
         11    1    4    4    0    0 -0.19618120362E-01  0.33821748361E-01  0.87832466185E-02  0.40077273496E-01  0.51100000000E-03 0.  1.
</event>
<event>
 7    1  0.1148488E+005  0.1043930E+01  0.7957747E-01            NaN
         13   -1    0    0    0    0  0.00000000000E+00  0.00000000000E+00  0.74505805969E-08  0.10566000000E+00  0.10566000000E+00 0. -1.
     999900   -1    0    0    0    0 -0.00000000000E+00 -0.00000000000E+00 -0.74505805969E-08  0.93827000000E+00  0.93827000000E+00 0.  1.
     999903    2    1    2    0    0 -0.46960051155E-01 -0.83273932131E-01 -0.52385559011E-01  0.11058009872E+00  0.18545006417E-01 0.  0.
         14    1    1    2    0    0 -0.10048932329E-01 -0.28433812163E-01 -0.27581782197E-01  0.40868293630E-01  0.00000000000E+00 0.  1.
     999901    1    1    2    0    0  0.57008983484E-01  0.11170774429E+00  0.79967341208E-01  0.89248160765E+00  0.88000000000E+00 0. -1.
        -11    1    3    3    0    0 -0.20127202402E-01 -0.42915346125E-01 -0.35620590219E-01  0.59295183432E-01  0.51100000000E-03 0.  1.
         11    1    3    3    0    0 -0.26832848753E-01 -0.40358586005E-01 -0.16764968792E-01  0.51284915288E-01  0.51100000000E-03 0. -1.
</event>
<event>
 8    1  0.1148488E+005  0.1043930E+01  0.7957747E-01            NaN
         13   -1    0    0    0    0  0.00000000000E+00  0.00000000000E+00  0.74505805969E-08  0.10566000000E+00  0.10566000000E+00 0.  1.
     999900   -1    0    0    0    0 -0.00000000000E+00 -0.00000000000E+00 -0.74505805969E-08  0.93827000000E+00  0.93827000000E+00 0.  1.
     999902    2    1    2    0    0 -0.10664202943E-01 -0.20778232424E-01 -0.29132895977E-02  0.10203939123E+01  0.10201224382E+01 0.  0.
     999903    2    3    3    0    0  0.84908589431E-01 -0.81256377892E-01 -0.55456923110E-01  0.13160113661E+00  0.20768277014E-01 0.  0.
         14    1    1    2    0    0  0.10664202943E-01  0.20778232424E-01  0.29132895977E-02  0.23536087681E-01  0.00000000000E+00 0. -1.
     999901    1    3    3    0    0 -0.95572792374E-01  0.60478145468E-01  0.52543633512E-01  0.88879277570E+00  0.88000000000E+00 0.  1.
        -11    1    4    4    0    0  0.70696346835E-01 -0.62822100728E-01 -0.52388007684E-01  0.10811731714E+00  0.51100000000E-03 0.  1.
         11    1    4    4    0    0  0.14212242595E-01 -0.18434277164E-01 -0.30689154259E-02  0.23483819473E-01  0.51100000000E-03 0. -1.
</event>
<event>
 8    1  0.1148488E+005  0.1043930E+01  0.7957747E-01            NaN
         13   -1    0    0    0    0  0.00000000000E+00  0.00000000000E+00  0.74505805969E-08  0.10566000000E+00  0.10566000000E+00 0.  1.
     999900   -1    0    0    0    0 -0.00000000000E+00 -0.00000000000E+00 -0.74505805969E-08  0.93827000000E+00  0.93827000000E+00 0. -1.
     999902    2    1    2    0    0  0.61711586558E-02  0.22626416626E-01 -0.47116720772E-02  0.10200085079E+01  0.10197279630E+01 0.  0.
     999903    2    3    3    0    0  0.55916981196E-01 -0.10031555118E+00 -0.54421564118E-01  0.12868340021E+00  0.20193866749E-01 0.  0.
         14    1    1    2    0    0 -0.61711586558E-02 -0.22626416626E-01  0.47116720772E-02  0.23921492058E-01  0.00000000000E+00 0. -1.
     999901    1    3    3    0    0 -0.49745822541E-01  0.12294196780E+00  0.49709892040E-01  0.89132510773E+00  0.88000000000E+00 0.  1.
        -11    1    4    4    0    0  0.13603696098E-01 -0.29423983060E-01 -0.25346294830E-01  0.41152486064E-01  0.51100000000E-03 0.  1.
         11    1    4    4    0    0  0.42313285098E-01 -0.70891568118E-01 -0.29075269288E-01  0.87530914145E-01  0.51100000000E-03 0. -1.
</event>
<event>
 8    1  0.1148488E+005  0.1043930E+01  0.7957747E-01            NaN
         13   -1    0    0    0    0  0.00000000000E+00  0.00000000000E+00  0.74505805969E-08  0.10566000000E+00  0.10566000000E+00 0. -1.
     999900   -1    0    0    0    0 -0.00000000000E+00 -0.00000000000E+00 -0.74505805969E-08  0.93827000000E+00  0.93827000000E+00 0. -1.
     999902    2    1    2    0    0  0.10960874264E-01 -0.19877374508E-01  0.75030122660E-02  0.10200229723E+01  0.10197427705E+01 0.  0.
     999903    2    3    3    0    0  0.59555442112E-01  0.40519647715E-03  0.11559852760E+00  0.13184649479E+00  0.21759221833E-01 0.  0.
         14    1    1    2    0    0 -0.10960874264E-01  0.19877374508E-01 -0.75030122660E-02  0.23907027733E-01  0.00000000000E+00 0. -1.
     999901    1    3    3    0    0 -0.48594567848E-01 -0.20282570985E-01 -0.10809551534E+00  0.88817647748E+00  0.88000000000E+00 0. -1.
        -11    1    4    4    0    0  0.44537146764E-01 -0.80210629790E-02  0.72927075416E-01  0.85828400561E-01  0.51100000000E-03 0.  1.
         11    1    4    4    0    0  0.15018295348E-01  0.84262594561E-02  0.42671452187E-01  0.46018094228E-01  0.51100000000E-03 0. -1.
</event>
<event>
 8    1  0.1148488E+005  0.1043930E+01  0.7957747E-01            NaN
         13   -1    0    0    0    0  0.00000000000E+00  0.00000000000E+00  0.74505805969E-08  0.10566000000E+00  0.10566000000E+00 0.  1.
     999900   -1    0    0    0    0 -0.00000000000E+00 -0.00000000000E+00 -0.74505805969E-08  0.93827000000E+00  0.93827000000E+00 0. -1.
     999902    2    1    2    0    0 -0.13675430675E-01 -0.14198456874E-01 -0.10882207161E-01  0.10214125398E+01  0.10211643063E+01 0.  0.
     999903    2    3    3    0    0  0.27354644182E-01 -0.12603637252E+00  0.23681385505E-01  0.13271358718E+00  0.20460802701E-01 0.  0.
         14    1    1    2    0    0  0.13675430675E-01  0.14198456874E-01  0.10882207161E-01  0.22517460213E-01  0.00000000000E+00 0.  1.
     999901    1    3    3    0    0 -0.41030074857E-01  0.11183791565E+00 -0.34563592666E-01  0.88869895260E+00  0.88000000000E+00 0.  1.
        -11    1    4    4    0    0  0.18527921527E-01 -0.69064729909E-01  0.22792262772E-01  0.75053108908E-01  0.51100000000E-03 0.  1.
         11    1    4    4    0    0  0.88267226550E-02 -0.56971642613E-01  0.88912273340E-03  0.57660478276E-01  0.51100000000E-03 0. -1.
</event>
<event>
 8    1  0.1148488E+005  0.1043930E+01  0.7957747E-01            NaN
         13   -1    0    0    0    0  0.00000000000E+00  0.00000000000E+00  0.74505805969E-08  0.10566000000E+00  0.10566000000E+00 0. -1.
     999900   -1    0    0    0    0 -0.00000000000E+00 -0.00000000000E+00 -0.74505805969E-08  0.93827000000E+00  0.93827000000E+00 0. -1.
     999902    2    1    2    0    0 -0.18181643048E-01 -0.57993462829E-02 -0.14650871532E-01  0.10198706443E+01  0.10195868175E+01 0.  0.
     999903    2    3    3    0    0 -0.10148309120E+00  0.71782384873E-01 -0.40086380081E-01  0.13217417511E+00  0.20287092459E-01 0.  0.
         14    1    1    2    0    0  0.18181643048E-01  0.57993462829E-02  0.14650871532E-01  0.24059355725E-01  0.00000000000E+00 0. -1.
     999901    1    3    3    0    0  0.83301448152E-01 -0.77581731156E-01  0.25435508548E-01  0.88769646917E+00  0.88000000000E+00 0. -1.
        -11    1    4    4    0    0 -0.20634702961E-01  0.25113466503E-01 -0.81966119447E-02  0.33524956890E-01  0.51100000000E-03 0. -1.
         11    1    4    4    0    0 -0.80848388239E-01  0.46668918370E-01 -0.31889768136E-01  0.98649218220E-01  0.51100000000E-03 0.  1.
</event>
<event>
 8    1  0.1148488E+005  0.1043930E+01  0.7957747E-01            NaN
         13   -1    0    0    0    0  0.00000000000E+00  0.00000000000E+00  0.74505805969E-08  0.10566000000E+00  0.10566000000E+00 0.  1.
     999900   -1    0    0    0    0 -0.00000000000E+00 -0.00000000000E+00 -0.74505805969E-08  0.93827000000E+00  0.93827000000E+00 0.  1.
     999902    2    1    2    0    0 -0.30279204722E-02 -0.21220857865E-01  0.98938464562E-02  0.10203210757E+01  0.10200478989E+01 0.  0.
     999903    2    3    3    0    0  0.86329764305E-01 -0.77236674105E-01 -0.58443858523E-01  0.13139328927E+00  0.20740777063E-01 0.  0.
         14    1    1    2    0    0  0.30279204722E-02  0.21220857865E-01 -0.98938464562E-02  0.23608924343E-01  0.00000000000E+00 0. -1.
     999901    1    3    3    0    0 -0.89357684778E-01  0.56015816240E-01  0.68337704979E-01  0.88892778639E+00  0.88000000000E+00 0. -1.
        -11    1    4    4    0    0  0.20790942855E-01 -0.30525459846E-01 -0.22485388866E-01  0.43242581295E-01  0.51100000000E-03 0.  1.
         11    1    4    4    0    0  0.65538821450E-01 -0.46711214259E-01 -0.35958469657E-01  0.88150707970E-01  0.51100000000E-03 0. -1.
</event>
<event>
 7    1  0.1148488E+005  0.1043930E+01  0.7957747E-01            NaN
         13   -1    0    0    0    0  0.00000000000E+00  0.00000000000E+00  0.74505805969E-08  0.10566000000E+00  0.10566000000E+00 0. -1.
     999900   -1    0    0    0    0 -0.00000000000E+00 -0.00000000000E+00 -0.74505805969E-08  0.93827000000E+00  0.93827000000E+00 0. -1.
     999903    2    1    2    0    0 -0.60167826680E-01 -0.39089669893E-01 -0.88170752473E-01  0.11447559130E+00  0.13505915436E-01 0.  0.
         14    1    1    2    0    0 -0.34444821116E-02  0.31755103985E-01 -0.24100394303E-01  0.40013498868E-01  0.00000000000E+00 0.  1.
     999901    1    1    2    0    0  0.63612308792E-01  0.73345659087E-02  0.11227114678E+00  0.88944090983E+00  0.88000000000E+00 0.  1.
        -11    1    3    3    0    0 -0.38060338450E-01 -0.26845385144E-01 -0.47041393247E-01  0.66199832825E-01  0.51100000000E-03 0.  1.
         11    1    3    3    0    0 -0.22107488230E-01 -0.12244284750E-01 -0.41129359226E-01  0.48275758474E-01  0.51100000000E-03 0. -1.
</event>
<event>
 8    1  0.1148488E+005  0.1043930E+01  0.7957747E-01            NaN
         13   -1    0    0    0    0  0.00000000000E+00  0.00000000000E+00  0.74505805969E-08  0.10566000000E+00  0.10566000000E+00 0. -1.
     999900   -1    0    0    0    0 -0.00000000000E+00 -0.00000000000E+00 -0.74505805969E-08  0.93827000000E+00  0.93827000000E+00 0.  1.
     999902    2    1    2    0    0 -0.95279302978E-02 -0.18934258908E-01  0.15461105263E-01  0.10176938914E+01  0.10173556523E+01 0.  0.
     999903    2    3    3    0    0 -0.80560006689E-02  0.36044629380E-04 -0.12451524982E+00  0.12642770283E+00  0.20371945387E-01 0.  0.
         14    1    1    2    0    0  0.95279302978E-02  0.18934258908E-01 -0.15461105263E-01  0.26236108555E-01  0.00000000000E+00 0.  1.
     999901    1    3    3    0    0 -0.14719296289E-02 -0.18970303538E-01  0.13997635508E+00  0.89126618862E+00  0.88000000000E+00 0. -1.
        -11    1    4    4    0    0 -0.58514231158E-02  0.84141889970E-02 -0.97831109241E-01  0.98367803601E-01  0.51100000000E-03 0. -1.
         11    1    4    4    0    0 -0.22045775531E-02 -0.83781443676E-02 -0.26684140576E-01  0.28059899225E-01  0.51100000000E-03 0.  1.
</event>
<event>
 8    1  0.1148488E+005  0.1043930E+01  0.7957747E-01            NaN
         13   -1    0    0    0    0  0.00000000000E+00  0.00000000000E+00  0.74505805969E-08  0.10566000000E+00  0.10566000000E+00 0. -1.
     999900   -1    0    0    0    0 -0.00000000000E+00 -0.00000000000E+00 -0.74505805969E-08  0.93827000000E+00  0.93827000000E+00 0. -1.
     999902    2    1    2    0    0  0.76017823005E-02  0.91210625160E-02  0.20373145425E-01  0.10203493738E+01  0.10200768592E+01 0.  0.
     999903    2    3    3    0    0  0.54292939758E-01  0.66946275004E-01 -0.94891971022E-01  0.12972607162E+00  0.19870592578E-01 0.  0.
         14    1    1    2    0    0 -0.76017823005E-02 -0.91210625160E-02 -0.20373145425E-01  0.23580626160E-01  0.00000000000E+00 0.  1.
     999901    1    3    3    0    0 -0.46691157458E-01 -0.57825212488E-01  0.11526511645E+00  0.89062330222E+00  0.88000000000E+00 0.  1.
        -11    1    4    4    0    0  0.27820195164E-01  0.40200961988E-01 -0.66716334467E-01  0.82712822521E-01  0.51100000000E-03 0.  1.
         11    1    4    4    0    0  0.26472744594E-01  0.26745313017E-01 -0.28175636555E-01  0.47013249101E-01  0.51100000000E-03 0. -1.
</event>
<event>
 8    1  0.1148488E+005  0.1043930E+01  0.7957747E-01            NaN
         13   -1    0    0    0    0  0.00000000000E+00  0.00000000000E+00  0.74505805969E-08  0.10566000000E+00  0.10566000000E+00 0.  1.
     999900   -1    0    0    0    0 -0.00000000000E+00 -0.00000000000E+00 -0.74505805969E-08  0.93827000000E+00  0.93827000000E+00 0.  1.
     999902    2    1    2    0    0  0.22719768363E-01 -0.16676777139E-01  0.59352577750E-02  0.10151284366E+01  0.10147197705E+01 0.  0.
     999903    2    3    3    0    0  0.97861772616E-01  0.41870165146E-01 -0.66517992828E-01  0.12702735069E+00  0.19526064214E-01 0.  0.
         14    1    1    2    0    0 -0.22719768363E-01  0.16676777139E-01 -0.59352577750E-02  0.28801563413E-01  0.00000000000E+00 0.  1.
     999901    1    3    3    0    0 -0.75142004253E-01 -0.58546942284E-01  0.72453250603E-01  0.88810108590E+00  0.88000000000E+00 0. -1.
        -11    1    4    4    0    0  0.28729508097E-01  0.30427764592E-02 -0.16390433740E-01  0.33219731535E-01  0.51100000000E-03 0. -1.
         11    1    4    4    0    0  0.69132264519E-01  0.38827388686E-01 -0.50127559088E-01  0.93807619152E-01  0.51100000000E-03 0.  1.
</event>
<event>
 8    1  0.1148488E+005  0.1043930E+01  0.7957747E-01            NaN
         13   -1    0    0    0    0  0.00000000000E+00  0.00000000000E+00  0.74505805969E-08  0.10566000000E+00  0.10566000000E+00 0. -1.
     999900   -1    0    0    0    0 -0.00000000000E+00 -0.00000000000E+00 -0.74505805969E-08  0.93827000000E+00  0.93827000000E+00 0. -1.
     999902    2    1    2    0    0 -0.12295087872E-01 -0.66312026687E-02  0.20063450656E-01  0.10194824217E+01  0.10191892484E+01 0.  0.
     999903    2    3    3    0    0  0.14993048703E-01  0.37956985644E-01 -0.11873626739E+00  0.12707101952E+00  0.19575968427E-01 0.  0.
         14    1    1    2    0    0  0.12295087872E-01  0.66312026687E-02 -0.20063450656E-01  0.24447578343E-01  0.00000000000E+00 0.  1.
     999901    1    3    3    0    0 -0.27288136574E-01 -0.44588188313E-01  0.13879971804E+00  0.89241140214E+00  0.88000000000E+00 0.  1.
        -11    1    4    4    0    0  0.10037174063E-01  0.38904573662E-01 -0.10624577776E+00  0.11359021581E+00  0.51100000000E-03 0. -1.
         11    1    4    4    0    0  0.49558746395E-02 -0.94758801777E-03 -0.12490489626E-01  0.13480803707E-01  0.51100000000E-03 0.  1.
</event>
<event>
 8    1  0.1148488E+005  0.1043930E+01  0.7957747E-01            NaN
         13   -1    0    0    0    0  0.00000000000E+00  0.00000000000E+00  0.74505805969E-08  0.10566000000E+00  0.10566000000E+00 0.  1.
     999900   -1    0    0    0    0 -0.00000000000E+00 -0.00000000000E+00 -0.74505805969E-08  0.93827000000E+00  0.93827000000E+00 0.  1.
     999902    2    1    2    0    0  0.11381574568E-01  0.20300385836E-01 -0.24125401018E-02  0.10205320032E+01  0.10202637420E+01 0.  0.
     999903    2    3    3    0    0  0.98042791366E-01  0.22068466980E-01  0.83251836620E-01  0.13213362519E+00  0.20712808381E-01 0.  0.
         14    1    1    2    0    0 -0.11381574568E-01 -0.20300385836E-01  0.24125401018E-02  0.23397996804E-01  0.00000000000E+00 0. -1.
     999901    1    3    3    0    0 -0.86661216798E-01 -0.17680811449E-02 -0.85664376721E-01  0.88839837801E+00  0.88000000000E+00 0.  1.
        -11    1    4    4    0    0  0.77006341279E-01  0.20315114422E-01  0.54683023797E-01  0.96608357214E-01  0.51100000000E-03 0. -1.
         11    1    4    4    0    0  0.21036450087E-01  0.17533525585E-02  0.28568812823E-01  0.35525267973E-01  0.51100000000E-03 0.  1.
</event>
<event>
 8    1  0.1148488E+005  0.1043930E+01  0.7957747E-01            NaN
         13   -1    0    0    0    0  0.00000000000E+00  0.00000000000E+00  0.74505805969E-08  0.10566000000E+00  0.10566000000E+00 0. -1.
     999900   -1    0    0    0    0 -0.00000000000E+00 -0.00000000000E+00 -0.74505805969E-08  0.93827000000E+00  0.93827000000E+00 0. -1.
     999902    2    1    2    0    0 -0.19024611266E-01 -0.13736558935E-01  0.44826919454E-02  0.10200401818E+01  0.10197603881E+01 0.  0.
     999903    2    3    3    0    0 -0.92767961502E-01  0.97617624917E-03 -0.90941367994E-01  0.13169323525E+00  0.21585369963E-01 0.  0.
         14    1    1    2    0    0  0.19024611266E-01  0.13736558935E-01 -0.44826919454E-02  0.23889818172E-01  0.00000000000E+00 0.  1.
     999901    1    3    3    0    0  0.73743350236E-01 -0.14712735184E-01  0.95424059939E-01  0.88834694658E+00  0.88000000000E+00 0.  1.
        -11    1    4    4    0    0 -0.18331419862E-01 -0.48130010855E-02 -0.94993667713E-02  0.21206249637E-01  0.51100000000E-03 0. -1.
         11    1    4    4    0    0 -0.74436541641E-01  0.57891773347E-02 -0.81442001223E-01  0.11048698561E+00  0.51100000000E-03 0.  1.
</event>
<event>
 8    1  0.1148488E+005  0.1043930E+01  0.7957747E-01            NaN
         13   -1    0    0    0    0  0.00000000000E+00  0.00000000000E+00  0.74505805969E-08  0.10566000000E+00  0.10566000000E+00 0.  1.
     999900   -1    0    0    0    0 -0.00000000000E+00 -0.00000000000E+00 -0.74505805969E-08  0.93827000000E+00  0.93827000000E+00 0. -1.
     999902    2    1    2    0    0  0.24711509582E-02 -0.21318815666E-01  0.11042161626E-01  0.10197943869E+01  0.10195087364E+01 0.  0.
     999903    2    3    3    0    0 -0.29017022963E-01 -0.11754903874E+00 -0.48525496477E-01  0.13198806405E+00  0.20158400554E-01 0.  0.
         14    1    1    2    0    0 -0.24711509582E-02  0.21318815666E-01 -0.11042161626E-01  0.24135613144E-01  0.00000000000E+00 0. -1.
     999901    1    3    3    0    0  0.31488173921E-01  0.96230223071E-01  0.59567658103E-01  0.88780632281E+00  0.88000000000E+00 0. -1.
        -11    1    4    4    0    0 -0.12137616889E-02 -0.16349444222E-01 -0.96788465060E-04  0.16402683708E-01  0.51100000000E-03 0.  1.
         11    1    4    4    0    0 -0.27803261274E-01 -0.10119959451E+00 -0.48428708012E-01  0.11558538034E+00  0.51100000000E-03 0. -1.
</event>
<event>
 8    1  0.1148488E+005  0.1043930E+01  0.7957747E-01            NaN
         13   -1    0    0    0    0  0.00000000000E+00  0.00000000000E+00  0.74505805969E-08  0.10566000000E+00  0.10566000000E+00 0.  1.
     999900   -1    0    0    0    0 -0.00000000000E+00 -0.00000000000E+00 -0.74505805969E-08  0.93827000000E+00  0.93827000000E+00 0. -1.
     999902    2    1    2    0    0 -0.53113213498E-02 -0.10028760303E-01 -0.20978977499E-01  0.10200782985E+01  0.10197994074E+01 0.  0.
     999903    2    3    3    0    0 -0.20319984088E-01  0.12477326040E+00  0.21521727885E-01  0.12867314106E+00  0.10598310987E-01 0.  0.
         14    1    1    2    0    0  0.53113213498E-02  0.10028760303E-01  0.20978977499E-01  0.23851701503E-01  0.00000000000E+00 0.  1.
     999901    1    3    3    0    0  0.15008662738E-01 -0.13480202070E+00 -0.42500705384E-01  0.89140515743E+00  0.88000000000E+00 0. -1.
        -11    1    4    4    0    0 -0.14998165708E-01  0.59443774066E-01  0.10902103010E-01  0.62270572672E-01  0.51100000000E-03 0. -1.
         11    1    4    4    0    0 -0.53218183798E-02  0.65329486333E-01  0.10619624874E-01  0.66402568390E-01  0.51100000000E-03 0.  1.
</event>
<event>
 8    1  0.1148488E+005  0.1043930E+01  0.7957747E-01            NaN
         13   -1    0    0    0    0  0.00000000000E+00  0.00000000000E+00  0.74505805969E-08  0.10566000000E+00  0.10566000000E+00 0.  1.
     999900   -1    0    0    0    0 -0.00000000000E+00 -0.00000000000E+00 -0.74505805969E-08  0.93827000000E+00  0.93827000000E+00 0. -1.
     999902    2    1    2    0    0  0.19623005912E-01  0.41884158940E-02 -0.11725390970E-01  0.10206901639E+01  0.10204255586E+01 0.  0.
     999903    2    3    3    0    0  0.77873381632E-01  0.93103472472E-01  0.48679198334E-01  0.13223774088E+00  0.19612129129E-01 0.  0.
         14    1    1    2    0    0 -0.19623005912E-01 -0.41884158940E-02  0.11725390970E-01  0.23239836104E-01  0.00000000000E+00 0. -1.
     999901    1    3    3    0    0 -0.58250375720E-01 -0.88915056578E-01 -0.60404589304E-01  0.88845242302E+00  0.88000000000E+00 0. -1.
        -11    1    4    4    0    0  0.23021300872E-01  0.24485489087E-01  0.22945022963E-01  0.40697108859E-01  0.51100000000E-03 0. -1.
         11    1    4    4    0    0  0.54852080760E-01  0.68617983384E-01  0.25734175370E-01  0.91540632019E-01  0.51100000000E-03 0.  1.
</event>
<event>
 8    1  0.1148488E+005  0.1043930E+01  0.7957747E-01            NaN
         13   -1    0    0    0    0  0.00000000000E+00  0.00000000000E+00  0.74505805969E-08  0.10566000000E+00  0.10566000000E+00 0.  1.
     999900   -1    0    0    0    0 -0.00000000000E+00 -0.00000000000E+00 -0.74505805969E-08  0.93827000000E+00  0.93827000000E+00 0. -1.
     999902    2    1    2    0    0  0.17237839258E-02 -0.12570500786E-01  0.17145078761E-01  0.10226006154E+01  0.10223781473E+01 0.  0.
     999903    2    3    3    0    0  0.20800221272E-01  0.11651990489E+00 -0.51000935475E-01  0.13037187649E+00  0.19651801948E-01 0.  0.
         14    1    1    2    0    0 -0.17237839258E-02  0.12570500786E-01 -0.17145078761E-01  0.21329384584E-01  0.00000000000E+00 0.  1.
     999901    1    3    3    0    0 -0.19076437346E-01 -0.12909040568E+00  0.68146014237E-01  0.89222873892E+00  0.88000000000E+00 0. -1.
        -11    1    4    4    0    0  0.18240337876E-01  0.10050487435E+00 -0.36093400699E-01  0.10833713301E+00  0.51100000000E-03 0.  1.
         11    1    4    4    0    0  0.25598833959E-02  0.16015030549E-01 -0.14907534776E-01  0.22034743488E-01  0.51100000000E-03 0. -1.
</event>
<event>
 8    1  0.1148488E+005  0.1043930E+01  0.7957747E-01            NaN
         13   -1    0    0    0    0  0.00000000000E+00  0.00000000000E+00  0.74505805969E-08  0.10566000000E+00  0.10566000000E+00 0. -1.
     999900   -1    0    0    0    0 -0.00000000000E+00 -0.00000000000E+00 -0.74505805969E-08  0.93827000000E+00  0.93827000000E+00 0.  1.
     999902    2    1    2    0    0  0.36168267816E-02  0.12372738767E-01  0.20296678355E-01  0.10198858478E+01  0.10196023840E+01 0.  0.
     999903    2    3    3    0    0  0.88001781070E-01 -0.84746767844E-01 -0.38560178182E-01  0.12858502958E+00  0.10995197125E-01 0.  0.
         14    1    1    2    0    0 -0.36168267816E-02 -0.12372738767E-01 -0.20296678355E-01  0.24044152155E-01  0.00000000000E+00 0.  1.
     999901    1    3    3    0    0 -0.84384954288E-01  0.97119506611E-01  0.58856856537E-01  0.89130081826E+00  0.88000000000E+00 0. -1.
        -11    1    4    4    0    0  0.30167085615E-01 -0.32551313008E-01 -0.91843301016E-02  0.45323879726E-01  0.51100000000E-03 0. -1.
         11    1    4    4    0    0  0.57834695455E-01 -0.52195454836E-01 -0.29375848080E-01  0.83261149856E-01  0.51100000000E-03 0.  1.
</event>
<event>
 8    1  0.1148488E+005  0.1043930E+01  0.7957747E-01            NaN
         13   -1    0    0    0    0  0.00000000000E+00  0.00000000000E+00  0.74505805969E-08  0.10566000000E+00  0.10566000000E+00 0. -1.
     999900   -1    0    0    0    0 -0.00000000000E+00 -0.00000000000E+00 -0.74505805969E-08  0.93827000000E+00  0.93827000000E+00 0.  1.
     999902    2    1    2    0    0  0.20222245067E-01 -0.21204634590E-01  0.72489207837E-02  0.10137451930E+01  0.10132957089E+01 0.  0.
     999903    2    3    3    0    0 -0.11183742717E+00 -0.17619361172E-01 -0.42133641409E-01  0.12251500459E+00  0.20411531217E-01 0.  0.
         14    1    1    2    0    0 -0.20222245067E-01  0.21204634590E-01 -0.72489207837E-02  0.30184807042E-01  0.00000000000E+00 0.  1.
     999901    1    3    3    0    0  0.13205967224E+00 -0.35852734179E-02  0.49382562193E-01  0.89123018837E+00  0.88000000000E+00 0.  1.
        -11    1    4    4    0    0 -0.44595798206E-01 -0.13256771934E-01 -0.25707158158E-01  0.53156808795E-01  0.51100000000E-03 0. -1.
         11    1    4    4    0    0 -0.67241628963E-01 -0.43625892381E-02 -0.16426483252E-01  0.69358195791E-01  0.51100000000E-03 0.  1.
</event>
<event>
 8    1  0.1148488E+005  0.1043930E+01  0.7957747E-01            NaN
         13   -1    0    0    0    0  0.00000000000E+00  0.00000000000E+00  0.74505805969E-08  0.10566000000E+00  0.10566000000E+00 0.  1.
     999900   -1    0    0    0    0 -0.00000000000E+00 -0.00000000000E+00 -0.74505805969E-08  0.93827000000E+00  0.93827000000E+00 0.  1.
     999902    2    1    2    0    0 -0.13605783239E-01 -0.16657335388E-01 -0.10262062638E-01  0.10200994715E+01  0.10198210812E+01 0.  0.
     999903    2    3    3    0    0 -0.36791563803E-01 -0.13007223062E-01 -0.12537034956E+00  0.13229272367E+00  0.16150330277E-01 0.  0.
         14    1    1    2    0    0  0.13605783239E-01  0.16657335388E-01  0.10262062638E-01  0.23830528516E-01  0.00000000000E+00 0.  1.
     999901    1    3    3    0    0  0.23185780564E-01 -0.36501123254E-02  0.11510828693E+00  0.88780674781E+00  0.88000000000E+00 0. -1.
        -11    1    4    4    0    0 -0.21835879412E-01 -0.51590974226E-03 -0.52601542960E-01  0.56958364051E-01  0.51100000000E-03 0. -1.
         11    1    4    4    0    0 -0.14955684390E-01 -0.12491313320E-01 -0.72768806604E-01  0.75334359622E-01  0.51100000000E-03 0.  1.
</event>
<event>
 8    1  0.1148488E+005  0.1043930E+01  0.7957747E-01            NaN
         13   -1    0    0    0    0  0.00000000000E+00  0.00000000000E+00  0.74505805969E-08  0.10566000000E+00  0.10566000000E+00 0.  1.
     999900   -1    0    0    0    0 -0.00000000000E+00 -0.00000000000E+00 -0.74505805969E-08  0.93827000000E+00  0.93827000000E+00 0.  1.
     999902    2    1    2    0    0 -0.72057960810E-02  0.22372515912E-01 -0.31305960228E-03  0.10204235972E+01  0.10201528154E+01 0.  0.
     999903    2    3    3    0    0  0.25908297473E-01  0.10798029638E+00 -0.70221811606E-01  0.13289192518E+00  0.19954364661E-01 0.  0.
         14    1    1    2    0    0  0.72057960810E-02 -0.22372515912E-01  0.31305960227E-03  0.23506402781E-01  0.00000000000E+00 0. -1.
     999901    1    3    3    0    0 -0.33114093554E-01 -0.85607780465E-01  0.69908752003E-01  0.88753167204E+00  0.88000000000E+00 0. -1.
        -11    1    4    4    0    0  0.20170738485E-01  0.99197445456E-01 -0.57590532702E-01  0.11646425397E+00  0.51100000000E-03 0.  1.
         11    1    4    4    0    0  0.57375589886E-02  0.87828509203E-02 -0.12631278904E-01  0.16427671204E-01  0.51100000000E-03 0. -1.
</event>
<event>
 8    1  0.1148488E+005  0.1043930E+01  0.7957747E-01            NaN
         13   -1    0    0    0    0  0.00000000000E+00  0.00000000000E+00  0.74505805969E-08  0.10566000000E+00  0.10566000000E+00 0. -1.
     999900   -1    0    0    0    0 -0.00000000000E+00 -0.00000000000E+00 -0.74505805969E-08  0.93827000000E+00  0.93827000000E+00 0.  1.
     999902    2    1    2    0    0  0.43031820452E-02 -0.14249634456E-01  0.18886894216E-01  0.10198824589E+01  0.10195989142E+01 0.  0.
     999903    2    3    3    0    0  0.73244988710E-01  0.10065748872E+00  0.30087729230E-01  0.12966783405E+00  0.20290818857E-01 0.  0.
         14    1    1    2    0    0 -0.43031820452E-02  0.14249634456E-01 -0.18886894216E-01  0.24047541059E-01  0.00000000000E+00 0.  1.
     999901    1    3    3    0    0 -0.68941806665E-01 -0.11490712318E+00 -0.11200835013E-01  0.89021462489E+00  0.88000000000E+00 0.  1.
        -11    1    4    4    0    0  0.34538295426E-01  0.38795609788E-01  0.37295679528E-02  0.52078440721E-01  0.51100000000E-03 0.  1.
         11    1    4    4    0    0  0.38706693283E-01  0.61861878936E-01  0.26358161277E-01  0.77589393330E-01  0.51100000000E-03 0. -1.
</event>
<event>
 8    1  0.1148488E+005  0.1043930E+01  0.7957747E-01            NaN
         13   -1    0    0    0    0  0.00000000000E+00  0.00000000000E+00  0.74505805969E-08  0.10566000000E+00  0.10566000000E+00 0.  1.
     999900   -1    0    0    0    0 -0.00000000000E+00 -0.00000000000E+00 -0.74505805969E-08  0.93827000000E+00  0.93827000000E+00 0. -1.
     999902    2    1    2    0    0 -0.19583850362E-01  0.11600160989E-01 -0.89179747006E-02  0.10194837078E+01  0.10191905657E+01 0.  0.
     999903    2    3    3    0    0  0.56184057068E-01  0.11508422767E+00 -0.12108353118E-01  0.13018066250E+00  0.19984117333E-01 0.  0.
         14    1    1    2    0    0  0.19583850362E-01 -0.11600160989E-01  0.89179747006E-02  0.24446292208E-01  0.00000000000E+00 0.  1.
     999901    1    3    3    0    0 -0.75767907430E-01 -0.10348406668E+00  0.31903784175E-02  0.88930304529E+00  0.88000000000E+00 0.  1.
        -11    1    4    4    0    0  0.31106485028E-01  0.61993366900E-01 -0.16505020973E-01  0.71298441699E-01  0.51100000000E-03 0. -1.
         11    1    4    4    0    0  0.25077572040E-01  0.53090860773E-01  0.43966678547E-02  0.58882220800E-01  0.51100000000E-03 0.  1.
</event>
<event>
 7    1  0.1148488E+005  0.1043930E+01  0.7957747E-01            NaN
         13   -1    0    0    0    0  0.00000000000E+00  0.00000000000E+00  0.74505805969E-08  0.10566000000E+00  0.10566000000E+00 0. -1.
     999900   -1    0    0    0    0 -0.00000000000E+00 -0.00000000000E+00 -0.74505805969E-08  0.93827000000E+00  0.93827000000E+00 0.  1.
     999903    2    1    2    0    0  0.19674117997E-01 -0.70994224142E-01  0.76312199576E-01  0.10822895971E+00  0.21510581917E-01 0.  0.
         14    1    1    2    0    0  0.39987511104E-01 -0.12806472135E-01  0.15955331352E-01  0.44917472896E-01  0.00000000000E+00 0.  1.
     999901    1    1    2    0    0 -0.59661629101E-01  0.83800696277E-01 -0.92267530927E-01  0.89078356740E+00  0.88000000000E+00 0.  1.
        -11    1    3    3    0    0  0.13264864972E-02 -0.43120296550E-01  0.47132042750E-01  0.63896870938E-01  0.51100000000E-03 0. -1.
         11    1    3    3    0    0  0.18347631500E-01 -0.27873927592E-01  0.29180156826E-01  0.44332088767E-01  0.51100000000E-03 0.  1.
</event>
<event>
 8    1  0.1148488E+005  0.1043930E+01  0.7957747E-01            NaN
         13   -1    0    0    0    0  0.00000000000E+00  0.00000000000E+00  0.74505805969E-08  0.10566000000E+00  0.10566000000E+00 0.  1.
     999900   -1    0    0    0    0 -0.00000000000E+00 -0.00000000000E+00 -0.74505805969E-08  0.93827000000E+00  0.93827000000E+00 0. -1.
     999902    2    1    2    0    0  0.99149083635E-02  0.17767233499E-01  0.12108462385E-01  0.10202531156E+01  0.10199783454E+01 0.  0.
     999903    2    3    3    0    0 -0.70481744272E-01  0.10703550738E+00 -0.20631964809E-01  0.13148746479E+00  0.20952310345E-01 0.  0.
         14    1    1    2    0    0 -0.99149083635E-02 -0.17767233499E-01 -0.12108462385E-01  0.23676884410E-01  0.00000000000E+00 0. -1.
     999901    1    3    3    0    0  0.80396652635E-01 -0.89268273879E-01  0.32740427193E-01  0.88876565080E+00  0.88000000000E+00 0. -1.
        -11    1    4    4    0    0 -0.37959842092E-01  0.52872810007E-01 -0.21120599244E-03  0.65090624353E-01  0.51100000000E-03 0. -1.
         11    1    4    4    0    0 -0.32521902180E-01  0.54162697370E-01 -0.20420758816E-01  0.66396840433E-01  0.51100000000E-03 0.  1.
</event>
<event>
 8    1  0.1148488E+005  0.1043930E+01  0.7957747E-01            NaN
         13   -1    0    0    0    0  0.00000000000E+00  0.00000000000E+00  0.74505805969E-08  0.10566000000E+00  0.10566000000E+00 0. -1.
     999900   -1    0    0    0    0 -0.00000000000E+00 -0.00000000000E+00 -0.74505805969E-08  0.93827000000E+00  0.93827000000E+00 0.  1.
     999902    2    1    2    0    0 -0.15166171459E-01 -0.79599400605E-02 -0.14365086896E-01  0.10215753780E+01  0.10213307612E+01 0.  0.
     999903    2    3    3    0    0 -0.31678006786E-01  0.12585077917E+00 -0.24594468182E-02  0.13122730364E+00  0.19303927324E-01 0.  0.
         14    1    1    2    0    0  0.15166171459E-01  0.79599400605E-02  0.14365086896E-01  0.22354621984E-01  0.00000000000E+00 0. -1.
     999901    1    3    3    0    0  0.16511835326E-01 -0.13381071923E+00 -0.11905640078E-01  0.89034807438E+00  0.88000000000E+00 0.  1.
        -11    1    4    4    0    0 -0.17548913869E-01  0.10040382276E+00 -0.46580388966E-02  0.10203357511E+00  0.51100000000E-03 0.  1.
         11    1    4    4    0    0 -0.14129092917E-01  0.25446956409E-01  0.21985920785E-02  0.29193728526E-01  0.51100000000E-03 0. -1.
</event>
<event>
 8    1  0.1148488E+005  0.1043930E+01  0.7957747E-01            NaN
         13   -1    0    0    0    0  0.00000000000E+00  0.00000000000E+00  0.74505805969E-08  0.10566000000E+00  0.10566000000E+00 0.  1.
     999900   -1    0    0    0    0 -0.00000000000E+00 -0.00000000000E+00 -0.74505805969E-08  0.93827000000E+00  0.93827000000E+00 0. -1.
     999902    2    1    2    0    0 -0.11677418285E-01 -0.19073763024E-01 -0.67784425253E-02  0.10205608362E+01  0.10202932434E+01 0.  0.
     999903    2    3    3    0    0 -0.56493746582E-01 -0.20261112567E-02  0.11605383316E+00  0.13073675602E+00  0.20687161552E-01 0.  0.
         14    1    1    2    0    0  0.11677418285E-01  0.19073763024E-01  0.67784425253E-02  0.23369163801E-01  0.00000000000E+00 0. -1.
     999901    1    3    3    0    0  0.44816328296E-01 -0.17047651767E-01 -0.12283227569E+00  0.88982408018E+00  0.88000000000E+00 0. -1.
        -11    1    4    4    0    0 -0.17770783655E-01  0.26166722513E-02  0.58609283455E-01  0.61302177396E-01  0.51100000000E-03 0. -1.
         11    1    4    4    0    0 -0.38722962926E-01 -0.46427835079E-02  0.57444549710E-01  0.69434578625E-01  0.51100000000E-03 0.  1.
</event>
<event>
 8    1  0.1148488E+005  0.1043930E+01  0.7957747E-01            NaN
         13   -1    0    0    0    0  0.00000000000E+00  0.00000000000E+00  0.74505805969E-08  0.10566000000E+00  0.10566000000E+00 0. -1.
     999900   -1    0    0    0    0 -0.00000000000E+00 -0.00000000000E+00 -0.74505805969E-08  0.93827000000E+00  0.93827000000E+00 0.  1.
     999902    2    1    2    0    0  0.21978652919E-01 -0.64552011415E-02 -0.12601467914E-02  0.10209883615E+01  0.10207305793E+01 0.  0.
     999903    2    3    3    0    0  0.32096501519E-01  0.85344995416E-01  0.92107483242E-01  0.13124280167E+00  0.20662305495E-01 0.  0.
         14    1    1    2    0    0 -0.21978652919E-01  0.64552011415E-02  0.12601467914E-02  0.22941638474E-01  0.00000000000E+00 0.  1.
     999901    1    3    3    0    0 -0.10117848600E-01 -0.91800196558E-01 -0.93367630033E-01  0.88974555986E+00  0.88000000000E+00 0.  1.
        -11    1    4    4    0    0  0.14703347091E-01  0.56584986234E-01  0.69063998302E-01  0.90488375304E-01  0.51100000000E-03 0.  1.
         11    1    4    4    0    0  0.17393154427E-01  0.28760009183E-01  0.23043484940E-01  0.40754426365E-01  0.51100000000E-03 0. -1.
</event>
<event>
 8    1  0.1148488E+005  0.1043930E+01  0.7957747E-01            NaN
         13   -1    0    0    0    0  0.00000000000E+00  0.00000000000E+00  0.74505805969E-08  0.10566000000E+00  0.10566000000E+00 0.  1.
     999900   -1    0    0    0    0 -0.00000000000E+00 -0.00000000000E+00 -0.74505805969E-08  0.93827000000E+00  0.93827000000E+00 0.  1.
     999902    2    1    2    0    0  0.17274483410E-01  0.15375381661E-01 -0.19765002866E-02  0.10207197287E+01  0.10204558040E+01 0.  0.
     999903    2    3    3    0    0  0.10586685299E-01  0.10927553484E+00  0.70803367693E-01  0.13271135345E+00  0.23365916171E-01 0.  0.
         14    1    1    2    0    0 -0.17274483410E-01 -0.15375381661E-01  0.19765002866E-02  0.23210271254E-01  0.00000000000E+00 0.  1.
     999901    1    3    3    0    0  0.66877981112E-02 -0.93900153176E-01 -0.72779867980E-01  0.88800837529E+00  0.88000000000E+00 0.  1.
        -11    1    4    4    0    0 -0.25754750771E-02  0.64560551246E-01  0.32228338262E-01  0.72205434402E-01  0.51100000000E-03 0.  1.
         11    1    4    4    0    0  0.13162160376E-01  0.44714983591E-01  0.38575029432E-01  0.60505919049E-01  0.51100000000E-03 0. -1.
</event>
<event>
 8    1  0.1148488E+005  0.1043930E+01  0.7957747E-01            NaN
         13   -1    0    0    0    0  0.00000000000E+00  0.00000000000E+00  0.74505805969E-08  0.10566000000E+00  0.10566000000E+00 0.  1.
     999900   -1    0    0    0    0 -0.00000000000E+00 -0.00000000000E+00 -0.74505805969E-08  0.93827000000E+00  0.93827000000E+00 0. -1.
     999902    2    1    2    0    0 -0.18839731551E-01  0.70904768754E-02  0.17245193439E-01  0.10174232642E+01  0.10170779181E+01 0.  0.
     999903    2    3    3    0    0 -0.11739895360E-01 -0.86847609099E-02  0.12756118085E+00  0.13036696220E+00  0.22592913888E-01 0.  0.
         14    1    1    2    0    0  0.18839731551E-01 -0.70904768754E-02 -0.17245193439E-01  0.26506735823E-01  0.00000000000E+00 0. -1.
     999901    1    3    3    0    0 -0.70998361909E-02  0.15775237785E-01 -0.11031598741E+00  0.88705630198E+00  0.88000000000E+00 0. -1.
        -11    1    4    4    0    0 -0.24659488863E-02 -0.14851970768E-01  0.58328562027E-01  0.60242378844E-01  0.51100000000E-03 0.  1.
         11    1    4    4    0    0 -0.92739464737E-02  0.61672098584E-02  0.69232618823E-01  0.70124583355E-01  0.51100000000E-03 0. -1.
</event>
<event>
 8    1  0.1148488E+005  0.1043930E+01  0.7957747E-01            NaN
         13   -1    0    0    0    0  0.00000000000E+00  0.00000000000E+00  0.74505805969E-08  0.10566000000E+00  0.10566000000E+00 0. -1.
     999900   -1    0    0    0    0 -0.00000000000E+00 -0.00000000000E+00 -0.74505805969E-08  0.93827000000E+00  0.93827000000E+00 0. -1.
     999902    2    1    2    0    0  0.22351924509E-01  0.17755580037E-02 -0.73693525105E-02  0.10203277016E+01  0.10200546799E+01 0.  0.
     999903    2    3    3    0    0  0.11090401605E+00  0.69932491229E-01  0.10291403403E-01  0.13308548955E+00  0.20385790102E-01 0.  0.
         14    1    1    2    0    0 -0.22351924509E-01 -0.17755580037E-02  0.73693525105E-02  0.23602298445E-01  0.00000000000E+00 0.  1.
     999901    1    3    3    0    0 -0.88552091546E-01 -0.68156933226E-01 -0.17660755914E-01  0.88724221200E+00  0.88000000000E+00 0.  1.
        -11    1    4    4    0    0  0.68133891183E-01  0.31728857881E-01  0.92250621752E-02  0.75725229899E-01  0.51100000000E-03 0.  1.
         11    1    4    4    0    0  0.42770124872E-01  0.38203633348E-01  0.10663412280E-02  0.57360259651E-01  0.51100000000E-03 0. -1.
</event>
<event>
 8    1  0.1148488E+005  0.1043930E+01  0.7957747E-01            NaN
         13   -1    0    0    0    0  0.00000000000E+00  0.00000000000E+00  0.74505805969E-08  0.10566000000E+00  0.10566000000E+00 0.  1.
     999900   -1    0    0    0    0 -0.00000000000E+00 -0.00000000000E+00 -0.74505805969E-08  0.93827000000E+00  0.93827000000E+00 0. -1.
     999902    2    1    2    0    0 -0.22005737863E-02  0.22885345722E-02  0.28636635608E-01  0.10151179051E+01  0.10147089358E+01 0.  0.
     999903    2    3    3    0    0 -0.14008853295E-01 -0.10504948222E+00  0.68237280151E-01  0.12763320302E+00  0.20056580614E-01 0.  0.
         14    1    1    2    0    0  0.22005737863E-02 -0.22885345722E-02 -0.28636635608E-01  0.28812094933E-01  0.00000000000E+00 0. -1.
     999901    1    3    3    0    0  0.11808279509E-01  0.10733801679E+00 -0.39600644543E-01  0.88748470204E+00  0.88000000000E+00 0. -1.
        -11    1    4    4    0    0 -0.71332626558E-02 -0.95957564895E-01  0.63444226363E-01  0.11525696802E+00  0.51100000000E-03 0.  1.
         11    1    4    4    0    0 -0.68755906393E-02 -0.90919173257E-02  0.47930537875E-02  0.12376235005E-01  0.51100000000E-03 0. -1.
</event>
<event>
 8    1  0.1148488E+005  0.1043930E+01  0.7957747E-01            NaN
         13   -1    0    0    0    0  0.00000000000E+00  0.00000000000E+00  0.74505805969E-08  0.10566000000E+00  0.10566000000E+00 0. -1.
     999900   -1    0    0    0    0 -0.00000000000E+00 -0.00000000000E+00 -0.74505805969E-08  0.93827000000E+00  0.93827000000E+00 0.  1.
     999902    2    1    2    0    0  0.60666288971E-02  0.21920945881E-01 -0.56697109505E-02  0.10204890641E+01  0.10202198059E+01 0.  0.
     999903    2    3    3    0    0  0.12664781539E+00  0.18950471479E-01 -0.25167127469E-01  0.13204728461E+00  0.20107499987E-01 0.  0.
         14    1    1    2    0    0 -0.60666288971E-02 -0.21920945881E-01  0.56697109505E-02  0.23440935919E-01  0.00000000000E+00 0. -1.
     999901    1    3    3    0    0 -0.12058118649E+00  0.29704744028E-02  0.19497416519E-01  0.88844177947E+00  0.88000000000E+00 0.  1.
        -11    1    4    4    0    0  0.86425639567E-01  0.52663146335E-02 -0.11132908849E-01  0.87300217782E-01  0.51100000000E-03 0. -1.
         11    1    4    4    0    0  0.40222175825E-01  0.13684156845E-01 -0.14034218620E-01  0.44747066830E-01  0.51100000000E-03 0.  1.
</event>
<event>
 7    1  0.1148488E+005  0.1043930E+01  0.7957747E-01            NaN
         13   -1    0    0    0    0  0.00000000000E+00  0.00000000000E+00  0.74505805969E-08  0.10566000000E+00  0.10566000000E+00 0.  1.
     999900   -1    0    0    0    0 -0.00000000000E+00 -0.00000000000E+00 -0.74505805969E-08  0.93827000000E+00  0.93827000000E+00 0.  1.
     999902    2    1    2    0    0  0.11255529153E-01  0.20406720293E-01 -0.53075647580E-02  0.10200282969E+01  0.10197482214E+01 0.  0.
         14    1    1    2    0    0 -0.11255529153E-01 -0.20406720293E-01  0.53075647580E-02  0.23901703146E-01  0.00000000000E+00 0. -1.
     999901    1    3    3    0    0 -0.16468644384E-01  0.12431167520E+00  0.49296598110E-01  0.89025544841E+00  0.88000000000E+00 0. -1.
        -11    1    3    3    0    0  0.35007272059E-01 -0.59632006734E-01 -0.48558264880E-01  0.84496458703E-01  0.51100000000E-03 0. -1.
         11    1    3    3    0    0 -0.72830985216E-02 -0.44272948178E-01 -0.60458979881E-02  0.45276389740E-01  0.51100000000E-03 0.  1.
</event>
<event>
 8    1  0.1148488E+005  0.1043930E+01  0.7957747E-01            NaN
         13   -1    0    0    0    0  0.00000000000E+00  0.00000000000E+00  0.74505805969E-08  0.10566000000E+00  0.10566000000E+00 0.  1.
     999900   -1    0    0    0    0 -0.00000000000E+00 -0.00000000000E+00 -0.74505805969E-08  0.93827000000E+00  0.93827000000E+00 0.  1.
     999902    2    1    2    0    0  0.45478920948E-02  0.70430288133E-02 -0.22165507730E-01  0.10202319556E+01  0.10199566882E+01 0.  0.
     999903    2    3    3    0    0 -0.50432049181E-01  0.98628996672E-01 -0.69552074265E-01  0.13250662071E+00  0.21200069044E-01 0.  0.
         14    1    1    2    0    0 -0.45478920948E-02 -0.70430288133E-02  0.22165507730E-01  0.23698044441E-01  0.00000000000E+00 0.  1.
     999901    1    3    3    0    0  0.54979941276E-01 -0.91585967858E-01  0.47386566535E-01  0.88772533485E+00  0.88000000000E+00 0. -1.
        -11    1    4    4    0    0 -0.72186150730E-02  0.12343702482E-01 -0.18326113573E-01  0.23250439871E-01  0.51100000000E-03 0. -1.
         11    1    4    4    0    0 -0.43213434108E-01  0.86285294190E-01 -0.51225960693E-01  0.10925618084E+00  0.51100000000E-03 0.  1.
</event>
<event>
 8    1  0.1148488E+005  0.1043930E+01  0.7957747E-01            NaN
         13   -1    0    0    0    0  0.00000000000E+00  0.00000000000E+00  0.74505805969E-08  0.10566000000E+00  0.10566000000E+00 0. -1.
     999900   -1    0    0    0    0 -0.00000000000E+00 -0.00000000000E+00 -0.74505805969E-08  0.93827000000E+00  0.93827000000E+00 0.  1.
     999902    2    1    2    0    0  0.17328870197E-01 -0.10804186919E-01 -0.12855196046E-01  0.10197995988E+01  0.10195140732E+01 0.  0.
     999903    2    3    3    0    0  0.10792311173E+00 -0.17817660037E-01 -0.73022515976E-01  0.13307720041E+00  0.20307298522E-01 0.  0.
         14    1    1    2    0    0 -0.17328870197E-01  0.10804186919E-01  0.12855196046E-01  0.24130401212E-01  0.00000000000E+00 0. -1.
     999901    1    3    3    0    0 -0.90594241535E-01  0.70134731180E-02  0.60167319930E-01  0.88672239838E+00  0.88000000000E+00 0. -1.
        -11    1    4    4    0    0  0.32955222079E-01 -0.53738011135E-02 -0.33967256442E-01  0.47633601920E-01  0.51100000000E-03 0. -1.
         11    1    4    4    0    0  0.74967889653E-01 -0.12443858924E-01 -0.39055259534E-01  0.85443598486E-01  0.51100000000E-03 0.  1.
</event>
<event>
 8    1  0.1148488E+005  0.1043930E+01  0.7957747E-01            NaN
         13   -1    0    0    0    0  0.00000000000E+00  0.00000000000E+00  0.74505805969E-08  0.10566000000E+00  0.10566000000E+00 0.  1.
     999900   -1    0    0    0    0 -0.00000000000E+00 -0.00000000000E+00 -0.74505805969E-08  0.93827000000E+00  0.93827000000E+00 0. -1.
     999902    2    1    2    0    0 -0.17746134114E-01 -0.43937292957E-02  0.14573348353E-01  0.10205502520E+01  0.10202824140E+01 0.  0.
     999903    2    3    3    0    0 -0.33137196812E-01 -0.67070401130E-01 -0.10473691600E+00  0.13015697421E+00  0.19352101731E-01 0.  0.
         14    1    1    2    0    0  0.17746134114E-01  0.43937292957E-02 -0.14573348353E-01  0.23379747974E-01  0.00000000000E+00 0. -1.
     999901    1    3    3    0    0  0.15391062698E-01  0.62676671834E-01  0.11931026435E+00  0.89039327782E+00  0.88000000000E+00 0.  1.
        -11    1    4    4    0    0 -0.22273091093E-01 -0.26916161396E-01 -0.56793243355E-01  0.66680611447E-01  0.51100000000E-03 0.  1.
         11    1    4    4    0    0 -0.10864105719E-01 -0.40154239733E-01 -0.47943672646E-01  0.63476362761E-01  0.51100000000E-03 0. -1.
</event>
<event>
 8    1  0.1148488E+005  0.1043930E+01  0.7957747E-01            NaN
         13   -1    0    0    0    0  0.00000000000E+00  0.00000000000E+00  0.74505805969E-08  0.10566000000E+00  0.10566000000E+00 0. -1.
     999900   -1    0    0    0    0 -0.00000000000E+00 -0.00000000000E+00 -0.74505805969E-08  0.93827000000E+00  0.93827000000E+00 0. -1.
     999902    2    1    2    0    0 -0.18248017412E-01  0.73929810697E-02 -0.12780191712E-01  0.10204570452E+01  0.10201870424E+01 0.  0.
     999903    2    3    3    0    0  0.70315778376E-01  0.75060659887E-01 -0.78915812506E-01  0.13096484114E+00  0.18592277968E-01 0.  0.
         14    1    1    2    0    0  0.18248017412E-01 -0.73929810697E-02  0.12780191712E-01  0.23472954837E-01  0.00000000000E+00 0. -1.
     999901    1    3    3    0    0 -0.88563795788E-01 -0.67667678817E-01  0.66135620794E-01  0.88949220402E+00  0.88000000000E+00 0.  1.
        -11    1    4    4    0    0  0.37463336181E-01  0.49570998045E-01 -0.39246350944E-01  0.73493690807E-01  0.51100000000E-03 0.  1.
         11    1    4    4    0    0  0.32852442194E-01  0.25489661842E-01 -0.39669461562E-01  0.57471150333E-01  0.51100000000E-03 0. -1.
</event>
<event>
 8    1  0.1148488E+005  0.1043930E+01  0.7957747E-01            NaN
         13   -1    0    0    0    0  0.00000000000E+00  0.00000000000E+00  0.74505805969E-08  0.10566000000E+00  0.10566000000E+00 0.  1.
     999900   -1    0    0    0    0 -0.00000000000E+00 -0.00000000000E+00 -0.74505805969E-08  0.93827000000E+00  0.93827000000E+00 0. -1.
     999902    2    1    2    0    0  0.44590623965E-02 -0.89632120210E-02  0.20717091603E-01  0.10209208650E+01  0.10206615464E+01 0.  0.
     999903    2    3    3    0    0  0.78359941802E-01 -0.10354758941E+00  0.18018584922E-01  0.13276838581E+00  0.20985497757E-01 0.  0.
         14    1    1    2    0    0 -0.44590623965E-02  0.89632120210E-02 -0.20717091603E-01  0.23009134962E-01  0.00000000000E+00 0. -1.
     999901    1    3    3    0    0 -0.73900879405E-01  0.94584377388E-01  0.26985066814E-02  0.88815247923E+00  0.88000000000E+00 0.  1.
        -11    1    4    4    0    0  0.38415700614E-01 -0.38257627901E-01  0.14602817964E-01  0.56150828665E-01  0.51100000000E-03 0. -1.
         11    1    4    4    0    0  0.39944241188E-01 -0.65289961508E-01  0.34157669577E-02  0.76617557144E-01  0.51100000000E-03 0.  1.
</event>
<event>
 8    1  0.1148488E+005  0.1043930E+01  0.7957747E-01            NaN
         13   -1    0    0    0    0  0.00000000000E+00  0.00000000000E+00  0.74505805969E-08  0.10566000000E+00  0.10566000000E+00 0.  1.
     999900   -1    0    0    0    0 -0.00000000000E+00 -0.00000000000E+00 -0.74505805969E-08  0.93827000000E+00  0.93827000000E+00 0. -1.
     999902    2    1    2    0    0 -0.24038461232E-01 -0.26104552563E-02 -0.32123191634E-03  0.10197480794E+01  0.10194613186E+01 0.  0.
     999903    2    3    3    0    0  0.77830849631E-01  0.54564476349E-01 -0.83562395765E-01  0.12813413789E+00  0.20018992803E-01 0.  0.
         14    1    1    2    0    0  0.24038461232E-01  0.26104552563E-02  0.32123191634E-03  0.24181920622E-01  0.00000000000E+00 0.  1.
     999901    1    3    3    0    0 -0.10186931086E+00 -0.57174931606E-01  0.83241163849E-01  0.89161394149E+00  0.88000000000E+00 0.  1.
        -11    1    4    4    0    0  0.44145138685E-01  0.20188113159E-01 -0.48186252242E-01  0.68399774916E-01  0.51100000000E-03 0.  1.
         11    1    4    4    0    0  0.33685710946E-01  0.34376363191E-01 -0.35376143522E-01  0.59734362972E-01  0.51100000000E-03 0. -1.
</event>
<event>
 8    1  0.1148488E+005  0.1043930E+01  0.7957747E-01            NaN
         13   -1    0    0    0    0  0.00000000000E+00  0.00000000000E+00  0.74505805969E-08  0.10566000000E+00  0.10566000000E+00 0. -1.
     999900   -1    0    0    0    0 -0.00000000000E+00 -0.00000000000E+00 -0.74505805969E-08  0.93827000000E+00  0.93827000000E+00 0. -1.
     999902    2    1    2    0    0  0.20992324166E-01  0.45333576540E-02  0.50202522594E-02  0.10218747979E+01  0.10216367606E+01 0.  0.
     999903    2    3    3    0    0  0.61795284718E-01 -0.64579871786E-01 -0.95847130050E-01  0.13248413636E+00  0.19394767226E-01 0.  0.
         14    1    1    2    0    0 -0.20992324166E-01 -0.45333576540E-02 -0.50202522594E-02  0.22055202068E-01  0.00000000000E+00 0.  1.
     999901    1    3    3    0    0 -0.40802960553E-01  0.69113229440E-01  0.10086738231E+00  0.88939066157E+00  0.88000000000E+00 0.  1.
        -11    1    4    4    0    0  0.45572970565E-01 -0.36045023107E-01 -0.67922255708E-01  0.89385867330E-01  0.51100000000E-03 0. -1.
         11    1    4    4    0    0  0.16222314153E-01 -0.28534848679E-01 -0.27924874342E-01  0.43098269033E-01  0.51100000000E-03 0.  1.
</event>
<event>
 8    1  0.1148488E+005  0.1043930E+01  0.7957747E-01            NaN
         13   -1    0    0    0    0  0.00000000000E+00  0.00000000000E+00  0.74505805969E-08  0.10566000000E+00  0.10566000000E+00 0. -1.
     999900   -1    0    0    0    0 -0.00000000000E+00 -0.00000000000E+00 -0.74505805969E-08  0.93827000000E+00  0.93827000000E+00 0. -1.
     999902    2    1    2    0    0 -0.35653607785E-02  0.19462762492E-01 -0.14039562867E-01  0.10196685028E+01  0.10193798288E+01 0.  0.
     999903    2    3    3    0    0  0.69291189331E-01  0.54590898168E-01  0.92685252198E-01  0.12953803541E+00  0.20201771241E-01 0.  0.
         14    1    1    2    0    0  0.35653607785E-02 -0.19462762492E-01  0.14039562867E-01  0.24261497208E-01  0.00000000000E+00 0. -1.
     999901    1    3    3    0    0 -0.72856550109E-01 -0.35128135675E-01 -0.10672481506E+00  0.89013046738E+00  0.88000000000E+00 0. -1.
        -11    1    4    4    0    0  0.40027001781E-01  0.18705337126E-01  0.45798481765E-01  0.63638137634E-01  0.51100000000E-03 0.  1.
         11    1    4    4    0    0  0.29264187550E-01  0.35885561042E-01  0.46886770434E-01  0.65899897776E-01  0.51100000000E-03 0. -1.
</event>
<event>
 8    1  0.1148488E+005  0.1043930E+01  0.7957747E-01            NaN
         13   -1    0    0    0    0  0.00000000000E+00  0.00000000000E+00  0.74505805969E-08  0.10566000000E+00  0.10566000000E+00 0.  1.
     999900   -1    0    0    0    0 -0.00000000000E+00 -0.00000000000E+00 -0.74505805969E-08  0.93827000000E+00  0.93827000000E+00 0.  1.
     999902    2    1    2    0    0  0.79501726617E-02  0.85831982014E-02  0.20876112651E-01  0.10199990866E+01  0.10197183180E+01 0.  0.
     999903    2    3    3    0    0  0.10303624121E+00  0.79665069111E-01  0.39870053805E-02  0.13186664448E+00  0.20246616411E-01 0.  0.
         14    1    1    2    0    0 -0.79501726617E-02 -0.85831982014E-02 -0.20876112651E-01  0.23930913399E-01  0.00000000000E+00 0. -1.
     999901    1    3    3    0    0 -0.95086068544E-01 -0.71081870910E-01  0.16889107271E-01  0.88813244212E+00  0.88000000000E+00 0. -1.
        -11    1    4    4    0    0  0.34500489789E-01  0.30947543027E-01 -0.76512085893E-02  0.46976976584E-01  0.51100000000E-03 0. -1.
         11    1    4    4    0    0  0.68535751416E-01  0.48717526085E-01  0.11638213970E-01  0.84889667896E-01  0.51100000000E-03 0.  1.
</event>
<event>
 8    1  0.1148488E+005  0.1043930E+01  0.7957747E-01            NaN
         13   -1    0    0    0    0  0.00000000000E+00  0.00000000000E+00  0.74505805969E-08  0.10566000000E+00  0.10566000000E+00 0. -1.
     999900   -1    0    0    0    0 -0.00000000000E+00 -0.00000000000E+00 -0.74505805969E-08  0.93827000000E+00  0.93827000000E+00 0. -1.
     999902    2    1    2    0    0  0.11974895807E-01 -0.64168269699E-02  0.19169757367E-01  0.10204341834E+01  0.10201636483E+01 0.  0.
     999903    2    3    3    0    0  0.47008335505E-01 -0.12075575895E+00  0.13571047146E-01  0.13232828953E+00  0.23127169350E-01 0.  0.
         14    1    1    2    0    0 -0.11974895807E-01  0.64168269699E-02 -0.19169757367E-01  0.23495816553E-01  0.00000000000E+00 0.  1.
     999901    1    3    3    0    0 -0.35033439698E-01  0.11433893198E+00  0.55987102214E-02  0.88810589392E+00  0.88000000000E+00 0. -1.
        -11    1    4    4    0    0  0.27110326585E-01 -0.80303535319E-01  0.19167708776E-01  0.86898157478E-01  0.51100000000E-03 0.  1.
         11    1    4    4    0    0  0.19898008920E-01 -0.40452223628E-01 -0.55966616302E-02  0.45430132047E-01  0.51100000000E-03 0. -1.
</event>
<event>
 8    1  0.1148488E+005  0.1043930E+01  0.7957747E-01            NaN
         13   -1    0    0    0    0  0.00000000000E+00  0.00000000000E+00  0.74505805969E-08  0.10566000000E+00  0.10566000000E+00 0. -1.
     999900   -1    0    0    0    0 -0.00000000000E+00 -0.00000000000E+00 -0.74505805969E-08  0.93827000000E+00  0.93827000000E+00 0. -1.
     999902    2    1    2    0    0  0.14627837214E-01  0.15980149542E-01 -0.91078201382E-02  0.10204291237E+01  0.10201584706E+01 0.  0.
     999903    2    3    3    0    0  0.92865916228E-01  0.98434222233E-02 -0.92919026727E-01  0.13297029376E+00  0.18060513161E-01 0.  0.
         14    1    1    2    0    0 -0.14627837214E-01 -0.15980149542E-01  0.91078201382E-02  0.23500876338E-01  0.00000000000E+00 0. -1.
     999901    1    3    3    0    0 -0.78238079014E-01  0.61367273190E-02  0.83811206588E-01  0.88745882991E+00  0.88000000000E+00 0.  1.
        -11    1    4    4    0    0  0.81454778178E-01  0.27154683142E-02 -0.82254472058E-01  0.11579427426E+00  0.51100000000E-03 0. -1.
         11    1    4    4    0    0  0.11411138051E-01  0.71279539091E-02 -0.10664554668E-01  0.17176019499E-01  0.51100000000E-03 0.  1.
</event>
<event>
 8    1  0.1148488E+005  0.1043930E+01  0.7957747E-01            NaN
         13   -1    0    0    0    0  0.00000000000E+00  0.00000000000E+00  0.74505805969E-08  0.10566000000E+00  0.10566000000E+00 0.  1.
     999900   -1    0    0    0    0 -0.00000000000E+00 -0.00000000000E+00 -0.74505805969E-08  0.93827000000E+00  0.93827000000E+00 0.  1.
     999902    2    1    2    0    0  0.83785322376E-02  0.61457771903E-02 -0.21256740069E-01  0.10202694975E+01  0.10199951118E+01 0.  0.
     999903    2    3    3    0    0  0.11377369526E+00 -0.22331620705E-01  0.55731828490E-01  0.13018728655E+00  0.19988443078E-01 0.  0.
         14    1    1    2    0    0 -0.83785322376E-02 -0.61457771903E-02  0.21256740069E-01  0.23660502490E-01  0.00000000000E+00 0.  1.
     999901    1    3    3    0    0 -0.10539516302E+00  0.28477397895E-01 -0.76988568559E-01  0.89008221096E+00  0.88000000000E+00 0.  1.
        -11    1    4    4    0    0  0.67157191258E-01 -0.40980803682E-02  0.27243052190E-01  0.72590134412E-01  0.51100000000E-03 0. -1.
         11    1    4    4    0    0  0.46616503998E-01 -0.18233540337E-01  0.28488776301E-01  0.57597152137E-01  0.51100000000E-03 0.  1.
</event>
<event>
 8    1  0.1148488E+005  0.1043930E+01  0.7957747E-01            NaN
         13   -1    0    0    0    0  0.00000000000E+00  0.00000000000E+00  0.74505805969E-08  0.10566000000E+00  0.10566000000E+00 0.  1.
     999900   -1    0    0    0    0 -0.00000000000E+00 -0.00000000000E+00 -0.74505805969E-08  0.93827000000E+00  0.93827000000E+00 0. -1.
     999902    2    1    2    0    0 -0.20972877929E-01 -0.78798389038E-02 -0.78157766909E-02  0.10202015396E+01  0.10199255568E+01 0.  0.
     999903    2    3    3    0    0 -0.37204837024E-01 -0.85268559434E-01  0.90328236095E-01  0.13122193472E+00  0.20126569273E-01 0.  0.
         14    1    1    2    0    0  0.20972877929E-01  0.78798389038E-02  0.78157766909E-02  0.23728460444E-01  0.00000000000E+00 0. -1.
     999901    1    3    3    0    0  0.16231959095E-01  0.77388720530E-01 -0.98144012786E-01  0.88897960483E+00  0.88000000000E+00 0. -1.
        -11    1    4    4    0    0 -0.23123082281E-01 -0.66964738301E-01  0.58399864336E-01  0.91813715671E-01  0.51100000000E-03 0.  1.
         11    1    4    4    0    0 -0.14081754742E-01 -0.18303821132E-01  0.31928371759E-01  0.39408219052E-01  0.51100000000E-03 0. -1.
</event>
<event>
 8    1  0.1148488E+005  0.1043930E+01  0.7957747E-01            NaN
         13   -1    0    0    0    0  0.00000000000E+00  0.00000000000E+00  0.74505805969E-08  0.10566000000E+00  0.10566000000E+00 0.  1.
     999900   -1    0    0    0    0 -0.00000000000E+00 -0.00000000000E+00 -0.74505805969E-08  0.93827000000E+00  0.93827000000E+00 0.  1.
     999902    2    1    2    0    0 -0.15508310213E-01 -0.15544600586E-02 -0.17177018550E-01  0.10207357335E+01  0.10204721768E+01 0.  0.
     999903    2    3    3    0    0 -0.19342181477E-01  0.32039278397E-02  0.12628497050E+00  0.12909753159E+00  0.18272759752E-01 0.  0.
         14    1    1    2    0    0  0.15508310213E-01  0.15544600586E-02  0.17177018550E-01  0.23194266490E-01  0.00000000000E+00 0.  1.
     999901    1    3    3    0    0  0.38338712637E-02 -0.47583878983E-02 -0.14346198905E+00  0.89163820192E+00  0.88000000000E+00 0.  1.
        -11    1    4    4    0    0 -0.31069383527E-02  0.34069462618E-03  0.78168679006E-01  0.78232810491E-01  0.51100000000E-03 0. -1.
         11    1    4    4    0    0 -0.16235243124E-01  0.28632332135E-02  0.48116291498E-01  0.50864721097E-01  0.51100000000E-03 0.  1.
</event>
<event>
 8    1  0.1148488E+005  0.1043930E+01  0.7957747E-01            NaN
         13   -1    0    0    0    0  0.00000000000E+00  0.00000000000E+00  0.74505805969E-08  0.10566000000E+00  0.10566000000E+00 0.  1.
     999900   -1    0    0    0    0 -0.00000000000E+00 -0.00000000000E+00 -0.74505805969E-08  0.93827000000E+00  0.93827000000E+00 0. -1.
     999902    2    1    2    0    0  0.18463750259E-01  0.56707557644E-03  0.15329848654E-01  0.10199250858E+01  0.10196425573E+01 0.  0.
     999903    2    3    3    0    0 -0.53009206238E-01  0.11517310110E+00  0.18921432885E-01  0.12961287980E+00  0.19148337367E-01 0.  0.
         14    1    1    2    0    0 -0.18463750259E-01 -0.56707557644E-03 -0.15329848654E-01  0.24004914249E-01  0.00000000000E+00 0. -1.
     999901    1    3    3    0    0  0.71472956498E-01 -0.11460602552E+00 -0.35915842313E-02  0.89031220596E+00  0.88000000000E+00 0. -1.
        -11    1    4    4    0    0 -0.17125139023E-01  0.54856446046E-01  0.14595168995E-01  0.59294014355E-01  0.51100000000E-03 0. -1.
         11    1    4    4    0    0 -0.35884067216E-01  0.60316655052E-01  0.43262638901E-02  0.70318865440E-01  0.51100000000E-03 0.  1.
</event>
<event>
 8    1  0.1148488E+005  0.1043930E+01  0.7957747E-01            NaN
         13   -1    0    0    0    0  0.00000000000E+00  0.00000000000E+00  0.74505805969E-08  0.10566000000E+00  0.10566000000E+00 0.  1.
     999900   -1    0    0    0    0 -0.00000000000E+00 -0.00000000000E+00 -0.74505805969E-08  0.93827000000E+00  0.93827000000E+00 0. -1.
     999902    2    1    2    0    0 -0.59625061127E-03  0.79632618016E-02  0.22078692082E-01  0.10204515482E+01  0.10201814175E+01 0.  0.
     999903    2    3    3    0    0 -0.11958194614E+00 -0.41577966164E-01 -0.21910717049E-01  0.12997583429E+00  0.19623171648E-01 0.  0.
         14    1    1    2    0    0  0.59625061127E-03 -0.79632618016E-02 -0.22078692082E-01  0.23478451767E-01  0.00000000000E+00 0. -1.
     999901    1    3    3    0    0  0.11898569553E+00  0.49541227966E-01  0.43989409131E-01  0.89047571394E+00  0.88000000000E+00 0.  1.
        -11    1    4    4    0    0 -0.98323674026E-01 -0.32703119905E-01 -0.10180721978E-01  0.10411986912E+00  0.51100000000E-03 0.  1.
         11    1    4    4    0    0 -0.21258272111E-01 -0.88748462589E-02 -0.11729995072E-01  0.25855965165E-01  0.51100000000E-03 0. -1.
</event>
<event>
 8    1  0.1148488E+005  0.1043930E+01  0.7957747E-01            NaN
         13   -1    0    0    0    0  0.00000000000E+00  0.00000000000E+00  0.74505805969E-08  0.10566000000E+00  0.10566000000E+00 0.  1.
     999900   -1    0    0    0    0 -0.00000000000E+00 -0.00000000000E+00 -0.74505805969E-08  0.93827000000E+00  0.93827000000E+00 0. -1.
     999902    2    1    2    0    0 -0.82145867460E-02  0.18015353170E-01 -0.89633855199E-02  0.10221958180E+01  0.10219647331E+01 0.  0.
     999903    2    3    3    0    0  0.56470154993E-01 -0.11483391902E+00 -0.85446431701E-02  0.12987680543E+00  0.20475993205E-01 0.  0.
         14    1    1    2    0    0  0.82145867460E-02 -0.18015353170E-01  0.89633855199E-02  0.21734181954E-01  0.00000000000E+00 0.  1.
     999901    1    3    3    0    0 -0.64684741739E-01  0.13284927219E+00 -0.41874234973E-03  0.89231901262E+00  0.88000000000E+00 0. -1.
        -11    1    4    4    0    0  0.25317711460E-01 -0.33353402490E-01  0.24699926819E-02  0.41949945841E-01  0.51100000000E-03 0.  1.
         11    1    4    4    0    0  0.31152443533E-01 -0.81480516534E-01 -0.11014635852E-01  0.87926859586E-01  0.51100000000E-03 0. -1.
</event>
<event>
 8    1  0.1148488E+005  0.1043930E+01  0.7957747E-01            NaN
         13   -1    0    0    0    0  0.00000000000E+00  0.00000000000E+00  0.74505805969E-08  0.10566000000E+00  0.10566000000E+00 0.  1.
     999900   -1    0    0    0    0 -0.00000000000E+00 -0.00000000000E+00 -0.74505805969E-08  0.93827000000E+00  0.93827000000E+00 0. -1.
     999902    2    1    2    0    0  0.42061368886E-02  0.17638261073E-01  0.13895720003E-01  0.10210850689E+01  0.10208294799E+01 0.  0.
     999903    2    3    3    0    0  0.48519572854E-01 -0.21062286270E-01  0.12015899830E+00  0.13274206238E+00  0.19608707218E-01 0.  0.
         14    1    1    2    0    0 -0.42061368886E-02 -0.17638261073E-01 -0.13895720003E-01  0.22844931070E-01  0.00000000000E+00 0. -1.
     999901    1    3    3    0    0 -0.44313435965E-01  0.38700547343E-01 -0.10626327830E+00  0.88834300655E+00  0.88000000000E+00 0. -1.
        -11    1    4    4    0    0  0.28305061040E-01 -0.17345073304E-01  0.53313549205E-01  0.62806239325E-01  0.51100000000E-03 0.  1.
         11    1    4    4    0    0  0.20214511814E-01 -0.37172129659E-02  0.66845449099E-01  0.69935823055E-01  0.51100000000E-03 0. -1.
</event>
<event>
 8    1  0.1148488E+005  0.1043930E+01  0.7957747E-01            NaN
         13   -1    0    0    0    0  0.00000000000E+00  0.00000000000E+00  0.74505805969E-08  0.10566000000E+00  0.10566000000E+00 0. -1.
     999900   -1    0    0    0    0 -0.00000000000E+00 -0.00000000000E+00 -0.74505805969E-08  0.93827000000E+00  0.93827000000E+00 0.  1.
     999902    2    1    2    0    0  0.15367984610E-01 -0.10660854122E-01 -0.14658820798E-01  0.10201663768E+01  0.10198895658E+01 0.  0.
     999903    2    3    3    0    0 -0.91387956829E-01 -0.67534731351E-01  0.57663805249E-01  0.12895258021E+00  0.19772579897E-01 0.  0.
         14    1    1    2    0    0 -0.15367984610E-01  0.10660854122E-01  0.14658820798E-01  0.23763623225E-01  0.00000000000E+00 0. -1.
     999901    1    3    3    0    0  0.10675594144E+00  0.56873877229E-01 -0.72322626047E-01  0.89121379656E+00  0.88000000000E+00 0.  1.
        -11    1    4    4    0    0 -0.12136545719E-01 -0.14908203940E-01  0.37154562394E-02  0.19586118114E-01  0.51100000000E-03 0. -1.
         11    1    4    4    0    0 -0.79251411110E-01 -0.52626527412E-01  0.53948349010E-01  0.10936646210E+00  0.51100000000E-03 0.  1.
</event>
<event>
 8    1  0.1148488E+005  0.1043930E+01  0.7957747E-01            NaN
         13   -1    0    0    0    0  0.00000000000E+00  0.00000000000E+00  0.74505805969E-08  0.10566000000E+00  0.10566000000E+00 0.  1.
     999900   -1    0    0    0    0 -0.00000000000E+00 -0.00000000000E+00 -0.74505805969E-08  0.93827000000E+00  0.93827000000E+00 0.  1.
     999902    2    1    2    0    0 -0.11619232303E-01 -0.20633596174E-01  0.34017950358E-02  0.10200067047E+01  0.10197261169E+01 0.  0.
     999903    2    3    3    0    0 -0.81579589165E-01 -0.10198859903E+00  0.18157881263E-01  0.13336651264E+00  0.20000358576E-01 0.  0.
         14    1    1    2    0    0  0.11619232303E-01  0.20633596174E-01 -0.34017950358E-02  0.23923295339E-01  0.00000000000E+00 0. -1.
     999901    1    3    3    0    0  0.69960356861E-01  0.81355002852E-01 -0.14756086227E-01  0.88664019202E+00  0.88000000000E+00 0.  1.
        -11    1    4    4    0    0 -0.51167930695E-01 -0.53624687419E-01  0.17814064306E-01  0.76232317559E-01  0.51100000000E-03 0.  1.
         11    1    4    4    0    0 -0.30411658470E-01 -0.48363911607E-01  0.34381695743E-03  0.57134195084E-01  0.51100000000E-03 0. -1.
</event>
<event>
 8    1  0.1148488E+005  0.1043930E+01  0.7957747E-01            NaN
         13   -1    0    0    0    0  0.00000000000E+00  0.00000000000E+00  0.74505805969E-08  0.10566000000E+00  0.10566000000E+00 0.  1.
     999900   -1    0    0    0    0 -0.00000000000E+00 -0.00000000000E+00 -0.74505805969E-08  0.93827000000E+00  0.93827000000E+00 0.  1.
     999902    2    1    2    0    0 -0.11255658780E-01  0.13179367534E-02 -0.22043741252E-01  0.10191438478E+01  0.10188423966E+01 0.  0.
     999903    2    3    3    0    0 -0.10663579069E+00 -0.16347806345E-01 -0.74166582653E-01  0.13228070243E+00  0.18948868706E-01 0.  0.
         14    1    1    2    0    0  0.11255658780E-01 -0.13179367534E-02  0.22043741252E-01  0.24786152187E-01  0.00000000000E+00 0.  1.
     999901    1    3    3    0    0  0.95380131907E-01  0.17665743098E-01  0.52122841400E-01  0.88686314538E+00  0.88000000000E+00 0. -1.
        -11    1    4    4    0    0 -0.63529728904E-01 -0.18086896753E-01 -0.49854298707E-01  0.82757927170E-01  0.51100000000E-03 0. -1.
         11    1    4    4    0    0 -0.43106061783E-01  0.17390904078E-02 -0.24312283946E-01  0.49522775261E-01  0.51100000000E-03 0.  1.
</event>
<event>
 8    1  0.1148488E+005  0.1043930E+01  0.7957747E-01            NaN
         13   -1    0    0    0    0  0.00000000000E+00  0.00000000000E+00  0.74505805969E-08  0.10566000000E+00  0.10566000000E+00 0.  1.
     999900   -1    0    0    0    0 -0.00000000000E+00 -0.00000000000E+00 -0.74505805969E-08  0.93827000000E+00  0.93827000000E+00 0. -1.
     999902    2    1    2    0    0  0.19099941275E-01 -0.45431525512E-02  0.12955433885E-01  0.10204078560E+01  0.10201367072E+01 0.  0.
     999903    2    3    3    0    0  0.55123013918E-01  0.81642341433E-01  0.85713485018E-01  0.13247805294E+00  0.22352056253E-01 0.  0.
         14    1    1    2    0    0 -0.19099941275E-01  0.45431525512E-02 -0.12955433885E-01  0.23522144013E-01  0.00000000000E+00 0. -1.
     999901    1    3    3    0    0 -0.36023072643E-01 -0.86185493984E-01 -0.72758051133E-01  0.88792980305E+00  0.88000000000E+00 0. -1.
        -11    1    4    4    0    0  0.16393943481E-01  0.43495142082E-01  0.35753384265E-01  0.58644303858E-01  0.51100000000E-03 0. -1.
         11    1    4    4    0    0  0.38729070437E-01  0.38147199351E-01  0.49960100753E-01  0.73833749081E-01  0.51100000000E-03 0.  1.
</event>
<event>
 8    1  0.1148488E+005  0.1043930E+01  0.7957747E-01            NaN
         13   -1    0    0    0    0  0.00000000000E+00  0.00000000000E+00  0.74505805969E-08  0.10566000000E+00  0.10566000000E+00 0.  1.
     999900   -1    0    0    0    0 -0.00000000000E+00 -0.00000000000E+00 -0.74505805969E-08  0.93827000000E+00  0.93827000000E+00 0. -1.
     999902    2    1    2    0    0  0.14146037790E-01  0.80654297859E-03  0.19033603269E-01  0.10202015582E+01  0.10199255759E+01 0.  0.
     999903    2    3    3    0    0 -0.21866198379E-02 -0.75107425043E-01  0.10702141996E+00  0.13241130024E+00  0.20814934483E-01 0.  0.
         14    1    1    2    0    0 -0.14146037790E-01 -0.80654297859E-03 -0.19033603269E-01  0.23728441798E-01  0.00000000000E+00 0. -1.
     999901    1    3    3    0    0  0.16332657628E-01  0.75913968022E-01 -0.87987816694E-01  0.88779025796E+00  0.88000000000E+00 0. -1.
        -11    1    4    4    0    0  0.68444689453E-02 -0.21888118341E-01  0.22570039696E-01  0.32180806276E-01  0.51100000000E-03 0.  1.
         11    1    4    4    0    0 -0.90310887833E-02 -0.53219306702E-01  0.84451380267E-01  0.10023049396E+00  0.51100000000E-03 0. -1.
</event>
<event>
 8    1  0.1148488E+005  0.1043930E+01  0.7957747E-01            NaN
         13   -1    0    0    0    0  0.00000000000E+00  0.00000000000E+00  0.74505805969E-08  0.10566000000E+00  0.10566000000E+00 0.  1.
     999900   -1    0    0    0    0 -0.00000000000E+00 -0.00000000000E+00 -0.74505805969E-08  0.93827000000E+00  0.93827000000E+00 0.  1.
     999902    2    1    2    0    0  0.16482996997E-01 -0.18906749905E-02 -0.18891042620E-01  0.10187876983E+01  0.10184774121E+01 0.  0.
     999903    2    3    3    0    0  0.45392804504E-01 -0.82907080097E-01  0.84863054918E-01  0.12852686710E+00  0.19578734538E-01 0.  0.
         14    1    1    2    0    0 -0.16482996997E-01  0.18906749905E-02  0.18891042620E-01  0.25142301668E-01  0.00000000000E+00 0. -1.
     999901    1    3    3    0    0 -0.28909807507E-01  0.81016405106E-01 -0.10375409754E+00  0.89026083123E+00  0.88000000000E+00 0.  1.
        -11    1    4    4    0    0  0.42690102204E-01 -0.82536465935E-01  0.84720267610E-01  0.12574775505E+00  0.51100000000E-03 0. -1.
         11    1    4    4    0    0  0.27027023004E-02 -0.37061416202E-03  0.14278730757E-03  0.27791120519E-02  0.51100000000E-03 0.  1.
</event>
<event>
 8    1  0.1148488E+005  0.1043930E+01  0.7957747E-01            NaN
         13   -1    0    0    0    0  0.00000000000E+00  0.00000000000E+00  0.74505805969E-08  0.10566000000E+00  0.10566000000E+00 0.  1.
     999900   -1    0    0    0    0 -0.00000000000E+00 -0.00000000000E+00 -0.74505805969E-08  0.93827000000E+00  0.93827000000E+00 0.  1.
     999902    2    1    2    0    0  0.19902185395E-01  0.43253672355E-02 -0.11006024250E-01  0.10207796576E+01  0.10205171096E+01 0.  0.
     999903    2    3    3    0    0 -0.93418600454E-02 -0.12737361525E+00  0.12466933680E-01  0.13018950719E+00  0.21967592864E-01 0.  0.
         14    1    1    2    0    0 -0.19902185395E-01 -0.43253672355E-02  0.11006024250E-01  0.23150342438E-01  0.00000000000E+00 0. -1.
     999901    1    3    3    0    0  0.29244045440E-01  0.13169898249E+00 -0.23472957931E-01  0.89059015037E+00  0.88000000000E+00 0.  1.
        -11    1    4    4    0    0  0.24788165815E-03 -0.10653535269E+00  0.82047778168E-02  0.10685233886E+00  0.51100000000E-03 0. -1.
         11    1    4    4    0    0 -0.95897417036E-02 -0.20838262557E-01  0.42621558637E-02  0.23337168336E-01  0.51100000000E-03 0.  1.
</event>
<event>
 8    1  0.1148488E+005  0.1043930E+01  0.7957747E-01            NaN
         13   -1    0    0    0    0  0.00000000000E+00  0.00000000000E+00  0.74505805969E-08  0.10566000000E+00  0.10566000000E+00 0. -1.
     999900   -1    0    0    0    0 -0.00000000000E+00 -0.00000000000E+00 -0.74505805969E-08  0.93827000000E+00  0.93827000000E+00 0. -1.
     999902    2    1    2    0    0 -0.97324167896E-03  0.30765232328E-02 -0.24213532959E-01  0.10195024055E+01  0.10192097171E+01 0.  0.
     999903    2    3    3    0    0  0.12043871330E+00  0.39313945622E-01 -0.23967435025E-01  0.13042756379E+00  0.19642847909E-01 0.  0.
         14    1    1    2    0    0  0.97324167896E-03 -0.30765232328E-02  0.24213532959E-01  0.24427594498E-01  0.00000000000E+00 0. -1.
     999901    1    3    3    0    0 -0.12141195498E+00 -0.36237422390E-01 -0.24609793477E-03  0.88907484171E+00  0.88000000000E+00 0.  1.
        -11    1    4    4    0    0  0.68777086056E-01  0.24537765343E-01 -0.41111484653E-02  0.73140632736E-01  0.51100000000E-03 0. -1.
         11    1    4    4    0    0  0.51661627245E-01  0.14776180279E-01 -0.19856286559E-01  0.57286931059E-01  0.51100000000E-03 0.  1.
</event>
<event>
 8    1  0.1148488E+005  0.1043930E+01  0.7957747E-01            NaN
         13   -1    0    0    0    0  0.00000000000E+00  0.00000000000E+00  0.74505805969E-08  0.10566000000E+00  0.10566000000E+00 0. -1.
     999900   -1    0    0    0    0 -0.00000000000E+00 -0.00000000000E+00 -0.74505805969E-08  0.93827000000E+00  0.93827000000E+00 0.  1.
     999902    2    1    2    0    0 -0.99320782118E-02  0.11941191005E-01 -0.16806528037E-01  0.10210455598E+01  0.10207890759E+01 0.  0.
     999903    2    3    3    0    0  0.12472917450E+00  0.28748461763E-01  0.10717340830E-01  0.13021802276E+00  0.21401659524E-01 0.  0.
         14    1    1    2    0    0  0.99320782118E-02 -0.11941191005E-01  0.16806528037E-01  0.22884440235E-01  0.00000000000E+00 0. -1.
     999901    1    3    3    0    0 -0.13466125272E+00 -0.16807270757E-01 -0.27523868867E-01  0.89082753701E+00  0.88000000000E+00 0.  1.
        -11    1    4    4    0    0  0.80951196622E-01  0.17031572254E-01  0.17027106348E-01  0.84459186354E-01  0.51100000000E-03 0. -1.
         11    1    4    4    0    0  0.43777977881E-01  0.11716889509E-01 -0.63097655172E-02  0.45758836404E-01  0.51100000000E-03 0.  1.
</event>
<event>
 8    1  0.1148488E+005  0.1043930E+01  0.7957747E-01            NaN
         13   -1    0    0    0    0  0.00000000000E+00  0.00000000000E+00  0.74505805969E-08  0.10566000000E+00  0.10566000000E+00 0.  1.
     999900   -1    0    0    0    0 -0.00000000000E+00 -0.00000000000E+00 -0.74505805969E-08  0.93827000000E+00  0.93827000000E+00 0.  1.
     999902    2    1    2    0    0 -0.22905461068E-01 -0.40947365810E-02 -0.19131095759E-02  0.10205829016E+01  0.10203158198E+01 0.  0.
     999903    2    3    3    0    0  0.87291196534E-01  0.55163361368E-02 -0.92563449081E-01  0.12903752414E+00  0.20796816402E-01 0.  0.
         14    1    1    2    0    0  0.22905461068E-01  0.40947365810E-02  0.19131095759E-02  0.23347098378E-01  0.00000000000E+00 0. -1.
     999901    1    3    3    0    0 -0.11019665760E+00 -0.96110727178E-02  0.90650339505E-01  0.89154537749E+00  0.88000000000E+00 0.  1.
        -11    1    4    4    0    0  0.45258642424E-01 -0.49285535044E-02 -0.57287743596E-01  0.73176376250E-01  0.51100000000E-03 0.  1.
         11    1    4    4    0    0  0.42032554110E-01  0.10444889641E-01 -0.35275705485E-01  0.55861147886E-01  0.51100000000E-03 0. -1.
</event>
<event>
 8    1  0.1148488E+005  0.1043930E+01  0.7957747E-01            NaN
         13   -1    0    0    0    0  0.00000000000E+00  0.00000000000E+00  0.74505805969E-08  0.10566000000E+00  0.10566000000E+00 0.  1.
     999900   -1    0    0    0    0 -0.00000000000E+00 -0.00000000000E+00 -0.74505805969E-08  0.93827000000E+00  0.93827000000E+00 0. -1.
     999902    2    1    2    0    0  0.20275189014E-01 -0.12666553107E-01  0.19338457013E-01  0.10131810036E+01  0.10127142960E+01 0.  0.
     999903    2    3    3    0    0 -0.11538882913E+00  0.31570296300E-01 -0.39720239119E-02  0.12138225775E+00  0.20164573496E-01 0.  0.
         14    1    1    2    0    0 -0.20275189014E-01  0.12666553107E-01 -0.19338457013E-01  0.30748996355E-01  0.00000000000E+00 0. -1.
     999901    1    3    3    0    0  0.13566401815E+00 -0.44236849407E-01  0.23310480925E-01  0.89179874590E+00  0.88000000000E+00 0.  1.
        -11    1    4    4    0    0 -0.65561910882E-01  0.20629090548E-01  0.73495282808E-02  0.69124526922E-01  0.51100000000E-03 0. -1.
         11    1    4    4    0    0 -0.49826918252E-01  0.10941205752E-01 -0.11321552193E-01  0.52257730824E-01  0.51100000000E-03 0.  1.
</event>
<event>
 8    1  0.1148488E+005  0.1043930E+01  0.7957747E-01            NaN
         13   -1    0    0    0    0  0.00000000000E+00  0.00000000000E+00  0.74505805969E-08  0.10566000000E+00  0.10566000000E+00 0.  1.
     999900   -1    0    0    0    0 -0.00000000000E+00 -0.00000000000E+00 -0.74505805969E-08  0.93827000000E+00  0.93827000000E+00 0.  1.
     999902    2    1    2    0    0 -0.17668077358E-01 -0.66446716864E-02 -0.18491368782E-01  0.10175057055E+01  0.10171625325E+01 0.  0.
     999903    2    3    3    0    0  0.85386203205E-01 -0.92168242921E-01 -0.25359585186E-02  0.12723100572E+00  0.19887408855E-01 0.  0.
         14    1    1    2    0    0  0.17668077358E-01  0.66446716864E-02  0.18491368782E-01  0.26424294480E-01  0.00000000000E+00 0.  1.
     999901    1    3    3    0    0 -0.10305428056E+00  0.85523571235E-01 -0.15955410263E-01  0.89027469980E+00  0.88000000000E+00 0. -1.
        -11    1    4    4    0    0  0.41419107979E-01 -0.44872271160E-01 -0.11161553122E-01  0.62079824532E-01  0.51100000000E-03 0. -1.
         11    1    4    4    0    0  0.43967095226E-01 -0.47295971762E-01  0.86255946031E-02  0.65151181192E-01  0.51100000000E-03 0.  1.
</event>
<event>
 8    1  0.1148488E+005  0.1043930E+01  0.7957747E-01            NaN
         13   -1    0    0    0    0  0.00000000000E+00  0.00000000000E+00  0.74505805969E-08  0.10566000000E+00  0.10566000000E+00 0. -1.
     999900   -1    0    0    0    0 -0.00000000000E+00 -0.00000000000E+00 -0.74505805969E-08  0.93827000000E+00  0.93827000000E+00 0.  1.
     999902    2    1    2    0    0 -0.91560895184E-02  0.21447494686E-01 -0.38677481180E-02  0.10202912928E+01  0.10200174183E+01 0.  0.
     999903    2    3    3    0    0  0.85547156129E-01 -0.87025998145E-01  0.32603125914E-01  0.12784223091E+00  0.19718821186E-01 0.  0.
         14    1    1    2    0    0  0.91560895184E-02 -0.21447494686E-01  0.38677481180E-02  0.23638707221E-01  0.00000000000E+00 0.  1.
     999901    1    3    3    0    0 -0.94703245648E-01  0.10847349283E+00 -0.36470874032E-01  0.89244906187E+00  0.88000000000E+00 0. -1.
        -11    1    4    4    0    0  0.38827989782E-01 -0.52897267985E-01  0.20310292668E-01  0.68691359428E-01  0.51100000000E-03 0. -1.
         11    1    4    4    0    0  0.46719166347E-01 -0.34128730160E-01  0.12292833246E-01  0.59150871479E-01  0.51100000000E-03 0.  1.
</event>
<event>
 8    1  0.1148488E+005  0.1043930E+01  0.7957747E-01            NaN
         13   -1    0    0    0    0  0.00000000000E+00  0.00000000000E+00  0.74505805969E-08  0.10566000000E+00  0.10566000000E+00 0. -1.
     999900   -1    0    0    0    0 -0.00000000000E+00 -0.00000000000E+00 -0.74505805969E-08  0.93827000000E+00  0.93827000000E+00 0.  1.
     999902    2    1    2    0    0  0.38068640717E-02  0.17549385542E-01 -0.16781262956E-01  0.10193518810E+01  0.10190555301E+01 0.  0.
     999903    2    3    3    0    0  0.42362455017E-01 -0.10775350248E+00  0.48738472322E-01  0.12723071039E+00  0.20169781634E-01 0.  0.
         14    1    1    2    0    0 -0.38068640717E-02 -0.17549385542E-01  0.16781262956E-01  0.24578118996E-01  0.00000000000E+00 0.  1.
     999901    1    3    3    0    0 -0.38555590945E-01  0.12530288802E+00 -0.65519735277E-01  0.89212117061E+00  0.88000000000E+00 0. -1.
        -11    1    4    4    0    0  0.34260495873E-02 -0.26366692585E-01  0.17123409804E-01  0.31629299360E-01  0.51100000000E-03 0.  1.
         11    1    4    4    0    0  0.38936405430E-01 -0.81386809896E-01  0.31615062517E-01  0.95601411035E-01  0.51100000000E-03 0. -1.
</event>
<event>
 8    1  0.1148488E+005  0.1043930E+01  0.7957747E-01            NaN
         13   -1    0    0    0    0  0.00000000000E+00  0.00000000000E+00  0.74505805969E-08  0.10566000000E+00  0.10566000000E+00 0. -1.
     999900   -1    0    0    0    0 -0.00000000000E+00 -0.00000000000E+00 -0.74505805969E-08  0.93827000000E+00  0.93827000000E+00 0.  1.
     999902    2    1    2    0    0 -0.10438168599E-01  0.23058912385E-01  0.31940561749E-02  0.10184178304E+01  0.10180982302E+01 0.  0.
     999903    2    3    3    0    0  0.10613773491E+00  0.26993152402E-01 -0.63758362642E-01  0.12819985375E+00  0.19396511194E-01 0.  0.
         14    1    1    2    0    0  0.10438168599E-01 -0.23058912385E-01 -0.31940561749E-02  0.25512169624E-01  0.00000000000E+00 0.  1.
     999901    1    3    3    0    0 -0.11657590351E+00 -0.39342400171E-02  0.66952418817E-01  0.89021797663E+00  0.88000000000E+00 0.  1.
        -11    1    4    4    0    0  0.71254480138E-01  0.18696931470E-01 -0.53028019619E-01  0.90768982433E-01  0.51100000000E-03 0.  1.
         11    1    4    4    0    0  0.34883254771E-01  0.82962209313E-02 -0.10730343023E-01  0.37430871317E-01  0.51100000000E-03 0. -1.
</event>
<event>
 8    1  0.1148488E+005  0.1043930E+01  0.7957747E-01            NaN
         13   -1    0    0    0    0  0.00000000000E+00  0.00000000000E+00  0.74505805969E-08  0.10566000000E+00  0.10566000000E+00 0.  1.
     999900   -1    0    0    0    0 -0.00000000000E+00 -0.00000000000E+00 -0.74505805969E-08  0.93827000000E+00  0.93827000000E+00 0. -1.
     999902    2    1    2    0    0  0.76787012072E-02 -0.22019295954E-01  0.36259873507E-02  0.10203300078E+01  0.10200570402E+01 0.  0.
     999903    2    3    3    0    0 -0.57760811103E-01  0.94377213502E-01  0.62444583276E-01  0.12831537542E+00  0.17948255126E-01 0.  0.
         14    1    1    2    0    0 -0.76787012072E-02  0.22019295954E-01 -0.36259873507E-02  0.23599992178E-01  0.00000000000E+00 0.  1.
     999901    1    3    3    0    0  0.65439512310E-01 -0.11639650946E+00 -0.58818595925E-01  0.89201463240E+00  0.88000000000E+00 0.  1.
        -11    1    4    4    0    0 -0.53403004889E-01  0.89290923591E-01  0.53108994451E-01  0.11681428157E+00  0.51100000000E-03 0. -1.
         11    1    4    4    0    0 -0.43578062132E-02  0.50862899116E-02  0.93355888254E-02  0.11501093851E-01  0.51100000000E-03 0.  1.
</event>
<event>
 8    1  0.1148488E+005  0.1043930E+01  0.7957747E-01            NaN
         13   -1    0    0    0    0  0.00000000000E+00  0.00000000000E+00  0.74505805969E-08  0.10566000000E+00  0.10566000000E+00 0. -1.
     999900   -1    0    0    0    0 -0.00000000000E+00 -0.00000000000E+00 -0.74505805969E-08  0.93827000000E+00  0.93827000000E+00 0.  1.
     999902    2    1    2    0    0  0.10451250020E-01  0.95719643956E-02  0.18322917025E-01  0.10207657945E+01  0.10205029283E+01 0.  0.
     999903    2    3    3    0    0 -0.88193246410E-02  0.13022756868E+00  0.14901245689E-02  0.13216438057E+00  0.20693063757E-01 0.  0.
         14    1    1    2    0    0 -0.10451250020E-01 -0.95719643956E-02 -0.18322917025E-01  0.23164205527E-01  0.00000000000E+00 0.  1.
     999901    1    3    3    0    0  0.19270574661E-01 -0.12065560429E+00  0.16832792456E-01  0.88860141391E+00  0.88000000000E+00 0. -1.
        -11    1    4    4    0    0 -0.11792266598E-01  0.84282337619E-01  0.87420496608E-02  0.85552641919E-01  0.51100000000E-03 0. -1.
         11    1    4    4    0    0  0.29729419572E-02  0.45945231063E-01 -0.72519250919E-02  0.46611738649E-01  0.51100000000E-03 0.  1.
</event>
<event>
 8    1  0.1148488E+005  0.1043930E+01  0.7957747E-01            NaN
         13   -1    0    0    0    0  0.00000000000E+00  0.00000000000E+00  0.74505805969E-08  0.10566000000E+00  0.10566000000E+00 0.  1.
     999900   -1    0    0    0    0 -0.00000000000E+00 -0.00000000000E+00 -0.74505805969E-08  0.93827000000E+00  0.93827000000E+00 0. -1.
     999902    2    1    2    0    0  0.19536565462E-01  0.34236201711E-02  0.10880915363E-01  0.10213071601E+01  0.10210565716E+01 0.  0.
     999903    2    3    3    0    0  0.11580554993E+00 -0.62429194978E-01  0.12715635936E-01  0.13360919525E+00  0.19529461790E-01 0.  0.
         14    1    1    2    0    0 -0.19536565462E-01 -0.34236201711E-02 -0.10880915363E-01  0.22622839881E-01  0.00000000000E+00 0. -1.
     999901    1    3    3    0    0 -0.96268984468E-01  0.65852815150E-01 -0.18347205732E-02  0.88769796487E+00  0.88000000000E+00 0.  1.
        -11    1    4    4    0    0  0.83887811167E-01 -0.41209434925E-01  0.17140734719E-01  0.95023409205E-01  0.51100000000E-03 0. -1.
         11    1    4    4    0    0  0.31917738763E-01 -0.21219760053E-01 -0.44250987829E-02  0.38585786045E-01  0.51100000000E-03 0.  1.
</event>
<event>
 8    1  0.1148488E+005  0.1043930E+01  0.7957747E-01            NaN
         13   -1    0    0    0    0  0.00000000000E+00  0.00000000000E+00  0.74505805969E-08  0.10566000000E+00  0.10566000000E+00 0. -1.
     999900   -1    0    0    0    0 -0.00000000000E+00 -0.00000000000E+00 -0.74505805969E-08  0.93827000000E+00  0.93827000000E+00 0. -1.
     999902    2    1    2    0    0  0.18130572579E-01  0.14623022316E-02 -0.15067071073E-01  0.10203106727E+01  0.10200372524E+01 0.  0.
     999903    2    3    3    0    0 -0.10481897416E+00  0.69719571392E-01  0.16385308355E-01  0.12859048231E+00  0.20474321266E-01 0.  0.
         14    1    1    2    0    0 -0.18130572579E-01 -0.14623022316E-02  0.15067071073E-01  0.23619327267E-01  0.00000000000E+00 0. -1.
     999901    1    3    3    0    0  0.12294954674E+00 -0.68257269160E-01 -0.31452379428E-01  0.89172019042E+00  0.88000000000E+00 0. -1.
        -11    1    4    4    0    0 -0.29177544417E-01  0.30926103709E-01  0.46736556906E-02  0.42776829795E-01  0.51100000000E-03 0. -1.
         11    1    4    4    0    0 -0.75641429745E-01  0.38793467683E-01  0.11711652664E-01  0.85813652514E-01  0.51100000000E-03 0.  1.
</event>
<event>
 8    1  0.1148488E+005  0.1043930E+01  0.7957747E-01            NaN
         13   -1    0    0    0    0  0.00000000000E+00  0.00000000000E+00  0.74505805969E-08  0.10566000000E+00  0.10566000000E+00 0. -1.
     999900   -1    0    0    0    0 -0.00000000000E+00 -0.00000000000E+00 -0.74505805969E-08  0.93827000000E+00  0.93827000000E+00 0.  1.
     999902    2    1    2    0    0  0.71039882945E-02 -0.11574012119E-01 -0.19801110675E-01  0.10199194109E+01  0.10196367472E+01 0.  0.
     999903    2    3    3    0    0  0.12423528117E-01 -0.12967639376E+00  0.99397129278E-02  0.13151579391E+00  0.15076306065E-01 0.  0.
         14    1    1    2    0    0 -0.71039882945E-02  0.11574012119E-01  0.19801110675E-01  0.24010589126E-01  0.00000000000E+00 0. -1.
     999901    1    3    3    0    0 -0.53195398224E-02  0.11810238164E+00 -0.29740823603E-01  0.88840361697E+00  0.88000000000E+00 0. -1.
        -11    1    4    4    0    0  0.95967909727E-02 -0.48486177459E-01 -0.16229597540E-02  0.49456070617E-01  0.51100000000E-03 0.  1.
         11    1    4    4    0    0  0.28267371442E-02 -0.81190216299E-01  0.11562672682E-01  0.82059723288E-01  0.51100000000E-03 0. -1.
</event>
<event>
 8    1  0.1148488E+005  0.1043930E+01  0.7957747E-01            NaN
         13   -1    0    0    0    0  0.00000000000E+00  0.00000000000E+00  0.74505805969E-08  0.10566000000E+00  0.10566000000E+00 0.  1.
     999900   -1    0    0    0    0 -0.00000000000E+00 -0.00000000000E+00 -0.74505805969E-08  0.93827000000E+00  0.93827000000E+00 0. -1.
     999902    2    1    2    0    0 -0.78474624125E-02  0.19335109524E-01 -0.91168913684E-02  0.10211583765E+01  0.10209044437E+01 0.  0.
     999903    2    3    3    0    0 -0.10521713793E+00  0.64800470913E-01 -0.46795679674E-01  0.13382098643E+00  0.21177195957E-01 0.  0.
         14    1    1    2    0    0  0.78474624125E-02 -0.19335109524E-01  0.91168913684E-02  0.22771623457E-01  0.00000000000E+00 0.  1.
     999901    1    3    3    0    0  0.97369675521E-01 -0.45465361388E-01  0.37678788305E-01  0.88733739011E+00  0.88000000000E+00 0.  1.
        -11    1    4    4    0    0 -0.70549148837E-01  0.31672250645E-01 -0.31256664178E-01  0.83411953814E-01  0.51100000000E-03 0. -1.
         11    1    4    4    0    0 -0.34667989097E-01  0.33128220267E-01 -0.15539015496E-01  0.50409032620E-01  0.51100000000E-03 0.  1.
</event>
<event>
 8    1  0.1148488E+005  0.1043930E+01  0.7957747E-01            NaN
         13   -1    0    0    0    0  0.00000000000E+00  0.00000000000E+00  0.74505805969E-08  0.10566000000E+00  0.10566000000E+00 0.  1.
     999900   -1    0    0    0    0 -0.00000000000E+00 -0.00000000000E+00 -0.74505805969E-08  0.93827000000E+00  0.93827000000E+00 0. -1.
     999902    2    1    2    0    0  0.13583788470E-01 -0.18371839411E-01  0.47509371940E-02  0.10205930080E+01  0.10203261600E+01 0.  0.
     999903    2    3    3    0    0 -0.40941934014E-01 -0.12348213734E+00 -0.14296815546E-01  0.13245785721E+00  0.20410898990E-01 0.  0.
         14    1    1    2    0    0 -0.13583788470E-01  0.18371839411E-01 -0.47509371940E-02  0.23336992025E-01  0.00000000000E+00 0. -1.
     999901    1    3    3    0    0  0.54525722484E-01  0.10511029793E+00  0.19047752740E-01  0.88813515077E+00  0.88000000000E+00 0.  1.
        -11    1    4    4    0    0 -0.54775428679E-02 -0.37495449669E-01  0.23323369453E-02  0.37968580937E-01  0.51100000000E-03 0. -1.
         11    1    4    4    0    0 -0.35464391146E-01 -0.85986687675E-01 -0.16629152491E-01  0.94489276271E-01  0.51100000000E-03 0.  1.
</event>
<event>
 8    1  0.1148488E+005  0.1043930E+01  0.7957747E-01            NaN
         13   -1    0    0    0    0  0.00000000000E+00  0.00000000000E+00  0.74505805969E-08  0.10566000000E+00  0.10566000000E+00 0.  1.
     999900   -1    0    0    0    0 -0.00000000000E+00 -0.00000000000E+00 -0.74505805969E-08  0.93827000000E+00  0.93827000000E+00 0. -1.
     999902    2    1    2    0    0 -0.21458881470E-01  0.10777959379E-01  0.78073168185E-03  0.10199038154E+01  0.10196207801E+01 0.  0.
     999903    2    3    3    0    0  0.64512945774E-01 -0.42583527821E-02  0.10968867541E+00  0.12890539459E+00  0.20123158303E-01 0.  0.
         14    1    1    2    0    0  0.21458881470E-01 -0.10777959379E-01 -0.78073168185E-03  0.24026184555E-01  0.00000000000E+00 0. -1.
     999901    1    3    3    0    0 -0.85971827244E-01  0.15036312162E-01 -0.10890794373E+00  0.89099842086E+00  0.88000000000E+00 0. -1.
        -11    1    4    4    0    0  0.47206429088E-01  0.29969588674E-02  0.64625755748E-01  0.80088564331E-01  0.51100000000E-03 0. -1.
         11    1    4    4    0    0  0.17306516687E-01 -0.72553116495E-02  0.45062919661E-01  0.48816830257E-01  0.51100000000E-03 0.  1.
</event>
<event>
 8    1  0.1148488E+005  0.1043930E+01  0.7957747E-01            NaN
         13   -1    0    0    0    0  0.00000000000E+00  0.00000000000E+00  0.74505805969E-08  0.10566000000E+00  0.10566000000E+00 0. -1.
     999900   -1    0    0    0    0 -0.00000000000E+00 -0.00000000000E+00 -0.74505805969E-08  0.93827000000E+00  0.93827000000E+00 0. -1.
     999902    2    1    2    0    0 -0.14951888835E-01  0.12208749757E-01 -0.13018294860E-01  0.10206472048E+01  0.10203816091E+01 0.  0.
     999903    2    3    3    0    0  0.76458913245E-02 -0.36251280493E-01  0.12178146607E+00  0.12877837492E+00  0.19507162230E-01 0.  0.
         14    1    1    2    0    0  0.14951888835E-01 -0.12208749757E-01  0.13018294860E-01  0.23282795181E-01  0.00000000000E+00 0. -1.
     999901    1    3    3    0    0 -0.22597780160E-01  0.48460030249E-01 -0.13479976093E+00  0.89186882990E+00  0.88000000000E+00 0. -1.
        -11    1    4    4    0    0  0.65459804525E-02 -0.37847024519E-01  0.10369193653E+00  0.11057814408E+00  0.51100000000E-03 0.  1.
         11    1    4    4    0    0  0.10999108720E-02  0.15957440263E-02  0.18089529533E-01  0.18200230840E-01  0.51100000000E-03 0. -1.
</event>
<event>
 8    1  0.1148488E+005  0.1043930E+01  0.7957747E-01            NaN
         13   -1    0    0    0    0  0.00000000000E+00  0.00000000000E+00  0.74505805969E-08  0.10566000000E+00  0.10566000000E+00 0. -1.
     999900   -1    0    0    0    0 -0.00000000000E+00 -0.00000000000E+00 -0.74505805969E-08  0.93827000000E+00  0.93827000000E+00 0.  1.
     999902    2    1    2    0    0  0.19328373684E-01  0.10278996554E-01  0.24953015355E-02  0.10218966088E+01  0.10216590472E+01 0.  0.
     999903    2    3    3    0    0 -0.48468215234E-02  0.11514239554E+00 -0.62945747717E-01  0.13292905962E+00  0.20656834345E-01 0.  0.
         14    1    1    2    0    0 -0.19328373684E-01 -0.10278996554E-01 -0.24953015355E-02  0.22033391232E-01  0.00000000000E+00 0. -1.
     999901    1    3    3    0    0  0.24175195208E-01 -0.10486339899E+00  0.65441049253E-01  0.88896754915E+00  0.88000000000E+00 0. -1.
        -11    1    4    4    0    0 -0.83245380110E-02  0.98571927054E-01 -0.60107892903E-01  0.11575380187E+00  0.51100000000E-03 0. -1.
         11    1    4    4    0    0  0.34777164875E-02  0.16570468490E-01 -0.28378548141E-02  0.17175257753E-01  0.51100000000E-03 0.  1.
</event>
<event>
 8    1  0.1148488E+005  0.1043930E+01  0.7957747E-01            NaN
         13   -1    0    0    0    0  0.00000000000E+00  0.00000000000E+00  0.74505805969E-08  0.10566000000E+00  0.10566000000E+00 0.  1.
     999900   -1    0    0    0    0 -0.00000000000E+00 -0.00000000000E+00 -0.74505805969E-08  0.93827000000E+00  0.93827000000E+00 0. -1.
     999902    2    1    2    0    0 -0.15266002269E-01 -0.12562221031E-01  0.13007822206E-01  0.10202643358E+01  0.10199898290E+01 0.  0.
     999903    2    3    3    0    0 -0.90607349117E-01 -0.68629227070E-01 -0.63092254882E-01  0.13200139646E+00  0.22892652070E-01 0.  0.
         14    1    1    2    0    0  0.15266002269E-01  0.12562221031E-01 -0.13007822206E-01  0.23665664179E-01  0.00000000000E+00 0. -1.
     999901    1    3    3    0    0  0.75341346848E-01  0.56067006039E-01  0.76100077087E-01  0.88826293936E+00  0.88000000000E+00 0.  1.
        -11    1    4    4    0    0 -0.55706535902E-01 -0.46526488475E-01 -0.51803133243E-01  0.89172630368E-01  0.51100000000E-03 0.  1.
         11    1    4    4    0    0 -0.34900813215E-01 -0.22102738596E-01 -0.11289121639E-01  0.42828766091E-01  0.51100000000E-03 0. -1.
</event>
<event>
 8    1  0.1148488E+005  0.1043930E+01  0.7957747E-01            NaN
         13   -1    0    0    0    0  0.00000000000E+00  0.00000000000E+00  0.74505805969E-08  0.10566000000E+00  0.10566000000E+00 0.  1.
     999900   -1    0    0    0    0 -0.00000000000E+00 -0.00000000000E+00 -0.74505805969E-08  0.93827000000E+00  0.93827000000E+00 0. -1.
     999902    2    1    2    0    0 -0.23320523320E-01 -0.57080215297E-02  0.49786349180E-02  0.10194103115E+01  0.10191153851E+01 0.  0.
     999903    2    3    3    0    0 -0.12641964970E+00 -0.33651150751E-01  0.15216721165E-01  0.13289180255E+00  0.17730053688E-01 0.  0.
         14    1    1    2    0    0  0.23320523320E-01  0.57080215297E-02 -0.49786349180E-02  0.24519688484E-01  0.00000000000E+00 0. -1.
     999901    1    3    3    0    0  0.10309912638E+00  0.27943129222E-01 -0.10238086247E-01  0.88651850897E+00  0.88000000000E+00 0. -1.
        -11    1    4    4    0    0 -0.63895062973E-01 -0.18919148483E-01 -0.96573254444E-03  0.66646132761E-01  0.51100000000E-03 0. -1.
         11    1    4    4    0    0 -0.62524586729E-01 -0.14732002269E-01  0.16182453710E-01  0.66245669787E-01  0.51100000000E-03 0.  1.
</event>
<event>
 8    1  0.1148488E+005  0.1043930E+01  0.7957747E-01            NaN
         13   -1    0    0    0    0  0.00000000000E+00  0.00000000000E+00  0.74505805969E-08  0.10566000000E+00  0.10566000000E+00 0. -1.
     999900   -1    0    0    0    0 -0.00000000000E+00 -0.00000000000E+00 -0.74505805969E-08  0.93827000000E+00  0.93827000000E+00 0.  1.
     999902    2    1    2    0    0 -0.19290013831E-01 -0.13776328708E-01  0.15339068481E-02  0.10201761638E+01  0.10198995835E+01 0.  0.
     999903    2    3    3    0    0 -0.16975207725E-01 -0.49490764285E-01 -0.11875057941E+00  0.13127277369E+00  0.19832992037E-01 0.  0.
         14    1    1    2    0    0  0.19290013831E-01  0.13776328708E-01 -0.15339068481E-02  0.23753836248E-01  0.00000000000E+00 0.  1.
     999901    1    3    3    0    0 -0.23148061057E-02  0.35714435577E-01  0.12028448626E+00  0.88890339007E+00  0.88000000000E+00 0. -1.
        -11    1    4    4    0    0 -0.12268028783E-01 -0.42556898049E-01 -0.11219119111E+00  0.12061806907E+00  0.51100000000E-03 0. -1.
         11    1    4    4    0    0 -0.47071789423E-02 -0.69338662366E-02 -0.65593883024E-02  0.10654704617E-01  0.51100000000E-03 0.  1.
</event>
<event>
 8    1  0.1148488E+005  0.1043930E+01  0.7957747E-01            NaN
         13   -1    0    0    0    0  0.00000000000E+00  0.00000000000E+00  0.74505805969E-08  0.10566000000E+00  0.10566000000E+00 0.  1.
     999900   -1    0    0    0    0 -0.00000000000E+00 -0.00000000000E+00 -0.74505805969E-08  0.93827000000E+00  0.93827000000E+00 0.  1.
     999902    2    1    2    0    0 -0.11439738996E-01 -0.14314444143E-01  0.14916515881E-01  0.10203021904E+01  0.10200285714E+01 0.  0.
     999903    2    3    3    0    0  0.36558691983E-01 -0.91422792566E-01  0.86573810505E-01  0.13273004426E+00  0.20677887303E-01 0.  0.
         14    1    1    2    0    0  0.11439738996E-01  0.14314444143E-01 -0.14916515881E-01  0.23627809578E-01  0.00000000000E+00 0. -1.
     999901    1    3    3    0    0 -0.47998430979E-01  0.77108348423E-01 -0.71657294624E-01  0.88757214616E+00  0.88000000000E+00 0. -1.
        -11    1    4    4    0    0  0.15507393126E-01 -0.64908010769E-01  0.56409727815E-01  0.87383337180E-01  0.51100000000E-03 0.  1.
         11    1    4    4    0    0  0.21051298856E-01 -0.26514781797E-01  0.30164082691E-01  0.45346707079E-01  0.51100000000E-03 0. -1.
</event>
<event>
 8    1  0.1148488E+005  0.1043930E+01  0.7957747E-01            NaN
         13   -1    0    0    0    0  0.00000000000E+00  0.00000000000E+00  0.74505805969E-08  0.10566000000E+00  0.10566000000E+00 0.  1.
     999900   -1    0    0    0    0 -0.00000000000E+00 -0.00000000000E+00 -0.74505805969E-08  0.93827000000E+00  0.93827000000E+00 0. -1.
     999902    2    1    2    0    0 -0.42884471609E-02 -0.22275349174E-01  0.20622463652E-02  0.10211520541E+01  0.10208979786E+01 0.  0.
     999903    2    3    3    0    0  0.54082279229E-01  0.13351057549E-01 -0.11634940644E+00  0.13059172369E+00  0.20343801348E-01 0.  0.
         14    1    1    2    0    0  0.42884471609E-02  0.22275349174E-01 -0.20622463652E-02  0.22777945911E-01  0.00000000000E+00 0.  1.
     999901    1    3    3    0    0 -0.58370726390E-01 -0.35626406723E-01  0.11841165281E+00  0.89056033040E+00  0.88000000000E+00 0.  1.
        -11    1    4    4    0    0  0.27674596843E-01  0.16533460397E-02 -0.37655709194E-01  0.46763558669E-01  0.51100000000E-03 0. -1.
         11    1    4    4    0    0  0.26407682387E-01  0.11697711509E-01 -0.78693697248E-01  0.83828165023E-01  0.51100000000E-03 0.  1.
</event>
<event>
 8    1  0.1148488E+005  0.1043930E+01  0.7957747E-01            NaN
         13   -1    0    0    0    0  0.00000000000E+00  0.00000000000E+00  0.74505805969E-08  0.10566000000E+00  0.10566000000E+00 0.  1.
     999900   -1    0    0    0    0 -0.00000000000E+00 -0.00000000000E+00 -0.74505805969E-08  0.93827000000E+00  0.93827000000E+00 0. -1.
     999902    2    1    2    0    0  0.98870553720E-02 -0.18795239987E-01  0.85624378263E-02  0.10210317413E+01  0.10207749441E+01 0.  0.
     999903    2    3    3    0    0 -0.88154909382E-01 -0.52028001996E-01 -0.78722596984E-01  0.13067489114E+00  0.20011967872E-01 0.  0.
         14    1    1    2    0    0 -0.98870553720E-02  0.18795239987E-01 -0.85624378263E-02  0.22898258703E-01  0.00000000000E+00 0. -1.
     999901    1    3    3    0    0  0.98041964754E-01  0.33232762009E-01  0.87285034810E-01  0.89035685016E+00  0.88000000000E+00 0. -1.
        -11    1    4    4    0    0 -0.32603873235E-01 -0.29895356600E-01 -0.38087643404E-01  0.58375290982E-01  0.51100000000E-03 0. -1.
         11    1    4    4    0    0 -0.55551036147E-01 -0.22132645396E-01 -0.40634953580E-01  0.72299600156E-01  0.51100000000E-03 0.  1.
</event>
<event>
 8    1  0.1148488E+005  0.1043930E+01  0.7957747E-01            NaN
         13   -1    0    0    0    0  0.00000000000E+00  0.00000000000E+00  0.74505805969E-08  0.10566000000E+00  0.10566000000E+00 0.  1.
     999900   -1    0    0    0    0 -0.00000000000E+00 -0.00000000000E+00 -0.74505805969E-08  0.93827000000E+00  0.93827000000E+00 0. -1.
     999902    2    1    2    0    0 -0.36888141638E-02 -0.16143427427E-01 -0.18674514450E-01  0.10189709317E+01  0.10186652073E+01 0.  0.
     999903    2    3    3    0    0  0.76035256737E-02  0.11886158637E+00 -0.42709593022E-01  0.12827931524E+00  0.21108838556E-01 0.  0.
         14    1    1    2    0    0  0.36888141638E-02  0.16143427427E-01  0.18674514450E-01  0.24959068272E-01  0.00000000000E+00 0.  1.
     999901    1    3    3    0    0 -0.11292339837E-01 -0.13500501379E+00  0.24035078572E-01  0.89069161649E+00  0.88000000000E+00 0. -1.
        -11    1    4    4    0    0  0.88377499057E-03  0.19234366741E-01  0.97681049267E-03  0.19286192001E-01  0.51100000000E-03 0.  1.
         11    1    4    4    0    0  0.67197506831E-02  0.99627219625E-01 -0.43686403515E-01  0.10899312324E+00  0.51100000000E-03 0. -1.
</event>
<event>
 8    1  0.1148488E+005  0.1043930E+01  0.7957747E-01            NaN
         13   -1    0    0    0    0  0.00000000000E+00  0.00000000000E+00  0.74505805969E-08  0.10566000000E+00  0.10566000000E+00 0.  1.
     999900   -1    0    0    0    0 -0.00000000000E+00 -0.00000000000E+00 -0.74505805969E-08  0.93827000000E+00  0.93827000000E+00 0.  1.
     999902    2    1    2    0    0  0.19343061860E-01  0.76969541046E-02 -0.99205359928E-02  0.10208689033E+01  0.10206083988E+01 0.  0.
     999903    2    3    3    0    0  0.11273330206E+00  0.60785665757E-01  0.31528277060E-01  0.13336783159E+00  0.19729462567E-01 0.  0.
         14    1    1    2    0    0 -0.19343061860E-01 -0.76969541046E-02  0.99205359928E-02  0.23061096656E-01  0.00000000000E+00 0.  1.
     999901    1    3    3    0    0 -0.93390240197E-01 -0.53088711652E-01 -0.41448813053E-01  0.88750107176E+00  0.88000000000E+00 0.  1.
        -11    1    4    4    0    0  0.19409847422E-01  0.19475154226E-01  0.55677882115E-02  0.28058602881E-01  0.51100000000E-03 0. -1.
         11    1    4    4    0    0  0.93323454635E-01  0.41310511531E-01  0.25960488849E-01  0.10530922870E+00  0.51100000000E-03 0.  1.
</event>
<event>
 8    1  0.1148488E+005  0.1043930E+01  0.7957747E-01            NaN
         13   -1    0    0    0    0  0.00000000000E+00  0.00000000000E+00  0.74505805969E-08  0.10566000000E+00  0.10566000000E+00 0. -1.
     999900   -1    0    0    0    0 -0.00000000000E+00 -0.00000000000E+00 -0.74505805969E-08  0.93827000000E+00  0.93827000000E+00 0. -1.
     999902    2    1    2    0    0 -0.22004259605E-01 -0.83549565573E-02  0.13939803419E-02  0.10203517066E+01  0.10200792465E+01 0.  0.
     999903    2    3    3    0    0 -0.10662484379E+00  0.75427473393E-01 -0.66195836769E-02  0.13229520159E+00  0.20001010423E-01 0.  0.
         14    1    1    2    0    0  0.22004259605E-01  0.83549565573E-02 -0.13939803419E-02  0.23578293430E-01  0.00000000000E+00 0. -1.
     999901    1    3    3    0    0  0.84620584189E-01 -0.83782429950E-01  0.80135640188E-02  0.88805650498E+00  0.88000000000E+00 0.  1.
        -11    1    4    4    0    0 -0.49461445869E-01  0.29314782615E-01 -0.11689718051E-01  0.58674540785E-01  0.51100000000E-03 0.  1.
         11    1    4    4    0    0 -0.57163397925E-01  0.46112690778E-01  0.50701343746E-02  0.73620660801E-01  0.51100000000E-03 0. -1.
</event>
<event>
 8    1  0.1148488E+005  0.1043930E+01  0.7957747E-01            NaN
         13   -1    0    0    0    0  0.00000000000E+00  0.00000000000E+00  0.74505805969E-08  0.10566000000E+00  0.10566000000E+00 0. -1.
     999900   -1    0    0    0    0 -0.00000000000E+00 -0.00000000000E+00 -0.74505805969E-08  0.93827000000E+00  0.93827000000E+00 0. -1.
     999902    2    1    2    0    0 -0.29466782651E-02  0.29753287049E-03 -0.23699615099E-01  0.10200460473E+01  0.10197663926E+01 0.  0.
     999903    2    3    3    0    0  0.69846994968E-01  0.60053083236E-01 -0.92526005582E-01  0.13234862328E+00  0.21682270711E-01 0.  0.
         14    1    1    2    0    0  0.29466782651E-02 -0.29753287049E-03  0.23699615099E-01  0.23883952655E-01  0.00000000000E+00 0. -1.
     999901    1    3    3    0    0 -0.72793673233E-01 -0.59755550366E-01  0.68826390483E-01  0.88769742406E+00  0.88000000000E+00 0. -1.
        -11    1    4    4    0    0  0.86380657486E-02  0.33936105924E-02 -0.19030234148E-01  0.21178850428E-01  0.51100000000E-03 0. -1.
         11    1    4    4    0    0  0.61208929219E-01  0.56659472644E-01 -0.73495771434E-01  0.11116977285E+00  0.51100000000E-03 0.  1.
</event>
<event>
 8    1  0.1148488E+005  0.1043930E+01  0.7957747E-01            NaN
         13   -1    0    0    0    0  0.00000000000E+00  0.00000000000E+00  0.74505805969E-08  0.10566000000E+00  0.10566000000E+00 0.  1.
     999900   -1    0    0    0    0 -0.00000000000E+00 -0.00000000000E+00 -0.74505805969E-08  0.93827000000E+00  0.93827000000E+00 0.  1.
     999902    2    1    2    0    0  0.11941105456E-01 -0.10878607475E-01  0.67294321962E-02  0.10264308755E+01  0.10262816976E+01 0.  0.
     999903    2    3    3    0    0  0.24456443533E-01  0.87380079401E-01  0.98979560389E-01  0.13608179263E+00  0.22088571824E-01 0.  0.
         14    1    1    2    0    0 -0.11941105456E-01  0.10878607475E-01 -0.67294321962E-02  0.17499124486E-01  0.00000000000E+00 0.  1.
     999901    1    3    3    0    0 -0.12515338077E-01 -0.98258686876E-01 -0.92250128193E-01  0.89034908288E+00  0.88000000000E+00 0.  1.
        -11    1    4    4    0    0  0.11975081326E-01  0.64650766742E-01  0.81894786111E-01  0.10502447965E+00  0.51100000000E-03 0. -1.
         11    1    4    4    0    0  0.12481362207E-01  0.22729312659E-01  0.17084774278E-01  0.31057312981E-01  0.51100000000E-03 0.  1.
</event>
<event>
 8    1  0.1148488E+005  0.1043930E+01  0.7957747E-01            NaN
         13   -1    0    0    0    0  0.00000000000E+00  0.00000000000E+00  0.74505805969E-08  0.10566000000E+00  0.10566000000E+00 0. -1.
     999900   -1    0    0    0    0 -0.00000000000E+00 -0.00000000000E+00 -0.74505805969E-08  0.93827000000E+00  0.93827000000E+00 0.  1.
     999902    2    1    2    0    0  0.17899068453E-01 -0.14855227810E-01  0.76313581070E-02  0.10194495574E+01  0.10191555857E+01 0.  0.
     999903    2    3    3    0    0  0.29166942169E-01  0.22509585921E-01  0.12399744337E+00  0.13093160027E+00  0.20256505462E-01 0.  0.
         14    1    1    2    0    0 -0.17899068453E-01  0.14855227810E-01 -0.76313581070E-02  0.24480442629E-01  0.00000000000E+00 0.  1.
     999901    1    3    3    0    0 -0.11267873717E-01 -0.37364813732E-01 -0.11636608527E+00  0.88851795710E+00  0.88000000000E+00 0.  1.
        -11    1    4    4    0    0  0.14878433296E-02  0.24323908054E-02  0.41850854633E-01  0.41950987560E-01  0.51100000000E-03 0. -1.
         11    1    4    4    0    0  0.27679098840E-01  0.20077195116E-01  0.82146588740E-01  0.88980612714E-01  0.51100000000E-03 0.  1.
</event>
<event>
 8    1  0.1148488E+005  0.1043930E+01  0.7957747E-01            NaN
         13   -1    0    0    0    0  0.00000000000E+00  0.00000000000E+00  0.74505805969E-08  0.10566000000E+00  0.10566000000E+00 0.  1.
     999900   -1    0    0    0    0 -0.00000000000E+00 -0.00000000000E+00 -0.74505805969E-08  0.93827000000E+00  0.93827000000E+00 0. -1.
     999902    2    1    2    0    0 -0.19936912759E-01  0.85933196909E-02  0.10134329368E-01  0.10199710713E+01  0.10196896371E+01 0.  0.
     999903    2    3    3    0    0 -0.16963281968E-01 -0.27551997013E-01 -0.12333975460E+00  0.12916769371E+00  0.20609040726E-01 0.  0.
         14    1    1    2    0    0  0.19936912759E-01 -0.85933196909E-02 -0.10134329368E-01  0.23958928719E-01  0.00000000000E+00 0. -1.
     999901    1    3    3    0    0 -0.29736307910E-02  0.36145316704E-01  0.13347408397E+00  0.89080337757E+00  0.88000000000E+00 0.  1.
        -11    1    4    4    0    0 -0.20134468666E-01 -0.14404066961E-01 -0.76087499517E-01  0.80015265277E-01  0.51100000000E-03 0.  1.
         11    1    4    4    0    0  0.31711866985E-02 -0.13147930053E-01 -0.47252255081E-01  0.49152428434E-01  0.51100000000E-03 0. -1.
</event>
<event>
 7    1  0.1148488E+005  0.1043930E+01  0.7957747E-01            NaN
         13   -1    0    0    0    0  0.00000000000E+00  0.00000000000E+00  0.74505805969E-08  0.10566000000E+00  0.10566000000E+00 0. -1.
     999900   -1    0    0    0    0 -0.00000000000E+00 -0.00000000000E+00 -0.74505805969E-08  0.93827000000E+00  0.93827000000E+00 0. -1.
     999903    2    1    2    0    0  0.69481853450E-01  0.68167747352E-01 -0.49224804133E-01  0.11131370758E+00  0.22205639279E-01 0.  0.
         14    1    1    2    0    0 -0.13196588672E-01  0.38454194965E-01  0.16252170468E-01  0.43783651149E-01  0.00000000000E+00 0. -1.
     999901    1    1    2    0    0 -0.56285264779E-01 -0.10662194232E+00  0.32972633665E-01  0.88883264127E+00  0.88000000000E+00 0.  1.
        -11    1    3    3    0    0  0.57595769685E-01  0.53595608488E-01 -0.48629414718E-01  0.92492394453E-01  0.51100000000E-03 0. -1.
         11    1    3    3    0    0  0.11886083765E-01  0.14572138864E-01 -0.59538941491E-03  0.18821313129E-01  0.51100000000E-03 0.  1.
</event>
<event>
 8    1  0.1148488E+005  0.1043930E+01  0.7957747E-01            NaN
         13   -1    0    0    0    0  0.00000000000E+00  0.00000000000E+00  0.74505805969E-08  0.10566000000E+00  0.10566000000E+00 0.  1.
     999900   -1    0    0    0    0 -0.00000000000E+00 -0.00000000000E+00 -0.74505805969E-08  0.93827000000E+00  0.93827000000E+00 0. -1.
     999902    2    1    2    0    0  0.22611342484E-01 -0.20468704845E-02  0.60679456713E-02  0.10204293095E+01  0.10201586608E+01 0.  0.
     999903    2    3    3    0    0 -0.39103441502E-01  0.10579416930E+00  0.61453571322E-01  0.12997663142E+00  0.19897183033E-01 0.  0.
         14    1    1    2    0    0 -0.22611342484E-01  0.20468704845E-02 -0.60679456713E-02  0.23500690466E-01  0.00000000000E+00 0. -1.
     999901    1    3    3    0    0  0.61714783987E-01 -0.10784103978E+00 -0.55385625651E-01  0.89045267811E+00  0.88000000000E+00 0.  1.
        -11    1    4    4    0    0 -0.29315468487E-01  0.75432976870E-01  0.53756115603E-01  0.97157149906E-01  0.51100000000E-03 0. -1.
         11    1    4    4    0    0 -0.97879730154E-02  0.30361192430E-01  0.76974557191E-02  0.32819481518E-01  0.51100000000E-03 0.  1.
</event>
<event>
 8    1  0.1148488E+005  0.1043930E+01  0.7957747E-01            NaN
         13   -1    0    0    0    0  0.00000000000E+00  0.00000000000E+00  0.74505805969E-08  0.10566000000E+00  0.10566000000E+00 0.  1.
     999900   -1    0    0    0    0 -0.00000000000E+00 -0.00000000000E+00 -0.74505805969E-08  0.93827000000E+00  0.93827000000E+00 0. -1.
     999902    2    1    2    0    0 -0.56512736874E-02  0.13678927258E-01  0.12024950901E-01  0.10248604067E+01  0.10246829772E+01 0.  0.
     999903    2    3    3    0    0  0.22478724920E-02  0.13485514447E+00  0.54515372755E-02  0.13649714658E+00  0.20267926541E-01 0.  0.
         14    1    1    2    0    0  0.56512736874E-02 -0.13678927258E-01 -0.12024950901E-01  0.19069593320E-01  0.00000000000E+00 0. -1.
     999901    1    3    3    0    0 -0.78991461794E-02 -0.12117621721E+00  0.65734136259E-02  0.88836326010E+00  0.88000000000E+00 0. -1.
        -11    1    4    4    0    0  0.50127426988E-02  0.32053665617E-01  0.87430269386E-02  0.33604563825E-01  0.51100000000E-03 0.  1.
         11    1    4    4    0    0 -0.27648702068E-02  0.10280147885E+00 -0.32914896631E-02  0.10289258276E+00  0.51100000000E-03 0. -1.
</event>
<event>
 8    1  0.1148488E+005  0.1043930E+01  0.7957747E-01            NaN
         13   -1    0    0    0    0  0.00000000000E+00  0.00000000000E+00  0.74505805969E-08  0.10566000000E+00  0.10566000000E+00 0. -1.
     999900   -1    0    0    0    0 -0.00000000000E+00 -0.00000000000E+00 -0.74505805969E-08  0.93827000000E+00  0.93827000000E+00 0. -1.
     999902    2    1    2    0    0  0.11942270209E-01 -0.85048752561E-02  0.16663433321E-01  0.10217349390E+01  0.10214938399E+01 0.  0.
     999903    2    3    3    0    0  0.10797079702E+00 -0.62823487230E-01 -0.41028285836E-01  0.13297157119E+00  0.19840235652E-01 0.  0.
         14    1    1    2    0    0 -0.11942270209E-01  0.85048752561E-02 -0.16663433321E-01  0.22195060958E-01  0.00000000000E+00 0.  1.
     999901    1    3    3    0    0 -0.96028526811E-01  0.54318611973E-01  0.57691719157E-01  0.88876336785E+00  0.88000000000E+00 0. -1.
        -11    1    4    4    0    0  0.33310803873E-01 -0.16731636030E-01 -0.21661763447E-01  0.43116706919E-01  0.51100000000E-03 0.  1.
         11    1    4    4    0    0  0.74659993146E-01 -0.46091851199E-01 -0.19366522389E-01  0.89854864276E-01  0.51100000000E-03 0. -1.
</event>
<event>
 8    1  0.1148488E+005  0.1043930E+01  0.7957747E-01            NaN
         13   -1    0    0    0    0  0.00000000000E+00  0.00000000000E+00  0.74505805969E-08  0.10566000000E+00  0.10566000000E+00 0.  1.
     999900   -1    0    0    0    0 -0.00000000000E+00 -0.00000000000E+00 -0.74505805969E-08  0.93827000000E+00  0.93827000000E+00 0. -1.
     999902    2    1    2    0    0  0.34071587337E-03  0.27632431352E-01 -0.20453196965E-01  0.10095497642E+01  0.10089641846E+01 0.  0.
     999903    2    3    3    0    0  0.11726963695E+00  0.18040243123E-01 -0.18341332802E-01  0.12176102656E+00  0.20291007286E-01 0.  0.
         14    1    1    2    0    0 -0.34071587337E-03 -0.27632431352E-01  0.20453196965E-01  0.34380235831E-01  0.00000000000E+00 0.  1.
     999901    1    3    3    0    0 -0.11692892108E+00  0.95921882291E-02 -0.21118641622E-02  0.88778873761E+00  0.88000000000E+00 0. -1.
        -11    1    4    4    0    0  0.19963504668E-01  0.10845438837E-01 -0.18049410689E-02  0.22796578591E-01  0.51100000000E-03 0. -1.
         11    1    4    4    0    0  0.97306132284E-01  0.71948042857E-02 -0.16536391734E-01  0.98964447966E-01  0.51100000000E-03 0.  1.
</event>
<event>
 8    1  0.1148488E+005  0.1043930E+01  0.7957747E-01            NaN
         13   -1    0    0    0    0  0.00000000000E+00  0.00000000000E+00  0.74505805969E-08  0.10566000000E+00  0.10566000000E+00 0. -1.
     999900   -1    0    0    0    0 -0.00000000000E+00 -0.00000000000E+00 -0.74505805969E-08  0.93827000000E+00  0.93827000000E+00 0.  1.
     999902    2    1    2    0    0 -0.40627591435E-02  0.17046431189E-01  0.16285236614E-01  0.10200072961E+01  0.10197267224E+01 0.  0.
     999903    2    3    3    0    0  0.10064793931E-01  0.12279701242E+00  0.45835242075E-01  0.13307100982E+00  0.20654730717E-01 0.  0.
         14    1    1    2    0    0  0.40627591435E-02 -0.17046431189E-01 -0.16285236614E-01  0.23922703854E-01  0.00000000000E+00 0. -1.
     999901    1    3    3    0    0 -0.14127553075E-01 -0.10575058123E+00 -0.29550005462E-01  0.88693628633E+00  0.88000000000E+00 0.  1.
        -11    1    4    4    0    0 -0.55944556320E-02  0.39545179333E-01  0.18823514986E-01  0.44155463758E-01  0.51100000000E-03 0.  1.
         11    1    4    4    0    0  0.15659249563E-01  0.83251833088E-01  0.27011727089E-01  0.88915546057E-01  0.51100000000E-03 0. -1.
</event>
<event>
 8    1  0.1148488E+005  0.1043930E+01  0.7957747E-01            NaN
         13   -1    0    0    0    0  0.00000000000E+00  0.00000000000E+00  0.74505805969E-08  0.10566000000E+00  0.10566000000E+00 0.  1.
     999900   -1    0    0    0    0 -0.00000000000E+00 -0.00000000000E+00 -0.74505805969E-08  0.93827000000E+00  0.93827000000E+00 0.  1.
     999902    2    1    2    0    0  0.67512502437E-02  0.23622038917E-01 -0.37255931236E-05  0.10193621324E+01  0.10190660317E+01 0.  0.
     999903    2    3    3    0    0  0.64123902789E-03 -0.12533902529E+00  0.10594815927E-01  0.12675972377E+00  0.15668279998E-01 0.  0.
         14    1    1    2    0    0 -0.67512502437E-02 -0.23622038917E-01  0.37255931236E-05  0.24567867557E-01  0.00000000000E+00 0.  1.
     999901    1    3    3    0    0  0.61100112158E-02  0.14896106420E+00 -0.10598541520E-01  0.89260240867E+00  0.88000000000E+00 0. -1.
        -11    1    4    4    0    0 -0.18738421566E-02 -0.10094932562E+00  0.27292364286E-02  0.10100488840E+00  0.51100000000E-03 0. -1.
         11    1    4    4    0    0  0.25150811845E-02 -0.24389699668E-01  0.78655794982E-02  0.25754835373E-01  0.51100000000E-03 0.  1.
</event>
<event>
 8    1  0.1148488E+005  0.1043930E+01  0.7957747E-01            NaN
         13   -1    0    0    0    0  0.00000000000E+00  0.00000000000E+00  0.74505805969E-08  0.10566000000E+00  0.10566000000E+00 0.  1.
     999900   -1    0    0    0    0 -0.00000000000E+00 -0.00000000000E+00 -0.74505805969E-08  0.93827000000E+00  0.93827000000E+00 0.  1.
     999902    2    1    2    0    0  0.37632821455E-02  0.17252000308E-01  0.14970634970E-01  0.10207801897E+01  0.10205176539E+01 0.  0.
     999903    2    3    3    0    0 -0.17954828229E-01  0.69356286919E-01 -0.10784660593E+00  0.13045968127E+00  0.16005237745E-01 0.  0.
         14    1    1    2    0    0 -0.37632821455E-02 -0.17252000308E-01 -0.14970634970E-01  0.23149810335E-01  0.00000000000E+00 0. -1.
     999901    1    3    3    0    0  0.21718110374E-01 -0.52104286611E-01  0.12281724090E+00  0.89032050839E+00  0.88000000000E+00 0. -1.
        -11    1    4    4    0    0 -0.11777982278E-01  0.17178369220E-01 -0.28974145942E-01  0.35687245475E-01  0.51100000000E-03 0.  1.
         11    1    4    4    0    0 -0.61768459511E-02  0.52177917699E-01 -0.78872459989E-01  0.94772435798E-01  0.51100000000E-03 0. -1.
</event>
<event>
 8    1  0.1148488E+005  0.1043930E+01  0.7957747E-01            NaN
         13   -1    0    0    0    0  0.00000000000E+00  0.00000000000E+00  0.74505805969E-08  0.10566000000E+00  0.10566000000E+00 0.  1.
     999900   -1    0    0    0    0 -0.00000000000E+00 -0.00000000000E+00 -0.74505805969E-08  0.93827000000E+00  0.93827000000E+00 0. -1.
     999902    2    1    2    0    0 -0.11140284238E-01 -0.12339466875E-01 -0.17570466596E-01  0.10197413731E+01  0.10194544513E+01 0.  0.
     999903    2    3    3    0    0  0.54066831456E-01  0.55502358558E-01 -0.10339144395E+00  0.13057337919E+00  0.18864850980E-01 0.  0.
         14    1    1    2    0    0  0.11140284238E-01  0.12339466875E-01  0.17570466596E-01  0.24188626916E-01  0.00000000000E+00 0.  1.
     999901    1    3    3    0    0 -0.65207115693E-01 -0.67841825433E-01  0.85820977349E-01  0.88916799390E+00  0.88000000000E+00 0.  1.
        -11    1    4    4    0    0  0.47052261036E-01  0.39287793143E-01 -0.87292162424E-01  0.10666596786E+00  0.51100000000E-03 0.  1.
         11    1    4    4    0    0  0.70145704198E-02  0.16214565414E-01 -0.16099281521E-01  0.23907411325E-01  0.51100000000E-03 0. -1.
</event>
<event>
 8    1  0.1148488E+005  0.1043930E+01  0.7957747E-01            NaN
         13   -1    0    0    0    0  0.00000000000E+00  0.00000000000E+00  0.74505805969E-08  0.10566000000E+00  0.10566000000E+00 0.  1.
     999900   -1    0    0    0    0 -0.00000000000E+00 -0.00000000000E+00 -0.74505805969E-08  0.93827000000E+00  0.93827000000E+00 0.  1.
     999902    2    1    2    0    0 -0.22846832045E-01  0.78971641871E-02  0.22720153666E-02  0.10196502761E+01  0.10193611630E+01 0.  0.
     999903    2    3    3    0    0 -0.10921863032E+00 -0.48789798927E-01 -0.52026231345E-01  0.13194435698E+00  0.19835092708E-01 0.  0.
         14    1    1    2    0    0  0.22846832045E-01 -0.78971641871E-02 -0.22720153666E-02  0.24279723856E-01  0.00000000000E+00 0. -1.
     999901    1    3    3    0    0  0.86371798274E-01  0.56686963114E-01  0.54298246712E-01  0.88770591916E+00  0.88000000000E+00 0. -1.
        -11    1    4    4    0    0 -0.44264072246E-01 -0.94762349790E-02 -0.17478087222E-01  0.48526815011E-01  0.51100000000E-03 0.  1.
         11    1    4    4    0    0 -0.64954558073E-01 -0.39313563948E-01 -0.34548144123E-01  0.83417541968E-01  0.51100000000E-03 0. -1.
</event>
<event>
 8    1  0.1148488E+005  0.1043930E+01  0.7957747E-01            NaN
         13   -1    0    0    0    0  0.00000000000E+00  0.00000000000E+00  0.74505805969E-08  0.10566000000E+00  0.10566000000E+00 0. -1.
     999900   -1    0    0    0    0 -0.00000000000E+00 -0.00000000000E+00 -0.74505805969E-08  0.93827000000E+00  0.93827000000E+00 0. -1.
     999902    2    1    2    0    0 -0.24112308134E-02  0.74795050983E-02  0.22366849267E-01  0.10202227653E+01  0.10199472819E+01 0.  0.
     999903    2    3    3    0    0  0.27233382097E-01  0.58063696089E-01  0.11545113822E+00  0.13337314542E+00  0.18611305664E-01 0.  0.
         14    1    1    2    0    0  0.24112308134E-02 -0.74795050983E-02 -0.22366849267E-01  0.23707234691E-01  0.00000000000E+00 0.  1.
     999901    1    3    3    0    0 -0.29644612911E-01 -0.50584190990E-01 -0.93084288951E-01  0.88684961989E+00  0.88000000000E+00 0. -1.
        -11    1    4    4    0    0  0.66098252656E-02  0.29883662869E-01  0.41278347414E-01  0.51389553245E-01  0.51100000000E-03 0. -1.
         11    1    4    4    0    0  0.20623556832E-01  0.28180033220E-01  0.74172790805E-01  0.81983592172E-01  0.51100000000E-03 0.  1.
</event>
<event>
 8    1  0.1148488E+005  0.1043930E+01  0.7957747E-01            NaN
         13   -1    0    0    0    0  0.00000000000E+00  0.00000000000E+00  0.74505805969E-08  0.10566000000E+00  0.10566000000E+00 0. -1.
     999900   -1    0    0    0    0 -0.00000000000E+00 -0.00000000000E+00 -0.74505805969E-08  0.93827000000E+00  0.93827000000E+00 0. -1.
     999902    2    1    2    0    0 -0.15805272691E-01 -0.26422621012E-02  0.17433723684E-01  0.10202504114E+01  0.10199755777E+01 0.  0.
     999903    2    3    3    0    0  0.22673604928E-01 -0.12287179501E+00 -0.30113143935E-01  0.12997153981E+00  0.19345008487E-01 0.  0.
         14    1    1    2    0    0  0.15805272691E-01  0.26422621012E-02 -0.17433723684E-01  0.23679588580E-01  0.00000000000E+00 0.  1.
     999901    1    3    3    0    0 -0.38478877619E-01  0.12022953291E+00  0.47546867619E-01  0.89027887161E+00  0.88000000000E+00 0. -1.
        -11    1    4    4    0    0  0.21178406855E-01 -0.61593092887E-01 -0.15824691785E-01  0.67029217505E-01  0.51100000000E-03 0. -1.
         11    1    4    4    0    0  0.14951980733E-02 -0.61278702128E-01 -0.14288452150E-01  0.62942322308E-01  0.51100000000E-03 0.  1.
</event>
<event>
 8    1  0.1148488E+005  0.1043930E+01  0.7957747E-01            NaN
         13   -1    0    0    0    0  0.00000000000E+00  0.00000000000E+00  0.74505805969E-08  0.10566000000E+00  0.10566000000E+00 0. -1.
     999900   -1    0    0    0    0 -0.00000000000E+00 -0.00000000000E+00 -0.74505805969E-08  0.93827000000E+00  0.93827000000E+00 0.  1.
     999902    2    1    2    0    0  0.29363662612E-02  0.85268784443E-02 -0.22703088688E-01  0.10195013255E+01  0.10192086109E+01 0.  0.
     999903    2    3    3    0    0  0.38371662050E-01  0.20837261956E-01 -0.12395941948E+00  0.13290104900E+00  0.19752853292E-01 0.  0.
         14    1    1    2    0    0 -0.29363662612E-02 -0.85268784443E-02  0.22703088688E-01  0.24428674520E-01  0.00000000000E+00 0. -1.
     999901    1    3    3    0    0 -0.35435295789E-01 -0.12310383512E-01  0.10125633079E+00  0.88660027648E+00  0.88000000000E+00 0. -1.
        -11    1    4    4    0    0  0.14130528892E-01  0.16607692928E-01 -0.42003076878E-01  0.47328711152E-01  0.51100000000E-03 0.  1.
         11    1    4    4    0    0  0.24241133159E-01  0.42295690281E-02 -0.81956342602E-01  0.85572337848E-01  0.51100000000E-03 0. -1.
</event>
<event>
 8    1  0.1148488E+005  0.1043930E+01  0.7957747E-01            NaN
         13   -1    0    0    0    0  0.00000000000E+00  0.00000000000E+00  0.74505805969E-08  0.10566000000E+00  0.10566000000E+00 0. -1.
     999900   -1    0    0    0    0 -0.00000000000E+00 -0.00000000000E+00 -0.74505805969E-08  0.93827000000E+00  0.93827000000E+00 0. -1.
     999902    2    1    2    0    0  0.15599223365E-01  0.13664484887E-01  0.10503868771E-01  0.10206838137E+01  0.10204190622E+01 0.  0.
     999903    2    3    3    0    0 -0.99078057912E-02  0.80976999130E-01 -0.10036428872E+00  0.13081116472E+00  0.19573741666E-01 0.  0.
         14    1    1    2    0    0 -0.15599223365E-01 -0.13664484887E-01 -0.10503868771E-01  0.23246186267E-01  0.00000000000E+00 0.  1.
     999901    1    3    3    0    0  0.25507029156E-01 -0.67312514243E-01  0.11086815749E+00  0.88987264901E+00  0.88000000000E+00 0.  1.
        -11    1    4    4    0    0  0.41415532479E-02  0.43961016836E-01 -0.49112010283E-01  0.66045243126E-01  0.51100000000E-03 0.  1.
         11    1    4    4    0    0 -0.14049359039E-01  0.37015982294E-01 -0.51252278434E-01  0.64765921597E-01  0.51100000000E-03 0. -1.
</event>
<event>
 8    1  0.1148488E+005  0.1043930E+01  0.7957747E-01            NaN
         13   -1    0    0    0    0  0.00000000000E+00  0.00000000000E+00  0.74505805969E-08  0.10566000000E+00  0.10566000000E+00 0.  1.
     999900   -1    0    0    0    0 -0.00000000000E+00 -0.00000000000E+00 -0.74505805969E-08  0.93827000000E+00  0.93827000000E+00 0. -1.
     999902    2    1    2    0    0 -0.13152451057E-02  0.15966067832E-01 -0.16352863108E-02  0.10278266043E+01  0.10277004472E+01 0.  0.
     999903    2    3    3    0    0  0.13645069703E-02 -0.12229035402E+00 -0.54583571166E-01  0.13545586289E+00  0.20301034064E-01 0.  0.
         14    1    1    2    0    0  0.13152451057E-02 -0.15966067832E-01  0.16352863108E-02  0.16103395699E-01  0.00000000000E+00 0.  1.
     999901    1    3    3    0    0 -0.26797520761E-02  0.13825642186E+00  0.52948284855E-01  0.89237074141E+00  0.88000000000E+00 0. -1.
        -11    1    4    4    0    0 -0.90327203387E-02 -0.39613689144E-01 -0.18631508646E-01  0.44701550753E-01  0.51100000000E-03 0. -1.
         11    1    4    4    0    0  0.10397227309E-01 -0.82676664879E-01 -0.35952062520E-01  0.90754312138E-01  0.51100000000E-03 0.  1.
</event>
<event>
 8    1  0.1148488E+005  0.1043930E+01  0.7957747E-01            NaN
         13   -1    0    0    0    0  0.00000000000E+00  0.00000000000E+00  0.74505805969E-08  0.10566000000E+00  0.10566000000E+00 0. -1.
     999900   -1    0    0    0    0 -0.00000000000E+00 -0.00000000000E+00 -0.74505805969E-08  0.93827000000E+00  0.93827000000E+00 0.  1.
     999902    2    1    2    0    0 -0.19009850736E-01 -0.17980706600E-02 -0.16252456309E-01  0.10188551158E+01  0.10185465120E+01 0.  0.
     999903    2    3    3    0    0 -0.87918567547E-01  0.84851854730E-01 -0.44267906639E-01  0.13147611766E+00  0.19920095055E-01 0.  0.
         14    1    1    2    0    0  0.19009850736E-01  0.17980706600E-02  0.16252456309E-01  0.25074884231E-01  0.00000000000E+00 0. -1.
     999901    1    3    3    0    0  0.68908716811E-01 -0.86649925390E-01  0.28015450329E-01  0.88737899811E+00  0.88000000000E+00 0. -1.
        -11    1    4    4    0    0 -0.25308267094E-01  0.15746694541E-01 -0.47105404798E-02  0.30181402965E-01  0.51100000000E-03 0. -1.
         11    1    4    4    0    0 -0.62610300452E-01  0.69105160189E-01 -0.39557366159E-01  0.10129471470E+00  0.51100000000E-03 0.  1.
</event>
<event>
 8    1  0.1148488E+005  0.1043930E+01  0.7957747E-01            NaN
         13   -1    0    0    0    0  0.00000000000E+00  0.00000000000E+00  0.74505805969E-08  0.10566000000E+00  0.10566000000E+00 0. -1.
     999900   -1    0    0    0    0 -0.00000000000E+00 -0.00000000000E+00 -0.74505805969E-08  0.93827000000E+00  0.93827000000E+00 0. -1.
     999902    2    1    2    0    0 -0.85864064753E-03  0.29680804142E-02 -0.23355875937E-01  0.10203706344E+01  0.10200986168E+01 0.  0.
     999903    2    3    3    0    0 -0.15812073477E-01 -0.12289275163E+00 -0.38130476145E-01  0.13116714647E+00  0.19955877111E-01 0.  0.
         14    1    1    2    0    0  0.85864064753E-03 -0.29680804142E-02  0.23355875937E-01  0.23559365567E-01  0.00000000000E+00 0. -1.
     999901    1    3    3    0    0  0.14953432829E-01  0.12586083204E+00  0.14774600208E-01  0.88920348796E+00  0.88000000000E+00 0.  1.
        -11    1    4    4    0    0  0.27825451674E-03 -0.68205309329E-01 -0.16347193885E-01  0.70139386333E-01  0.51100000000E-03 0.  1.
         11    1    4    4    0    0 -0.16090327993E-01 -0.54687442300E-01 -0.21783282260E-01  0.61027760137E-01  0.51100000000E-03 0. -1.
</event>
<event>
 8    1  0.1148488E+005  0.1043930E+01  0.7957747E-01            NaN
         13   -1    0    0    0    0  0.00000000000E+00  0.00000000000E+00  0.74505805969E-08  0.10566000000E+00  0.10566000000E+00 0. -1.
     999900   -1    0    0    0    0 -0.00000000000E+00 -0.00000000000E+00 -0.74505805969E-08  0.93827000000E+00  0.93827000000E+00 0.  1.
     999902    2    1    2    0    0 -0.22969933868E-01 -0.31185311407E-02 -0.69946296822E-02  0.10197170295E+01  0.10194295229E+01 0.  0.
     999903    2    3    3    0    0  0.89470342322E-01  0.73701868667E-01 -0.50416601215E-01  0.12818483309E+00  0.21274636456E-01 0.  0.
         14    1    1    2    0    0  0.22969933868E-01  0.31185311407E-02  0.69946296822E-02  0.24212970548E-01  0.00000000000E+00 0. -1.
     999901    1    3    3    0    0 -0.11244027619E+00 -0.76820399808E-01  0.43421971532E-01  0.89153219636E+00  0.88000000000E+00 0.  1.
        -11    1    4    4    0    0  0.54381438376E-01  0.38184893214E-01 -0.18693615892E-01  0.69029988453E-01  0.51100000000E-03 0.  1.
         11    1    4    4    0    0  0.35088903945E-01  0.35516975454E-01 -0.31722985322E-01  0.59154844639E-01  0.51100000000E-03 0. -1.
</event>
<event>
 8    1  0.1148488E+005  0.1043930E+01  0.7957747E-01            NaN
         13   -1    0    0    0    0  0.00000000000E+00  0.00000000000E+00  0.74505805969E-08  0.10566000000E+00  0.10566000000E+00 0. -1.
     999900   -1    0    0    0    0 -0.00000000000E+00 -0.00000000000E+00 -0.74505805969E-08  0.93827000000E+00  0.93827000000E+00 0.  1.
     999902    2    1    2    0    0 -0.12274168779E-01 -0.18206612563E-01 -0.11527967016E-01  0.10191302019E+01  0.10188284147E+01 0.  0.
     999903    2    3    3    0    0 -0.97584754198E-01  0.77670775085E-01 -0.28761664159E-01  0.12965430583E+00  0.20675399408E-01 0.  0.
         14    1    1    2    0    0  0.12274168779E-01  0.18206612563E-01  0.11527967016E-01  0.24799798059E-01  0.00000000000E+00 0. -1.
     999901    1    3    3    0    0  0.85310585419E-01 -0.95877387648E-01  0.17233697143E-01  0.88947589611E+00  0.88000000000E+00 0. -1.
        -11    1    4    4    0    0 -0.32803248778E-01  0.39008124293E-01 -0.10779361075E-01  0.52097434077E-01  0.51100000000E-03 0.  1.
         11    1    4    4    0    0 -0.64781505420E-01  0.38662650792E-01 -0.17982303084E-01  0.77556871752E-01  0.51100000000E-03 0. -1.
</event>
<event>
 8    1  0.1148488E+005  0.1043930E+01  0.7957747E-01            NaN
         13   -1    0    0    0    0  0.00000000000E+00  0.00000000000E+00  0.74505805969E-08  0.10566000000E+00  0.10566000000E+00 0.  1.
     999900   -1    0    0    0    0 -0.00000000000E+00 -0.00000000000E+00 -0.74505805969E-08  0.93827000000E+00  0.93827000000E+00 0. -1.
     999902    2    1    2    0    0  0.17437123843E-01  0.45757823514E-02 -0.13045246374E-01  0.10216775951E+01  0.10214352347E+01 0.  0.
     999903    2    3    3    0    0 -0.43952145343E-01  0.48023176259E-01  0.11052117811E+00  0.12986764914E+00  0.20314008558E-01 0.  0.
         14    1    1    2    0    0 -0.17437123843E-01 -0.45757823514E-02  0.13045246374E-01  0.22252404927E-01  0.00000000000E+00 0.  1.
     999901    1    3    3    0    0  0.61389269186E-01 -0.43447393907E-01 -0.12356642448E+00  0.89180994593E+00  0.88000000000E+00 0.  1.
        -11    1    4    4    0    0 -0.20229675979E-01  0.11826001729E-01  0.52386807254E-01  0.57391051588E-01  0.51100000000E-03 0.  1.
         11    1    4    4    0    0 -0.23722469364E-01  0.36197174530E-01  0.58134370856E-01  0.72476597551E-01  0.51100000000E-03 0. -1.
</event>
<event>
 8    1  0.1148488E+005  0.1043930E+01  0.7957747E-01            NaN
         13   -1    0    0    0    0  0.00000000000E+00  0.00000000000E+00  0.74505805969E-08  0.10566000000E+00  0.10566000000E+00 0.  1.
     999900   -1    0    0    0    0 -0.00000000000E+00 -0.00000000000E+00 -0.74505805969E-08  0.93827000000E+00  0.93827000000E+00 0. -1.
     999902    2    1    2    0    0  0.59639149002E-02  0.19302205775E-01  0.11227366762E-01  0.10208172937E+01  0.10205556084E+01 0.  0.
     999903    2    3    3    0    0 -0.54533207970E-01 -0.79737691839E-01  0.83548333300E-01  0.13025616418E+00  0.25580735663E-01 0.  0.
         14    1    1    2    0    0 -0.59639149002E-02 -0.19302205775E-01 -0.11227366762E-01  0.23112706314E-01  0.00000000000E+00 0. -1.
     999901    1    3    3    0    0  0.60497122870E-01  0.99039897614E-01 -0.72320966538E-01  0.89056112951E+00  0.88000000000E+00 0.  1.
        -11    1    4    4    0    0 -0.17138502704E-01 -0.43792600616E-01  0.30453316912E-01  0.56028437204E-01  0.51100000000E-03 0.  1.
         11    1    4    4    0    0 -0.37394705266E-01 -0.35945091223E-01  0.53095016388E-01  0.74227726971E-01  0.51100000000E-03 0. -1.
</event>
<event>
 8    1  0.1148488E+005  0.1043930E+01  0.7957747E-01            NaN
         13   -1    0    0    0    0  0.00000000000E+00  0.00000000000E+00  0.74505805969E-08  0.10566000000E+00  0.10566000000E+00 0.  1.
     999900   -1    0    0    0    0 -0.00000000000E+00 -0.00000000000E+00 -0.74505805969E-08  0.93827000000E+00  0.93827000000E+00 0. -1.
     999902    2    1    2    0    0  0.20435830562E-01  0.10298011438E-01  0.90196150348E-02  0.10193327305E+01  0.10190359120E+01 0.  0.
     999903    2    3    3    0    0 -0.43429620613E-01 -0.26095902688E-01  0.11793067466E+00  0.12957718446E+00  0.17761605299E-01 0.  0.
         14    1    1    2    0    0 -0.20435830562E-01 -0.10298011438E-01 -0.90196150348E-02  0.24597269477E-01  0.00000000000E+00 0. -1.
     999901    1    3    3    0    0  0.63865451175E-01  0.36393914126E-01 -0.10891105963E+00  0.88975554606E+00  0.88000000000E+00 0. -1.
        -11    1    4    4    0    0 -0.35262626836E-01 -0.27851845325E-01  0.10449335633E+00  0.11374665172E+00  0.51100000000E-03 0. -1.
         11    1    4    4    0    0 -0.81669937765E-02  0.17559426369E-02  0.13437318330E-01  0.15830532738E-01  0.51100000000E-03 0.  1.
</event>
<event>
 8    1  0.1148488E+005  0.1043930E+01  0.7957747E-01            NaN
         13   -1    0    0    0    0  0.00000000000E+00  0.00000000000E+00  0.74505805969E-08  0.10566000000E+00  0.10566000000E+00 0. -1.
     999900   -1    0    0    0    0 -0.00000000000E+00 -0.00000000000E+00 -0.74505805969E-08  0.93827000000E+00  0.93827000000E+00 0. -1.
     999902    2    1    2    0    0  0.27911523503E-02 -0.19616198054E-01 -0.14014848575E-01  0.10196606420E+01  0.10193717786E+01 0.  0.
     999903    2    3    3    0    0  0.40534792559E-01 -0.49585354687E-01  0.11098501293E+00  0.12952149663E+00  0.18877716720E-01 0.  0.
         14    1    1    2    0    0 -0.27911523503E-02  0.19616198054E-01  0.14014848575E-01  0.24269358008E-01  0.00000000000E+00 0. -1.
     999901    1    3    3    0    0 -0.37743640208E-01  0.29969156632E-01 -0.12499986150E+00  0.89013914536E+00  0.88000000000E+00 0. -1.
        -11    1    4    4    0    0  0.23054567777E-01 -0.17272068132E-01  0.61237598737E-01  0.67676746767E-01  0.51100000000E-03 0. -1.
         11    1    4    4    0    0  0.17480224782E-01 -0.32313286555E-01  0.49747414190E-01  0.61844749866E-01  0.51100000000E-03 0.  1.
</event>
<event>
 8    1  0.1148488E+005  0.1043930E+01  0.7957747E-01            NaN
         13   -1    0    0    0    0  0.00000000000E+00  0.00000000000E+00  0.74505805969E-08  0.10566000000E+00  0.10566000000E+00 0.  1.
     999900   -1    0    0    0    0 -0.00000000000E+00 -0.00000000000E+00 -0.74505805969E-08  0.93827000000E+00  0.93827000000E+00 0.  1.
     999902    2    1    2    0    0 -0.22663376664E-01 -0.73196942467E-02 -0.21896963230E-02  0.10200134506E+01  0.10197330229E+01 0.  0.
     999903    2    3    3    0    0 -0.43031108975E-01 -0.11335365897E+00 -0.48075375874E-01  0.13222769841E+00  0.21730028065E-01 0.  0.
         14    1    1    2    0    0  0.22663376664E-01  0.73196942467E-02  0.21896963230E-02  0.23916549410E-01  0.00000000000E+00 0.  1.
     999901    1    3    3    0    0  0.20367732310E-01  0.10603396472E+00  0.45885679551E-01  0.88778575218E+00  0.88000000000E+00 0.  1.
        -11    1    4    4    0    0 -0.22330092362E-01 -0.57625109547E-01 -0.36128570589E-01  0.71587855178E-01  0.51100000000E-03 0. -1.
         11    1    4    4    0    0 -0.20701016613E-01 -0.55728549419E-01 -0.11946805285E-01  0.60639843228E-01  0.51100000000E-03 0.  1.
</event>
<event>
 8    1  0.1148488E+005  0.1043930E+01  0.7957747E-01            NaN
         13   -1    0    0    0    0  0.00000000000E+00  0.00000000000E+00  0.74505805969E-08  0.10566000000E+00  0.10566000000E+00 0. -1.
     999900   -1    0    0    0    0 -0.00000000000E+00 -0.00000000000E+00 -0.74505805969E-08  0.93827000000E+00  0.93827000000E+00 0.  1.
     999902    2    1    2    0    0 -0.19372860912E-02  0.17917484763E-01 -0.19519222233E-01  0.10173633033E+01  0.10170163723E+01 0.  0.
     999903    2    3    3    0    0  0.89924836645E-02 -0.54674864341E-01 -0.11529887046E+00  0.12912749562E+00  0.17603267951E-01 0.  0.
         14    1    1    2    0    0  0.19372860912E-02 -0.17917484763E-01  0.19519222233E-01  0.26566696712E-01  0.00000000000E+00 0. -1.
     999901    1    3    3    0    0 -0.10929769756E-01  0.72592349104E-01  0.95779648224E-01  0.88823580767E+00  0.88000000000E+00 0. -1.
        -11    1    4    4    0    0 -0.18556025006E-02 -0.34042967835E-01 -0.58215337411E-01  0.67465943635E-01  0.51100000000E-03 0. -1.
         11    1    4    4    0    0  0.10848086165E-01 -0.20631896506E-01 -0.57083533045E-01  0.61661551982E-01  0.51100000000E-03 0.  1.
</event>
<event>
 8    1  0.1148488E+005  0.1043930E+01  0.7957747E-01            NaN
         13   -1    0    0    0    0  0.00000000000E+00  0.00000000000E+00  0.74505805969E-08  0.10566000000E+00  0.10566000000E+00 0. -1.
     999900   -1    0    0    0    0 -0.00000000000E+00 -0.00000000000E+00 -0.74505805969E-08  0.93827000000E+00  0.93827000000E+00 0. -1.
     999902    2    1    2    0    0 -0.65215696334E-03 -0.23340941781E-01 -0.45304891170E-02  0.10201444959E+01  0.10198671690E+01 0.  0.
     999903    2    3    3    0    0 -0.11806430568E+00  0.48579996198E-01  0.64892005990E-02  0.12936973903E+00  0.19880225008E-01 0.  0.
         14    1    1    2    0    0  0.65215696334E-03  0.23340941781E-01  0.45304891170E-02  0.23785504064E-01  0.00000000000E+00 0. -1.
     999901    1    3    3    0    0  0.11741214871E+00 -0.71920937979E-01 -0.11019689716E-01  0.89077475691E+00  0.88000000000E+00 0.  1.
        -11    1    4    4    0    0 -0.51192751841E-01  0.28130609909E-01  0.10386203908E-01  0.59330964997E-01  0.51100000000E-03 0. -1.
         11    1    4    4    0    0 -0.66871553834E-01  0.20449386289E-01 -0.38970033090E-02  0.70038774030E-01  0.51100000000E-03 0.  1.
</event>
<event>
 8    1  0.1148488E+005  0.1043930E+01  0.7957747E-01            NaN
         13   -1    0    0    0    0  0.00000000000E+00  0.00000000000E+00  0.74505805969E-08  0.10566000000E+00  0.10566000000E+00 0.  1.
     999900   -1    0    0    0    0 -0.00000000000E+00 -0.00000000000E+00 -0.74505805969E-08  0.93827000000E+00  0.93827000000E+00 0. -1.
     999902    2    1    2    0    0 -0.17667153799E-02 -0.13725310170E-01 -0.29831878128E-01  0.10110446480E+01  0.10105096902E+01 0.  0.
     999903    2    3    3    0    0  0.12569351983E-01  0.76682777005E-01  0.87091441952E-01  0.11860405737E+00  0.21065760482E-01 0.  0.
         14    1    1    2    0    0  0.17667153799E-02  0.13725310170E-01  0.29831878128E-01  0.32885351985E-01  0.00000000000E+00 0.  1.
     999901    1    3    3    0    0 -0.14336067363E-01 -0.90408087175E-01 -0.11692332008E+00  0.89244059065E+00  0.88000000000E+00 0. -1.
        -11    1    4    4    0    0  0.42867454219E-02  0.27365890522E-01  0.17013164200E-01  0.32511183114E-01  0.51100000000E-03 0. -1.
         11    1    4    4    0    0  0.82826065615E-02  0.49316886482E-01  0.70078277752E-01  0.86092874255E-01  0.51100000000E-03 0.  1.
</event>
<event>
 8    1  0.1148488E+005  0.1043930E+01  0.7957747E-01            NaN
         13   -1    0    0    0    0  0.00000000000E+00  0.00000000000E+00  0.74505805969E-08  0.10566000000E+00  0.10566000000E+00 0.  1.
     999900   -1    0    0    0    0 -0.00000000000E+00 -0.00000000000E+00 -0.74505805969E-08  0.93827000000E+00  0.93827000000E+00 0. -1.
     999902    2    1    2    0    0  0.77367561172E-02 -0.20047922150E-01 -0.56981021564E-02  0.10216983796E+01  0.10214564768E+01 0.  0.
     999903    2    3    3    0    0  0.11234243343E+00  0.60482646403E-01  0.23267053907E-01  0.13138017779E+00  0.20986244395E-01 0.  0.
         14    1    1    2    0    0 -0.77367561172E-02  0.20047922150E-01  0.56981021564E-02  0.22231620407E-01  0.00000000000E+00 0.  1.
     999901    1    3    3    0    0 -0.10460567731E+00 -0.80530568553E-01 -0.28965156064E-01  0.89031820180E+00  0.88000000000E+00 0.  1.
        -11    1    4    4    0    0  0.73495020511E-01  0.40654954830E-01  0.25286658747E-01  0.87715560898E-01  0.51100000000E-03 0.  1.
         11    1    4    4    0    0  0.38847412918E-01  0.19827691572E-01 -0.20196048394E-02  0.43664616891E-01  0.51100000000E-03 0. -1.
</event>
<event>
 8    1  0.1148488E+005  0.1043930E+01  0.7957747E-01            NaN
         13   -1    0    0    0    0  0.00000000000E+00  0.00000000000E+00  0.74505805969E-08  0.10566000000E+00  0.10566000000E+00 0. -1.
     999900   -1    0    0    0    0 -0.00000000000E+00 -0.00000000000E+00 -0.74505805969E-08  0.93827000000E+00  0.93827000000E+00 0. -1.
     999902    2    1    2    0    0 -0.14140279997E-02  0.23180086341E-01 -0.31669402003E-02  0.10204918817E+01  0.10202226891E+01 0.  0.
     999903    2    3    3    0    0  0.30909365476E-03  0.12493827317E+00 -0.38907916683E-01  0.13390566757E+00  0.28411866954E-01 0.  0.
         14    1    1    2    0    0  0.14140279997E-02 -0.23180086341E-01  0.31669402003E-02  0.23438118273E-01  0.00000000000E+00 0.  1.
     999901    1    3    3    0    0 -0.17231216544E-02 -0.10175818683E+00  0.35740976482E-01  0.88658621416E+00  0.88000000000E+00 0.  1.
        -11    1    4    4    0    0 -0.54549693560E-02  0.89335266979E-01 -0.15312766515E-01  0.90803571275E-01  0.51100000000E-03 0. -1.
         11    1    4    4    0    0  0.57640630108E-02  0.35603006195E-01 -0.23595150167E-01  0.43102096294E-01  0.51100000000E-03 0.  1.
</event>
<event>
 8    1  0.1148488E+005  0.1043930E+01  0.7957747E-01            NaN
         13   -1    0    0    0    0  0.00000000000E+00  0.00000000000E+00  0.74505805969E-08  0.10566000000E+00  0.10566000000E+00 0.  1.
     999900   -1    0    0    0    0 -0.00000000000E+00 -0.00000000000E+00 -0.74505805969E-08  0.93827000000E+00  0.93827000000E+00 0. -1.
     999902    2    1    2    0    0 -0.57911706953E-02  0.21632318631E-01 -0.65852312212E-02  0.10205877607E+01  0.10203207913E+01 0.  0.
     999903    2    3    3    0    0  0.60649206464E-01 -0.70356960954E-01 -0.88111102888E-01  0.12956429350E+00  0.19872380280E-01 0.  0.
         14    1    1    2    0    0  0.57911706953E-02 -0.21632318631E-01  0.65852312212E-02  0.23342239344E-01  0.00000000000E+00 0. -1.
     999901    1    3    3    0    0 -0.66440377159E-01  0.91989279585E-01  0.81525871667E-01  0.89102346716E+00  0.88000000000E+00 0.  1.
        -11    1    4    4    0    0  0.23594103354E-01 -0.42542977739E-01 -0.44419205068E-01  0.65878020370E-01  0.51100000000E-03 0. -1.
         11    1    4    4    0    0  0.37055103110E-01 -0.27813983215E-01 -0.43691897820E-01  0.63686273128E-01  0.51100000000E-03 0.  1.
</event>
<event>
 8    1  0.1148488E+005  0.1043930E+01  0.7957747E-01            NaN
         13   -1    0    0    0    0  0.00000000000E+00  0.00000000000E+00  0.74505805969E-08  0.10566000000E+00  0.10566000000E+00 0. -1.
     999900   -1    0    0    0    0 -0.00000000000E+00 -0.00000000000E+00 -0.74505805969E-08  0.93827000000E+00  0.93827000000E+00 0. -1.
     999902    2    1    2    0    0  0.34233430756E-02  0.95138118836E-02  0.21631710454E-01  0.10200519182E+01  0.10197724025E+01 0.  0.
     999903    2    3    3    0    0 -0.10864014055E+00  0.58944680020E-01 -0.35148845295E-01  0.12975664884E+00  0.18005309028E-01 0.  0.
         14    1    1    2    0    0 -0.34233430756E-02 -0.95138118836E-02 -0.21631710454E-01  0.23878081823E-01  0.00000000000E+00 0.  1.
     999901    1    3    3    0    0  0.11206348362E+00 -0.49430868136E-01  0.56780555750E-01  0.89029526933E+00  0.88000000000E+00 0.  1.
        -11    1    4    4    0    0 -0.97729764637E-01  0.58354686945E-01 -0.33775170909E-01  0.11873247102E+00  0.51100000000E-03 0.  1.
         11    1    4    4    0    0 -0.10910375908E-01  0.58999307502E-03 -0.13736743867E-02  0.11024177820E-01  0.51100000000E-03 0. -1.
</event>
<event>
 8    1  0.1148488E+005  0.1043930E+01  0.7957747E-01            NaN
         13   -1    0    0    0    0  0.00000000000E+00  0.00000000000E+00  0.74505805969E-08  0.10566000000E+00  0.10566000000E+00 0.  1.
     999900   -1    0    0    0    0 -0.00000000000E+00 -0.00000000000E+00 -0.74505805969E-08  0.93827000000E+00  0.93827000000E+00 0.  1.
     999902    2    1    2    0    0  0.23219588804E-01 -0.69852084289E-02 -0.20846581751E-01  0.10119530957E+01  0.10114477472E+01 0.  0.
     999903    2    3    3    0    0  0.11231915467E+00 -0.17349663817E-01 -0.51789944857E-01  0.12685217130E+00  0.22196207638E-01 0.  0.
         14    1    1    2    0    0 -0.23219588804E-01  0.69852084289E-02  0.20846581751E-01  0.31976904349E-01  0.00000000000E+00 0.  1.
     999901    1    3    3    0    0 -0.89099565868E-01  0.10364455388E-01  0.30943363106E-01  0.88510092435E+00  0.88000000000E+00 0. -1.
        -11    1    4    4    0    0  0.80388492094E-01 -0.11967703963E-01 -0.47621784347E-01  0.94199952573E-01  0.51100000000E-03 0. -1.
         11    1    4    4    0    0  0.31930662578E-01 -0.53819598536E-02 -0.41681605101E-02  0.32652218724E-01  0.51100000000E-03 0.  1.
</event>
<event>
 8    1  0.1148488E+005  0.1043930E+01  0.7957747E-01            NaN
         13   -1    0    0    0    0  0.00000000000E+00  0.00000000000E+00  0.74505805969E-08  0.10566000000E+00  0.10566000000E+00 0.  1.
     999900   -1    0    0    0    0 -0.00000000000E+00 -0.00000000000E+00 -0.74505805969E-08  0.93827000000E+00  0.93827000000E+00 0.  1.
     999902    2    1    2    0    0 -0.19047053579E-01 -0.25097905352E-02  0.14441660225E-01  0.10198956319E+01  0.10196124014E+01 0.  0.
     999903    2    3    3    0    0  0.12292522358E+00  0.19294500657E-01  0.23329515976E-01  0.12820591651E+00  0.20238635438E-01 0.  0.
         14    1    1    2    0    0  0.19047053579E-01  0.25097905352E-02 -0.14441660225E-01  0.24034368072E-01  0.00000000000E+00 0. -1.
     999901    1    3    3    0    0 -0.14197227716E+00 -0.21804291192E-01 -0.88878557516E-02  0.89168971542E+00  0.88000000000E+00 0. -1.
        -11    1    4    4    0    0  0.88526566643E-01  0.50329235118E-02  0.13534783442E-01  0.89698020070E-01  0.51100000000E-03 0. -1.
         11    1    4    4    0    0  0.34398656941E-01  0.14261577145E-01  0.97947325341E-02  0.38507896442E-01  0.51100000000E-03 0.  1.
</event>
<event>
 8    1  0.1148488E+005  0.1043930E+01  0.7957747E-01            NaN
         13   -1    0    0    0    0  0.00000000000E+00  0.00000000000E+00  0.74505805969E-08  0.10566000000E+00  0.10566000000E+00 0. -1.
     999900   -1    0    0    0    0 -0.00000000000E+00 -0.00000000000E+00 -0.74505805969E-08  0.93827000000E+00  0.93827000000E+00 0.  1.
     999902    2    1    2    0    0 -0.13350328731E-01 -0.23506600458E-02 -0.22379943381E-01  0.10177647798E+01  0.10174283898E+01 0.  0.
     999903    2    3    3    0    0 -0.71023924290E-01 -0.40061609648E-01 -0.10171070220E+00  0.13151327568E+00  0.17359272717E-01 0.  0.
         14    1    1    2    0    0  0.13350328731E-01  0.23506600458E-02  0.22379943381E-01  0.26165220152E-01  0.00000000000E+00 0. -1.
     999901    1    3    3    0    0  0.57673595559E-01  0.37710949602E-01  0.79330758817E-01  0.88625150417E+00  0.88000000000E+00 0. -1.
        -11    1    4    4    0    0 -0.36418040175E-01 -0.12163378183E-01 -0.39886038020E-01  0.55365861042E-01  0.51100000000E-03 0. -1.
         11    1    4    4    0    0 -0.34605884115E-01 -0.27898231465E-01 -0.61824664179E-01  0.76147414638E-01  0.51100000000E-03 0.  1.
</event>
<event>
 8    1  0.1148488E+005  0.1043930E+01  0.7957747E-01            NaN
         13   -1    0    0    0    0  0.00000000000E+00  0.00000000000E+00  0.74505805969E-08  0.10566000000E+00  0.10566000000E+00 0. -1.
     999900   -1    0    0    0    0 -0.00000000000E+00 -0.00000000000E+00 -0.74505805969E-08  0.93827000000E+00  0.93827000000E+00 0.  1.
     999902    2    1    2    0    0 -0.12346241311E-01 -0.20511868438E-01 -0.12738799459E-02  0.10199552384E+01  0.10196734277E+01 0.  0.
     999903    2    3    3    0    0 -0.52628700061E-01  0.82381921237E-01  0.82072644304E-01  0.12913738303E+00  0.19595502921E-01 0.  0.
         14    1    1    2    0    0  0.12346241311E-01  0.20511868438E-01  0.12738799459E-02  0.23974761551E-01  0.00000000000E+00 0. -1.
     999901    1    3    3    0    0  0.40282458750E-01 -0.10289378968E+00 -0.83346524250E-01  0.89081785542E+00  0.88000000000E+00 0. -1.
        -11    1    4    4    0    0 -0.11727980790E-01  0.19826038105E-01  0.93852736529E-02  0.24878942962E-01  0.51100000000E-03 0.  1.
         11    1    4    4    0    0 -0.40900719271E-01  0.62555883132E-01  0.72687370651E-01  0.10425844006E+00  0.51100000000E-03 0. -1.
</event>
<event>
 8    1  0.1148488E+005  0.1043930E+01  0.7957747E-01            NaN
         13   -1    0    0    0    0  0.00000000000E+00  0.00000000000E+00  0.74505805969E-08  0.10566000000E+00  0.10566000000E+00 0. -1.
     999900   -1    0    0    0    0 -0.00000000000E+00 -0.00000000000E+00 -0.74505805969E-08  0.93827000000E+00  0.93827000000E+00 0. -1.
     999902    2    1    2    0    0  0.18369294638E-01 -0.83137368214E-02  0.85370392859E-02  0.10220341044E+01  0.10217995304E+01 0.  0.
     999903    2    3    3    0    0 -0.11569732105E-01 -0.14498995565E-01 -0.12810641940E+00  0.13096394016E+00  0.19905259571E-01 0.  0.
         14    1    1    2    0    0 -0.18369294638E-01  0.83137368214E-02 -0.85370392859E-02  0.21895895625E-01  0.00000000000E+00 0.  1.
     999901    1    3    3    0    0  0.29939026744E-01  0.61852587439E-02  0.13664345868E+00  0.89107016421E+00  0.88000000000E+00 0. -1.
        -11    1    4    4    0    0 -0.22517873218E-02 -0.14688393844E-01 -0.10493580912E+00  0.10598398283E+00  0.51100000000E-03 0.  1.
         11    1    4    4    0    0 -0.93179447836E-02  0.18939827882E-03 -0.23170610281E-01  0.24979957335E-01  0.51100000000E-03 0. -1.
</event>
<event>
 8    1  0.1148488E+005  0.1043930E+01  0.7957747E-01            NaN
         13   -1    0    0    0    0  0.00000000000E+00  0.00000000000E+00  0.74505805969E-08  0.10566000000E+00  0.10566000000E+00 0.  1.
     999900   -1    0    0    0    0 -0.00000000000E+00 -0.00000000000E+00 -0.74505805969E-08  0.93827000000E+00  0.93827000000E+00 0.  1.
     999902    2    1    2    0    0 -0.17232373413E-01  0.11923007578E-01  0.11829070754E-01  0.10198667559E+01  0.10195828363E+01 0.  0.
     999903    2    3    3    0    0 -0.22409786117E-01  0.11652505807E+00 -0.52410439401E-01  0.13133138278E+00  0.20513173138E-01 0.  0.
         14    1    1    2    0    0  0.17232373413E-01 -0.11923007578E-01 -0.11829070754E-01  0.24063244130E-01  0.00000000000E+00 0.  1.
     999901    1    3    3    0    0  0.51774127045E-02 -0.10460205049E+00  0.64239510155E-01  0.88853537309E+00  0.88000000000E+00 0. -1.
        -11    1    4    4    0    0 -0.16536023102E-01  0.81556684840E-01 -0.46659973370E-01  0.95406221694E-01  0.51100000000E-03 0.  1.
         11    1    4    4    0    0 -0.58737630155E-02  0.34968373231E-01 -0.57504660309E-02  0.35925161084E-01  0.51100000000E-03 0. -1.
</event>
<event>
 8    1  0.1148488E+005  0.1043930E+01  0.7957747E-01            NaN
         13   -1    0    0    0    0  0.00000000000E+00  0.00000000000E+00  0.74505805969E-08  0.10566000000E+00  0.10566000000E+00 0. -1.
     999900   -1    0    0    0    0 -0.00000000000E+00 -0.00000000000E+00 -0.74505805969E-08  0.93827000000E+00  0.93827000000E+00 0. -1.
     999902    2    1    2    0    0 -0.17103175990E-01  0.10762322636E-01  0.97166608256E-02  0.10215076960E+01  0.10212615793E+01 0.  0.
     999903    2    3    3    0    0  0.68327783135E-01  0.63545921958E-01  0.91472537764E-01  0.13203111931E+00  0.18926731220E-01 0.  0.
         14    1    1    2    0    0  0.17103175990E-01 -0.10762322636E-01 -0.97166608256E-02  0.22422303964E-01  0.00000000000E+00 0.  1.
     999901    1    3    3    0    0 -0.85430959126E-01 -0.52783599323E-01 -0.81755876939E-01  0.88947657673E+00  0.88000000000E+00 0. -1.
        -11    1    4    4    0    0  0.55458086672E-01  0.44073760987E-01  0.76672447871E-01  0.10438879810E+00  0.51100000000E-03 0. -1.
         11    1    4    4    0    0  0.12869696463E-01  0.19472160971E-01  0.14800089893E-01  0.27642321209E-01  0.51100000000E-03 0.  1.
</event>
<event>
 8    1  0.1148488E+005  0.1043930E+01  0.7957747E-01            NaN
         13   -1    0    0    0    0  0.00000000000E+00  0.00000000000E+00  0.74505805969E-08  0.10566000000E+00  0.10566000000E+00 0. -1.
     999900   -1    0    0    0    0 -0.00000000000E+00 -0.00000000000E+00 -0.74505805969E-08  0.93827000000E+00  0.93827000000E+00 0.  1.
     999902    2    1    2    0    0  0.21634139315E-01  0.18746366394E-02  0.64540658025E-02  0.10212759670E+01  0.10210246792E+01 0.  0.
     999903    2    3    3    0    0  0.10473677063E+00  0.56854643682E-01 -0.56507261007E-01  0.13341731991E+00  0.20121358698E-01 0.  0.
         14    1    1    2    0    0 -0.21634139315E-01 -0.18746366394E-02 -0.64540658025E-02  0.22654033014E-01  0.00000000000E+00 0.  1.
     999901    1    3    3    0    0 -0.83102631318E-01 -0.54980007043E-01  0.62961326809E-01  0.88785864707E+00  0.88000000000E+00 0. -1.
        -11    1    4    4    0    0  0.78012415323E-01  0.45614744481E-01 -0.33420317236E-01  0.96352584728E-01  0.51100000000E-03 0.  1.
         11    1    4    4    0    0  0.26724355309E-01  0.11239899201E-01 -0.23086943770E-01  0.37064735186E-01  0.51100000000E-03 0. -1.
</event>
<event>
 8    1  0.1148488E+005  0.1043930E+01  0.7957747E-01            NaN
         13   -1    0    0    0    0  0.00000000000E+00  0.00000000000E+00  0.74505805969E-08  0.10566000000E+00  0.10566000000E+00 0. -1.
     999900   -1    0    0    0    0 -0.00000000000E+00 -0.00000000000E+00 -0.74505805969E-08  0.93827000000E+00  0.93827000000E+00 0.  1.
     999902    2    1    2    0    0  0.18942033076E-01  0.12877695038E-01 -0.42038853702E-02  0.10206424862E+01  0.10203767816E+01 0.  0.
     999903    2    3    3    0    0 -0.16306925729E-01  0.50446269383E-01 -0.11879995307E+00  0.13171833556E+00  0.20628842665E-01 0.  0.
         14    1    1    2    0    0 -0.18942033076E-01 -0.12877695038E-01  0.42038853702E-02  0.23287513795E-01  0.00000000000E+00 0. -1.
     999901    1    3    3    0    0  0.35248958805E-01 -0.37568574345E-01  0.11459606770E+00  0.88892415065E+00  0.88000000000E+00 0. -1.
        -11    1    4    4    0    0  0.27763854743E-02  0.22476161115E-01 -0.40400540468E-01  0.46317933091E-01  0.51100000000E-03 0. -1.
         11    1    4    4    0    0 -0.19083311203E-01  0.27970108268E-01 -0.78399412606E-01  0.85400402464E-01  0.51100000000E-03 0.  1.
</event>
<event>
 8    1  0.1148488E+005  0.1043930E+01  0.7957747E-01            NaN
         13   -1    0    0    0    0  0.00000000000E+00  0.00000000000E+00  0.74505805969E-08  0.10566000000E+00  0.10566000000E+00 0. -1.
     999900   -1    0    0    0    0 -0.00000000000E+00 -0.00000000000E+00 -0.74505805969E-08  0.93827000000E+00  0.93827000000E+00 0.  1.
     999902    2    1    2    0    0  0.60482621281E-02 -0.74315256858E-02  0.21625390893E-01  0.10202769541E+01  0.10200027434E+01 0.  0.
     999903    2    3    3    0    0 -0.94365935488E-01 -0.37042678031E-02 -0.85005075192E-01  0.12816319464E+00  0.16771710434E-01 0.  0.
         14    1    1    2    0    0 -0.60482621281E-02  0.74315256858E-02 -0.21625390893E-01  0.23653045894E-01  0.00000000000E+00 0.  1.
     999901    1    3    3    0    0  0.10041419762E+00 -0.37272578827E-02  0.10663046609E+00  0.89211375947E+00  0.88000000000E+00 0. -1.
        -11    1    4    4    0    0 -0.59931938360E-01 -0.65552594150E-02 -0.44587958636E-01  0.74987704578E-01  0.51100000000E-03 0. -1.
         11    1    4    4    0    0 -0.34433997129E-01  0.28509916118E-02 -0.40417116556E-01  0.53175490060E-01  0.51100000000E-03 0.  1.
</event>
<event>
 8    1  0.1148488E+005  0.1043930E+01  0.7957747E-01            NaN
         13   -1    0    0    0    0  0.00000000000E+00  0.00000000000E+00  0.74505805969E-08  0.10566000000E+00  0.10566000000E+00 0. -1.
     999900   -1    0    0    0    0 -0.00000000000E+00 -0.00000000000E+00 -0.74505805969E-08  0.93827000000E+00  0.93827000000E+00 0.  1.
     999902    2    1    2    0    0 -0.14195413269E-02 -0.22939568152E-01 -0.30832558141E-02  0.10207406630E+01  0.10204772196E+01 0.  0.
     999903    2    3    3    0    0  0.12091617948E-01  0.52060192821E-02  0.12823104412E+00  0.13044960334E+00  0.20014706505E-01 0.  0.
         14    1    1    2    0    0  0.14195413269E-02  0.22939568152E-01  0.30832558141E-02  0.23189337011E-01  0.00000000000E+00 0.  1.
     999901    1    3    3    0    0 -0.13511159275E-01 -0.28145587434E-01 -0.13131429993E+00  0.89029105964E+00  0.88000000000E+00 0.  1.
        -11    1    4    4    0    0 -0.31823910765E-02 -0.37618162219E-02  0.49599326382E-01  0.49846094860E-01  0.51100000000E-03 0. -1.
         11    1    4    4    0    0  0.15274009025E-01  0.89678355040E-02  0.78631717734E-01  0.80603508485E-01  0.51100000000E-03 0.  1.
</event>
<event>
 8    1  0.1148488E+005  0.1043930E+01  0.7957747E-01            NaN
         13   -1    0    0    0    0  0.00000000000E+00  0.00000000000E+00  0.74505805969E-08  0.10566000000E+00  0.10566000000E+00 0.  1.
     999900   -1    0    0    0    0 -0.00000000000E+00 -0.00000000000E+00 -0.74505805969E-08  0.93827000000E+00  0.93827000000E+00 0. -1.
     999902    2    1    2    0    0 -0.22108175963E-01  0.17496796108E-01 -0.23188255520E-01  0.10074251440E+01  0.10067635354E+01 0.  0.
     999903    2    3    3    0    0 -0.56817986935E-01 -0.65563322130E-01  0.76399647437E-01  0.11724454173E+00  0.19558721558E-01 0.  0.
         14    1    1    2    0    0  0.22108175963E-01 -0.17496796108E-01  0.23188255520E-01  0.36504856013E-01  0.00000000000E+00 0.  1.
     999901    1    3    3    0    0  0.34709810972E-01  0.83060118238E-01 -0.99587902957E-01  0.89018060226E+00  0.88000000000E+00 0. -1.
        -11    1    4    4    0    0 -0.35328421854E-02 -0.13514089807E-01  0.16744392076E-01  0.21811634148E-01  0.51100000000E-03 0.  1.
         11    1    4    4    0    0 -0.53285144750E-01 -0.52049232323E-01  0.59655255361E-01  0.95432907582E-01  0.51100000000E-03 0. -1.
</event>
<event>
 8    1  0.1148488E+005  0.1043930E+01  0.7957747E-01            NaN
         13   -1    0    0    0    0  0.00000000000E+00  0.00000000000E+00  0.74505805969E-08  0.10566000000E+00  0.10566000000E+00 0. -1.
     999900   -1    0    0    0    0 -0.00000000000E+00 -0.00000000000E+00 -0.74505805969E-08  0.93827000000E+00  0.93827000000E+00 0. -1.
     999902    2    1    2    0    0  0.24202299475E-01  0.78228567190E-02  0.17630558060E-02  0.10184337894E+01  0.10181145941E+01 0.  0.
     999903    2    3    3    0    0 -0.10231779462E+00 -0.50687930176E-01  0.49374355727E-01  0.12619072711E+00  0.21167787918E-01 0.  0.
         14    1    1    2    0    0 -0.24202299475E-01 -0.78228567190E-02 -0.17630558060E-02  0.25496210559E-01  0.00000000000E+00 0.  1.
     999901    1    3    3    0    0  0.12652009409E+00  0.58510786895E-01 -0.47611299921E-01  0.89224306233E+00  0.88000000000E+00 0. -1.
        -11    1    4    4    0    0 -0.87727767643E-01 -0.47098064211E-01  0.35436848450E-01  0.10569020871E+00  0.51100000000E-03 0. -1.
         11    1    4    4    0    0 -0.14590026973E-01 -0.35898659654E-02  0.13937507277E-01  0.20500518403E-01  0.51100000000E-03 0.  1.
</event>
<event>
 8    1  0.1148488E+005  0.1043930E+01  0.7957747E-01            NaN
         13   -1    0    0    0    0  0.00000000000E+00  0.00000000000E+00  0.74505805969E-08  0.10566000000E+00  0.10566000000E+00 0.  1.
     999900   -1    0    0    0    0 -0.00000000000E+00 -0.00000000000E+00 -0.74505805969E-08  0.93827000000E+00  0.93827000000E+00 0. -1.
     999902    2    1    2    0    0 -0.20179831128E-01  0.91500338330E-02  0.10464025510E-01  0.10194260303E+01  0.10191314864E+01 0.  0.
     999903    2    3    3    0    0 -0.55568570927E-01 -0.24608678057E-01  0.11522176672E+00  0.13186408995E+00  0.20460439412E-01 0.  0.
         14    1    1    2    0    0  0.20179831128E-01 -0.91500338330E-02 -0.10464025510E-01  0.24503969747E-01  0.00000000000E+00 0. -1.
     999901    1    3    3    0    0  0.35388739799E-01  0.33758711890E-01 -0.10475774121E+00  0.88756194030E+00  0.88000000000E+00 0. -1.
        -11    1    4    4    0    0 -0.15306363653E-01 -0.11983098079E-01  0.54941826371E-01  0.58281599273E-01  0.51100000000E-03 0.  1.
         11    1    4    4    0    0 -0.40262207273E-01 -0.12625579978E-01  0.60279940351E-01  0.73582490676E-01  0.51100000000E-03 0. -1.
</event>
<event>
 8    1  0.1148488E+005  0.1043930E+01  0.7957747E-01            NaN
         13   -1    0    0    0    0  0.00000000000E+00  0.00000000000E+00  0.74505805969E-08  0.10566000000E+00  0.10566000000E+00 0.  1.
     999900   -1    0    0    0    0 -0.00000000000E+00 -0.00000000000E+00 -0.74505805969E-08  0.93827000000E+00  0.93827000000E+00 0.  1.
     999902    2    1    2    0    0 -0.19262329436E-01 -0.98580141744E-03 -0.15221286157E-01  0.10193597600E+01  0.10190636014E+01 0.  0.
     999903    2    3    3    0    0 -0.19980669296E-01 -0.76911485621E-01 -0.10315475120E+00  0.13172384379E+00  0.19891318764E-01 0.  0.
         14    1    1    2    0    0  0.19262329436E-01  0.98580141744E-03  0.15221286157E-01  0.24570239966E-01  0.00000000000E+00 0.  1.
     999901    1    3    3    0    0  0.71833985965E-03  0.75925684204E-01  0.87933465040E-01  0.88763591624E+00  0.88000000000E+00 0. -1.
        -11    1    4    4    0    0 -0.19290712832E-01 -0.41069672140E-01 -0.49072148408E-01  0.66837014009E-01  0.51100000000E-03 0. -1.
         11    1    4    4    0    0 -0.68995646389E-03 -0.35841813481E-01 -0.54082602788E-01  0.64886829780E-01  0.51100000000E-03 0.  1.
</event>
<event>
 8    1  0.1148488E+005  0.1043930E+01  0.7957747E-01            NaN
         13   -1    0    0    0    0  0.00000000000E+00  0.00000000000E+00  0.74505805969E-08  0.10566000000E+00  0.10566000000E+00 0.  1.
     999900   -1    0    0    0    0 -0.00000000000E+00 -0.00000000000E+00 -0.74505805969E-08  0.93827000000E+00  0.93827000000E+00 0. -1.
     999902    2    1    2    0    0 -0.32614432876E-02  0.17687631681E-01  0.15719355298E-01  0.10200430274E+01  0.10197633012E+01 0.  0.
     999903    2    3    3    0    0 -0.16143439671E-05 -0.97444584047E-01 -0.79633440579E-01  0.12742989217E+00  0.20036107350E-01 0.  0.
         14    1    1    2    0    0  0.32614432876E-02 -0.17687631681E-01 -0.15719355298E-01  0.23886972554E-01  0.00000000000E+00 0. -1.
     999901    1    3    3    0    0 -0.32598289436E-02  0.11513221573E+00  0.95352795877E-01  0.89261313527E+00  0.88000000000E+00 0. -1.
        -11    1    4    4    0    0 -0.73556147173E-02 -0.57001511111E-01 -0.37886443729E-01  0.68839821879E-01  0.51100000000E-03 0.  1.
         11    1    4    4    0    0  0.73540003734E-02 -0.40443072936E-01 -0.41746996850E-01  0.58590070293E-01  0.51100000000E-03 0. -1.
</event>
<event>
 8    1  0.1148488E+005  0.1043930E+01  0.7957747E-01            NaN
         13   -1    0    0    0    0  0.00000000000E+00  0.00000000000E+00  0.74505805969E-08  0.10566000000E+00  0.10566000000E+00 0.  1.
     999900   -1    0    0    0    0 -0.00000000000E+00 -0.00000000000E+00 -0.74505805969E-08  0.93827000000E+00  0.93827000000E+00 0. -1.
     999902    2    1    2    0    0  0.20957235280E-01  0.41438459943E-02 -0.72581899327E-02  0.10213676754E+01  0.10211184407E+01 0.  0.
     999903    2    3    3    0    0 -0.51527619362E-01  0.11058329948E+00 -0.43783125837E-01  0.13124550269E+00  0.20607236266E-01 0.  0.
         14    1    1    2    0    0 -0.20957235280E-01 -0.41438459943E-02  0.72581899327E-02  0.22562324599E-01  0.00000000000E+00 0.  1.
     999901    1    3    3    0    0  0.72484854642E-01 -0.10643945349E+00  0.36524935905E-01  0.89012217271E+00  0.88000000000E+00 0.  1.
        -11    1    4    4    0    0 -0.34812874989E-01  0.68272324967E-01 -0.37492155631E-01  0.85316876855E-01  0.51100000000E-03 0.  1.
         11    1    4    4    0    0 -0.16714744373E-01  0.42310974514E-01 -0.62909702060E-02  0.45928625833E-01  0.51100000000E-03 0. -1.
</event>
<event>
 8    1  0.1148488E+005  0.1043930E+01  0.7957747E-01            NaN
         13   -1    0    0    0    0  0.00000000000E+00  0.00000000000E+00  0.74505805969E-08  0.10566000000E+00  0.10566000000E+00 0. -1.
     999900   -1    0    0    0    0 -0.00000000000E+00 -0.00000000000E+00 -0.74505805969E-08  0.93827000000E+00  0.93827000000E+00 0. -1.
     999902    2    1    2    0    0  0.22823652732E-01 -0.14709535906E-02  0.72737223746E-02  0.10199302111E+01  0.10196478047E+01 0.  0.
     999903    2    3    3    0    0 -0.35280732052E-01  0.11452170745E+00 -0.42948822043E-01  0.12900220006E+00  0.20904898353E-01 0.  0.
         14    1    1    2    0    0 -0.22823652732E-01  0.14709535906E-02 -0.72737223746E-02  0.23999788867E-01  0.00000000000E+00 0. -1.
     999901    1    3    3    0    0  0.58104384784E-01 -0.11599266104E+00  0.50222544418E-01  0.89092801107E+00  0.88000000000E+00 0. -1.
        -11    1    4    4    0    0 -0.86939560480E-02  0.57324235755E-01 -0.14271623679E-01  0.59712588624E-01  0.51100000000E-03 0. -1.
         11    1    4    4    0    0 -0.26586776004E-01  0.57197471690E-01 -0.28677198364E-01  0.69289611437E-01  0.51100000000E-03 0.  1.
</event>
<event>
 8    1  0.1148488E+005  0.1043930E+01  0.7957747E-01            NaN
         13   -1    0    0    0    0  0.00000000000E+00  0.00000000000E+00  0.74505805969E-08  0.10566000000E+00  0.10566000000E+00 0. -1.
     999900   -1    0    0    0    0 -0.00000000000E+00 -0.00000000000E+00 -0.74505805969E-08  0.93827000000E+00  0.93827000000E+00 0. -1.
     999902    2    1    2    0    0 -0.43229380116E-02  0.23716490339E-01 -0.40879647029E-02  0.10194785959E+01  0.10191853297E+01 0.  0.
     999903    2    3    3    0    0  0.91365156049E-01 -0.15678692274E-01 -0.88139782529E-01  0.12943764188E+00  0.19800725717E-01 0.  0.
         14    1    1    2    0    0  0.43229380116E-02 -0.23716490339E-01  0.40879647029E-02  0.24451404100E-01  0.00000000000E+00 0. -1.
     999901    1    3    3    0    0 -0.95688094061E-01  0.39395182613E-01  0.84051817826E-01  0.89004095402E+00  0.88000000000E+00 0.  1.
        -11    1    4    4    0    0  0.78558548274E-01 -0.17643150477E-01 -0.67524085330E-01  0.10508325027E+00  0.51100000000E-03 0. -1.
         11    1    4    4    0    0  0.12806607776E-01  0.19644582035E-02 -0.20615697199E-01  0.24354391611E-01  0.51100000000E-03 0.  1.
</event>
<event>
 7    1  0.1148488E+005  0.1043930E+01  0.7957747E-01            NaN
         13   -1    0    0    0    0  0.00000000000E+00  0.00000000000E+00  0.74505805969E-08  0.10566000000E+00  0.10566000000E+00 0.  1.
     999900   -1    0    0    0    0 -0.00000000000E+00 -0.00000000000E+00 -0.74505805969E-08  0.93827000000E+00  0.93827000000E+00 0. -1.
     999903    2    1    2    0    0  0.36569519713E-01 -0.96802815268E-01  0.37654243896E-01  0.11195479350E+00  0.20197001949E-01 0.  0.
         14    1    1    2    0    0  0.20341476619E-02  0.31483042798E-01  0.33291643436E-01  0.45865599999E-01  0.00000000000E+00 0.  1.
     999901    1    1    2    0    0 -0.38603667375E-01  0.65319772469E-01 -0.70945887332E-01  0.88610960650E+00  0.88000000000E+00 0. -1.
        -11    1    3    3    0    0  0.22161889258E-01 -0.57177304873E-01  0.11669195244E-01  0.62424552595E-01  0.51100000000E-03 0. -1.
         11    1    3    3    0    0  0.14407630455E-01 -0.39625510395E-01  0.25985048652E-01  0.49530240902E-01  0.51100000000E-03 0.  1.
</event>
<event>
 8    1  0.1148488E+005  0.1043930E+01  0.7957747E-01            NaN
         13   -1    0    0    0    0  0.00000000000E+00  0.00000000000E+00  0.74505805969E-08  0.10566000000E+00  0.10566000000E+00 0.  1.
     999900   -1    0    0    0    0 -0.00000000000E+00 -0.00000000000E+00 -0.74505805969E-08  0.93827000000E+00  0.93827000000E+00 0. -1.
     999902    2    1    2    0    0 -0.19235549758E-01 -0.15177781836E-01  0.10757148070E-01  0.10171701855E+01  0.10168181247E+01 0.  0.
     999903    2    3    3    0    0  0.88515958578E-01 -0.87013250233E-01 -0.18881226919E-01  0.12719875040E+00  0.20411779317E-01 0.  0.
         14    1    1    2    0    0  0.19235549758E-01  0.15177781836E-01 -0.10757148070E-01  0.26759814471E-01  0.00000000000E+00 0. -1.
     999901    1    3    3    0    0 -0.10775150834E+00  0.71835468398E-01  0.29638374988E-01  0.88997143513E+00  0.88000000000E+00 0.  1.
        -11    1    4    4    0    0  0.71045758516E-01 -0.59108733574E-01 -0.91931518338E-02  0.92876893518E-01  0.51100000000E-03 0. -1.
         11    1    4    4    0    0  0.17470200062E-01 -0.27904516659E-01 -0.96880750850E-02  0.34321856885E-01  0.51100000000E-03 0.  1.
</event>
<event>
 8    1  0.1148488E+005  0.1043930E+01  0.7957747E-01            NaN
         13   -1    0    0    0    0  0.00000000000E+00  0.00000000000E+00  0.74505805969E-08  0.10566000000E+00  0.10566000000E+00 0. -1.
     999900   -1    0    0    0    0 -0.00000000000E+00 -0.00000000000E+00 -0.74505805969E-08  0.93827000000E+00  0.93827000000E+00 0.  1.
     999902    2    1    2    0    0 -0.91021309625E-02  0.51357503448E-02  0.20665388207E-01  0.10207722154E+01  0.10205094966E+01 0.  0.
     999903    2    3    3    0    0 -0.43429492205E-01 -0.11370383165E+00  0.46087685064E-01  0.13175730707E+00  0.20523915999E-01 0.  0.
         14    1    1    2    0    0  0.91021309625E-02 -0.51357503448E-02 -0.20665388207E-01  0.23157784639E-01  0.00000000000E+00 0.  1.
     999901    1    3    3    0    0  0.34327361242E-01  0.11883958199E+00 -0.25422296858E-01  0.88901490829E+00  0.88000000000E+00 0.  1.
        -11    1    4    4    0    0 -0.89119509450E-02 -0.33417930285E-01  0.41979283893E-02  0.34843430628E-01  0.51100000000E-03 0. -1.
         11    1    4    4    0    0 -0.34517541260E-01 -0.80285901365E-01  0.41889756675E-01  0.96913876446E-01  0.51100000000E-03 0.  1.
</event>
<event>
 8    1  0.1148488E+005  0.1043930E+01  0.7957747E-01            NaN
         13   -1    0    0    0    0  0.00000000000E+00  0.00000000000E+00  0.74505805969E-08  0.10566000000E+00  0.10566000000E+00 0. -1.
     999900   -1    0    0    0    0 -0.00000000000E+00 -0.00000000000E+00 -0.74505805969E-08  0.93827000000E+00  0.93827000000E+00 0.  1.
     999902    2    1    2    0    0  0.49348126183E-02  0.10043888772E-02 -0.23925348525E-01  0.10194803891E+01  0.10191871664E+01 0.  0.
     999903    2    3    3    0    0 -0.44401442103E-01 -0.11870865423E+00  0.14240995812E-01  0.12918720783E+00  0.20574159921E-01 0.  0.
         14    1    1    2    0    0 -0.49348126183E-02 -0.10043888772E-02  0.23925348525E-01  0.24449610930E-01  0.00000000000E+00 0. -1.
     999901    1    3    3    0    0  0.49336254721E-01  0.11971304310E+00 -0.38166344337E-01  0.89029318124E+00  0.88000000000E+00 0. -1.
        -11    1    4    4    0    0  0.89836390252E-03 -0.13339757502E-01  0.43384442658E-02  0.14065539718E-01  0.51100000000E-03 0.  1.
         11    1    4    4    0    0 -0.45299806005E-01 -0.10536889673E+00  0.99025515466E-02  0.11512166811E+00  0.51100000000E-03 0. -1.
</event>
<event>
 8    1  0.1148488E+005  0.1043930E+01  0.7957747E-01            NaN
         13   -1    0    0    0    0  0.00000000000E+00  0.00000000000E+00  0.74505805969E-08  0.10566000000E+00  0.10566000000E+00 0. -1.
     999900   -1    0    0    0    0 -0.00000000000E+00 -0.00000000000E+00 -0.74505805969E-08  0.93827000000E+00  0.93827000000E+00 0. -1.
     999902    2    1    2    0    0  0.10843731519E-02  0.17314141522E-01  0.16036024969E-01  0.10203056596E+01  0.10200321218E+01 0.  0.
     999903    2    3    3    0    0 -0.28182452819E-01  0.12781572390E+00 -0.28571323489E-02  0.13271110229E+00  0.21747724978E-01 0.  0.
         14    1    1    2    0    0 -0.10843731519E-02 -0.17314141522E-01 -0.16036024969E-01  0.23624340384E-01  0.00000000000E+00 0.  1.
     999901    1    3    3    0    0  0.29266825971E-01 -0.11050158238E+00  0.18893157318E-01  0.88759455733E+00  0.88000000000E+00 0. -1.
        -11    1    4    4    0    0 -0.16294492545E-01  0.10915388343E+00  0.22627586162E-03  0.11036481811E+00  0.51100000000E-03 0. -1.
         11    1    4    4    0    0 -0.11887960273E-01  0.18661840471E-01 -0.30834082105E-02  0.22346284175E-01  0.51100000000E-03 0.  1.
</event>
<event>
 8    1  0.1148488E+005  0.1043930E+01  0.7957747E-01            NaN
         13   -1    0    0    0    0  0.00000000000E+00  0.00000000000E+00  0.74505805969E-08  0.10566000000E+00  0.10566000000E+00 0. -1.
     999900   -1    0    0    0    0 -0.00000000000E+00 -0.00000000000E+00 -0.74505805969E-08  0.93827000000E+00  0.93827000000E+00 0. -1.
     999902    2    1    2    0    0  0.12576437379E-02  0.22819727292E-01  0.56730684920E-02  0.10203820632E+01  0.10201103125E+01 0.  0.
     999903    2    3    3    0    0 -0.18439126382E-02 -0.33577441714E-01  0.12482959006E+00  0.13055705964E+00  0.18217427423E-01 0.  0.
         14    1    1    2    0    0 -0.12576437379E-02 -0.22819727292E-01 -0.56730684920E-02  0.23547936801E-01  0.00000000000E+00 0. -1.
     999901    1    3    3    0    0  0.31015563761E-02  0.56397169006E-01 -0.11915652157E+00  0.88982500356E+00  0.88000000000E+00 0. -1.
        -11    1    4    4    0    0 -0.80718010944E-02 -0.89447168711E-02  0.53302078505E-01  0.54649196031E-01  0.51100000000E-03 0. -1.
         11    1    4    4    0    0  0.62278884562E-02 -0.24632724842E-01  0.71527511554E-01  0.75907863611E-01  0.51100000000E-03 0.  1.
</event>
<event>
 8    1  0.1148488E+005  0.1043930E+01  0.7957747E-01            NaN
         13   -1    0    0    0    0  0.00000000000E+00  0.00000000000E+00  0.74505805969E-08  0.10566000000E+00  0.10566000000E+00 0. -1.
     999900   -1    0    0    0    0 -0.00000000000E+00 -0.00000000000E+00 -0.74505805969E-08  0.93827000000E+00  0.93827000000E+00 0.  1.
     999902    2    1    2    0    0  0.14722981952E-01 -0.11685624270E-01  0.15406900579E-01  0.10196258317E+01  0.10193361291E+01 0.  0.
     999903    2    3    3    0    0 -0.76880195886E-01  0.33458948956E-01  0.97259234592E-01  0.12994668769E+00  0.19917759471E-01 0.  0.
         14    1    1    2    0    0 -0.14722981952E-01  0.11685624270E-01 -0.15406900579E-01  0.24304168317E-01  0.00000000000E+00 0.  1.
     999901    1    3    3    0    0  0.91603177838E-01 -0.45144573225E-01 -0.81852334013E-01  0.88967914400E+00  0.88000000000E+00 0.  1.
        -11    1    4    4    0    0 -0.57201011491E-01  0.26982620548E-01  0.84719108966E-01  0.10572419814E+00  0.51100000000E-03 0. -1.
         11    1    4    4    0    0 -0.19679184395E-01  0.64763284076E-02  0.12540125625E-01  0.24222489545E-01  0.51100000000E-03 0.  1.
</event>
<event>
 8    1  0.1148488E+005  0.1043930E+01  0.7957747E-01            NaN
         13   -1    0    0    0    0  0.00000000000E+00  0.00000000000E+00  0.74505805969E-08  0.10566000000E+00  0.10566000000E+00 0. -1.
     999900   -1    0    0    0    0 -0.00000000000E+00 -0.00000000000E+00 -0.74505805969E-08  0.93827000000E+00  0.93827000000E+00 0.  1.
     999902    2    1    2    0    0  0.21458389772E-01  0.70320558637E-02  0.61814060002E-03  0.10213403033E+01  0.10210904566E+01 0.  0.
     999903    2    3    3    0    0  0.97654034916E-01  0.89956978930E-01  0.10744821223E-02  0.13416358610E+00  0.19239145799E-01 0.  0.
         14    1    1    2    0    0 -0.21458389772E-01 -0.70320558637E-02 -0.61814060002E-03  0.22589696746E-01  0.00000000000E+00 0.  1.
     999901    1    3    3    0    0 -0.76195645144E-01 -0.82924923066E-01 -0.45634152224E-03  0.88717671715E+00  0.88000000000E+00 0. -1.
        -11    1    4    4    0    0  0.80871392538E-01  0.64199463035E-01  0.35431843589E-02  0.10331780322E+00  0.51100000000E-03 0. -1.
         11    1    4    4    0    0  0.16782642378E-01  0.25757515895E-01 -0.24687022367E-02  0.30845782889E-01  0.51100000000E-03 0.  1.
</event>
<event>
 8    1  0.1148488E+005  0.1043930E+01  0.7957747E-01            NaN
         13   -1    0    0    0    0  0.00000000000E+00  0.00000000000E+00  0.74505805969E-08  0.10566000000E+00  0.10566000000E+00 0.  1.
     999900   -1    0    0    0    0 -0.00000000000E+00 -0.00000000000E+00 -0.74505805969E-08  0.93827000000E+00  0.93827000000E+00 0.  1.
     999902    2    1    2    0    0  0.18238193134E-01  0.62533965515E-03 -0.16045418137E-01  0.10196302432E+01  0.10193406470E+01 0.  0.
     999903    2    3    3    0    0 -0.12434907526E+00  0.19234449510E-01  0.58768715738E-02  0.12768965386E+00  0.20915389528E-01 0.  0.
         14    1    1    2    0    0 -0.18238193134E-01 -0.62533965515E-03  0.16045418137E-01  0.24299756823E-01  0.00000000000E+00 0.  1.
     999901    1    3    3    0    0  0.14258726839E+00 -0.18609109855E-01 -0.21922289710E-01  0.89194058931E+00  0.88000000000E+00 0.  1.
        -11    1    4    4    0    0 -0.64548685998E-01  0.16222831834E-01 -0.53317313114E-02  0.66771263404E-01  0.51100000000E-03 0.  1.
         11    1    4    4    0    0 -0.59800389260E-01  0.30116176758E-02  0.11208602885E-01  0.60918390461E-01  0.51100000000E-03 0. -1.
</event>
<event>
 8    1  0.1148488E+005  0.1043930E+01  0.7957747E-01            NaN
         13   -1    0    0    0    0  0.00000000000E+00  0.00000000000E+00  0.74505805969E-08  0.10566000000E+00  0.10566000000E+00 0.  1.
     999900   -1    0    0    0    0 -0.00000000000E+00 -0.00000000000E+00 -0.74505805969E-08  0.93827000000E+00  0.93827000000E+00 0. -1.
     999902    2    1    2    0    0  0.86374344821E-02  0.23443894959E-01  0.12055005695E-01  0.10161893322E+01  0.10158106193E+01 0.  0.
     999903    2    3    3    0    0 -0.69275609452E-01  0.10358121946E+00 -0.23798251410E-01  0.12839549962E+00  0.19770393588E-01 0.  0.
         14    1    1    2    0    0 -0.86374344821E-02 -0.23443894959E-01 -0.12055005695E-01  0.27740667756E-01  0.00000000000E+00 0. -1.
     999901    1    3    3    0    0  0.77913043934E-01 -0.80137324506E-01  0.35853257105E-01  0.88779383262E+00  0.88000000000E+00 0.  1.
        -11    1    4    4    0    0 -0.44811805773E-01  0.62648690409E-01 -0.24087969859E-01  0.80705933855E-01  0.51100000000E-03 0.  1.
         11    1    4    4    0    0 -0.24463803680E-01  0.40932529055E-01  0.28971844882E-03  0.47689565768E-01  0.51100000000E-03 0. -1.
</event>
<event>
 8    1  0.1148488E+005  0.1043930E+01  0.7957747E-01            NaN
         13   -1    0    0    0    0  0.00000000000E+00  0.00000000000E+00  0.74505805969E-08  0.10566000000E+00  0.10566000000E+00 0. -1.
     999900   -1    0    0    0    0 -0.00000000000E+00 -0.00000000000E+00 -0.74505805969E-08  0.93827000000E+00  0.93827000000E+00 0.  1.
     999902    2    1    2    0    0 -0.19554521173E-01  0.19534182090E-01  0.18435781775E-01  0.10107058880E+01  0.10101596658E+01 0.  0.
     999903    2    3    3    0    0 -0.36360597653E-01  0.47575533790E-02  0.11761616719E+00  0.12485175678E+00  0.20240331272E-01 0.  0.
         14    1    1    2    0    0  0.19554521173E-01 -0.19534182090E-01 -0.18435781775E-01  0.33224111995E-01  0.00000000000E+00 0. -1.
     999901    1    3    3    0    0  0.16806076480E-01  0.14776628711E-01 -0.99180385415E-01  0.88585413123E+00  0.88000000000E+00 0.  1.
        -11    1    4    4    0    0 -0.38711633333E-02  0.78479814514E-02  0.33412784006E-01  0.34543479478E-01  0.51100000000E-03 0.  1.
         11    1    4    4    0    0 -0.32489434320E-01 -0.30904280724E-02  0.84203383183E-01  0.90308277298E-01  0.51100000000E-03 0. -1.
</event>
<event>
 8    1  0.1148488E+005  0.1043930E+01  0.7957747E-01            NaN
         13   -1    0    0    0    0  0.00000000000E+00  0.00000000000E+00  0.74505805969E-08  0.10566000000E+00  0.10566000000E+00 0.  1.
     999900   -1    0    0    0    0 -0.00000000000E+00 -0.00000000000E+00 -0.74505805969E-08  0.93827000000E+00  0.93827000000E+00 0. -1.
     999902    2    1    2    0    0  0.10442342382E-02 -0.13125135325E-01 -0.19525636014E-01  0.10203798394E+01  0.10201080367E+01 0.  0.
     999903    2    3    3    0    0 -0.53320382346E-01 -0.36931800065E-01 -0.11477527466E+00  0.13325258670E+00  0.19387293788E-01 0.  0.
         14    1    1    2    0    0 -0.10442342382E-02  0.13125135325E-01  0.19525636014E-01  0.23550160598E-01  0.00000000000E+00 0.  1.
     999901    1    3    3    0    0  0.54364616584E-01  0.23806664740E-01  0.95249638644E-01  0.88712725270E+00  0.88000000000E+00 0.  1.
        -11    1    4    4    0    0 -0.18163411713E-01 -0.24275160707E-01 -0.52238585912E-01  0.60401357034E-01  0.51100000000E-03 0.  1.
         11    1    4    4    0    0 -0.35156970632E-01 -0.12656639358E-01 -0.62536688745E-01  0.72851229668E-01  0.51100000000E-03 0. -1.
</event>
<event>
 8    1  0.1148488E+005  0.1043930E+01  0.7957747E-01            NaN
         13   -1    0    0    0    0  0.00000000000E+00  0.00000000000E+00  0.74505805969E-08  0.10566000000E+00  0.10566000000E+00 0. -1.
     999900   -1    0    0    0    0 -0.00000000000E+00 -0.00000000000E+00 -0.74505805969E-08  0.93827000000E+00  0.93827000000E+00 0. -1.
     999902    2    1    2    0    0  0.20014043416E-01  0.38408548213E-02 -0.11824681688E-01  0.10203686504E+01  0.10200965863E+01 0.  0.
     999903    2    3    3    0    0  0.77653858682E-02  0.10725831451E+00 -0.74022884258E-01  0.13204786541E+00  0.19814240247E-01 0.  0.
         14    1    1    2    0    0 -0.20014043416E-01 -0.38408548213E-02  0.11824681688E-01  0.23561349636E-01  0.00000000000E+00 0.  1.
     999901    1    3    3    0    0  0.12248657548E-01 -0.10341745969E+00  0.62198202570E-01  0.88832078495E+00  0.88000000000E+00 0.  1.
        -11    1    4    4    0    0 -0.51299113707E-02  0.57499818317E-01 -0.43269145838E-01  0.72145860586E-01  0.51100000000E-03 0. -1.
         11    1    4    4    0    0  0.12895297239E-01  0.49758496191E-01 -0.30753738420E-01  0.59902004824E-01  0.51100000000E-03 0.  1.
</event>
<event>
 8    1  0.1148488E+005  0.1043930E+01  0.7957747E-01            NaN
         13   -1    0    0    0    0  0.00000000000E+00  0.00000000000E+00  0.74505805969E-08  0.10566000000E+00  0.10566000000E+00 0. -1.
     999900   -1    0    0    0    0 -0.00000000000E+00 -0.00000000000E+00 -0.74505805969E-08  0.93827000000E+00  0.93827000000E+00 0.  1.
     999902    2    1    2    0    0  0.28795355252E-02 -0.21442203287E-01 -0.94930044949E-02  0.10203042314E+01  0.10200306602E+01 0.  0.
     999903    2    3    3    0    0  0.60925212852E-01 -0.96042529702E-01  0.64281519865E-01  0.13217294056E+00  0.20038047510E-01 0.  0.
         14    1    1    2    0    0 -0.28795355252E-02  0.21442203287E-01  0.94930044949E-02  0.23625768579E-01  0.00000000000E+00 0. -1.
     999901    1    3    3    0    0 -0.58045677327E-01  0.74600326416E-01 -0.73774524360E-01  0.88813129086E+00  0.88000000000E+00 0. -1.
        -11    1    4    4    0    0  0.10857815499E-01 -0.33847685041E-01  0.22276175612E-01  0.41952914808E-01  0.51100000000E-03 0.  1.
         11    1    4    4    0    0  0.50067397353E-01 -0.62194844661E-01  0.42005344254E-01  0.90220025754E-01  0.51100000000E-03 0. -1.
</event>
<event>
 8    1  0.1148488E+005  0.1043930E+01  0.7957747E-01            NaN
         13   -1    0    0    0    0  0.00000000000E+00  0.00000000000E+00  0.74505805969E-08  0.10566000000E+00  0.10566000000E+00 0.  1.
     999900   -1    0    0    0    0 -0.00000000000E+00 -0.00000000000E+00 -0.74505805969E-08  0.93827000000E+00  0.93827000000E+00 0. -1.
     999902    2    1    2    0    0 -0.52851195284E-02 -0.18725864243E-01 -0.12980265717E-01  0.10205403062E+01  0.10202722375E+01 0.  0.
     999903    2    3    3    0    0 -0.97212682533E-01 -0.48604102361E-01 -0.74489701036E-01  0.13311324065E+00  0.18914408923E-01 0.  0.
         14    1    1    2    0    0  0.52851195284E-02  0.18725864243E-01  0.12980265717E-01  0.23389693845E-01  0.00000000000E+00 0. -1.
     999901    1    3    3    0    0  0.91927563005E-01  0.29878238118E-01  0.61509435319E-01  0.88742706550E+00  0.88000000000E+00 0.  1.
        -11    1    4    4    0    0 -0.44819035813E-01 -0.14346820546E-01 -0.39206742253E-01  0.61253628383E-01  0.51100000000E-03 0.  1.
         11    1    4    4    0    0 -0.52393646721E-01 -0.34257281815E-01 -0.35282958783E-01  0.71859612270E-01  0.51100000000E-03 0. -1.
</event>
<event>
 8    1  0.1148488E+005  0.1043930E+01  0.7957747E-01            NaN
         13   -1    0    0    0    0  0.00000000000E+00  0.00000000000E+00  0.74505805969E-08  0.10566000000E+00  0.10566000000E+00 0. -1.
     999900   -1    0    0    0    0 -0.00000000000E+00 -0.00000000000E+00 -0.74505805969E-08  0.93827000000E+00  0.93827000000E+00 0. -1.
     999902    2    1    2    0    0  0.18339355148E-01  0.13970275014E-01  0.24636053859E-02  0.10207444467E+01  0.10204810902E+01 0.  0.
     999903    2    3    3    0    0  0.10763375979E+00  0.69763666326E-01  0.33621657418E-01  0.13392021527E+00  0.18767333935E-01 0.  0.
         14    1    1    2    0    0 -0.18339355148E-01 -0.13970275014E-01 -0.24636053859E-02  0.23185553319E-01  0.00000000000E+00 0. -1.
     999901    1    3    3    0    0 -0.89294404646E-01 -0.55793391312E-01 -0.31158052032E-01  0.88682423141E+00  0.88000000000E+00 0.  1.
        -11    1    4    4    0    0  0.36509569416E-01  0.18243530390E-01  0.30679922483E-02  0.40932245938E-01  0.51100000000E-03 0.  1.
         11    1    4    4    0    0  0.71124190379E-01  0.51520135935E-01  0.30553665170E-01  0.92987969330E-01  0.51100000000E-03 0. -1.
</event>
<event>
 8    1  0.1148488E+005  0.1043930E+01  0.7957747E-01            NaN
         13   -1    0    0    0    0  0.00000000000E+00  0.00000000000E+00  0.74505805969E-08  0.10566000000E+00  0.10566000000E+00 0.  1.
     999900   -1    0    0    0    0 -0.00000000000E+00 -0.00000000000E+00 -0.74505805969E-08  0.93827000000E+00  0.93827000000E+00 0.  1.
     999902    2    1    2    0    0  0.11065970567E-01  0.14017768897E-01  0.15759738747E-01  0.10201114586E+01  0.10198333516E+01 0.  0.
     999903    2    3    3    0    0  0.30476302787E-01  0.78097597026E-01 -0.97787920326E-01  0.13029346807E+00  0.19643593560E-01 0.  0.
         14    1    1    2    0    0 -0.11065970567E-01 -0.14017768897E-01 -0.15759738747E-01  0.23818541408E-01  0.00000000000E+00 0. -1.
     999901    1    3    3    0    0 -0.19410332220E-01 -0.64079828129E-01  0.11354765907E+00  0.88981799052E+00  0.88000000000E+00 0. -1.
        -11    1    4    4    0    0  0.24430108654E-01  0.53736487768E-01 -0.54992260612E-01  0.80677445267E-01  0.51100000000E-03 0.  1.
         11    1    4    4    0    0  0.60461941330E-02  0.24361109258E-01 -0.42795659714E-01  0.49616022806E-01  0.51100000000E-03 0. -1.
</event>
<event>
 8    1  0.1148488E+005  0.1043930E+01  0.7957747E-01            NaN
         13   -1    0    0    0    0  0.00000000000E+00  0.00000000000E+00  0.74505805969E-08  0.10566000000E+00  0.10566000000E+00 0. -1.
     999900   -1    0    0    0    0 -0.00000000000E+00 -0.00000000000E+00 -0.74505805969E-08  0.93827000000E+00  0.93827000000E+00 0.  1.
     999902    2    1    2    0    0  0.13604573263E-01  0.41092519792E-02 -0.18165783935E-01  0.10208656103E+01  0.10206050305E+01 0.  0.
     999903    2    3    3    0    0 -0.86671220480E-01  0.44673198316E-01 -0.86141152026E-01  0.13164048740E+00  0.20033091225E-01 0.  0.
         14    1    1    2    0    0 -0.13604573263E-01 -0.41092519792E-02  0.18165783935E-01  0.23064389684E-01  0.00000000000E+00 0. -1.
     999901    1    3    3    0    0  0.10027579374E+00 -0.40563946337E-01  0.67975368090E-01  0.88922512291E+00  0.88000000000E+00 0. -1.
        -11    1    4    4    0    0 -0.15506172846E-01  0.17194871632E-01 -0.22555398530E-01  0.32328194051E-01  0.51100000000E-03 0. -1.
         11    1    4    4    0    0 -0.71165047635E-01  0.27478326685E-01 -0.63585753496E-01  0.99312293352E-01  0.51100000000E-03 0.  1.
</event>
<event>
 8    1  0.1148488E+005  0.1043930E+01  0.7957747E-01            NaN
         13   -1    0    0    0    0  0.00000000000E+00  0.00000000000E+00  0.74505805969E-08  0.10566000000E+00  0.10566000000E+00 0.  1.
     999900   -1    0    0    0    0 -0.00000000000E+00 -0.00000000000E+00 -0.74505805969E-08  0.93827000000E+00  0.93827000000E+00 0. -1.
     999902    2    1    2    0    0  0.19553944217E-01  0.42152100330E-02  0.11860828510E-01  0.10206748074E+01  0.10204098483E+01 0.  0.
     999903    2    3    3    0    0 -0.12478293980E+00  0.23717164088E-01  0.66853141145E-02  0.12868812126E+00  0.19561523244E-01 0.  0.
         14    1    1    2    0    0 -0.19553944217E-01 -0.42152100330E-02 -0.11860828510E-01  0.23255192603E-01  0.00000000000E+00 0. -1.
     999901    1    3    3    0    0  0.14433688401E+00 -0.19501954055E-01  0.51755143954E-02  0.89198668614E+00  0.88000000000E+00 0. -1.
        -11    1    4    4    0    0 -0.77512907417E-01  0.24048541219E-01  0.64270693900E-02  0.81413460146E-01  0.51100000000E-03 0. -1.
         11    1    4    4    0    0 -0.47270032379E-01 -0.33137713154E-03  0.25824472455E-03  0.47274661112E-01  0.51100000000E-03 0.  1.
</event>
<event>
 8    1  0.1148488E+005  0.1043930E+01  0.7957747E-01            NaN
         13   -1    0    0    0    0  0.00000000000E+00  0.00000000000E+00  0.74505805969E-08  0.10566000000E+00  0.10566000000E+00 0. -1.
     999900   -1    0    0    0    0 -0.00000000000E+00 -0.00000000000E+00 -0.74505805969E-08  0.93827000000E+00  0.93827000000E+00 0.  1.
     999902    2    1    2    0    0  0.39499696676E-02  0.21243780779E-01  0.10087482254E-01  0.10200834535E+01  0.10198046844E+01 0.  0.
     999903    2    3    3    0    0 -0.69485299477E-01 -0.96628019797E-01 -0.41679231950E-01  0.12768987842E+00  0.20059053370E-01 0.  0.
         14    1    1    2    0    0 -0.39499696676E-02 -0.21243780779E-01 -0.10087482254E-01  0.23846546509E-01  0.00000000000E+00 0. -1.
     999901    1    3    3    0    0  0.73435269144E-01  0.11787180058E+00  0.51766714204E-01  0.89239357507E+00  0.88000000000E+00 0.  1.
        -11    1    4    4    0    0 -0.30302017204E-01 -0.26026728825E-01 -0.13965588666E-01  0.42319045921E-01  0.51100000000E-03 0. -1.
         11    1    4    4    0    0 -0.39183282273E-01 -0.70601290973E-01 -0.27713643284E-01  0.85370832500E-01  0.51100000000E-03 0.  1.
</event>
<event>
 8    1  0.1148488E+005  0.1043930E+01  0.7957747E-01            NaN
         13   -1    0    0    0    0  0.00000000000E+00  0.00000000000E+00  0.74505805969E-08  0.10566000000E+00  0.10566000000E+00 0. -1.
     999900   -1    0    0    0    0 -0.00000000000E+00 -0.00000000000E+00 -0.74505805969E-08  0.93827000000E+00  0.93827000000E+00 0. -1.
     999902    2    1    2    0    0  0.16507092813E-01  0.16145881973E-01  0.49679142349E-02  0.10203110714E+01  0.10200376604E+01 0.  0.
     999903    2    3    3    0    0  0.88491771075E-01  0.90503609552E-01  0.37902518576E-01  0.13363438073E+00  0.19996247382E-01 0.  0.
         14    1    1    2    0    0 -0.16507092813E-01 -0.16145881973E-01 -0.49679142349E-02  0.23618928631E-01  0.00000000000E+00 0. -1.
     999901    1    3    3    0    0 -0.71984678262E-01 -0.74357727579E-01 -0.32934604341E-01  0.88667669064E+00  0.88000000000E+00 0. -1.
        -11    1    4    4    0    0  0.60262967079E-01  0.63657294103E-01  0.35582452212E-01  0.94605752046E-01  0.51100000000E-03 0.  1.
         11    1    4    4    0    0  0.28228803996E-01  0.26846315449E-01  0.23200663641E-02  0.39028628686E-01  0.51100000000E-03 0. -1.
</event>
<event>
 8    1  0.1148488E+005  0.1043930E+01  0.7957747E-01            NaN
         13   -1    0    0    0    0  0.00000000000E+00  0.00000000000E+00  0.74505805969E-08  0.10566000000E+00  0.10566000000E+00 0.  1.
     999900   -1    0    0    0    0 -0.00000000000E+00 -0.00000000000E+00 -0.74505805969E-08  0.93827000000E+00  0.93827000000E+00 0. -1.
     999902    2    1    2    0    0  0.11142511459E-02  0.90300521793E-02  0.29259116934E-01  0.10132888623E+01  0.10128254732E+01 0.  0.
     999903    2    3    3    0    0 -0.38144734730E-01 -0.11315051981E+00 -0.19693268547E-01  0.12263421753E+00  0.19830924373E-01 0.  0.
         14    1    1    2    0    0 -0.11142511459E-02 -0.90300521793E-02 -0.29259116934E-01  0.30641137735E-01  0.00000000000E+00 0. -1.
     999901    1    3    3    0    0  0.39258985876E-01  0.12218057199E+00  0.48952385481E-01  0.89065464474E+00  0.88000000000E+00 0.  1.
        -11    1    4    4    0    0 -0.95705353445E-02 -0.38849365132E-01  0.21881882643E-02  0.40073901816E-01  0.51100000000E-03 0.  1.
         11    1    4    4    0    0 -0.28574199386E-01 -0.74301154681E-01 -0.21881456811E-01  0.82560315713E-01  0.51100000000E-03 0. -1.
</event>
<event>
 8    1  0.1148488E+005  0.1043930E+01  0.7957747E-01            NaN
         13   -1    0    0    0    0  0.00000000000E+00  0.00000000000E+00  0.74505805969E-08  0.10566000000E+00  0.10566000000E+00 0. -1.
     999900   -1    0    0    0    0 -0.00000000000E+00 -0.00000000000E+00 -0.74505805969E-08  0.93827000000E+00  0.93827000000E+00 0. -1.
     999902    2    1    2    0    0 -0.21003350990E-01 -0.27489692695E-02 -0.11091559265E-01  0.10200193272E+01  0.10197390390E+01 0.  0.
     999903    2    3    3    0    0 -0.34378915547E-01  0.12341531562E+00 -0.15785177371E-01  0.13090833160E+00  0.21784616000E-01 0.  0.
         14    1    1    2    0    0  0.21003350990E-01  0.27489692695E-02  0.11091559265E-01  0.23910672759E-01  0.00000000000E+00 0. -1.
     999901    1    3    3    0    0  0.13375564556E-01 -0.12616428489E+00  0.46936181055E-02  0.88911099564E+00  0.88000000000E+00 0.  1.
        -11    1    4    4    0    0 -0.15174355458E-01  0.46090156737E-01  0.43692089818E-02  0.48722835712E-01  0.51100000000E-03 0. -1.
         11    1    4    4    0    0 -0.19204560089E-01  0.77325158886E-01 -0.20154386353E-01  0.82185495893E-01  0.51100000000E-03 0.  1.
</event>
<event>
 8    1  0.1148488E+005  0.1043930E+01  0.7957747E-01            NaN
         13   -1    0    0    0    0  0.00000000000E+00  0.00000000000E+00  0.74505805969E-08  0.10566000000E+00  0.10566000000E+00 0.  1.
     999900   -1    0    0    0    0 -0.00000000000E+00 -0.00000000000E+00 -0.74505805969E-08  0.93827000000E+00  0.93827000000E+00 0.  1.
     999902    2    1    2    0    0  0.16457135362E-01 -0.17428297048E-01  0.24648525604E-03  0.10199582750E+01  0.10196765366E+01 0.  0.
     999903    2    3    3    0    0 -0.48518337721E-01  0.87436980413E-01 -0.77950985683E-01  0.12791938409E+00  0.16963431774E-01 0.  0.
         14    1    1    2    0    0 -0.16457135362E-01  0.17428297048E-01 -0.24648525604E-03  0.23971724955E-01  0.00000000000E+00 0.  1.
     999901    1    3    3    0    0  0.64975473084E-01 -0.10486527746E+00  0.78197470939E-01  0.89203889096E+00  0.88000000000E+00 0. -1.
        -11    1    4    4    0    0 -0.17398590796E-01  0.45227052153E-01 -0.43915881949E-01  0.65399258531E-01  0.51100000000E-03 0. -1.
         11    1    4    4    0    0 -0.31119746925E-01  0.42209928260E-01 -0.34035103734E-01  0.62520125556E-01  0.51100000000E-03 0.  1.
</event>
<event>
 8    1  0.1148488E+005  0.1043930E+01  0.7957747E-01            NaN
         13   -1    0    0    0    0  0.00000000000E+00  0.00000000000E+00  0.74505805969E-08  0.10566000000E+00  0.10566000000E+00 0.  1.
     999900   -1    0    0    0    0 -0.00000000000E+00 -0.00000000000E+00 -0.74505805969E-08  0.93827000000E+00  0.93827000000E+00 0. -1.
     999902    2    1    2    0    0  0.21019454870E-01  0.10607120070E-01  0.14512468190E-01  0.10162724475E+01  0.10158960317E+01 0.  0.
     999903    2    3    3    0    0 -0.11374052596E+00 -0.45048342361E-01  0.25213174208E-02  0.12419533722E+00  0.21257101168E-01 0.  0.
         14    1    1    2    0    0 -0.21019454870E-01 -0.10607120070E-01 -0.14512468190E-01  0.27657552534E-01  0.00000000000E+00 0. -1.
     999901    1    3    3    0    0  0.13475998083E+00  0.55655462431E-01  0.11991150769E-01  0.89207711025E+00  0.88000000000E+00 0. -1.
        -11    1    4    4    0    0 -0.73977127892E-01 -0.39317520329E-01 -0.17119859253E-02  0.83795434677E-01  0.51100000000E-03 0. -1.
         11    1    4    4    0    0 -0.39763398068E-01 -0.57308220318E-02  0.42333033461E-02  0.40399902541E-01  0.51100000000E-03 0.  1.
</event>
<event>
 8    1  0.1148488E+005  0.1043930E+01  0.7957747E-01            NaN
         13   -1    0    0    0    0  0.00000000000E+00  0.00000000000E+00  0.74505805969E-08  0.10566000000E+00  0.10566000000E+00 0.  1.
     999900   -1    0    0    0    0 -0.00000000000E+00 -0.00000000000E+00 -0.74505805969E-08  0.93827000000E+00  0.93827000000E+00 0. -1.
     999902    2    1    2    0    0 -0.57337292215E-02  0.22178208541E-01  0.11595632407E-01  0.10182549679E+01  0.10179312218E+01 0.  0.
     999903    2    3    3    0    0 -0.10521148578E+00  0.37078734766E-01 -0.63226272096E-01  0.12937017941E+00  0.17169523178E-01 0.  0.
         14    1    1    2    0    0  0.57337292215E-02 -0.22178208541E-01 -0.11595632407E-01  0.25675032148E-01  0.00000000000E+00 0. -1.
     999901    1    3    3    0    0  0.99477756555E-01 -0.14900526225E-01  0.74821904503E-01  0.88888478844E+00  0.88000000000E+00 0.  1.
        -11    1    4    4    0    0 -0.32112463919E-01  0.17805938162E-01 -0.26745984014E-01  0.45429842115E-01  0.51100000000E-03 0. -1.
         11    1    4    4    0    0 -0.73099021858E-01  0.19272796604E-01 -0.36480288082E-01  0.83940337294E-01  0.51100000000E-03 0.  1.
</event>
<event>
 8    1  0.1148488E+005  0.1043930E+01  0.7957747E-01            NaN
         13   -1    0    0    0    0  0.00000000000E+00  0.00000000000E+00  0.74505805969E-08  0.10566000000E+00  0.10566000000E+00 0.  1.
     999900   -1    0    0    0    0 -0.00000000000E+00 -0.00000000000E+00 -0.74505805969E-08  0.93827000000E+00  0.93827000000E+00 0.  1.
     999902    2    1    2    0    0 -0.19400451265E-01 -0.38634920166E-02  0.11926828739E-01  0.10208312268E+01  0.10205698606E+01 0.  0.
     999903    2    3    3    0    0  0.34078736126E-03  0.10826966744E+00  0.71948128411E-01  0.13146846708E+00  0.19621101656E-01 0.  0.
         14    1    1    2    0    0  0.19400451265E-01  0.38634920166E-02 -0.11926828739E-01  0.23098773206E-01  0.00000000000E+00 0. -1.
     999901    1    3    3    0    0 -0.19741238626E-01 -0.11213315946E+00 -0.60021299671E-01  0.88936275971E+00  0.88000000000E+00 0.  1.
        -11    1    4    4    0    0  0.48452073719E-02  0.17683665261E-01  0.19165484862E-01  0.26528569176E-01  0.51100000000E-03 0. -1.
         11    1    4    4    0    0 -0.45044200106E-02  0.90586002182E-01  0.52782643548E-01  0.10493989790E+00  0.51100000000E-03 0.  1.
</event>
<event>
 7    1  0.1148488E+005  0.1043930E+01  0.7957747E-01            NaN
         13   -1    0    0    0    0  0.00000000000E+00  0.00000000000E+00  0.74505805969E-08  0.10566000000E+00  0.10566000000E+00 0.  1.
     999900   -1    0    0    0    0 -0.00000000000E+00 -0.00000000000E+00 -0.74505805969E-08  0.93827000000E+00  0.93827000000E+00 0. -1.
     999903    2    1    2    0    0  0.28789201498E-02  0.45430932204E-01  0.90883745097E-01  0.10322571803E+00  0.17984325324E-01 0.  0.
         14    1    1    2    0    0 -0.30000498273E-01  0.28414929132E-01  0.27007222068E-01  0.49364239466E-01  0.00000000000E+00 0. -1.
     999901    1    1    2    0    0  0.27121578123E-01 -0.73845861336E-01 -0.11789096716E+00  0.89134004251E+00  0.88000000000E+00 0. -1.
        -11    1    3    3    0    0  0.27917221366E-02  0.23614198642E-01  0.28417659424E-01  0.37057368743E-01  0.51100000000E-03 0. -1.
         11    1    3    3    0    0  0.87198013190E-04  0.21816733562E-01  0.62466085673E-01  0.66168349285E-01  0.51100000000E-03 0.  1.
</event>
<event>
 8    1  0.1148488E+005  0.1043930E+01  0.7957747E-01            NaN
         13   -1    0    0    0    0  0.00000000000E+00  0.00000000000E+00  0.74505805969E-08  0.10566000000E+00  0.10566000000E+00 0.  1.
     999900   -1    0    0    0    0 -0.00000000000E+00 -0.00000000000E+00 -0.74505805969E-08  0.93827000000E+00  0.93827000000E+00 0.  1.
     999902    2    1    2    0    0  0.21389587424E-01 -0.36441426441E-02 -0.83125464845E-02  0.10206944097E+01  0.10204299023E+01 0.  0.
     999903    2    3    3    0    0 -0.11874201875E+00  0.70083344357E-02  0.43246091515E-01  0.12805302852E+00  0.19456873176E-01 0.  0.
         14    1    1    2    0    0 -0.21389587424E-01  0.36441426441E-02  0.83125464845E-02  0.23235590262E-01  0.00000000000E+00 0. -1.
     999901    1    3    3    0    0  0.14013160617E+00 -0.10652477080E-01 -0.51558637999E-01  0.89264138122E+00  0.88000000000E+00 0. -1.
        -11    1    4    4    0    0 -0.84864699454E-01  0.49533344119E-02  0.21318678571E-01  0.87643025462E-01  0.51100000000E-03 0. -1.
         11    1    4    4    0    0 -0.33877319292E-01  0.20550000238E-02  0.21927412944E-01  0.40410003055E-01  0.51100000000E-03 0.  1.
</event>
<event>
 8    1  0.1148488E+005  0.1043930E+01  0.7957747E-01            NaN
         13   -1    0    0    0    0  0.00000000000E+00  0.00000000000E+00  0.74505805969E-08  0.10566000000E+00  0.10566000000E+00 0. -1.
     999900   -1    0    0    0    0 -0.00000000000E+00 -0.00000000000E+00 -0.74505805969E-08  0.93827000000E+00  0.93827000000E+00 0. -1.
     999902    2    1    2    0    0 -0.14446779811E-01  0.10714125098E-01 -0.15149642730E-01  0.10204137588E+01  0.10201427477E+01 0.  0.
     999903    2    3    3    0    0  0.79264351284E-01 -0.29406084438E-01  0.94347073821E-01  0.12778789195E+00  0.16757678952E-01 0.  0.
         14    1    1    2    0    0  0.14446779811E-01 -0.10714125098E-01  0.15149642730E-01  0.23516241161E-01  0.00000000000E+00 0. -1.
     999901    1    3    3    0    0 -0.93711131095E-01  0.40120209536E-01 -0.10949671655E+00  0.89262586689E+00  0.88000000000E+00 0. -1.
        -11    1    4    4    0    0  0.14109663752E-01 -0.14577107000E-02  0.24182376502E-01  0.28040256524E-01  0.51100000000E-03 0. -1.
         11    1    4    4    0    0  0.65154687532E-01 -0.27948373738E-01  0.70164697319E-01  0.99747635425E-01  0.51100000000E-03 0.  1.
</event>
<event>
 8    1  0.1148488E+005  0.1043930E+01  0.7957747E-01            NaN
         13   -1    0    0    0    0  0.00000000000E+00  0.00000000000E+00  0.74505805969E-08  0.10566000000E+00  0.10566000000E+00 0.  1.
     999900   -1    0    0    0    0 -0.00000000000E+00 -0.00000000000E+00 -0.74505805969E-08  0.93827000000E+00  0.93827000000E+00 0. -1.
     999902    2    1    2    0    0  0.19915819618E-01 -0.15862881656E-02 -0.99262880056E-02  0.10216210920E+01  0.10213774857E+01 0.  0.
     999903    2    3    3    0    0  0.13280244466E+00  0.85692539555E-03 -0.81681210479E-02  0.13440496810E+00  0.18993515252E-01 0.  0.
         14    1    1    2    0    0 -0.19915819618E-01  0.15862881656E-02  0.99262880056E-02  0.22308907969E-01  0.00000000000E+00 0.  1.
     999901    1    3    3    0    0 -0.11288662504E+00 -0.24432135612E-02 -0.17581669577E-02  0.88721612393E+00  0.88000000000E+00 0. -1.
        -11    1    4    4    0    0  0.83910368876E-01  0.12760215421E-02 -0.14280120563E-01  0.85127910818E-01  0.51100000000E-03 0. -1.
         11    1    4    4    0    0  0.48892075781E-01 -0.41909614658E-03  0.61119995147E-02  0.49277057286E-01  0.51100000000E-03 0.  1.
</event>
<event>
 8    1  0.1148488E+005  0.1043930E+01  0.7957747E-01            NaN
         13   -1    0    0    0    0  0.00000000000E+00  0.00000000000E+00  0.74505805969E-08  0.10566000000E+00  0.10566000000E+00 0.  1.
     999900   -1    0    0    0    0 -0.00000000000E+00 -0.00000000000E+00 -0.74505805969E-08  0.93827000000E+00  0.93827000000E+00 0. -1.
     999902    2    1    2    0    0 -0.94070780710E-02 -0.12197106900E-01 -0.15450972217E-01  0.10221126886E+01  0.10218798134E+01 0.  0.
     999903    2    3    3    0    0 -0.86894245588E-01 -0.19940282566E-01  0.95184387840E-01  0.13177320233E+00  0.18864898076E-01 0.  0.
         14    1    1    2    0    0  0.94070780710E-02  0.12197106900E-01  0.15450972217E-01  0.21817311407E-01  0.00000000000E+00 0.  1.
     999901    1    3    3    0    0  0.77487167517E-01  0.77431756661E-02 -0.11063536006E+00  0.89033948626E+00  0.88000000000E+00 0. -1.
        -11    1    4    4    0    0 -0.54500486313E-01 -0.70412708360E-02  0.68748023435E-01  0.88013830450E-01  0.51100000000E-03 0.  1.
         11    1    4    4    0    0 -0.32393759275E-01 -0.12899011730E-01  0.26436364405E-01  0.43759371882E-01  0.51100000000E-03 0. -1.
</event>
<event>
 8    1  0.1148488E+005  0.1043930E+01  0.7957747E-01            NaN
         13   -1    0    0    0    0  0.00000000000E+00  0.00000000000E+00  0.74505805969E-08  0.10566000000E+00  0.10566000000E+00 0. -1.
     999900   -1    0    0    0    0 -0.00000000000E+00 -0.00000000000E+00 -0.74505805969E-08  0.93827000000E+00  0.93827000000E+00 0. -1.
     999902    2    1    2    0    0 -0.14400499847E-01 -0.42337581844E-03 -0.18270145727E-01  0.10206630305E+01  0.10203977999E+01 0.  0.
     999903    2    3    3    0    0  0.50075161048E-01  0.24124082458E-01  0.11328050635E+00  0.12821400532E+00  0.22734663699E-01 0.  0.
         14    1    1    2    0    0  0.14400499847E-01  0.42337581844E-03  0.18270145727E-01  0.23266969459E-01  0.00000000000E+00 0. -1.
     999901    1    3    3    0    0 -0.64475660895E-01 -0.24547458277E-01 -0.13155065207E+00  0.89244902522E+00  0.88000000000E+00 0. -1.
        -11    1    4    4    0    0  0.23536585891E-01 -0.65220589928E-03  0.39643213106E-01  0.46111188602E-01  0.51100000000E-03 0. -1.
         11    1    4    4    0    0  0.26538575158E-01  0.24776288358E-01  0.73637293242E-01  0.82102816719E-01  0.51100000000E-03 0.  1.
</event>
<event>
 8    1  0.1148488E+005  0.1043930E+01  0.7957747E-01            NaN
         13   -1    0    0    0    0  0.00000000000E+00  0.00000000000E+00  0.74505805969E-08  0.10566000000E+00  0.10566000000E+00 0.  1.
     999900   -1    0    0    0    0 -0.00000000000E+00 -0.00000000000E+00 -0.74505805969E-08  0.93827000000E+00  0.93827000000E+00 0.  1.
     999902    2    1    2    0    0 -0.25322956241E-01 -0.39014920102E-02 -0.25560080473E-01  0.10077389588E+01  0.10070888826E+01 0.  0.
     999903    2    3    3    0    0 -0.11029681807E+00 -0.40205467091E-01 -0.23306667556E-01  0.12289794836E+00  0.27907656646E-01 0.  0.
         14    1    1    2    0    0  0.25322956241E-01  0.39014920102E-02  0.25560080473E-01  0.36191041246E-01  0.00000000000E+00 0.  1.
     999901    1    3    3    0    0  0.84973861826E-01  0.36303975080E-01 -0.22534129169E-02  0.88484101039E+00  0.88000000000E+00 0.  1.
        -11    1    4    4    0    0 -0.57468916873E-01 -0.27683963298E-01 -0.25156391536E-01  0.68572468138E-01  0.51100000000E-03 0.  1.
         11    1    4    4    0    0 -0.52827901194E-01 -0.12521503792E-01  0.18497239802E-02  0.54325480225E-01  0.51100000000E-03 0. -1.
</event>
<event>
 8    1  0.1148488E+005  0.1043930E+01  0.7957747E-01            NaN
         13   -1    0    0    0    0  0.00000000000E+00  0.00000000000E+00  0.74505805969E-08  0.10566000000E+00  0.10566000000E+00 0. -1.
     999900   -1    0    0    0    0 -0.00000000000E+00 -0.00000000000E+00 -0.74505805969E-08  0.93827000000E+00  0.93827000000E+00 0. -1.
     999902    2    1    2    0    0 -0.53726028956E-02 -0.19813232952E-01 -0.11292824473E-01  0.10205001697E+01  0.10202311696E+01 0.  0.
     999903    2    3    3    0    0  0.11425123541E+00  0.52851362690E-01 -0.21844631471E-01  0.12937652692E+00  0.20358940606E-01 0.  0.
         14    1    1    2    0    0  0.53726028956E-02  0.19813232952E-01  0.11292824473E-01  0.23429830269E-01  0.00000000000E+00 0.  1.
     999901    1    3    3    0    0 -0.11962383830E+00 -0.72664595641E-01  0.10551806998E-01  0.89112364281E+00  0.88000000000E+00 0.  1.
        -11    1    4    4    0    0  0.94965573167E-01  0.35001499923E-01 -0.18351258835E-01  0.10286201877E+00  0.51100000000E-03 0. -1.
         11    1    4    4    0    0  0.19285662241E-01  0.17849862767E-01 -0.34933726369E-02  0.26514508146E-01  0.51100000000E-03 0.  1.
</event>
<event>
 8    1  0.1148488E+005  0.1043930E+01  0.7957747E-01            NaN
         13   -1    0    0    0    0  0.00000000000E+00  0.00000000000E+00  0.74505805969E-08  0.10566000000E+00  0.10566000000E+00 0.  1.
     999900   -1    0    0    0    0 -0.00000000000E+00 -0.00000000000E+00 -0.74505805969E-08  0.93827000000E+00  0.93827000000E+00 0.  1.
     999902    2    1    2    0    0  0.61932566225E-02 -0.14520745894E-01 -0.16694901736E-01  0.10209533111E+01  0.10206947316E+01 0.  0.
     999903    2    3    3    0    0  0.93332875467E-01  0.57829921437E-01 -0.70120657786E-01  0.13208760491E+00  0.21792275355E-01 0.  0.
         14    1    1    2    0    0 -0.61932566225E-02  0.14520745894E-01  0.16694901736E-01  0.22976688902E-01  0.00000000000E+00 0.  1.
     999901    1    3    3    0    0 -0.87139618844E-01 -0.72350667331E-01  0.53425756049E-01  0.88886570619E+00  0.88000000000E+00 0. -1.
        -11    1    4    4    0    0  0.72614178285E-01  0.34443565229E-01 -0.45920005785E-01  0.92563956949E-01  0.51100000000E-03 0.  1.
         11    1    4    4    0    0  0.20718697182E-01  0.23386356207E-01 -0.24200652000E-01  0.39523647957E-01  0.51100000000E-03 0. -1.
</event>
<event>
 8    1  0.1148488E+005  0.1043930E+01  0.7957747E-01            NaN
         13   -1    0    0    0    0  0.00000000000E+00  0.00000000000E+00  0.74505805969E-08  0.10566000000E+00  0.10566000000E+00 0. -1.
     999900   -1    0    0    0    0 -0.00000000000E+00 -0.00000000000E+00 -0.74505805969E-08  0.93827000000E+00  0.93827000000E+00 0. -1.
     999902    2    1    2    0    0  0.41738191844E-02  0.19457593131E-01  0.12004380789E-01  0.10206894351E+01  0.10204248131E+01 0.  0.
     999903    2    3    3    0    0 -0.85263869839E-01  0.48453269101E-01 -0.84029519957E-01  0.13048588564E+00  0.18653668295E-01 0.  0.
         14    1    1    2    0    0 -0.41738191844E-02 -0.19457593131E-01 -0.12004380789E-01  0.23240564863E-01  0.00000000000E+00 0.  1.
     999901    1    3    3    0    0  0.89437689023E-01 -0.28995675969E-01  0.96033900746E-01  0.89020354950E+00  0.88000000000E+00 0.  1.
        -11    1    4    4    0    0 -0.15697797909E-01  0.20147696592E-02 -0.95723088664E-02  0.18503253066E-01  0.51100000000E-03 0. -1.
         11    1    4    4    0    0 -0.69566071929E-01  0.46438499441E-01 -0.74457211091E-01  0.11198263258E+00  0.51100000000E-03 0.  1.
</event>
<event>
 8    1  0.1148488E+005  0.1043930E+01  0.7957747E-01            NaN
         13   -1    0    0    0    0  0.00000000000E+00  0.00000000000E+00  0.74505805969E-08  0.10566000000E+00  0.10566000000E+00 0. -1.
     999900   -1    0    0    0    0 -0.00000000000E+00 -0.00000000000E+00 -0.74505805969E-08  0.93827000000E+00  0.93827000000E+00 0.  1.
     999902    2    1    2    0    0 -0.20801224606E-01  0.50936214661E-02  0.99384169941E-02  0.10203205092E+01  0.10200473192E+01 0.  0.
     999903    2    3    3    0    0  0.84830181799E-01 -0.40347503327E-01  0.87011982199E-01  0.12949885233E+00  0.19359414778E-01 0.  0.
         14    1    1    2    0    0  0.20801224606E-01 -0.50936214661E-02 -0.99384169941E-02  0.23609490827E-01  0.00000000000E+00 0. -1.
     999901    1    3    3    0    0 -0.10563140640E+00  0.45441124794E-01 -0.77073565205E-01  0.89082165684E+00  0.88000000000E+00 0.  1.
        -11    1    4    4    0    0  0.58173916913E-01 -0.17411967186E-01  0.56229636475E-01  0.82761188666E-01  0.51100000000E-03 0. -1.
         11    1    4    4    0    0  0.26656264885E-01 -0.22935536142E-01  0.30782345724E-01  0.46737663667E-01  0.51100000000E-03 0.  1.
</event>
<event>
 8    1  0.1148488E+005  0.1043930E+01  0.7957747E-01            NaN
         13   -1    0    0    0    0  0.00000000000E+00  0.00000000000E+00  0.74505805969E-08  0.10566000000E+00  0.10566000000E+00 0.  1.
     999900   -1    0    0    0    0 -0.00000000000E+00 -0.00000000000E+00 -0.74505805969E-08  0.93827000000E+00  0.93827000000E+00 0.  1.
     999902    2    1    2    0    0 -0.20142481386E-01  0.84310605173E-02  0.89634498280E-02  0.10203260645E+01  0.10200530046E+01 0.  0.
     999903    2    3    3    0    0 -0.73222647482E-01 -0.99559806956E-01 -0.38018227583E-01  0.13089545479E+00  0.20359842612E-01 0.  0.
         14    1    1    2    0    0  0.20142481386E-01 -0.84310605173E-02 -0.89634498280E-02  0.23603935491E-01  0.00000000000E+00 0.  1.
     999901    1    3    3    0    0  0.53080166096E-01  0.10799086747E+00  0.46981677411E-01  0.88943060972E+00  0.88000000000E+00 0. -1.
        -11    1    4    4    0    0 -0.32433677815E-01 -0.38804261151E-01 -0.25541794898E-01  0.56660026012E-01  0.51100000000E-03 0. -1.
         11    1    4    4    0    0 -0.40788969667E-01 -0.60755545805E-01 -0.12476432685E-01  0.74235428780E-01  0.51100000000E-03 0.  1.
</event>
<event>
 8    1  0.1148488E+005  0.1043930E+01  0.7957747E-01            NaN
         13   -1    0    0    0    0  0.00000000000E+00  0.00000000000E+00  0.74505805969E-08  0.10566000000E+00  0.10566000000E+00 0. -1.
     999900   -1    0    0    0    0 -0.00000000000E+00 -0.00000000000E+00 -0.74505805969E-08  0.93827000000E+00  0.93827000000E+00 0.  1.
     999902    2    1    2    0    0 -0.14238735646E-01 -0.15572264972E-01 -0.82606951326E-02  0.10212699887E+01  0.10210185668E+01 0.  0.
     999903    2    3    3    0    0  0.52135898886E-01  0.10259537240E+00 -0.55610864064E-01  0.12963597119E+00  0.21655355825E-01 0.  0.
         14    1    1    2    0    0  0.14238735646E-01  0.15572264972E-01  0.82606951326E-02  0.22660011325E-01  0.00000000000E+00 0. -1.
     999901    1    3    3    0    0 -0.66374634532E-01 -0.11816763737E+00  0.47350168931E-01  0.89163401748E+00  0.88000000000E+00 0.  1.
        -11    1    4    4    0    0  0.12830233481E-01  0.42919329272E-01 -0.29084606342E-01  0.53412163066E-01  0.51100000000E-03 0.  1.
         11    1    4    4    0    0  0.39305665405E-01  0.59676043124E-01 -0.26526257722E-01  0.76223808129E-01  0.51100000000E-03 0. -1.
</event>
<event>
 8    1  0.1148488E+005  0.1043930E+01  0.7957747E-01            NaN
         13   -1    0    0    0    0  0.00000000000E+00  0.00000000000E+00  0.74505805969E-08  0.10566000000E+00  0.10566000000E+00 0.  1.
     999900   -1    0    0    0    0 -0.00000000000E+00 -0.00000000000E+00 -0.74505805969E-08  0.93827000000E+00  0.93827000000E+00 0.  1.
     999902    2    1    2    0    0  0.10256293266E-01  0.20489752543E-01  0.44592623467E-02  0.10205867669E+01  0.10203197745E+01 0.  0.
     999903    2    3    3    0    0  0.55497146202E-01  0.11628827640E+00 -0.29453303670E-01  0.13358386156E+00  0.19345658635E-01 0.  0.
         14    1    1    2    0    0 -0.10256293266E-01 -0.20489752543E-01 -0.44592623467E-02  0.23343233099E-01  0.00000000000E+00 0. -1.
     999901    1    3    3    0    0 -0.45240852936E-01 -0.95798523857E-01  0.33912566017E-01  0.88700290534E+00  0.88000000000E+00 0.  1.
        -11    1    4    4    0    0  0.48599945511E-01  0.84547192583E-01 -0.18207841639E-01  0.99206698844E-01  0.51100000000E-03 0. -1.
         11    1    4    4    0    0  0.68972006909E-02  0.31741083816E-01 -0.11245462031E-01  0.34377162717E-01  0.51100000000E-03 0.  1.
</event>
<event>
 8    1  0.1148488E+005  0.1043930E+01  0.7957747E-01            NaN
         13   -1    0    0    0    0  0.00000000000E+00  0.00000000000E+00  0.74505805969E-08  0.10566000000E+00  0.10566000000E+00 0.  1.
     999900   -1    0    0    0    0 -0.00000000000E+00 -0.00000000000E+00 -0.74505805969E-08  0.93827000000E+00  0.93827000000E+00 0. -1.
     999902    2    1    2    0    0  0.26209100781E-02  0.64246726274E-02 -0.22570892710E-01  0.10203166397E+01  0.10200433591E+01 0.  0.
     999903    2    3    3    0    0  0.46067071638E-01  0.11611553809E+00  0.32463086711E-01  0.13073899056E+00  0.20828787258E-01 0.  0.
         14    1    1    2    0    0 -0.26209100781E-02 -0.64246726274E-02  0.22570892710E-01  0.23613360323E-01  0.00000000000E+00 0.  1.
     999901    1    3    3    0    0 -0.43446161560E-01 -0.10969086546E+00 -0.55033979421E-01  0.88957764912E+00  0.88000000000E+00 0. -1.
        -11    1    4    4    0    0  0.70242112082E-02  0.69103947529E-02 -0.12914967001E-02  0.99509890696E-02  0.51100000000E-03 0.  1.
         11    1    4    4    0    0  0.39042860430E-01  0.10920514334E+00  0.33754583411E-01  0.12078800149E+00  0.51100000000E-03 0. -1.
</event>
<event>
 8    1  0.1148488E+005  0.1043930E+01  0.7957747E-01            NaN
         13   -1    0    0    0    0  0.00000000000E+00  0.00000000000E+00  0.74505805969E-08  0.10566000000E+00  0.10566000000E+00 0. -1.
     999900   -1    0    0    0    0 -0.00000000000E+00 -0.00000000000E+00 -0.74505805969E-08  0.93827000000E+00  0.93827000000E+00 0. -1.
     999902    2    1    2    0    0 -0.22579508197E-01  0.16667105618E-02  0.70587313121E-02  0.10202142288E+01  0.10199385447E+01 0.  0.
     999903    2    3    3    0    0 -0.49528116000E-01 -0.10941031385E+00  0.50303420873E-01  0.13176927500E+00  0.20225148434E-01 0.  0.
         14    1    1    2    0    0  0.22579508197E-01 -0.16667105618E-02 -0.70587313121E-02  0.23715771171E-01  0.00000000000E+00 0.  1.
     999901    1    3    3    0    0  0.26948607803E-01  0.11107702442E+00 -0.43244689561E-01  0.88844495383E+00  0.88000000000E+00 0. -1.
        -11    1    4    4    0    0 -0.18870352494E-01 -0.64813930745E-01  0.24532158616E-01  0.71826344395E-01  0.51100000000E-03 0.  1.
         11    1    4    4    0    0 -0.30657763506E-01 -0.44596383110E-01  0.25771262257E-01  0.59942930601E-01  0.51100000000E-03 0. -1.
</event>
<event>
 8    1  0.1148488E+005  0.1043930E+01  0.7957747E-01            NaN
         13   -1    0    0    0    0  0.00000000000E+00  0.00000000000E+00  0.74505805969E-08  0.10566000000E+00  0.10566000000E+00 0.  1.
     999900   -1    0    0    0    0 -0.00000000000E+00 -0.00000000000E+00 -0.74505805969E-08  0.93827000000E+00  0.93827000000E+00 0.  1.
     999902    2    1    2    0    0 -0.28411625092E-02 -0.21546428177E-01  0.80037111720E-02  0.10207701174E+01  0.10205073504E+01 0.  0.
     999903    2    3    3    0    0 -0.91314257569E-01  0.86431402270E-01  0.24706266881E-01  0.12961038095E+00  0.19487695967E-01 0.  0.
         14    1    1    2    0    0  0.28411625092E-02  0.21546428177E-01 -0.80037111720E-02  0.23159882644E-01  0.00000000000E+00 0. -1.
     999901    1    3    3    0    0  0.88473095059E-01 -0.10797783045E+00 -0.16702555709E-01  0.89115973640E+00  0.88000000000E+00 0. -1.
        -11    1    4    4    0    0 -0.27206657360E-01  0.16302874879E-01  0.11192731456E-01  0.33638137471E-01  0.51100000000E-03 0. -1.
         11    1    4    4    0    0 -0.64107600208E-01  0.70128527391E-01  0.13513535424E-01  0.95972243483E-01  0.51100000000E-03 0.  1.
</event>
<event>
 8    1  0.1148488E+005  0.1043930E+01  0.7957747E-01            NaN
         13   -1    0    0    0    0  0.00000000000E+00  0.00000000000E+00  0.74505805969E-08  0.10566000000E+00  0.10566000000E+00 0.  1.
     999900   -1    0    0    0    0 -0.00000000000E+00 -0.00000000000E+00 -0.74505805969E-08  0.93827000000E+00  0.93827000000E+00 0.  1.
     999902    2    1    2    0    0  0.15581383469E-01  0.21870068611E-02 -0.17603172663E-01  0.10203199556E+01  0.10200467526E+01 0.  0.
     999903    2    3    3    0    0 -0.78921147357E-01 -0.28891287741E-01  0.93964718443E-01  0.12771478919E+00  0.20455929691E-01 0.  0.
         14    1    1    2    0    0 -0.15581383469E-01 -0.21870068611E-02  0.17603172663E-01  0.23610044422E-01  0.00000000000E+00 0.  1.
     999901    1    3    3    0    0  0.94502530826E-01  0.31078294602E-01 -0.11156789111E+00  0.89260516638E+00  0.88000000000E+00 0.  1.
        -11    1    4    4    0    0 -0.36848271938E-01 -0.83491040616E-02  0.28983276455E-01  0.47621361997E-01  0.51100000000E-03 0. -1.
         11    1    4    4    0    0 -0.42072875419E-01 -0.20542183679E-01  0.64981441988E-01  0.80093427197E-01  0.51100000000E-03 0.  1.
</event>
<event>
 8    1  0.1148488E+005  0.1043930E+01  0.7957747E-01            NaN
         13   -1    0    0    0    0  0.00000000000E+00  0.00000000000E+00  0.74505805969E-08  0.10566000000E+00  0.10566000000E+00 0. -1.
     999900   -1    0    0    0    0 -0.00000000000E+00 -0.00000000000E+00 -0.74505805969E-08  0.93827000000E+00  0.93827000000E+00 0.  1.
     999902    2    1    2    0    0  0.15594365367E-01 -0.11545548778E-01 -0.76297180534E-02  0.10230806229E+01  0.10228681559E+01 0.  0.
     999903    2    3    3    0    0  0.24214032985E-01 -0.11763190502E+00 -0.58814378170E-01  0.13519071808E+00  0.19844765168E-01 0.  0.
         14    1    1    2    0    0 -0.15594365367E-01  0.11545548778E-01  0.76297180534E-02  0.20849377098E-01  0.00000000000E+00 0. -1.
     999901    1    3    3    0    0 -0.86196676172E-02  0.10608635624E+00  0.51184660117E-01  0.88788990482E+00  0.88000000000E+00 0.  1.
        -11    1    4    4    0    0  0.14595663345E-01 -0.86748075161E-01 -0.33573111022E-01  0.94157723195E-01  0.51100000000E-03 0.  1.
         11    1    4    4    0    0  0.96183696392E-02 -0.30883829856E-01 -0.25241267149E-01  0.41032994887E-01  0.51100000000E-03 0. -1.
</event>
<event>
 8    1  0.1328440E+005  0.1043930E+01  0.7957747E-01            NaN
         13   -1    0    0    0    0  0.00000000000E+00  0.00000000000E+00  0.74505805969E-08  0.10566000000E+00  0.10566000000E+00 0.  1.
     999900   -1    0    0    0    0 -0.00000000000E+00 -0.00000000000E+00 -0.74505805969E-08  0.93827000000E+00  0.93827000000E+00 0.  1.
     999902    2    1    2    0    0  0.16125130612E-01 -0.22749583280E-01 -0.15312537838E-02  0.10160031650E+01  0.10156192806E+01 0.  0.
     999903    2    3    3    0    0  0.20604300400E-01  0.12050354421E+00  0.10502775928E-01  0.12432702456E+00  0.20031459607E-01 0.  0.
         14    1    1    2    0    0 -0.16125130612E-01  0.22749583280E-01  0.15312537838E-02  0.27926835030E-01  0.00000000000E+00 0. -1.
     999901    1    3    3    0    0 -0.44791697876E-02 -0.14325312748E+00 -0.12034029712E-01  0.89167614040E+00  0.88000000000E+00 0.  1.
        -11    1    4    4    0    0  0.56644665848E-02  0.57541733817E-01  0.14095264746E-01  0.59515333500E-01  0.51100000000E-03 0.  1.
         11    1    4    4    0    0  0.14939833815E-01  0.62961810388E-01 -0.35924888184E-02  0.64811691065E-01  0.51100000000E-03 0. -1.
</event>
<event>
 8    1  0.1148488E+005  0.1043930E+01  0.7957747E-01            NaN
         13   -1    0    0    0    0  0.00000000000E+00  0.00000000000E+00  0.74505805969E-08  0.10566000000E+00  0.10566000000E+00 0.  1.
     999900   -1    0    0    0    0 -0.00000000000E+00 -0.00000000000E+00 -0.74505805969E-08  0.93827000000E+00  0.93827000000E+00 0.  1.
     999902    2    1    2    0    0  0.15776204666E-01 -0.15723144683E-01  0.31021820241E-02  0.10214415708E+01  0.10211939841E+01 0.  0.
     999903    2    3    3    0    0 -0.11106503597E+00 -0.10426188793E-01 -0.63642354667E-01  0.12982977682E+00  0.19007209541E-01 0.  0.
         14    1    1    2    0    0 -0.15776204666E-01  0.15723144683E-01 -0.31021820241E-02  0.22488429151E-01  0.00000000000E+00 0. -1.
     999901    1    3    3    0    0  0.12684124064E+00 -0.52969558908E-02  0.66744536691E-01  0.89161179403E+00  0.88000000000E+00 0. -1.
        -11    1    4    4    0    0 -0.67048297559E-01 -0.13697418382E-01 -0.32179392382E-01  0.75623196778E-01  0.51100000000E-03 0.  1.
         11    1    4    4    0    0 -0.44016738412E-01  0.32712295894E-02 -0.31462962286E-01  0.54206580045E-01  0.51100000000E-03 0. -1.
</event>
<event>
 8    1  0.1148488E+005  0.1043930E+01  0.7957747E-01            NaN
         13   -1    0    0    0    0  0.00000000000E+00  0.00000000000E+00  0.74505805969E-08  0.10566000000E+00  0.10566000000E+00 0.  1.
     999900   -1    0    0    0    0 -0.00000000000E+00 -0.00000000000E+00 -0.74505805969E-08  0.93827000000E+00  0.93827000000E+00 0. -1.
     999902    2    1    2    0    0 -0.17058629815E-01  0.15350734816E-01 -0.69780885132E-02  0.10199438450E+01  0.10196617632E+01 0.  0.
     999903    2    3    3    0    0  0.10275742822E+00  0.68038439505E-01  0.33753448211E-01  0.12933116824E+00  0.19973420005E-01 0.  0.
         14    1    1    2    0    0  0.17058629815E-01 -0.15350734816E-01  0.69780885132E-02  0.23986154962E-01  0.00000000000E+00 0. -1.
     999901    1    3    3    0    0 -0.11981605804E+00 -0.52687704690E-01 -0.40731536724E-01  0.89061267680E+00  0.88000000000E+00 0.  1.
        -11    1    4    4    0    0  0.21227208297E-01  0.24490992048E-01  0.91007399970E-02  0.33667308373E-01  0.51100000000E-03 0. -1.
         11    1    4    4    0    0  0.81530219927E-01  0.43547447457E-01  0.24652708214E-01  0.95663859868E-01  0.51100000000E-03 0.  1.
</event>
<event>
 8    1  0.1148488E+005  0.1043930E+01  0.7957747E-01            NaN
         13   -1    0    0    0    0  0.00000000000E+00  0.00000000000E+00  0.74505805969E-08  0.10566000000E+00  0.10566000000E+00 0. -1.
     999900   -1    0    0    0    0 -0.00000000000E+00 -0.00000000000E+00 -0.74505805969E-08  0.93827000000E+00  0.93827000000E+00 0. -1.
     999902    2    1    2    0    0  0.20472818332E-01 -0.12542844132E-01  0.24872032894E-02  0.10197919510E+01  0.10195062422E+01 0.  0.
     999903    2    3    3    0    0 -0.11230077483E+00 -0.35646975293E-01  0.47033695248E-01  0.12841828196E+00  0.19922745202E-01 0.  0.
         14    1    1    2    0    0 -0.20472818332E-01  0.12542844132E-01 -0.24872032894E-02  0.24138049001E-01  0.00000000000E+00 0.  1.
     999901    1    3    3    0    0  0.13277359316E+00  0.23104131161E-01 -0.44546491958E-01  0.89137366904E+00  0.88000000000E+00 0.  1.
        -11    1    4    4    0    0 -0.32523803303E-01 -0.15592498302E-01  0.62748414344E-02  0.36613638724E-01  0.51100000000E-03 0.  1.
         11    1    4    4    0    0 -0.79776971529E-01 -0.20054476991E-01  0.40758853813E-01  0.91804643232E-01  0.51100000000E-03 0. -1.
</event>
<event>
 8    1  0.1148488E+005  0.1043930E+01  0.7957747E-01            NaN
         13   -1    0    0    0    0  0.00000000000E+00  0.00000000000E+00  0.74505805969E-08  0.10566000000E+00  0.10566000000E+00 0. -1.
     999900   -1    0    0    0    0 -0.00000000000E+00 -0.00000000000E+00 -0.74505805969E-08  0.93827000000E+00  0.93827000000E+00 0.  1.
     999902    2    1    2    0    0 -0.74583627418E-02  0.15252680913E-01  0.11195706607E-01  0.10235924658E+01  0.10233904049E+01 0.  0.
     999903    2    3    3    0    0  0.10718099065E+00  0.28205516289E-01 -0.69741532204E-01  0.13237936341E+00  0.19419027706E-01 0.  0.
         14    1    1    2    0    0  0.74583627418E-02 -0.15252680913E-01 -0.11195706607E-01  0.20337534173E-01  0.00000000000E+00 0.  1.
     999901    1    3    3    0    0 -0.11463935339E+00 -0.12952835376E-01  0.80937238810E-01  0.89121310242E+00  0.88000000000E+00 0. -1.
        -11    1    4    4    0    0  0.20745784244E-01  0.30023543817E-02 -0.22297435477E-01  0.30607816740E-01  0.51100000000E-03 0.  1.
         11    1    4    4    0    0  0.86435206407E-01  0.25203161907E-01 -0.47444096727E-01  0.10177154667E+00  0.51100000000E-03 0. -1.
</event>
<event>
 8    1  0.1148488E+005  0.1043930E+01  0.7957747E-01            NaN
         13   -1    0    0    0    0  0.00000000000E+00  0.00000000000E+00  0.74505805969E-08  0.10566000000E+00  0.10566000000E+00 0.  1.
     999900   -1    0    0    0    0 -0.00000000000E+00 -0.00000000000E+00 -0.74505805969E-08  0.93827000000E+00  0.93827000000E+00 0.  1.
     999902    2    1    2    0    0  0.10887397083E-01 -0.98140998145E-02  0.18110522728E-01  0.10206310085E+01  0.10203650389E+01 0.  0.
     999903    2    3    3    0    0  0.86851580576E-01  0.24246255916E-01  0.96202095009E-01  0.13325906922E+00  0.19288817214E-01 0.  0.
         14    1    1    2    0    0 -0.10887397083E-01  0.98140998145E-02 -0.18110522728E-01  0.23298991478E-01  0.00000000000E+00 0. -1.
     999901    1    3    3    0    0 -0.75964183493E-01 -0.34060355731E-01 -0.78091572281E-01  0.88737193931E+00  0.88000000000E+00 0.  1.
        -11    1    4    4    0    0  0.31535123592E-01  0.68075924209E-02  0.21889018856E-01  0.38989711489E-01  0.51100000000E-03 0.  1.
         11    1    4    4    0    0  0.55316456984E-01  0.17438663495E-01  0.74313076154E-01  0.94269357727E-01  0.51100000000E-03 0. -1.
</event>
<event>
 8    1  0.1148488E+005  0.1043930E+01  0.7957747E-01            NaN
         13   -1    0    0    0    0  0.00000000000E+00  0.00000000000E+00  0.74505805969E-08  0.10566000000E+00  0.10566000000E+00 0.  1.
     999900   -1    0    0    0    0 -0.00000000000E+00 -0.00000000000E+00 -0.74505805969E-08  0.93827000000E+00  0.93827000000E+00 0.  1.
     999902    2    1    2    0    0 -0.98465612363E-03 -0.21945214549E-01  0.75952512948E-02  0.10206867250E+01  0.10204220405E+01 0.  0.
     999903    2    3    3    0    0 -0.37733836697E-01 -0.12697078214E+00  0.24023794483E-02  0.13366483238E+00  0.17750888351E-01 0.  0.
         14    1    1    2    0    0  0.98465612363E-03  0.21945214549E-01 -0.75952512948E-02  0.23243274974E-01  0.00000000000E+00 0. -1.
     999901    1    3    3    0    0  0.36749180574E-01  0.10502556759E+00  0.51928718465E-02  0.88702189265E+00  0.88000000000E+00 0.  1.
        -11    1    4    4    0    0 -0.10414836763E-01 -0.16420981299E-01  0.35989567076E-02  0.19782089425E-01  0.51100000000E-03 0.  1.
         11    1    4    4    0    0 -0.27318999935E-01 -0.11054980084E+00 -0.11965772593E-02  0.11388274295E+00  0.51100000000E-03 0. -1.
</event>
<event>
 8    1  0.1148488E+005  0.1043930E+01  0.7957747E-01            NaN
         13   -1    0    0    0    0  0.00000000000E+00  0.00000000000E+00  0.74505805969E-08  0.10566000000E+00  0.10566000000E+00 0.  1.
     999900   -1    0    0    0    0 -0.00000000000E+00 -0.00000000000E+00 -0.74505805969E-08  0.93827000000E+00  0.93827000000E+00 0. -1.
     999902    2    1    2    0    0 -0.87705060182E-02 -0.57236122992E-02 -0.20456460392E-01  0.10209485230E+01  0.10206898345E+01 0.  0.
     999903    2    3    3    0    0  0.10010961238E+00 -0.45890296142E-01 -0.69791178570E-01  0.13195912087E+00  0.20360432330E-01 0.  0.
         14    1    1    2    0    0  0.87705060182E-02  0.57236122992E-02  0.20456460392E-01  0.22981477005E-01  0.00000000000E+00 0. -1.
     999901    1    3    3    0    0 -0.10888011839E+00  0.40166683843E-01  0.49334718178E-01  0.88898940212E+00  0.88000000000E+00 0.  1.
        -11    1    4    4    0    0  0.86895402145E-01 -0.35778481962E-01 -0.51248349989E-01  0.10704001674E+00  0.51100000000E-03 0.  1.
         11    1    4    4    0    0  0.13214210231E-01 -0.10111814180E-01 -0.18542828581E-01  0.24919104134E-01  0.51100000000E-03 0. -1.
</event>
<event>
 7    1  0.1148488E+005  0.1043930E+01  0.7957747E-01            NaN
         13   -1    0    0    0    0  0.00000000000E+00  0.00000000000E+00  0.74505805969E-08  0.10566000000E+00  0.10566000000E+00 0. -1.
     999900   -1    0    0    0    0 -0.00000000000E+00 -0.00000000000E+00 -0.74505805969E-08  0.93827000000E+00  0.93827000000E+00 0.  1.
     999903    2    1    2    0    0 -0.56485053517E-02  0.11252740238E-01 -0.10734631656E+00  0.10996941725E+00  0.20285740672E-01 0.  0.
         14    1    1    2    0    0  0.25002486752E-01 -0.32333706485E-01  0.28796774555E-01  0.49998471413E-01  0.00000000000E+00 0.  1.
     999901    1    1    2    0    0 -0.19353981401E-01  0.21080966247E-01  0.78549542008E-01  0.88396211134E+00  0.88000000000E+00 0. -1.
        -11    1    3    3    0    0  0.20211974928E-02 -0.39255005518E-02 -0.48774749879E-01  0.48976853111E-01  0.51100000000E-03 0. -1.
         11    1    3    3    0    0 -0.76697028445E-02  0.15178240789E-01 -0.58571566684E-01  0.60992564137E-01  0.51100000000E-03 0.  1.
</event>
<event>
 8    1  0.1148488E+005  0.1043930E+01  0.7957747E-01            NaN
         13   -1    0    0    0    0  0.00000000000E+00  0.00000000000E+00  0.74505805969E-08  0.10566000000E+00  0.10566000000E+00 0.  1.
     999900   -1    0    0    0    0 -0.00000000000E+00 -0.00000000000E+00 -0.74505805969E-08  0.93827000000E+00  0.93827000000E+00 0.  1.
     999902    2    1    2    0    0 -0.93841768095E-02  0.20889418938E-01 -0.24974383295E-02  0.10208937721E+01  0.10206338355E+01 0.  0.
     999903    2    3    3    0    0  0.96867842317E-02  0.10590138664E+00 -0.77764471118E-01  0.13339399044E+00  0.20921430090E-01 0.  0.
         14    1    1    2    0    0  0.93841768095E-02 -0.20889418938E-01  0.24974383295E-02  0.23036227907E-01  0.00000000000E+00 0. -1.
     999901    1    3    3    0    0 -0.19070961041E-01 -0.85011967700E-01  0.75267032789E-01  0.88749978165E+00  0.88000000000E+00 0. -1.
        -11    1    4    4    0    0  0.66499154072E-02  0.88001541320E-02 -0.10441600105E-01  0.15197112273E-01  0.51100000000E-03 0. -1.
         11    1    4    4    0    0  0.30368688245E-02  0.97101232506E-01 -0.67322871013E-01  0.11819687817E+00  0.51100000000E-03 0.  1.
</event>
<event>
 8    1  0.1148488E+005  0.1043930E+01  0.7957747E-01            NaN
         13   -1    0    0    0    0  0.00000000000E+00  0.00000000000E+00  0.74505805969E-08  0.10566000000E+00  0.10566000000E+00 0.  1.
     999900   -1    0    0    0    0 -0.00000000000E+00 -0.00000000000E+00 -0.74505805969E-08  0.93827000000E+00  0.93827000000E+00 0.  1.
     999902    2    1    2    0    0  0.19512079140E-01 -0.10577630029E-01 -0.15833664249E-01  0.10166662436E+01  0.10163006142E+01 0.  0.
     999903    2    3    3    0    0 -0.85687438121E-01 -0.49866630089E-01 -0.77429491969E-01  0.12739428860E+00  0.20123635193E-01 0.  0.
         14    1    1    2    0    0 -0.19512079140E-01  0.10577630029E-01  0.15833664249E-01  0.27263756399E-01  0.00000000000E+00 0.  1.
     999901    1    3    3    0    0  0.10519951726E+00  0.39289000061E-01  0.61595827720E-01  0.88927195500E+00  0.88000000000E+00 0. -1.
        -11    1    4    4    0    0 -0.81490134989E-01 -0.46778502213E-01 -0.78010736497E-01  0.12212619088E+00  0.51100000000E-03 0.  1.
         11    1    4    4    0    0 -0.41973031322E-02 -0.30881278766E-02  0.58124452808E-03  0.52680977181E-02  0.51100000000E-03 0. -1.
</event>
<event>
 8    1  0.1148488E+005  0.1043930E+01  0.7957747E-01            NaN
         13   -1    0    0    0    0  0.00000000000E+00  0.00000000000E+00  0.74505805969E-08  0.10566000000E+00  0.10566000000E+00 0. -1.
     999900   -1    0    0    0    0 -0.00000000000E+00 -0.00000000000E+00 -0.74505805969E-08  0.93827000000E+00  0.93827000000E+00 0. -1.
     999902    2    1    2    0    0 -0.23690895857E-01 -0.53935093380E-02  0.24529024905E-02  0.10195094099E+01  0.10192168914E+01 0.  0.
     999903    2    3    3    0    0  0.58931914987E-01 -0.59053568050E-01 -0.95749656368E-01  0.12858310918E+00  0.20132679123E-01 0.  0.
         14    1    1    2    0    0  0.23690895857E-01  0.53935093380E-02 -0.24529024905E-02  0.24420590085E-01  0.00000000000E+00 0. -1.
     999901    1    3    3    0    0 -0.82622810844E-01  0.53660058712E-01  0.98202558858E-01  0.89092630073E+00  0.88000000000E+00 0. -1.
        -11    1    4    4    0    0  0.28651168525E-01 -0.36140886935E-01 -0.39562946268E-01  0.60766281808E-01  0.51100000000E-03 0.  1.
         11    1    4    4    0    0  0.30280746461E-01 -0.22912681115E-01 -0.56186710100E-01  0.67816827373E-01  0.51100000000E-03 0. -1.
</event>
<event>
 8    1  0.1148488E+005  0.1043930E+01  0.7957747E-01            NaN
         13   -1    0    0    0    0  0.00000000000E+00  0.00000000000E+00  0.74505805969E-08  0.10566000000E+00  0.10566000000E+00 0.  1.
     999900   -1    0    0    0    0 -0.00000000000E+00 -0.00000000000E+00 -0.74505805969E-08  0.93827000000E+00  0.93827000000E+00 0. -1.
     999902    2    1    2    0    0 -0.18803139283E-01 -0.17341161036E-01 -0.20438768789E-01  0.10111883265E+01  0.10106581096E+01 0.  0.
     999903    2    3    3    0    0 -0.48010530466E-02 -0.12167246834E+00 -0.18176419321E-01  0.12491173406E+00  0.21102592857E-01 0.  0.
         14    1    1    2    0    0  0.18803139283E-01  0.17341161036E-01  0.20438768789E-01  0.32741673485E-01  0.00000000000E+00 0.  1.
     999901    1    3    3    0    0 -0.14002086236E-01  0.10433130730E+00 -0.22623494680E-02  0.88627659245E+00  0.88000000000E+00 0. -1.
        -11    1    4    4    0    0  0.80258312370E-02 -0.60537016373E-01 -0.10664435254E-01  0.61993028791E-01  0.51100000000E-03 0.  1.
         11    1    4    4    0    0 -0.12826884284E-01 -0.61135451967E-01 -0.75119840671E-02  0.62918705273E-01  0.51100000000E-03 0. -1.
</event>
<event>
 8    1  0.1148488E+005  0.1043930E+01  0.7957747E-01            NaN
         13   -1    0    0    0    0  0.00000000000E+00  0.00000000000E+00  0.74505805969E-08  0.10566000000E+00  0.10566000000E+00 0. -1.
     999900   -1    0    0    0    0 -0.00000000000E+00 -0.00000000000E+00 -0.74505805969E-08  0.93827000000E+00  0.93827000000E+00 0. -1.
     999902    2    1    2    0    0  0.20075717898E-01  0.79771729725E-02  0.13679403361E-01  0.10183605688E+01  0.10180395141E+01 0.  0.
     999903    2    3    3    0    0 -0.80555063390E-01  0.74852657196E-01 -0.59006616767E-01  0.12713548941E+00  0.24281954590E-01 0.  0.
         14    1    1    2    0    0 -0.20075717898E-01 -0.79771729725E-02 -0.13679403361E-01  0.25569431242E-01  0.00000000000E+00 0. -1.
     999901    1    3    3    0    0  0.10063078129E+00 -0.66875484223E-01  0.72686020128E-01  0.89122507935E+00  0.88000000000E+00 0.  1.
        -11    1    4    4    0    0 -0.45281727006E-02  0.15815912722E-04 -0.72473349973E-02  0.85609335772E-02  0.51100000000E-03 0. -1.
         11    1    4    4    0    0 -0.76026890690E-01  0.74836841283E-01 -0.51759281770E-01  0.11857455583E+00  0.51100000000E-03 0.  1.
</event>
<event>
 8    1  0.1148488E+005  0.1043930E+01  0.7957747E-01            NaN
         13   -1    0    0    0    0  0.00000000000E+00  0.00000000000E+00  0.74505805969E-08  0.10566000000E+00  0.10566000000E+00 0. -1.
     999900   -1    0    0    0    0 -0.00000000000E+00 -0.00000000000E+00 -0.74505805969E-08  0.93827000000E+00  0.93827000000E+00 0. -1.
     999902    2    1    2    0    0 -0.16920181723E-01 -0.10977283141E-01 -0.10968817969E-01  0.10209711616E+01  0.10207129883E+01 0.  0.
     999903    2    3    3    0    0  0.60007012504E-02  0.12534768117E+00  0.24568543800E-01  0.12947087169E+00  0.20274212174E-01 0.  0.
         14    1    1    2    0    0  0.16920181723E-01  0.10977283141E-01  0.10968817969E-01  0.22958838436E-01  0.00000000000E+00 0.  1.
     999901    1    3    3    0    0 -0.22920882974E-01 -0.13632496432E+00 -0.35537361769E-01  0.89150028988E+00  0.88000000000E+00 0.  1.
        -11    1    4    4    0    0 -0.72172282798E-02  0.37483791230E-01  0.96077074723E-02  0.39366129514E-01  0.51100000000E-03 0.  1.
         11    1    4    4    0    0  0.13217929530E-01  0.87863889944E-01  0.14960836328E-01  0.90104742171E-01  0.51100000000E-03 0. -1.
</event>
<event>
 8    1  0.1148488E+005  0.1043930E+01  0.7957747E-01            NaN
         13   -1    0    0    0    0  0.00000000000E+00  0.00000000000E+00  0.74505805969E-08  0.10566000000E+00  0.10566000000E+00 0.  1.
     999900   -1    0    0    0    0 -0.00000000000E+00 -0.00000000000E+00 -0.74505805969E-08  0.93827000000E+00  0.93827000000E+00 0.  1.
     999902    2    1    2    0    0 -0.41108558783E-02  0.19546265962E-01 -0.20578562995E-01  0.10152519090E+01  0.10148467893E+01 0.  0.
     999903    2    3    3    0    0 -0.31287589376E-01  0.59489670928E-01 -0.10903704954E+00  0.12949858312E+00  0.19049164369E-01 0.  0.
         14    1    1    2    0    0  0.41108558783E-02 -0.19546265962E-01  0.20578562995E-01  0.28678091011E-01  0.00000000000E+00 0.  1.
     999901    1    3    3    0    0  0.27176733498E-01 -0.39943404967E-01  0.88458486540E-01  0.88575332587E+00  0.88000000000E+00 0. -1.
        -11    1    4    4    0    0 -0.31771790495E-01  0.60349614634E-01 -0.10420964758E+00  0.12454490928E+00  0.51100000000E-03 0. -1.
         11    1    4    4    0    0  0.48420111874E-03 -0.85994370547E-03 -0.48274019559E-02  0.49536738431E-02  0.51100000000E-03 0.  1.
</event>
<event>
 8    1  0.1148488E+005  0.1043930E+01  0.7957747E-01            NaN
         13   -1    0    0    0    0  0.00000000000E+00  0.00000000000E+00  0.74505805969E-08  0.10566000000E+00  0.10566000000E+00 0.  1.
     999900   -1    0    0    0    0 -0.00000000000E+00 -0.00000000000E+00 -0.74505805969E-08  0.93827000000E+00  0.93827000000E+00 0. -1.
     999902    2    1    2    0    0 -0.11477449963E-01  0.21953504574E-01 -0.14046170424E-03  0.10191568704E+01  0.10188557398E+01 0.  0.
     999903    2    3    3    0    0 -0.54135009185E-01  0.11508377020E+00 -0.30918428304E-01  0.13268058929E+00  0.21755831037E-01 0.  0.
         14    1    1    2    0    0  0.11477449963E-01 -0.21953504574E-01  0.14046170424E-03  0.24773129601E-01  0.00000000000E+00 0. -1.
     999901    1    3    3    0    0  0.42657559222E-01 -0.93130265625E-01  0.30777966599E-01  0.88647628111E+00  0.88000000000E+00 0. -1.
        -11    1    4    4    0    0 -0.22570517481E-01  0.27227445770E-01 -0.12581877176E-01  0.37541001809E-01  0.51100000000E-03 0. -1.
         11    1    4    4    0    0 -0.31564491703E-01  0.87856324429E-01 -0.18336551128E-01  0.95139587486E-01  0.51100000000E-03 0.  1.
</event>
<event>
 8    1  0.1148488E+005  0.1043930E+01  0.7957747E-01            NaN
         13   -1    0    0    0    0  0.00000000000E+00  0.00000000000E+00  0.74505805969E-08  0.10566000000E+00  0.10566000000E+00 0.  1.
     999900   -1    0    0    0    0 -0.00000000000E+00 -0.00000000000E+00 -0.74505805969E-08  0.93827000000E+00  0.93827000000E+00 0. -1.
     999902    2    1    2    0    0 -0.21539358026E-02 -0.13355934560E-02  0.23450135038E-01  0.10203433071E+01  0.10200706506E+01 0.  0.
     999903    2    3    3    0    0  0.97759438124E-01 -0.59347038936E-01  0.62700667643E-01  0.13192414115E+00  0.19840023235E-01 0.  0.
         14    1    1    2    0    0  0.21539358026E-02  0.13355934560E-02 -0.23450135038E-01  0.23586692914E-01  0.00000000000E+00 0. -1.
     999901    1    3    3    0    0 -0.99913373926E-01  0.58011445480E-01 -0.39250532605E-01  0.88841916594E+00  0.88000000000E+00 0. -1.
        -11    1    4    4    0    0  0.66066281913E-01 -0.29130669094E-01  0.41305166055E-01  0.83184898578E-01  0.51100000000E-03 0. -1.
         11    1    4    4    0    0  0.31693156211E-01 -0.30216369842E-01  0.21395501588E-01  0.48739242570E-01  0.51100000000E-03 0.  1.
</event>
<event>
 8    1  0.1148488E+005  0.1043930E+01  0.7957747E-01            NaN
         13   -1    0    0    0    0  0.00000000000E+00  0.00000000000E+00  0.74505805969E-08  0.10566000000E+00  0.10566000000E+00 0. -1.
     999900   -1    0    0    0    0 -0.00000000000E+00 -0.00000000000E+00 -0.74505805969E-08  0.93827000000E+00  0.93827000000E+00 0. -1.
     999902    2    1    2    0    0  0.19215547979E-01  0.13856939159E-01  0.26991484448E-02  0.10200859767E+01  0.10198072672E+01 0.  0.
     999903    2    3    3    0    0  0.99982676615E-01 -0.61642304194E-01  0.56607520801E-01  0.13153120770E+00  0.17312940223E-01 0.  0.
         14    1    1    2    0    0 -0.19215547979E-01 -0.13856939159E-01 -0.26991484448E-02  0.23844023346E-01  0.00000000000E+00 0. -1.
     999901    1    3    3    0    0 -0.80767128635E-01  0.75499243353E-01 -0.53908372356E-01  0.88855476895E+00  0.88000000000E+00 0. -1.
        -11    1    4    4    0    0  0.29125410271E-01 -0.27458309200E-01  0.20281399775E-01  0.44875879550E-01  0.51100000000E-03 0. -1.
         11    1    4    4    0    0  0.70857266344E-01 -0.34183994994E-01  0.36326121026E-01  0.86655328153E-01  0.51100000000E-03 0.  1.
</event>
<event>
 8    1  0.1148488E+005  0.1043930E+01  0.7957747E-01            NaN
         13   -1    0    0    0    0  0.00000000000E+00  0.00000000000E+00  0.74505805969E-08  0.10566000000E+00  0.10566000000E+00 0.  1.
     999900   -1    0    0    0    0 -0.00000000000E+00 -0.00000000000E+00 -0.74505805969E-08  0.93827000000E+00  0.93827000000E+00 0. -1.
     999902    2    1    2    0    0 -0.11530621111E-01 -0.52124934379E-03 -0.19975615640E-01  0.10208594095E+01  0.10205986880E+01 0.  0.
     999903    2    3    3    0    0  0.97000889492E-02  0.11164793619E+00 -0.67153393890E-01  0.13223214685E+00  0.20406101281E-01 0.  0.
         14    1    1    2    0    0  0.11530621111E-01  0.52124934379E-03  0.19975615640E-01  0.23070590462E-01  0.00000000000E+00 0.  1.
     999901    1    3    3    0    0 -0.21230710060E-01 -0.11216918553E+00  0.47177778250E-01  0.88862726269E+00  0.88000000000E+00 0.  1.
        -11    1    4    4    0    0  0.55436607426E-02  0.56689062927E-01 -0.22305379354E-01  0.61173303810E-01  0.51100000000E-03 0. -1.
         11    1    4    4    0    0  0.41564282065E-02  0.54958873259E-01 -0.44848014536E-01  0.71058843040E-01  0.51100000000E-03 0.  1.
</event>
<event>
 8    1  0.1148488E+005  0.1043930E+01  0.7957747E-01            NaN
         13   -1    0    0    0    0  0.00000000000E+00  0.00000000000E+00  0.74505805969E-08  0.10566000000E+00  0.10566000000E+00 0.  1.
     999900   -1    0    0    0    0 -0.00000000000E+00 -0.00000000000E+00 -0.74505805969E-08  0.93827000000E+00  0.93827000000E+00 0.  1.
     999902    2    1    2    0    0 -0.20538560809E-01  0.12624936039E-01 -0.73927964408E-04  0.10198213510E+01  0.10195363461E+01 0.  0.
     999903    2    3    3    0    0  0.69007933856E-01  0.21250691449E-01 -0.10527667464E+00  0.12900116924E+00  0.18559003756E-01 0.  0.
         14    1    1    2    0    0  0.20538560809E-01 -0.12624936039E-01  0.73927964408E-04  0.24108648976E-01  0.00000000000E+00 0.  1.
     999901    1    3    3    0    0 -0.89546494665E-01 -0.86257554101E-02  0.10520274668E+00  0.89082018178E+00  0.88000000000E+00 0. -1.
        -11    1    4    4    0    0  0.12542096943E-01  0.32865019829E-02 -0.33496348683E-01  0.35921745324E-01  0.51100000000E-03 0. -1.
         11    1    4    4    0    0  0.56465836913E-01  0.17964189467E-01 -0.71780325956E-01  0.93079423918E-01  0.51100000000E-03 0.  1.
</event>
<event>
 8    1  0.1148488E+005  0.1043930E+01  0.7957747E-01            NaN
         13   -1    0    0    0    0  0.00000000000E+00  0.00000000000E+00  0.74505805969E-08  0.10566000000E+00  0.10566000000E+00 0. -1.
     999900   -1    0    0    0    0 -0.00000000000E+00 -0.00000000000E+00 -0.74505805969E-08  0.93827000000E+00  0.93827000000E+00 0. -1.
     999902    2    1    2    0    0 -0.17152681770E-02 -0.18655833247E-01  0.17000912334E-01  0.10186315163E+01  0.10183173143E+01 0.  0.
     999903    2    3    3    0    0 -0.79247626497E-01 -0.80906562223E-01 -0.60033589527E-01  0.12968791045E+00  0.19719638160E-01 0.  0.
         14    1    1    2    0    0  0.17152681770E-02  0.18655833247E-01 -0.17000912334E-01  0.25298483734E-01  0.00000000000E+00 0. -1.
     999901    1    3    3    0    0  0.77532358320E-01  0.62250728976E-01  0.77034501861E-01  0.88894360582E+00  0.88000000000E+00 0.  1.
        -11    1    4    4    0    0 -0.55145582702E-01 -0.42907900307E-01 -0.34125579260E-01  0.77762069681E-01  0.51100000000E-03 0.  1.
         11    1    4    4    0    0 -0.24102043796E-01 -0.37998661916E-01 -0.25908010267E-01  0.51925840769E-01  0.51100000000E-03 0. -1.
</event>
<event>
 8    1  0.1148488E+005  0.1043930E+01  0.7957747E-01            NaN
         13   -1    0    0    0    0  0.00000000000E+00  0.00000000000E+00  0.74505805969E-08  0.10566000000E+00  0.10566000000E+00 0. -1.
     999900   -1    0    0    0    0 -0.00000000000E+00 -0.00000000000E+00 -0.74505805969E-08  0.93827000000E+00  0.93827000000E+00 0. -1.
     999902    2    1    2    0    0  0.91996037821E-02 -0.42339134824E-02 -0.22812824709E-01  0.10189703585E+01  0.10186646199E+01 0.  0.
     999903    2    3    3    0    0  0.11496859731E+00  0.46041290144E-01  0.33967332635E-01  0.12939817909E+00  0.15891201986E-01 0.  0.
         14    1    1    2    0    0 -0.91996037821E-02  0.42339134824E-02  0.22812824709E-01  0.24959641510E-01  0.00000000000E+00 0. -1.
     999901    1    3    3    0    0 -0.10576899353E+00 -0.50275203626E-01 -0.56780157343E-01  0.88957217940E+00  0.88000000000E+00 0. -1.
        -11    1    4    4    0    0  0.46747202833E-01  0.26673569885E-01  0.11886487101E-01  0.55121048608E-01  0.51100000000E-03 0. -1.
         11    1    4    4    0    0  0.68221394477E-01  0.19367720259E-01  0.22080845534E-01  0.74277130483E-01  0.51100000000E-03 0.  1.
</event>
<event>
 7    1  0.1148488E+005  0.1043930E+01  0.7957747E-01            NaN
         13   -1    0    0    0    0  0.00000000000E+00  0.00000000000E+00  0.74505805969E-08  0.10566000000E+00  0.10566000000E+00 0.  1.
     999900   -1    0    0    0    0 -0.00000000000E+00 -0.00000000000E+00 -0.74505805969E-08  0.93827000000E+00  0.93827000000E+00 0.  1.
     999903    2    1    2    0    0  0.14426087649E-01 -0.25531428913E-02 -0.11633209977E+00  0.11893194333E+00  0.19925339778E-01 0.  0.
         14    1    1    2    0    0 -0.13616866927E-01 -0.29028447327E-01  0.23081715837E-01  0.39507409750E-01  0.00000000000E+00 0. -1.
     999901    1    1    2    0    0 -0.80922072161E-03  0.31581590218E-01  0.93250383928E-01  0.88549064692E+00  0.88000000000E+00 0. -1.
        -11    1    3    3    0    0 -0.40328720307E-02  0.23909768195E-02 -0.12612812669E-01  0.13465696840E-01  0.51100000000E-03 0. -1.
         11    1    3    3    0    0  0.18458959680E-01 -0.49441197108E-02 -0.10371928710E+00  0.10546624649E+00  0.51100000000E-03 0.  1.
</event>
<event>
 8    1  0.1148488E+005  0.1043930E+01  0.7957747E-01            NaN
         13   -1    0    0    0    0  0.00000000000E+00  0.00000000000E+00  0.74505805969E-08  0.10566000000E+00  0.10566000000E+00 0. -1.
     999900   -1    0    0    0    0 -0.00000000000E+00 -0.00000000000E+00 -0.74505805969E-08  0.93827000000E+00  0.93827000000E+00 0.  1.
     999902    2    1    2    0    0 -0.11338908932E-01  0.91652998458E-02 -0.18994611170E-01  0.10199848788E+01  0.10197037727E+01 0.  0.
     999903    2    3    3    0    0  0.97137135039E-01  0.39669704292E-01  0.70836967858E-01  0.12826335083E+00  0.20598609392E-01 0.  0.
         14    1    1    2    0    0  0.11338908932E-01 -0.91652998458E-02  0.18994611170E-01  0.23945121226E-01  0.00000000000E+00 0. -1.
     999901    1    3    3    0    0 -0.10847604397E+00 -0.30504404446E-01 -0.89831579028E-01  0.89172152794E+00  0.88000000000E+00 0. -1.
        -11    1    4    4    0    0  0.54300384438E-01  0.24777035758E-01  0.51963680054E-01  0.79138602571E-01  0.51100000000E-03 0.  1.
         11    1    4    4    0    0  0.42836750601E-01  0.14892668533E-01  0.18873287804E-01  0.49124748260E-01  0.51100000000E-03 0. -1.
</event>
<event>
 8    1  0.1148488E+005  0.1043930E+01  0.7957747E-01            NaN
         13   -1    0    0    0    0  0.00000000000E+00  0.00000000000E+00  0.74505805969E-08  0.10566000000E+00  0.10566000000E+00 0. -1.
     999900   -1    0    0    0    0 -0.00000000000E+00 -0.00000000000E+00 -0.74505805969E-08  0.93827000000E+00  0.93827000000E+00 0. -1.
     999902    2    1    2    0    0  0.29242448169E-02  0.17721965163E-01  0.23668072547E-01  0.10142181015E+01  0.10137827975E+01 0.  0.
     999903    2    3    3    0    0 -0.74128284542E-01 -0.75120933803E-01 -0.58398133151E-01  0.12220254201E+00  0.19620449907E-01 0.  0.
         14    1    1    2    0    0 -0.29242448169E-02 -0.17721965163E-01 -0.23668072547E-01  0.29711898544E-01  0.00000000000E+00 0.  1.
     999901    1    3    3    0    0  0.77052529359E-01  0.92842898966E-01  0.82066205698E-01  0.89201555944E+00  0.88000000000E+00 0.  1.
        -11    1    4    4    0    0 -0.15412494797E-01 -0.64457941424E-02 -0.60302003110E-02  0.17768446606E-01  0.51100000000E-03 0.  1.
         11    1    4    4    0    0 -0.58715789745E-01 -0.68675139661E-01 -0.52367932840E-01  0.10443409541E+00  0.51100000000E-03 0. -1.
</event>
<event>
 8    1  0.1148488E+005  0.1043930E+01  0.7957747E-01            NaN
         13   -1    0    0    0    0  0.00000000000E+00  0.00000000000E+00  0.74505805969E-08  0.10566000000E+00  0.10566000000E+00 0.  1.
     999900   -1    0    0    0    0 -0.00000000000E+00 -0.00000000000E+00 -0.74505805969E-08  0.93827000000E+00  0.93827000000E+00 0. -1.
     999902    2    1    2    0    0 -0.14350350891E-01  0.14958592836E-01 -0.12271885311E-01  0.10198407651E+01  0.10195562245E+01 0.  0.
     999903    2    3    3    0    0 -0.12561952497E+00 -0.25972957176E-02  0.33287785123E-01  0.13149132825E+00  0.19871632271E-01 0.  0.
         14    1    1    2    0    0  0.14350350891E-01 -0.14958592836E-01  0.12271885311E-01  0.24089234928E-01  0.00000000000E+00 0.  1.
     999901    1    3    3    0    0  0.11126917408E+00  0.17555888554E-01 -0.45559670434E-01  0.88834943682E+00  0.88000000000E+00 0. -1.
        -11    1    4    4    0    0 -0.56393748317E-01 -0.65132312444E-02  0.64331913720E-02  0.57134263824E-01  0.51100000000E-03 0.  1.
         11    1    4    4    0    0 -0.69225776653E-01  0.39159355268E-02  0.26854593751E-01  0.74357064431E-01  0.51100000000E-03 0. -1.
</event>
<event>
 8    1  0.1148488E+005  0.1043930E+01  0.7957747E-01            NaN
         13   -1    0    0    0    0  0.00000000000E+00  0.00000000000E+00  0.74505805969E-08  0.10566000000E+00  0.10566000000E+00 0.  1.
     999900   -1    0    0    0    0 -0.00000000000E+00 -0.00000000000E+00 -0.74505805969E-08  0.93827000000E+00  0.93827000000E+00 0.  1.
     999902    2    1    2    0    0  0.36690926288E-02 -0.13561065232E-01  0.19117007370E-01  0.10202060732E+01  0.10199301972E+01 0.  0.
     999903    2    3    3    0    0  0.78848144974E-01  0.74376134946E-01 -0.66709341320E-01  0.12849367384E+00  0.17653571362E-01 0.  0.
         14    1    1    2    0    0 -0.36690926288E-02  0.13561065232E-01 -0.19117007370E-01  0.23723926777E-01  0.00000000000E+00 0. -1.
     999901    1    3    3    0    0 -0.75179052345E-01 -0.87937200178E-01  0.85826348690E-01  0.89171239938E+00  0.88000000000E+00 0.  1.
        -11    1    4    4    0    0  0.43364015918E-01  0.44721228229E-01 -0.47839877307E-01  0.78545153336E-01  0.51100000000E-03 0. -1.
         11    1    4    4    0    0  0.35484129056E-01  0.29654906717E-01 -0.18869464014E-01  0.49948520503E-01  0.51100000000E-03 0.  1.
</event>
<event>
 8    1  0.1148488E+005  0.1043930E+01  0.7957747E-01            NaN
         13   -1    0    0    0    0  0.00000000000E+00  0.00000000000E+00  0.74505805969E-08  0.10566000000E+00  0.10566000000E+00 0.  1.
     999900   -1    0    0    0    0 -0.00000000000E+00 -0.00000000000E+00 -0.74505805969E-08  0.93827000000E+00  0.93827000000E+00 0. -1.
     999902    2    1    2    0    0 -0.73045591809E-02 -0.22841122693E-01  0.83782950391E-02  0.10185278485E+01  0.10182110336E+01 0.  0.
     999903    2    3    3    0    0 -0.44701774195E-01 -0.11921622770E+00  0.29793759880E-01  0.13221789447E+00  0.19574113750E-01 0.  0.
         14    1    1    2    0    0  0.73045591809E-02  0.22841122693E-01 -0.83782950391E-02  0.25402151453E-01  0.00000000000E+00 0.  1.
     999901    1    3    3    0    0  0.37397215014E-01  0.96375105003E-01 -0.21415464841E-01  0.88630995407E+00  0.88000000000E+00 0. -1.
        -11    1    4    4    0    0 -0.72616406917E-02 -0.43546175434E-01  0.64203722262E-02  0.44614830729E-01  0.51100000000E-03 0. -1.
         11    1    4    4    0    0 -0.37440133504E-01 -0.75670052262E-01  0.23373387654E-01  0.87603063745E-01  0.51100000000E-03 0.  1.
</event>
<event>
 8    1  0.1148488E+005  0.1043930E+01  0.7957747E-01            NaN
         13   -1    0    0    0    0  0.00000000000E+00  0.00000000000E+00  0.74505805969E-08  0.10566000000E+00  0.10566000000E+00 0.  1.
     999900   -1    0    0    0    0 -0.00000000000E+00 -0.00000000000E+00 -0.74505805969E-08  0.93827000000E+00  0.93827000000E+00 0.  1.
     999902    2    1    2    0    0  0.17226073920E-01 -0.95744102651E-02 -0.12824272516E-01  0.10204168352E+01  0.10201458957E+01 0.  0.
     999903    2    3    3    0    0  0.12455249097E+00 -0.48525851021E-02  0.39531118642E-01  0.13233894309E+00  0.20347381361E-01 0.  0.
         14    1    1    2    0    0 -0.17226073920E-01  0.95744102651E-02  0.12824272516E-01  0.23513164827E-01  0.00000000000E+00 0. -1.
     999901    1    3    3    0    0 -0.10732641705E+00 -0.47218251630E-02 -0.52355391159E-01  0.88807789209E+00  0.88000000000E+00 0.  1.
        -11    1    4    4    0    0  0.36308067651E-01  0.22717704454E-03  0.21752449570E-02  0.36377468268E-01  0.51100000000E-03 0. -1.
         11    1    4    4    0    0  0.88244423315E-01 -0.50797621466E-02  0.37355873685E-01  0.95961474819E-01  0.51100000000E-03 0.  1.
</event>
<event>
 8    1  0.1148488E+005  0.1043930E+01  0.7957747E-01            NaN
         13   -1    0    0    0    0  0.00000000000E+00  0.00000000000E+00  0.74505805969E-08  0.10566000000E+00  0.10566000000E+00 0.  1.
     999900   -1    0    0    0    0 -0.00000000000E+00 -0.00000000000E+00 -0.74505805969E-08  0.93827000000E+00  0.93827000000E+00 0.  1.
     999902    2    1    2    0    0  0.12301943056E-01  0.14873990526E-01 -0.80653781455E-02  0.10230105420E+01  0.10227966295E+01 0.  0.
     999903    2    3    3    0    0 -0.67341909598E-01  0.78271674179E-01  0.80449433537E-01  0.13273121427E+00  0.22001729864E-01 0.  0.
         14    1    1    2    0    0 -0.12301943056E-01 -0.14873990526E-01  0.80653781455E-02  0.20919457969E-01  0.00000000000E+00 0.  1.
     999901    1    3    3    0    0  0.79643852654E-01 -0.63397683653E-01 -0.88514811683E-01  0.89027932776E+00  0.88000000000E+00 0.  1.
        -11    1    4    4    0    0 -0.85071943993E-02  0.32136996273E-02  0.13190493728E-01  0.16029674595E-01  0.51100000000E-03 0. -1.
         11    1    4    4    0    0 -0.58834715199E-01  0.75057974551E-01  0.67258939810E-01  0.11670153967E+00  0.51100000000E-03 0.  1.
</event>
<event>
 8    1  0.1148488E+005  0.1043930E+01  0.7957747E-01            NaN
         13   -1    0    0    0    0  0.00000000000E+00  0.00000000000E+00  0.74505805969E-08  0.10566000000E+00  0.10566000000E+00 0. -1.
     999900   -1    0    0    0    0 -0.00000000000E+00 -0.00000000000E+00 -0.74505805969E-08  0.93827000000E+00  0.93827000000E+00 0.  1.
     999902    2    1    2    0    0 -0.10166886580E-01 -0.17215241264E-01 -0.12019462212E-01  0.10206019571E+01  0.10203353161E+01 0.  0.
     999903    2    3    3    0    0 -0.11355439476E+00  0.10684451016E-01  0.61348867393E-01  0.13107945514E+00  0.20233189695E-01 0.  0.
         14    1    1    2    0    0  0.10166886580E-01  0.17215241264E-01  0.12019462212E-01  0.23328042918E-01  0.00000000000E+00 0. -1.
     999901    1    3    3    0    0  0.10338750818E+00 -0.27899692280E-01 -0.73368329605E-01  0.88952250195E+00  0.88000000000E+00 0.  1.
        -11    1    4    4    0    0 -0.40153879285E-01 -0.41363243021E-02  0.27852599968E-01  0.49045607819E-01  0.51100000000E-03 0.  1.
         11    1    4    4    0    0 -0.73400515478E-01  0.14820775318E-01  0.33496267425E-01  0.82033847319E-01  0.51100000000E-03 0. -1.
</event>
<event>
 8    1  0.1148488E+005  0.1043930E+01  0.7957747E-01            NaN
         13   -1    0    0    0    0  0.00000000000E+00  0.00000000000E+00  0.74505805969E-08  0.10566000000E+00  0.10566000000E+00 0.  1.
     999900   -1    0    0    0    0 -0.00000000000E+00 -0.00000000000E+00 -0.74505805969E-08  0.93827000000E+00  0.93827000000E+00 0.  1.
     999902    2    1    2    0    0  0.15769694149E-01 -0.35700386609E-02  0.18064181406E-01  0.10196865869E+01  0.10193983482E+01 0.  0.
     999903    2    3    3    0    0  0.16731133183E-01 -0.66186446215E-01 -0.10739618057E+00  0.12858499824E+00  0.18427850973E-01 0.  0.
         14    1    1    2    0    0 -0.15769694149E-01  0.35700386609E-02 -0.18064181406E-01  0.24243413115E-01  0.00000000000E+00 0. -1.
     999901    1    3    3    0    0 -0.96143903388E-03  0.62616407554E-01  0.12546036197E+00  0.89110158865E+00  0.88000000000E+00 0. -1.
        -11    1    4    4    0    0  0.14013534607E-01 -0.24804853289E-01 -0.34803000451E-01  0.44979660517E-01  0.51100000000E-03 0.  1.
         11    1    4    4    0    0  0.27175985760E-02 -0.41381592926E-01 -0.72593180117E-01  0.83605337722E-01  0.51100000000E-03 0. -1.
</event>
<event>
 8    1  0.1148488E+005  0.1043930E+01  0.7957747E-01            NaN
         13   -1    0    0    0    0  0.00000000000E+00  0.00000000000E+00  0.74505805969E-08  0.10566000000E+00  0.10566000000E+00 0.  1.
     999900   -1    0    0    0    0 -0.00000000000E+00 -0.00000000000E+00 -0.74505805969E-08  0.93827000000E+00  0.93827000000E+00 0.  1.
     999902    2    1    2    0    0  0.41863271771E-02 -0.46039371308E-02  0.23685081772E-01  0.10194411317E+01  0.10191469552E+01 0.  0.
     999903    2    3    3    0    0  0.53869697476E-01  0.10835784765E+00  0.43814479834E-01  0.13060256662E+00  0.22225082908E-01 0.  0.
         14    1    1    2    0    0 -0.41863271771E-02  0.46039371308E-02 -0.23685081772E-01  0.24488868305E-01  0.00000000000E+00 0. -1.
     999901    1    3    3    0    0 -0.49683370299E-01 -0.11296178478E+00 -0.20129398062E-01  0.88883856508E+00  0.88000000000E+00 0.  1.
        -11    1    4    4    0    0  0.17677280429E-01  0.60391499246E-01  0.23441391676E-01  0.67151912775E-01  0.51100000000E-03 0. -1.
         11    1    4    4    0    0  0.36192417047E-01  0.47966348402E-01  0.20373088158E-01  0.63450653841E-01  0.51100000000E-03 0.  1.
</event>
<event>
 8    1  0.1148488E+005  0.1043930E+01  0.7957747E-01            NaN
         13   -1    0    0    0    0  0.00000000000E+00  0.00000000000E+00  0.74505805969E-08  0.10566000000E+00  0.10566000000E+00 0.  1.
     999900   -1    0    0    0    0 -0.00000000000E+00 -0.00000000000E+00 -0.74505805969E-08  0.93827000000E+00  0.93827000000E+00 0. -1.
     999902    2    1    2    0    0  0.46093356719E-02  0.78303133447E-03 -0.20928104932E-01  0.10224860104E+01  0.10222611197E+01 0.  0.
     999903    2    3    3    0    0  0.83257091091E-01 -0.87577856859E-01  0.48841524452E-01  0.13183404854E+00  0.19826689478E-01 0.  0.
         14    1    1    2    0    0 -0.46093356719E-02 -0.78303133447E-03  0.20928104932E-01  0.21443989588E-01  0.00000000000E+00 0.  1.
     999901    1    3    3    0    0 -0.78647755419E-01  0.88360888193E-01 -0.69769629385E-01  0.89065196187E+00  0.88000000000E+00 0. -1.
        -11    1    4    4    0    0  0.53977334906E-01 -0.43855841909E-01  0.23373789127E-01  0.73372220167E-01  0.51100000000E-03 0.  1.
         11    1    4    4    0    0  0.29279756186E-01 -0.43722014950E-01  0.25467735325E-01  0.58461828377E-01  0.51100000000E-03 0. -1.
</event>
<event>
 8    1  0.1148488E+005  0.1043930E+01  0.7957747E-01            NaN
         13   -1    0    0    0    0  0.00000000000E+00  0.00000000000E+00  0.74505805969E-08  0.10566000000E+00  0.10566000000E+00 0. -1.
     999900   -1    0    0    0    0 -0.00000000000E+00 -0.00000000000E+00 -0.74505805969E-08  0.93827000000E+00  0.93827000000E+00 0. -1.
     999902    2    1    2    0    0  0.91043918152E-02  0.18680853528E-01 -0.11777084059E-01  0.10200435196E+01  0.10197638049E+01 0.  0.
     999903    2    3    3    0    0 -0.10620266613E+00  0.48905476999E-01  0.52423497774E-01  0.12968911811E+00  0.20007305243E-01 0.  0.
         14    1    1    2    0    0 -0.91043918152E-02 -0.18680853528E-01  0.11777084059E-01  0.23886480440E-01  0.00000000000E+00 0. -1.
     999901    1    3    3    0    0  0.11530705795E+00 -0.30224623471E-01 -0.64200581833E-01  0.89035440145E+00  0.88000000000E+00 0.  1.
        -11    1    4    4    0    0 -0.96955012321E-02  0.11308127092E-01  0.87620271419E-02  0.17289034765E-01  0.51100000000E-03 0. -1.
         11    1    4    4    0    0 -0.96507164899E-01  0.37597349907E-01  0.43661470632E-01  0.11240008334E+00  0.51100000000E-03 0.  1.
</event>
<event>
 8    1  0.1148488E+005  0.1043930E+01  0.7957747E-01            NaN
         13   -1    0    0    0    0  0.00000000000E+00  0.00000000000E+00  0.74505805969E-08  0.10566000000E+00  0.10566000000E+00 0. -1.
     999900   -1    0    0    0    0 -0.00000000000E+00 -0.00000000000E+00 -0.74505805969E-08  0.93827000000E+00  0.93827000000E+00 0. -1.
     999902    2    1    2    0    0 -0.23465726501E-01  0.17836483300E-01 -0.11649262012E-01  0.10122363766E+01  0.10117400834E+01 0.  0.
     999903    2    3    3    0    0  0.11889774064E+00  0.16853565119E-02 -0.67328801688E-02  0.12063535236E+00  0.19184457465E-01 0.  0.
         14    1    1    2    0    0  0.23465726501E-01 -0.17836483300E-01  0.11649262012E-01  0.31693623367E-01  0.00000000000E+00 0. -1.
     999901    1    3    3    0    0 -0.14236346714E+00  0.16151126788E-01 -0.49163818430E-02  0.89160102427E+00  0.88000000000E+00 0.  1.
        -11    1    4    4    0    0  0.98475756655E-01  0.75623177949E-02 -0.93927949484E-02  0.99212645450E-01  0.51100000000E-03 0.  1.
         11    1    4    4    0    0  0.20421983984E-01 -0.58769612830E-02  0.26599147795E-02  0.21422706911E-01  0.51100000000E-03 0. -1.
</event>
<event>
 8    1  0.1148488E+005  0.1043930E+01  0.7957747E-01            NaN
         13   -1    0    0    0    0  0.00000000000E+00  0.00000000000E+00  0.74505805969E-08  0.10566000000E+00  0.10566000000E+00 0. -1.
     999900   -1    0    0    0    0 -0.00000000000E+00 -0.00000000000E+00 -0.74505805969E-08  0.93827000000E+00  0.93827000000E+00 0.  1.
     999902    2    1    2    0    0 -0.91718873813E-02 -0.84305077235E-02 -0.19970510944E-01  0.10203924070E+01  0.10201208977E+01 0.  0.
     999903    2    3    3    0    0 -0.12798769607E+00  0.11106674771E-01 -0.24090024883E-01  0.13218304635E+00  0.19693142784E-01 0.  0.
         14    1    1    2    0    0  0.91718873813E-02  0.84305077235E-02  0.19970510944E-01  0.23537593037E-01  0.00000000000E+00 0. -1.
     999901    1    3    3    0    0  0.11881580869E+00 -0.19537182494E-01  0.41195139396E-02  0.88820936062E+00  0.88000000000E+00 0.  1.
        -11    1    4    4    0    0 -0.83646055570E-01  0.36494907826E-02 -0.67875952467E-02  0.84001868822E-01  0.51100000000E-03 0.  1.
         11    1    4    4    0    0 -0.44341640499E-01  0.74571839883E-02 -0.17302429637E-01  0.48181177523E-01  0.51100000000E-03 0. -1.
</event>
<event>
 8    1  0.1148488E+005  0.1043930E+01  0.7957747E-01            NaN
         13   -1    0    0    0    0  0.00000000000E+00  0.00000000000E+00  0.74505805969E-08  0.10566000000E+00  0.10566000000E+00 0.  1.
     999900   -1    0    0    0    0 -0.00000000000E+00 -0.00000000000E+00 -0.74505805969E-08  0.93827000000E+00  0.93827000000E+00 0.  1.
     999902    2    1    2    0    0 -0.23651118752E-01  0.19084072278E-02  0.36189214570E-02  0.10199276245E+01  0.10196451565E+01 0.  0.
     999903    2    3    3    0    0  0.50204401848E-03 -0.11217761394E+00  0.63047159040E-01  0.13024750733E+00  0.20134542103E-01 0.  0.
         14    1    1    2    0    0  0.23651118752E-01 -0.19084072278E-02 -0.36189214570E-02  0.24002375484E-01  0.00000000000E+00 0.  1.
     999901    1    3    3    0    0 -0.24153162770E-01  0.11408602116E+00 -0.59428237583E-01  0.88968011719E+00  0.88000000000E+00 0. -1.
        -11    1    4    4    0    0  0.10126116145E-01 -0.47046301442E-01  0.27190318997E-01  0.55276281312E-01  0.51100000000E-03 0.  1.
         11    1    4    4    0    0 -0.96240721268E-02 -0.65131312494E-01  0.35856840044E-01  0.74971226016E-01  0.51100000000E-03 0. -1.
</event>
<event>
 8    1  0.1148488E+005  0.1043930E+01  0.7957747E-01            NaN
         13   -1    0    0    0    0  0.00000000000E+00  0.00000000000E+00  0.74505805969E-08  0.10566000000E+00  0.10566000000E+00 0.  1.
     999900   -1    0    0    0    0 -0.00000000000E+00 -0.00000000000E+00 -0.74505805969E-08  0.93827000000E+00  0.93827000000E+00 0. -1.
     999902    2    1    2    0    0 -0.42740667390E-02  0.12251840917E-01  0.19651972358E-01  0.10203805781E+01  0.10201087927E+01 0.  0.
     999903    2    3    3    0    0 -0.11996402699E+00 -0.24164747420E-01 -0.39137920725E-01  0.13011848958E+00  0.20584987290E-01 0.  0.
         14    1    1    2    0    0  0.42740667390E-02 -0.12251840917E-01 -0.19651972358E-01  0.23549421859E-01  0.00000000000E+00 0. -1.
     999901    1    3    3    0    0  0.11568996025E+00  0.36416588337E-01  0.58789893083E-01  0.89026208857E+00  0.88000000000E+00 0.  1.
        -11    1    4    4    0    0 -0.31285024155E-01 -0.13134260898E-01 -0.43058730977E-02  0.34206186719E-01  0.51100000000E-03 0.  1.
         11    1    4    4    0    0 -0.88679002833E-01 -0.11030486522E-01 -0.34832047627E-01  0.95912302857E-01  0.51100000000E-03 0. -1.
</event>
<event>
 8    1  0.1148488E+005  0.1043930E+01  0.7957747E-01            NaN
         13   -1    0    0    0    0  0.00000000000E+00  0.00000000000E+00  0.74505805969E-08  0.10566000000E+00  0.10566000000E+00 0.  1.
     999900   -1    0    0    0    0 -0.00000000000E+00 -0.00000000000E+00 -0.74505805969E-08  0.93827000000E+00  0.93827000000E+00 0. -1.
     999902    2    1    2    0    0 -0.15263226699E-02  0.25039837187E-01  0.31057535124E-02  0.10186521676E+01  0.10183384848E+01 0.  0.
     999903    2    3    3    0    0 -0.12416333582E+00  0.10578003196E-01  0.29379750124E-01  0.12964187262E+00  0.20381788595E-01 0.  0.
         14    1    1    2    0    0  0.15263226699E-02 -0.25039837187E-01 -0.31057535124E-02  0.25277832425E-01  0.00000000000E+00 0.  1.
     999901    1    3    3    0    0  0.12263701315E+00  0.14461833990E-01 -0.26273996611E-01  0.88901029495E+00  0.88000000000E+00 0.  1.
        -11    1    4    4    0    0 -0.10013594249E+00  0.56746898394E-02  0.15586899676E-01  0.10150183075E+00  0.51100000000E-03 0.  1.
         11    1    4    4    0    0 -0.24027393324E-01  0.49033133568E-02  0.13792850447E-01  0.28140041867E-01  0.51100000000E-03 0. -1.
</event>
<event>
 8    1  0.1148488E+005  0.1043930E+01  0.7957747E-01            NaN
         13   -1    0    0    0    0  0.00000000000E+00  0.00000000000E+00  0.74505805969E-08  0.10566000000E+00  0.10566000000E+00 0.  1.
     999900   -1    0    0    0    0 -0.00000000000E+00 -0.00000000000E+00 -0.74505805969E-08  0.93827000000E+00  0.93827000000E+00 0. -1.
     999902    2    1    2    0    0  0.42683120957E-02 -0.22850696871E-01 -0.24579577956E-02  0.10205544916E+01  0.10202867518E+01 0.  0.
     999903    2    3    3    0    0 -0.12214437411E+00  0.37657280075E-01 -0.56378821359E-02  0.12945882087E+00  0.19760610219E-01 0.  0.
         14    1    1    2    0    0 -0.42683120957E-02  0.22850696871E-01  0.24579577956E-02  0.23375508383E-01  0.00000000000E+00 0. -1.
     999901    1    3    3    0    0  0.12641268621E+00 -0.60507976946E-01  0.31799243403E-02  0.89109567075E+00  0.88000000000E+00 0.  1.
        -11    1    4    4    0    0 -0.51062219893E-01  0.25844709474E-01 -0.80570379642E-03  0.57238182953E-01  0.51100000000E-03 0. -1.
         11    1    4    4    0    0 -0.71082154217E-01  0.11812570601E-01 -0.48321783394E-02  0.72220637915E-01  0.51100000000E-03 0.  1.
</event>
<event>
 8    1  0.1148488E+005  0.1043930E+01  0.7957747E-01            NaN
         13   -1    0    0    0    0  0.00000000000E+00  0.00000000000E+00  0.74505805969E-08  0.10566000000E+00  0.10566000000E+00 0. -1.
     999900   -1    0    0    0    0 -0.00000000000E+00 -0.00000000000E+00 -0.74505805969E-08  0.93827000000E+00  0.93827000000E+00 0.  1.
     999902    2    1    2    0    0 -0.18442587426E-02  0.22716242044E-01 -0.59692786286E-02  0.10203702625E+01  0.10200982362E+01 0.  0.
     999903    2    3    3    0    0  0.51309246461E-01 -0.10577956319E+00 -0.48081393640E-01  0.12845664713E+00  0.19165985975E-01 0.  0.
         14    1    1    2    0    0  0.18442587426E-02 -0.22716242044E-01  0.59692786286E-02  0.23559737482E-01  0.00000000000E+00 0.  1.
     999901    1    3    3    0    0 -0.53153505203E-01  0.12849580523E+00  0.42112115012E-01  0.89191361538E+00  0.88000000000E+00 0. -1.
        -11    1    4    4    0    0  0.40548314198E-01 -0.69681034967E-01 -0.39688429396E-01  0.89861253983E-01  0.51100000000E-03 0. -1.
         11    1    4    4    0    0  0.10760932262E-01 -0.36098528218E-01 -0.83929642440E-02  0.38595393151E-01  0.51100000000E-03 0.  1.
</event>
<event>
 8    1  0.1148488E+005  0.1043930E+01  0.7957747E-01            NaN
         13   -1    0    0    0    0  0.00000000000E+00  0.00000000000E+00  0.74505805969E-08  0.10566000000E+00  0.10566000000E+00 0. -1.
     999900   -1    0    0    0    0 -0.00000000000E+00 -0.00000000000E+00 -0.74505805969E-08  0.93827000000E+00  0.93827000000E+00 0.  1.
     999902    2    1    2    0    0 -0.13868956124E-02 -0.56044120550E-03  0.23363597601E-01  0.10205185655E+01  0.10202499925E+01 0.  0.
     999903    2    3    3    0    0  0.91624600978E-02  0.16120765365E-01  0.13098088037E+00  0.13374292806E+00  0.19681210158E-01 0.  0.
         14    1    1    2    0    0  0.13868956124E-02  0.56044120550E-03 -0.23363597601E-01  0.23411434528E-01  0.00000000000E+00 0.  1.
     999901    1    3    3    0    0 -0.10549355710E-01 -0.16681206570E-01 -0.10761728277E+00  0.88677563741E+00  0.88000000000E+00 0.  1.
        -11    1    4    4    0    0 -0.38240428438E-02  0.12962035902E-01  0.72680022045E-01  0.73927561869E-01  0.51100000000E-03 0. -1.
         11    1    4    4    0    0  0.12986502942E-01  0.31587294624E-02  0.58300858322E-01  0.59815366191E-01  0.51100000000E-03 0.  1.
</event>
<event>
 7    1  0.1148488E+005  0.1043930E+01  0.7957747E-01            NaN
         13   -1    0    0    0    0  0.00000000000E+00  0.00000000000E+00  0.74505805969E-08  0.10566000000E+00  0.10566000000E+00 0. -1.
     999900   -1    0    0    0    0 -0.00000000000E+00 -0.00000000000E+00 -0.74505805969E-08  0.93827000000E+00  0.93827000000E+00 0.  1.
     999902    2    1    2    0    0 -0.98940156060E-03  0.19436822184E-01  0.12469851018E-01  0.10208158018E+01  0.10205540824E+01 0.  0.
         14    1    1    2    0    0  0.98940156060E-03 -0.19436822184E-01 -0.12469851018E-01  0.23114198157E-01  0.00000000000E+00 0.  1.
     999901    1    3    3    0    0 -0.50661356445E-01  0.68201295822E-01  0.11009071510E+00  0.89091972441E+00  0.88000000000E+00 0. -1.
        -11    1    3    3    0    0 -0.52699101476E-02 -0.70565981038E-02 -0.37082591812E-01  0.38117545386E-01  0.51100000000E-03 0. -1.
         11    1    3    3    0    0  0.54941865032E-01 -0.41707875534E-01 -0.60538272268E-01  0.91778532049E-01  0.51100000000E-03 0.  1.
</event>
<event>
 8    1  0.1148488E+005  0.1043930E+01  0.7957747E-01            NaN
         13   -1    0    0    0    0  0.00000000000E+00  0.00000000000E+00  0.74505805969E-08  0.10566000000E+00  0.10566000000E+00 0.  1.
     999900   -1    0    0    0    0 -0.00000000000E+00 -0.00000000000E+00 -0.74505805969E-08  0.93827000000E+00  0.93827000000E+00 0. -1.
     999902    2    1    2    0    0 -0.86386664126E-03  0.26789832432E-03  0.24014064740E-01  0.10198989089E+01  0.10196157565E+01 0.  0.
     999903    2    3    3    0    0  0.40866723275E-01  0.10155935431E+00 -0.64772967135E-01  0.12867248523E+00  0.19408236978E-01 0.  0.
         14    1    1    2    0    0  0.86386664126E-03 -0.26789832432E-03 -0.24014064740E-01  0.24031091120E-01  0.00000000000E+00 0. -1.
     999901    1    3    3    0    0 -0.41730589917E-01 -0.10129145599E+00  0.88787031875E-01  0.89122642365E+00  0.88000000000E+00 0. -1.
        -11    1    4    4    0    0  0.25160047180E-01  0.76012800781E-01 -0.54949212715E-01  0.97111538736E-01  0.51100000000E-03 0. -1.
         11    1    4    4    0    0  0.15706676096E-01  0.25546553533E-01 -0.98237544195E-02  0.31560946489E-01  0.51100000000E-03 0.  1.
</event>
<event>
 8    1  0.1148488E+005  0.1043930E+01  0.7957747E-01            NaN
         13   -1    0    0    0    0  0.00000000000E+00  0.00000000000E+00  0.74505805969E-08  0.10566000000E+00  0.10566000000E+00 0. -1.
     999900   -1    0    0    0    0 -0.00000000000E+00 -0.00000000000E+00 -0.74505805969E-08  0.93827000000E+00  0.93827000000E+00 0.  1.
     999902    2    1    2    0    0 -0.13337699374E-01  0.19654147445E-01 -0.23835882387E-02  0.10200582336E+01  0.10197788676E+01 0.  0.
     999903    2    3    3    0    0  0.10582158322E+00 -0.26995993233E-01 -0.64695872159E-01  0.12862231840E+00  0.20764243079E-01 0.  0.
         14    1    1    2    0    0  0.13337699374E-01 -0.19654147445E-01  0.23835882387E-02  0.23871766363E-01  0.00000000000E+00 0.  1.
     999901    1    3    3    0    0 -0.11915928259E+00  0.46650140678E-01  0.62312283921E-01  0.89143591524E+00  0.88000000000E+00 0. -1.
        -11    1    4    4    0    0  0.11812890590E-01 -0.42645975014E-02 -0.15968250507E-01  0.20321843449E-01  0.51100000000E-03 0.  1.
         11    1    4    4    0    0  0.94008692625E-01 -0.22731395732E-01 -0.48727621653E-01  0.10830047495E+00  0.51100000000E-03 0. -1.
</event>
<event>
 8    1  0.1148488E+005  0.1043930E+01  0.7957747E-01            NaN
         13   -1    0    0    0    0  0.00000000000E+00  0.00000000000E+00  0.74505805969E-08  0.10566000000E+00  0.10566000000E+00 0. -1.
     999900   -1    0    0    0    0 -0.00000000000E+00 -0.00000000000E+00 -0.74505805969E-08  0.93827000000E+00  0.93827000000E+00 0.  1.
     999902    2    1    2    0    0  0.20142808111E-01 -0.99072961188E-02 -0.74629581588E-02  0.10202744937E+01  0.10200002252E+01 0.  0.
     999903    2    3    3    0    0 -0.11498315340E+00  0.26567131540E-01  0.44755131037E-01  0.12768492496E+00  0.19325637430E-01 0.  0.
         14    1    1    2    0    0 -0.20142808111E-01  0.99072961188E-02  0.74629581588E-02  0.23655506324E-01  0.00000000000E+00 0. -1.
     999901    1    3    3    0    0  0.13512596151E+00 -0.36474427659E-01 -0.52218089196E-01  0.89258956872E+00  0.88000000000E+00 0.  1.
        -11    1    4    4    0    0 -0.18839316866E-01  0.11612056226E-01  0.58714774202E-02  0.22901857520E-01  0.51100000000E-03 0. -1.
         11    1    4    4    0    0 -0.96143836537E-01  0.14955075315E-01  0.38883653617E-01  0.10478306744E+00  0.51100000000E-03 0.  1.
</event>
<event>
 8    1  0.1148488E+005  0.1043930E+01  0.7957747E-01            NaN
         13   -1    0    0    0    0  0.00000000000E+00  0.00000000000E+00  0.74505805969E-08  0.10566000000E+00  0.10566000000E+00 0. -1.
     999900   -1    0    0    0    0 -0.00000000000E+00 -0.00000000000E+00 -0.74505805969E-08  0.93827000000E+00  0.93827000000E+00 0. -1.
     999902    2    1    2    0    0 -0.19898016295E-01  0.11770127596E-01 -0.60499126725E-02  0.10200329625E+01  0.10197529977E+01 0.  0.
     999903    2    3    3    0    0  0.15794975903E-01  0.11917122316E+00 -0.50128403645E-01  0.13169074335E+00  0.19450792800E-01 0.  0.
         14    1    1    2    0    0  0.19898016295E-01 -0.11770127596E-01  0.60499126725E-02  0.23897037462E-01  0.00000000000E+00 0. -1.
     999901    1    3    3    0    0 -0.35692992198E-01 -0.10740109556E+00  0.44078490972E-01  0.88834221918E+00  0.88000000000E+00 0.  1.
        -11    1    4    4    0    0 -0.86266046716E-03  0.43798709440E-01 -0.25363589096E-01  0.50622563196E-01  0.51100000000E-03 0. -1.
         11    1    4    4    0    0  0.16657636370E-01  0.75372513717E-01 -0.24764814549E-01  0.81068180158E-01  0.51100000000E-03 0.  1.
</event>
<event>
 8    1  0.1148488E+005  0.1043930E+01  0.7957747E-01            NaN
         13   -1    0    0    0    0  0.00000000000E+00  0.00000000000E+00  0.74505805969E-08  0.10566000000E+00  0.10566000000E+00 0. -1.
     999900   -1    0    0    0    0 -0.00000000000E+00 -0.00000000000E+00 -0.74505805969E-08  0.93827000000E+00  0.93827000000E+00 0.  1.
     999902    2    1    2    0    0 -0.11984129420E-01  0.17208497161E-02  0.18751045011E-01  0.10216100007E+01  0.10213661494E+01 0.  0.
     999903    2    3    3    0    0  0.75262438487E-01 -0.89539476212E-01 -0.52166240652E-01  0.12977499792E+00  0.20939937294E-01 0.  0.
         14    1    1    2    0    0  0.11984129420E-01 -0.17208497161E-02 -0.18751045011E-01  0.22319999344E-01  0.00000000000E+00 0.  1.
     999901    1    3    3    0    0 -0.87246567908E-01  0.91260325928E-01  0.70917285663E-01  0.89183500274E+00  0.88000000000E+00 0. -1.
        -11    1    4    4    0    0  0.50858721198E-01 -0.65796312294E-01 -0.46421788374E-01  0.95241838444E-01  0.51100000000E-03 0.  1.
         11    1    4    4    0    0  0.24403717290E-01 -0.23743163918E-01 -0.57444522780E-02  0.34533159476E-01  0.51100000000E-03 0. -1.
</event>
<event>
 8    1  0.1148488E+005  0.1043930E+01  0.7957747E-01            NaN
         13   -1    0    0    0    0  0.00000000000E+00  0.00000000000E+00  0.74505805969E-08  0.10566000000E+00  0.10566000000E+00 0. -1.
     999900   -1    0    0    0    0 -0.00000000000E+00 -0.00000000000E+00 -0.74505805969E-08  0.93827000000E+00  0.93827000000E+00 0. -1.
     999902    2    1    2    0    0  0.10624947601E-01  0.20513994360E-01  0.86486409044E-02  0.10192619546E+01  0.10189634044E+01 0.  0.
     999903    2    3    3    0    0 -0.52630941521E-01  0.11097296771E+00 -0.41185889525E-01  0.13096717591E+00  0.19264166250E-01 0.  0.
         14    1    1    2    0    0 -0.10624947601E-01 -0.20513994360E-01 -0.86486409044E-02  0.24668045435E-01  0.00000000000E+00 0.  1.
     999901    1    3    3    0    0  0.63255889122E-01 -0.90458973350E-01  0.49834530429E-01  0.88829477866E+00  0.88000000000E+00 0.  1.
        -11    1    4    4    0    0 -0.16094454068E-01  0.53065487444E-01 -0.13252776936E-01  0.57016441725E-01  0.51100000000E-03 0. -1.
         11    1    4    4    0    0 -0.36536487454E-01  0.57907480265E-01 -0.27933112589E-01  0.73950734182E-01  0.51100000000E-03 0.  1.
</event>
<event>
 8    1  0.1148488E+005  0.1043930E+01  0.7957747E-01            NaN
         13   -1    0    0    0    0  0.00000000000E+00  0.00000000000E+00  0.74505805969E-08  0.10566000000E+00  0.10566000000E+00 0. -1.
     999900   -1    0    0    0    0 -0.00000000000E+00 -0.00000000000E+00 -0.74505805969E-08  0.93827000000E+00  0.93827000000E+00 0. -1.
     999902    2    1    2    0    0  0.20700592162E-01 -0.78704765528E-02  0.82415685745E-02  0.10202998843E+01  0.10200262112E+01 0.  0.
     999903    2    3    3    0    0  0.12312218666E+00  0.35657559264E-02  0.47003509405E-01  0.13343830629E+00  0.20607382832E-01 0.  0.
         14    1    1    2    0    0 -0.20700592162E-01  0.78704765528E-02 -0.82415685745E-02  0.23630115734E-01  0.00000000000E+00 0.  1.
     999901    1    3    3    0    0 -0.10242159449E+00 -0.11436232479E-01 -0.38761940831E-01  0.88686157798E+00  0.88000000000E+00 0. -1.
        -11    1    4    4    0    0  0.15900552027E-01 -0.22933932985E-02 -0.35245510679E-03  0.16077081613E-01  0.51100000000E-03 0. -1.
         11    1    4    4    0    0  0.10722163463E+00  0.58591492249E-02  0.47355964512E-01  0.11736122468E+00  0.51100000000E-03 0.  1.
</event>
<event>
 8    1  0.1148488E+005  0.1043930E+01  0.7957747E-01            NaN
         13   -1    0    0    0    0  0.00000000000E+00  0.00000000000E+00  0.74505805969E-08  0.10566000000E+00  0.10566000000E+00 0. -1.
     999900   -1    0    0    0    0 -0.00000000000E+00 -0.00000000000E+00 -0.74505805969E-08  0.93827000000E+00  0.93827000000E+00 0.  1.
     999902    2    1    2    0    0  0.10685640362E-01 -0.15793635481E-01 -0.14285180660E-01  0.10201037914E+01  0.10198255032E+01 0.  0.
     999903    2    3    3    0    0  0.44457764443E-01  0.48265009036E-01  0.10887804397E+00  0.12858079883E+00  0.19302576321E-01 0.  0.
         14    1    1    2    0    0 -0.10685640362E-01  0.15793635481E-01  0.14285180660E-01  0.23826208639E-01  0.00000000000E+00 0. -1.
     999901    1    3    3    0    0 -0.33772124082E-01 -0.64058644517E-01 -0.12316322463E+00  0.89152299253E+00  0.88000000000E+00 0.  1.
        -11    1    4    4    0    0  0.20866476930E-01  0.33537403316E-01  0.52369052708E-01  0.65596845071E-01  0.51100000000E-03 0.  1.
         11    1    4    4    0    0  0.23591287514E-01  0.14727605720E-01  0.56508991265E-01  0.62983953763E-01  0.51100000000E-03 0. -1.
</event>
<event>
 8    1  0.1148488E+005  0.1043930E+01  0.7957747E-01            NaN
         13   -1    0    0    0    0  0.00000000000E+00  0.00000000000E+00  0.74505805969E-08  0.10566000000E+00  0.10566000000E+00 0.  1.
     999900   -1    0    0    0    0 -0.00000000000E+00 -0.00000000000E+00 -0.74505805969E-08  0.93827000000E+00  0.93827000000E+00 0. -1.
     999902    2    1    2    0    0 -0.20537816049E-01  0.49535516045E-02  0.10252571743E-01  0.10204469255E+01  0.10201766871E+01 0.  0.
     999903    2    3    3    0    0  0.10380130368E+00 -0.12893350156E-01  0.73270980153E-01  0.12929595713E+00  0.20195516163E-01 0.  0.
         14    1    1    2    0    0  0.20537816049E-01 -0.49535516045E-02 -0.10252571743E-01  0.23483074520E-01  0.00000000000E+00 0.  1.
     999901    1    3    3    0    0 -0.12433911973E+00  0.17846901761E-01 -0.63018408410E-01  0.89115096835E+00  0.88000000000E+00 0. -1.
        -11    1    4    4    0    0  0.14903765836E-01 -0.87455497224E-02  0.87771388013E-02  0.19388299631E-01  0.51100000000E-03 0. -1.
         11    1    4    4    0    0  0.88897537843E-01 -0.41478004340E-02  0.64493841352E-01  0.10990765750E+00  0.51100000000E-03 0.  1.
</event>
<event>
 8    1  0.1148488E+005  0.1043930E+01  0.7957747E-01            NaN
         13   -1    0    0    0    0  0.00000000000E+00  0.00000000000E+00  0.74505805969E-08  0.10566000000E+00  0.10566000000E+00 0.  1.
     999900   -1    0    0    0    0 -0.00000000000E+00 -0.00000000000E+00 -0.74505805969E-08  0.93827000000E+00  0.93827000000E+00 0. -1.
     999902    2    1    2    0    0  0.11982774382E-01 -0.20816266772E-01  0.68691088400E-02  0.10189482366E+01  0.10186419491E+01 0.  0.
     999903    2    3    3    0    0 -0.63272099754E-01 -0.11191249284E+00  0.94951326670E-02  0.13104693893E+00  0.23566459146E-01 0.  0.
         14    1    1    2    0    0 -0.11982774382E-01  0.20816266772E-01 -0.68691088400E-02  0.24981763358E-01  0.00000000000E+00 0. -1.
     999901    1    3    3    0    0  0.75254874137E-01  0.91096226068E-01 -0.26260238270E-02  0.88790129772E+00  0.88000000000E+00 0.  1.
        -11    1    4    4    0    0 -0.28972114667E-01 -0.31770579433E-01 -0.23845958056E-02  0.43066234615E-01  0.51100000000E-03 0.  1.
         11    1    4    4    0    0 -0.34299985088E-01 -0.80141913407E-01  0.11879728473E-01  0.87980704311E-01  0.51100000000E-03 0. -1.
</event>
<event>
 8    1  0.1148488E+005  0.1043930E+01  0.7957747E-01            NaN
         13   -1    0    0    0    0  0.00000000000E+00  0.00000000000E+00  0.74505805969E-08  0.10566000000E+00  0.10566000000E+00 0.  1.
     999900   -1    0    0    0    0 -0.00000000000E+00 -0.00000000000E+00 -0.74505805969E-08  0.93827000000E+00  0.93827000000E+00 0.  1.
     999902    2    1    2    0    0 -0.15247910201E-01  0.13072328573E-01 -0.10737694209E-01  0.10211553954E+01  0.10209013953E+01 0.  0.
     999903    2    3    3    0    0 -0.10368923879E+00  0.81942810811E-01 -0.60958498467E-02  0.13403276649E+00  0.21483496499E-01 0.  0.
         14    1    1    2    0    0  0.15247910201E-01 -0.13072328573E-01  0.10737694209E-01  0.22774604646E-01  0.00000000000E+00 0.  1.
     999901    1    3    3    0    0  0.88441328592E-01 -0.68870482238E-01 -0.46418443627E-02  0.88712262887E+00  0.88000000000E+00 0.  1.
        -11    1    4    4    0    0 -0.98374832987E-01  0.69798124194E-01 -0.58629038645E-02  0.12076431869E+00  0.51100000000E-03 0.  1.
         11    1    4    4    0    0 -0.53144058070E-02  0.12144686618E-01 -0.23294598219E-03  0.13268447797E-01  0.51100000000E-03 0. -1.
</event>
<event>
 8    1  0.1173438E+005  0.1043930E+01  0.7957747E-01            NaN
         13   -1    0    0    0    0  0.00000000000E+00  0.00000000000E+00  0.74505805969E-08  0.10566000000E+00  0.10566000000E+00 0. -1.
     999900   -1    0    0    0    0 -0.00000000000E+00 -0.00000000000E+00 -0.74505805969E-08  0.93827000000E+00  0.93827000000E+00 0.  1.
     999902    2    1    2    0    0 -0.19391758470E-01  0.14656439786E-01 -0.16255187028E-02  0.10195682711E+01  0.10192771780E+01 0.  0.
     999903    2    3    3    0    0  0.10708239900E+00 -0.51938723644E-01  0.40029477115E-01  0.12706293948E+00  0.19451487364E-01 0.  0.
         14    1    1    2    0    0  0.19391758470E-01 -0.14656439786E-01  0.16255187028E-02  0.24361728897E-01  0.00000000000E+00 0.  1.
     999901    1    3    3    0    0 -0.12647415747E+00  0.66595163431E-01 -0.41654995817E-01  0.89250533162E+00  0.88000000000E+00 0. -1.
        -11    1    4    4    0    0  0.54653246776E-01 -0.27352311891E-01  0.30738688612E-01  0.68412385191E-01  0.51100000000E-03 0. -1.
         11    1    4    4    0    0  0.52429152228E-01 -0.24586411754E-01  0.92907885021E-02  0.58650554288E-01  0.51100000000E-03 0.  1.
</event>
<event>
 8    1  0.1148488E+005  0.1043930E+01  0.7957747E-01            NaN
         13   -1    0    0    0    0  0.00000000000E+00  0.00000000000E+00  0.74505805969E-08  0.10566000000E+00  0.10566000000E+00 0.  1.
     999900   -1    0    0    0    0 -0.00000000000E+00 -0.00000000000E+00 -0.74505805969E-08  0.93827000000E+00  0.93827000000E+00 0.  1.
     999902    2    1    2    0    0 -0.19143901466E-01 -0.12378291140E-01 -0.45379188193E-02  0.10206855649E+01  0.10204208537E+01 0.  0.
     999903    2    3    3    0    0 -0.13109736721E+00 -0.14412915097E-01 -0.83362179136E-02  0.13358233234E+00  0.19506285446E-01 0.  0.
         14    1    1    2    0    0  0.19143901466E-01  0.12378291140E-01  0.45379188193E-02  0.23244435078E-01  0.00000000000E+00 0.  1.
     999901    1    3    3    0    0  0.11195346575E+00  0.20346239565E-02  0.37982990943E-02  0.88710323259E+00  0.88000000000E+00 0. -1.
        -11    1    4    4    0    0 -0.51562511855E-01  0.13019351238E-02 -0.97550682247E-02  0.52495810699E-01  0.51100000000E-03 0.  1.
         11    1    4    4    0    0 -0.79534855357E-01 -0.15714850220E-01  0.14188503111E-02  0.81086521638E-01  0.51100000000E-03 0. -1.
</event>
<event>
 8    1  0.1148488E+005  0.1043930E+01  0.7957747E-01            NaN
         13   -1    0    0    0    0  0.00000000000E+00  0.00000000000E+00  0.74505805969E-08  0.10566000000E+00  0.10566000000E+00 0. -1.
     999900   -1    0    0    0    0 -0.00000000000E+00 -0.00000000000E+00 -0.74505805969E-08  0.93827000000E+00  0.93827000000E+00 0.  1.
     999902    2    1    2    0    0 -0.19716090538E-01 -0.66158442464E-02  0.11475520779E-01  0.10201775012E+01  0.10199009524E+01 0.  0.
     999903    2    3    3    0    0  0.69730319568E-01  0.80397239676E-01 -0.67994206205E-01  0.12782814443E+00  0.19768379207E-01 0.  0.
         14    1    1    2    0    0  0.19716090538E-01  0.66158442464E-02 -0.11475520779E-01  0.23752498781E-01  0.00000000000E+00 0.  1.
     999901    1    3    3    0    0 -0.89446410106E-01 -0.87013083922E-01  0.79469726984E-01  0.89234935679E+00  0.88000000000E+00 0. -1.
        -11    1    4    4    0    0  0.59540553523E-01  0.76983375491E-01 -0.59041518073E-01  0.11383180396E+00  0.51100000000E-03 0. -1.
         11    1    4    4    0    0  0.10189766045E-01  0.34138641850E-02 -0.89526881317E-02  0.13996340469E-01  0.51100000000E-03 0.  1.
</event>
<event>
 7    1  0.1148488E+005  0.1043930E+01  0.7957747E-01            NaN
         13   -1    0    0    0    0  0.00000000000E+00  0.00000000000E+00  0.74505805969E-08  0.10566000000E+00  0.10566000000E+00 0. -1.
     999900   -1    0    0    0    0 -0.00000000000E+00 -0.00000000000E+00 -0.74505805969E-08  0.93827000000E+00  0.93827000000E+00 0.  1.
     999903    2    1    2    0    0  0.12451510108E-02  0.33987505065E-01  0.10763518723E+00  0.11430925574E+00  0.18015868434E-01 0.  0.
         14    1    1    2    0    0 -0.38579585119E-01  0.13207390659E-01  0.17123481532E-02  0.40813621405E-01  0.00000000000E+00 0.  1.
     999901    1    1    2    0    0  0.37334434108E-01 -0.47194895724E-01 -0.10934753538E+00  0.88880712286E+00  0.88000000000E+00 0.  1.
        -11    1    3    3    0    0 -0.88194390174E-03  0.32506989896E-01  0.77352454486E-01  0.83911534089E-01  0.51100000000E-03 0. -1.
         11    1    3    3    0    0  0.21270949125E-02  0.14805151689E-02  0.30282732742E-01  0.30397721646E-01  0.51100000000E-03 0.  1.
</event>
<event>
 8    1  0.1148488E+005  0.1043930E+01  0.7957747E-01            NaN
         13   -1    0    0    0    0  0.00000000000E+00  0.00000000000E+00  0.74505805969E-08  0.10566000000E+00  0.10566000000E+00 0.  1.
     999900   -1    0    0    0    0 -0.00000000000E+00 -0.00000000000E+00 -0.74505805969E-08  0.93827000000E+00  0.93827000000E+00 0. -1.
     999902    2    1    2    0    0 -0.20151549828E-01 -0.80220380823E-02  0.88987758831E-02  0.10204858906E+01  0.10202165587E+01 0.  0.
     999903    2    3    3    0    0 -0.44384409838E-01 -0.74420871836E-01 -0.96853651772E-01  0.13134045105E+00  0.19006373150E-01 0.  0.
         14    1    1    2    0    0  0.20151549828E-01  0.80220380823E-02 -0.88987758831E-02  0.23444109446E-01  0.00000000000E+00 0. -1.
     999901    1    3    3    0    0  0.24232860010E-01  0.66398833753E-01  0.10575242765E+00  0.88914543950E+00  0.88000000000E+00 0.  1.
        -11    1    4    4    0    0 -0.67524136822E-02 -0.13389921534E-01 -0.28850711358E-01  0.32519375088E-01  0.51100000000E-03 0.  1.
         11    1    4    4    0    0 -0.37631996156E-01 -0.61030950301E-01 -0.68002940413E-01  0.98821075967E-01  0.51100000000E-03 0. -1.
</event>
<event>
 8    1  0.1148488E+005  0.1043930E+01  0.7957747E-01            NaN
         13   -1    0    0    0    0  0.00000000000E+00  0.00000000000E+00  0.74505805969E-08  0.10566000000E+00  0.10566000000E+00 0. -1.
     999900   -1    0    0    0    0 -0.00000000000E+00 -0.00000000000E+00 -0.74505805969E-08  0.93827000000E+00  0.93827000000E+00 0.  1.
     999902    2    1    2    0    0  0.22145105018E-01 -0.73534439630E-02 -0.58487031750E-03  0.10205886014E+01  0.10203216515E+01 0.  0.
     999903    2    3    3    0    0  0.17546108581E-01 -0.10491120813E+00  0.75350858032E-01  0.13193518025E+00  0.20369400168E-01 0.  0.
         14    1    1    2    0    0 -0.22145105018E-01  0.73534439630E-02  0.58487031750E-03  0.23341398580E-01  0.00000000000E+00 0. -1.
     999901    1    3    3    0    0  0.45989964365E-02  0.97557764169E-01 -0.75935728350E-01  0.88865342117E+00  0.88000000000E+00 0.  1.
        -11    1    4    4    0    0  0.66090904551E-02 -0.84080658310E-01  0.53904400197E-01  0.10009586735E+00  0.51100000000E-03 0.  1.
         11    1    4    4    0    0  0.10937018126E-01 -0.20830549822E-01  0.21446457835E-01  0.31839312902E-01  0.51100000000E-03 0. -1.
</event>
<event>
 8    1  0.1148488E+005  0.1043930E+01  0.7957747E-01            NaN
         13   -1    0    0    0    0  0.00000000000E+00  0.00000000000E+00  0.74505805969E-08  0.10566000000E+00  0.10566000000E+00 0.  1.
     999900   -1    0    0    0    0 -0.00000000000E+00 -0.00000000000E+00 -0.74505805969E-08  0.93827000000E+00  0.93827000000E+00 0. -1.
     999902    2    1    2    0    0  0.91266764866E-02 -0.12124822515E-01  0.18001647176E-01  0.10203850038E+01  0.10201133217E+01 0.  0.
     999903    2    3    3    0    0  0.72263548506E-01  0.10306418349E+00  0.29031213242E-01  0.13056680718E+00  0.18990351074E-01 0.  0.
         14    1    1    2    0    0 -0.91266764866E-02  0.12124822515E-01 -0.18001647176E-01  0.23544996193E-01  0.00000000000E+00 0. -1.
     999901    1    3    3    0    0 -0.63136872019E-01 -0.11518900601E+00 -0.11029566066E-01  0.88981819662E+00  0.88000000000E+00 0. -1.
        -11    1    4    4    0    0  0.47628027621E-01  0.69492613897E-01  0.28435904135E-01  0.88918581670E-01  0.51100000000E-03 0. -1.
         11    1    4    4    0    0  0.24635520885E-01  0.33571569597E-01  0.59530910704E-03  0.41648225513E-01  0.51100000000E-03 0.  1.
</event>
<event>
 8    1  0.1148488E+005  0.1043930E+01  0.7957747E-01            NaN
         13   -1    0    0    0    0  0.00000000000E+00  0.00000000000E+00  0.74505805969E-08  0.10566000000E+00  0.10566000000E+00 0.  1.
     999900   -1    0    0    0    0 -0.00000000000E+00 -0.00000000000E+00 -0.74505805969E-08  0.93827000000E+00  0.93827000000E+00 0.  1.
     999902    2    1    2    0    0 -0.43707817124E-02  0.75767804194E-02 -0.22180812671E-01  0.10200867665E+01  0.10198080757E+01 0.  0.
     999903    2    3    3    0    0 -0.84043082589E-02  0.80627053798E-01  0.98185314517E-01  0.12888498441E+00  0.19990723305E-01 0.  0.
         14    1    1    2    0    0  0.43707817124E-02 -0.75767804194E-02  0.22180812671E-01  0.23843233527E-01  0.00000000000E+00 0.  1.
     999901    1    3    3    0    0  0.40335265465E-02 -0.73050273378E-01 -0.12036612719E+00  0.89120178206E+00  0.88000000000E+00 0.  1.
        -11    1    4    4    0    0 -0.93374636283E-02  0.43664897125E-01  0.66975370350E-01  0.80497036110E-01  0.51100000000E-03 0. -1.
         11    1    4    4    0    0  0.93315536946E-03  0.36962156672E-01  0.31209944167E-01  0.48387948300E-01  0.51100000000E-03 0.  1.
</event>
<event>
 8    1  0.1148488E+005  0.1043930E+01  0.7957747E-01            NaN
         13   -1    0    0    0    0  0.00000000000E+00  0.00000000000E+00  0.74505805969E-08  0.10566000000E+00  0.10566000000E+00 0. -1.
     999900   -1    0    0    0    0 -0.00000000000E+00 -0.00000000000E+00 -0.74505805969E-08  0.93827000000E+00  0.93827000000E+00 0.  1.
     999902    2    1    2    0    0 -0.18056816431E-01 -0.12103683342E-01 -0.92911582823E-02  0.10202894968E+01  0.10200155802E+01 0.  0.
     999903    2    3    3    0    0  0.12213383148E+00  0.32164704457E-01  0.62852298103E-02  0.12795787021E+00  0.19556876758E-01 0.  0.
         14    1    1    2    0    0  0.18056816431E-01  0.12103683342E-01  0.92911582823E-02  0.23640503216E-01  0.00000000000E+00 0. -1.
     999901    1    3    3    0    0 -0.14019064792E+00 -0.44268387800E-01 -0.15576388093E-01  0.89233162658E+00  0.88000000000E+00 0.  1.
        -11    1    4    4    0    0  0.50032669099E-01  0.21434868033E-01 -0.27522507447E-02  0.54502821486E-01  0.51100000000E-03 0.  1.
         11    1    4    4    0    0  0.72101162385E-01  0.10729836424E-01  0.90374805549E-02  0.73455048722E-01  0.51100000000E-03 0. -1.
</event>
<event>
 8    1  0.1239853E+005  0.1043930E+01  0.7957747E-01            NaN
         13   -1    0    0    0    0  0.00000000000E+00  0.00000000000E+00  0.74505805969E-08  0.10566000000E+00  0.10566000000E+00 0. -1.
     999900   -1    0    0    0    0 -0.00000000000E+00 -0.00000000000E+00 -0.74505805969E-08  0.93827000000E+00  0.93827000000E+00 0.  1.
     999902    2    1    2    0    0  0.11100666376E-02  0.20288578406E-02 -0.23347018258E-01  0.10204687176E+01  0.10201989863E+01 0.  0.
     999903    2    3    3    0    0 -0.12603000439E+00 -0.25462786475E-01 -0.11861530457E-01  0.13083266580E+00  0.21084948006E-01 0.  0.
         14    1    1    2    0    0 -0.11100666376E-02 -0.20288578406E-02  0.23347018258E-01  0.23461282438E-01  0.00000000000E+00 0. -1.
     999901    1    3    3    0    0  0.12714007103E+00  0.27491644316E-01 -0.11485487801E-01  0.88963605176E+00  0.88000000000E+00 0.  1.
        -11    1    4    4    0    0 -0.61445668881E-01 -0.13365560024E-01  0.47257378395E-02  0.63061891330E-01  0.51100000000E-03 0. -1.
         11    1    4    4    0    0 -0.64584335513E-01 -0.12097226451E-01 -0.16587268297E-01  0.67770774468E-01  0.51100000000E-03 0.  1.
</event>
<event>
 8    1  0.1148488E+005  0.1043930E+01  0.7957747E-01            NaN
         13   -1    0    0    0    0  0.00000000000E+00  0.00000000000E+00  0.74505805969E-08  0.10566000000E+00  0.10566000000E+00 0.  1.
     999900   -1    0    0    0    0 -0.00000000000E+00 -0.00000000000E+00 -0.74505805969E-08  0.93827000000E+00  0.93827000000E+00 0.  1.
     999902    2    1    2    0    0 -0.17340704021E-01  0.12063736803E-01  0.12565272271E-01  0.10193511508E+01  0.10190547820E+01 0.  0.
     999903    2    3    3    0    0  0.84636884946E-01 -0.43022005262E-01  0.84938315399E-01  0.12880540519E+00  0.19026816656E-01 0.  0.
         14    1    1    2    0    0  0.17340704021E-01 -0.12063736803E-01 -0.12565272271E-01  0.24578849217E-01  0.00000000000E+00 0. -1.
     999901    1    3    3    0    0 -0.10197758897E+00  0.55085742064E-01 -0.72373043128E-01  0.89054574560E+00  0.88000000000E+00 0. -1.
        -11    1    4    4    0    0  0.18082867248E-01 -0.18477027544E-01  0.24246018303E-01  0.35447442211E-01  0.51100000000E-03 0.  1.
         11    1    4    4    0    0  0.66554017698E-01 -0.24544977718E-01  0.60692297095E-01  0.93357962974E-01  0.51100000000E-03 0. -1.
</event>
<event>
 8    1  0.1148488E+005  0.1043930E+01  0.7957747E-01            NaN
         13   -1    0    0    0    0  0.00000000000E+00  0.00000000000E+00  0.74505805969E-08  0.10566000000E+00  0.10566000000E+00 0.  1.
     999900   -1    0    0    0    0 -0.00000000000E+00 -0.00000000000E+00 -0.74505805969E-08  0.93827000000E+00  0.93827000000E+00 0. -1.
     999902    2    1    2    0    0 -0.84884098535E-02  0.14276191322E-01 -0.16561543500E-01  0.10204747775E+01  0.10202051872E+01 0.  0.
     999903    2    3    3    0    0 -0.69875348614E-01  0.22284188410E-01 -0.10969617441E+00  0.13339724775E+00  0.19555705848E-01 0.  0.
         14    1    1    2    0    0  0.84884098535E-02 -0.14276191322E-01  0.16561543500E-01  0.23455222524E-01  0.00000000000E+00 0.  1.
     999901    1    3    3    0    0  0.61386938761E-01 -0.80079970878E-02  0.93134630907E-01  0.88707752972E+00  0.88000000000E+00 0.  1.
        -11    1    4    4    0    0 -0.24522299751E-01  0.76215642898E-02 -0.55917380779E-01  0.61534104540E-01  0.51100000000E-03 0. -1.
         11    1    4    4    0    0 -0.45353048863E-01  0.14662624120E-01 -0.53778793628E-01  0.71863143212E-01  0.51100000000E-03 0.  1.
</event>
<event>
 8    1  0.1148488E+005  0.1043930E+01  0.7957747E-01            NaN
         13   -1    0    0    0    0  0.00000000000E+00  0.00000000000E+00  0.74505805969E-08  0.10566000000E+00  0.10566000000E+00 0. -1.
     999900   -1    0    0    0    0 -0.00000000000E+00 -0.00000000000E+00 -0.74505805969E-08  0.93827000000E+00  0.93827000000E+00 0. -1.
     999902    2    1    2    0    0 -0.14831553355E-01  0.10610380224E-01  0.15215435200E-01  0.10201799555E+01  0.10199034646E+01 0.  0.
     999903    2    3    3    0    0  0.70370055075E-01 -0.43460563149E-01  0.98618225534E-01  0.13049517629E+00  0.21509798397E-01 0.  0.
         14    1    1    2    0    0  0.14831553355E-01 -0.10610380224E-01 -0.15215435200E-01  0.23750044458E-01  0.00000000000E+00 0.  1.
     999901    1    3    3    0    0 -0.85201608430E-01  0.54070943373E-01 -0.83402790334E-01  0.88968477925E+00  0.88000000000E+00 0.  1.
        -11    1    4    4    0    0  0.54996626816E-01 -0.34877657785E-01  0.89424151137E-01  0.11062558430E+00  0.51100000000E-03 0.  1.
         11    1    4    4    0    0  0.15373428259E-01 -0.85829053645E-02  0.91940743969E-02  0.19869591992E-01  0.51100000000E-03 0. -1.
</event>
<event>
 8    1  0.1148488E+005  0.1043930E+01  0.7957747E-01            NaN
         13   -1    0    0    0    0  0.00000000000E+00  0.00000000000E+00  0.74505805969E-08  0.10566000000E+00  0.10566000000E+00 0. -1.
     999900   -1    0    0    0    0 -0.00000000000E+00 -0.00000000000E+00 -0.74505805969E-08  0.93827000000E+00  0.93827000000E+00 0. -1.
     999902    2    1    2    0    0 -0.24054836079E-01  0.55182856438E-02 -0.22196203185E-02  0.10191507076E+01  0.10188494254E+01 0.  0.
     999903    2    3    3    0    0  0.11455166362E+00  0.14975228372E-01 -0.48694481012E-01  0.12704022783E+00  0.20535966045E-01 0.  0.
         14    1    1    2    0    0  0.24054836079E-01 -0.55182856438E-02  0.22196203185E-02  0.24779292354E-01  0.00000000000E+00 0.  1.
     999901    1    3    3    0    0 -0.13860649970E+00 -0.94569427280E-02  0.46474860693E-01  0.89211047982E+00  0.88000000000E+00 0.  1.
        -11    1    4    4    0    0  0.85593855389E-01  0.18884843663E-01 -0.31558830440E-01  0.93162043238E-01  0.51100000000E-03 0. -1.
         11    1    4    4    0    0  0.28957808236E-01 -0.39096152912E-02 -0.17135650572E-01  0.33878184590E-01  0.51100000000E-03 0.  1.
</event>
<event>
 8    1  0.1148488E+005  0.1043930E+01  0.7957747E-01            NaN
         13   -1    0    0    0    0  0.00000000000E+00  0.00000000000E+00  0.74505805969E-08  0.10566000000E+00  0.10566000000E+00 0.  1.
     999900   -1    0    0    0    0 -0.00000000000E+00 -0.00000000000E+00 -0.74505805969E-08  0.93827000000E+00  0.93827000000E+00 0.  1.
     999902    2    1    2    0    0  0.99450208340E-03 -0.23952740702E-01  0.88485214982E-03  0.10199402984E+01  0.10196581321E+01 0.  0.
     999903    2    3    3    0    0  0.43606032368E-01  0.20570187357E-01  0.11907682117E+00  0.12990244794E+00  0.19254557249E-01 0.  0.
         14    1    1    2    0    0 -0.99450208340E-03  0.23952740702E-01 -0.88485214982E-03  0.23989701642E-01  0.00000000000E+00 0.  1.
     999901    1    3    3    0    0 -0.42611530285E-01 -0.44522928059E-01 -0.11819196902E+00  0.89003785042E+00  0.88000000000E+00 0.  1.
        -11    1    4    4    0    0  0.21691398792E-01  0.19904620060E-01  0.58805161254E-01  0.65764875065E-01  0.51100000000E-03 0.  1.
         11    1    4    4    0    0  0.21914633576E-01  0.66556729732E-03  0.60271659914E-01  0.64137572876E-01  0.51100000000E-03 0. -1.
</event>
<event>
 8    1  0.1148488E+005  0.1043930E+01  0.7957747E-01            NaN
         13   -1    0    0    0    0  0.00000000000E+00  0.00000000000E+00  0.74505805969E-08  0.10566000000E+00  0.10566000000E+00 0. -1.
     999900   -1    0    0    0    0 -0.00000000000E+00 -0.00000000000E+00 -0.74505805969E-08  0.93827000000E+00  0.93827000000E+00 0. -1.
     999902    2    1    2    0    0  0.22112258222E-01 -0.34960406205E-02 -0.10030041327E-01  0.10193988771E+01  0.10191036721E+01 0.  0.
     999903    2    3    3    0    0  0.68087581206E-01  0.43971677225E-01  0.98957325561E-01  0.13021657815E+00  0.24379865245E-01 0.  0.
         14    1    1    2    0    0 -0.22112258222E-01  0.34960406205E-02  0.10030041327E-01  0.24531122940E-01  0.00000000000E+00 0.  1.
     999901    1    3    3    0    0 -0.45975322984E-01 -0.47467717846E-01 -0.10898736689E+00  0.88918229891E+00  0.88000000000E+00 0. -1.
        -11    1    4    4    0    0  0.57150655989E-01  0.25496135330E-01  0.66685617024E-01  0.91452080543E-01  0.51100000000E-03 0. -1.
         11    1    4    4    0    0  0.10936925217E-01  0.18475541895E-01  0.32271708537E-01  0.38764497603E-01  0.51100000000E-03 0.  1.
</event>
<event>
 8    1  0.1148488E+005  0.1043930E+01  0.7957747E-01            NaN
         13   -1    0    0    0    0  0.00000000000E+00  0.00000000000E+00  0.74505805969E-08  0.10566000000E+00  0.10566000000E+00 0. -1.
     999900   -1    0    0    0    0 -0.00000000000E+00 -0.00000000000E+00 -0.74505805969E-08  0.93827000000E+00  0.93827000000E+00 0.  1.
     999902    2    1    2    0    0 -0.25317983195E-01  0.10885310616E-01 -0.10217558532E-01  0.10145380153E+01  0.10141121712E+01 0.  0.
     999903    2    3    3    0    0 -0.27904955468E-01 -0.11968672312E+00  0.82998069272E-02  0.12470733411E+00  0.19479069642E-01 0.  0.
         14    1    1    2    0    0  0.25317983195E-01 -0.10885310616E-01  0.10217558532E-01  0.29391984667E-01  0.00000000000E+00 0. -1.
     999901    1    3    3    0    0  0.25869722727E-02  0.13057203374E+00 -0.18517365459E-01  0.88983068122E+00  0.88000000000E+00 0.  1.
        -11    1    4    4    0    0 -0.94582212262E-02 -0.34221948226E-01 -0.62977741599E-02  0.36062761535E-01  0.51100000000E-03 0.  1.
         11    1    4    4    0    0 -0.18446734242E-01 -0.85464774899E-01  0.14597581087E-01  0.88644572576E-01  0.51100000000E-03 0. -1.
</event>
<event>
 8    1  0.1148488E+005  0.1043930E+01  0.7957747E-01            NaN
         13   -1    0    0    0    0  0.00000000000E+00  0.00000000000E+00  0.74505805969E-08  0.10566000000E+00  0.10566000000E+00 0.  1.
     999900   -1    0    0    0    0 -0.00000000000E+00 -0.00000000000E+00 -0.74505805969E-08  0.93827000000E+00  0.93827000000E+00 0. -1.
     999902    2    1    2    0    0 -0.76753465728E-02 -0.37096628434E-02 -0.23168891736E-01  0.10192425520E+01  0.10189435263E+01 0.  0.
     999903    2    3    3    0    0  0.92981391882E-01  0.59938572820E-01  0.59717412908E-01  0.12736082421E+00  0.20406822194E-01 0.  0.
         14    1    1    2    0    0  0.76753465728E-02  0.37096628434E-02  0.23168891736E-01  0.24687447979E-01  0.00000000000E+00 0.  1.
     999901    1    3    3    0    0 -0.10065673845E+00 -0.63648235663E-01 -0.82886304644E-01  0.89188172781E+00  0.88000000000E+00 0. -1.
        -11    1    4    4    0    0  0.69642763543E-01  0.53145420093E-01  0.51884975040E-01  0.10181778797E+00  0.51100000000E-03 0. -1.
         11    1    4    4    0    0  0.23338628339E-01  0.67931527271E-02  0.78324378677E-02  0.25543036246E-01  0.51100000000E-03 0.  1.
</event>
<event>
 8    1  0.1148488E+005  0.1043930E+01  0.7957747E-01            NaN
         13   -1    0    0    0    0  0.00000000000E+00  0.00000000000E+00  0.74505805969E-08  0.10566000000E+00  0.10566000000E+00 0.  1.
     999900   -1    0    0    0    0 -0.00000000000E+00 -0.00000000000E+00 -0.74505805969E-08  0.93827000000E+00  0.93827000000E+00 0. -1.
     999902    2    1    2    0    0 -0.19167874574E-01 -0.13493371597E-01  0.12590397222E-02  0.10204552546E+01  0.10201852101E+01 0.  0.
     999903    2    3    3    0    0 -0.12540047240E+00 -0.38389763596E-01  0.15651443882E-01  0.13359994704E+00  0.20122766339E-01 0.  0.
         14    1    1    2    0    0  0.19167874574E-01  0.13493371597E-01 -0.12590397222E-02  0.23474745446E-01  0.00000000000E+00 0.  1.
     999901    1    3    3    0    0  0.10623259783E+00  0.24896391999E-01 -0.14392404160E-01  0.88685530752E+00  0.88000000000E+00 0. -1.
        -11    1    4    4    0    0 -0.90218549346E-01 -0.23158455320E-01  0.28850159807E-02  0.93189511948E-01  0.51100000000E-03 0. -1.
         11    1    4    4    0    0 -0.35181923054E-01 -0.15231308277E-01  0.12766427901E-01  0.40410435087E-01  0.51100000000E-03 0.  1.
</event>
<event>
 8    1  0.1148488E+005  0.1043930E+01  0.7957747E-01            NaN
         13   -1    0    0    0    0  0.00000000000E+00  0.00000000000E+00  0.74505805969E-08  0.10566000000E+00  0.10566000000E+00 0. -1.
     999900   -1    0    0    0    0 -0.00000000000E+00 -0.00000000000E+00 -0.74505805969E-08  0.93827000000E+00  0.93827000000E+00 0.  1.
     999902    2    1    2    0    0 -0.91102540678E-02 -0.13616949983E-01 -0.17678167422E-01  0.10198273931E+01  0.10195425327E+01 0.  0.
     999903    2    3    3    0    0 -0.84288897815E-02  0.96191525605E-01 -0.85321716455E-01  0.13042646253E+00  0.20184425890E-01 0.  0.
         14    1    1    2    0    0  0.91102540678E-02  0.13616949983E-01  0.17678167422E-01  0.24102606901E-01  0.00000000000E+00 0. -1.
     999901    1    3    3    0    0 -0.68136428636E-03 -0.10980847559E+00  0.67643549033E-01  0.88940093057E+00  0.88000000000E+00 0. -1.
        -11    1    4    4    0    0  0.10094576691E-02  0.60341190094E-01 -0.42666965130E-01  0.73910819649E-01  0.51100000000E-03 0.  1.
         11    1    4    4    0    0 -0.94383474506E-02  0.35850335511E-01 -0.42654751325E-01  0.56515642883E-01  0.51100000000E-03 0. -1.
</event>
<event>
 8    1  0.1148488E+005  0.1043930E+01  0.7957747E-01            NaN
         13   -1    0    0    0    0  0.00000000000E+00  0.00000000000E+00  0.74505805969E-08  0.10566000000E+00  0.10566000000E+00 0. -1.
     999900   -1    0    0    0    0 -0.00000000000E+00 -0.00000000000E+00 -0.74505805969E-08  0.93827000000E+00  0.93827000000E+00 0. -1.
     999902    2    1    2    0    0 -0.14207386620E-01  0.18039477627E-01  0.16787412666E-02  0.10209063000E+01  0.10206466493E+01 0.  0.
     999903    2    3    3    0    0  0.95960456877E-01 -0.47496218353E-01  0.69312585516E-01  0.12905080834E+00  0.19636103994E-01 0.  0.
         14    1    1    2    0    0  0.14207386620E-01 -0.18039477627E-01 -0.16787412666E-02  0.23023699961E-01  0.00000000000E+00 0. -1.
     999901    1    3    3    0    0 -0.11016784350E+00  0.65535695980E-01 -0.67633844249E-01  0.89185549170E+00  0.88000000000E+00 0.  1.
        -11    1    4    4    0    0  0.42559820377E-01 -0.29074155168E-01  0.40993773268E-01  0.65858905070E-01  0.51100000000E-03 0.  1.
         11    1    4    4    0    0  0.53400636500E-01 -0.18422063185E-01  0.28318812248E-01  0.63191903269E-01  0.51100000000E-03 0. -1.
</event>
<event>
 8    1  0.1148488E+005  0.1043930E+01  0.7957747E-01            NaN
         13   -1    0    0    0    0  0.00000000000E+00  0.00000000000E+00  0.74505805969E-08  0.10566000000E+00  0.10566000000E+00 0. -1.
     999900   -1    0    0    0    0 -0.00000000000E+00 -0.00000000000E+00 -0.74505805969E-08  0.93827000000E+00  0.93827000000E+00 0. -1.
     999902    2    1    2    0    0 -0.13110569160E-01 -0.81190097376E-03  0.19672086120E-01  0.10202754618E+01  0.10200012160E+01 0.  0.
     999903    2    3    3    0    0  0.26711688643E-01  0.12512745290E+00 -0.10481700226E-01  0.12990712006E+00  0.19889696443E-01 0.  0.
         14    1    1    2    0    0  0.13110569160E-01  0.81190097376E-03 -0.19672086120E-01  0.23654538237E-01  0.00000000000E+00 0.  1.
     999901    1    3    3    0    0 -0.39822257804E-01 -0.12593935387E+00  0.30153786346E-01  0.89036834170E+00  0.88000000000E+00 0.  1.
        -11    1    4    4    0    0  0.10593144500E-01  0.16325700633E-01 -0.66280983761E-03  0.19479313372E-01  0.51100000000E-03 0.  1.
         11    1    4    4    0    0  0.16118544144E-01  0.10880175226E+00 -0.98188903880E-02  0.11042780669E+00  0.51100000000E-03 0. -1.
</event>
<event>
 7    1  0.1148488E+005  0.1043930E+01  0.7957747E-01            NaN
         13   -1    0    0    0    0  0.00000000000E+00  0.00000000000E+00  0.74505805969E-08  0.10566000000E+00  0.10566000000E+00 0.  1.
     999900   -1    0    0    0    0 -0.00000000000E+00 -0.00000000000E+00 -0.74505805969E-08  0.93827000000E+00  0.93827000000E+00 0. -1.
     999902    2    1    2    0    0 -0.16472789724E-01 -0.15738469084E-01 -0.57951815679E-02  0.10204217814E+01  0.10201509573E+01 0.  0.
         14    1    1    2    0    0  0.16472789724E-01  0.15738469084E-01  0.57951815679E-02  0.23508218558E-01  0.00000000000E+00 0. -1.
     999901    1    3    3    0    0 -0.58749888678E-01 -0.56317796638E-01 -0.11164581688E+00  0.89077945198E+00  0.88000000000E+00 0. -1.
        -11    1    3    3    0    0  0.51904262767E-01  0.27919736876E-01  0.83351302239E-01  0.10208459681E+00  0.51100000000E-03 0. -1.
         11    1    3    3    0    0 -0.96271638130E-02  0.12659590679E-01  0.22499333072E-01  0.27557732652E-01  0.51100000000E-03 0.  1.
</event>
<event>
 8    1  0.1148488E+005  0.1043930E+01  0.7957747E-01            NaN
         13   -1    0    0    0    0  0.00000000000E+00  0.00000000000E+00  0.74505805969E-08  0.10566000000E+00  0.10566000000E+00 0. -1.
     999900   -1    0    0    0    0 -0.00000000000E+00 -0.00000000000E+00 -0.74505805969E-08  0.93827000000E+00  0.93827000000E+00 0. -1.
     999902    2    1    2    0    0  0.17180934743E-01  0.12417710945E-01 -0.10046974240E-01  0.10204709771E+01  0.10202012985E+01 0.  0.
     999903    2    3    3    0    0  0.85715081363E-01  0.50157598240E-01  0.84467410490E-01  0.13195862645E+00  0.20383224122E-01 0.  0.
         14    1    1    2    0    0 -0.17180934743E-01 -0.12417710945E-01  0.10046974240E-01  0.23459022894E-01  0.00000000000E+00 0. -1.
     999901    1    3    3    0    0 -0.68534146620E-01 -0.37739887295E-01 -0.94514384730E-01  0.88851235066E+00  0.88000000000E+00 0. -1.
        -11    1    4    4    0    0  0.80940920387E-01  0.40635406454E-01  0.73279860320E-01  0.11650265190E+00  0.51100000000E-03 0. -1.
         11    1    4    4    0    0  0.47741609763E-02  0.95221917860E-02  0.11187550170E-01  0.15455974548E-01  0.51100000000E-03 0.  1.
</event>
<event>
 8    1  0.1148488E+005  0.1043930E+01  0.7957747E-01            NaN
         13   -1    0    0    0    0  0.00000000000E+00  0.00000000000E+00  0.74505805969E-08  0.10566000000E+00  0.10566000000E+00 0. -1.
     999900   -1    0    0    0    0 -0.00000000000E+00 -0.00000000000E+00 -0.74505805969E-08  0.93827000000E+00  0.93827000000E+00 0.  1.
     999902    2    1    2    0    0  0.89717148329E-02  0.19745573483E-01 -0.98113088014E-02  0.10201257752E+01  0.10198480063E+01 0.  0.
     999903    2    3    3    0    0  0.12608876663E+00  0.28580383829E-01 -0.18709048506E-01  0.13227802501E+00  0.20790189853E-01 0.  0.
         14    1    1    2    0    0 -0.89717148329E-02 -0.19745573483E-01  0.98113088014E-02  0.23804224827E-01  0.00000000000E+00 0. -1.
     999901    1    3    3    0    0 -0.11711705180E+00 -0.88348103467E-02  0.88977397047E-02  0.88784775016E+00  0.88000000000E+00 0.  1.
        -11    1    4    4    0    0  0.67391146433E-01  0.17817778130E-01 -0.20215171315E-01  0.72580673098E-01  0.51100000000E-03 0.  1.
         11    1    4    4    0    0  0.58697620200E-01  0.10762605700E-01  0.15061228093E-02  0.59697351914E-01  0.51100000000E-03 0. -1.
</event>
<event>
 7    1  0.1190697E+005  0.1043930E+01  0.7957747E-01            NaN
         13   -1    0    0    0    0  0.00000000000E+00  0.00000000000E+00  0.74505805969E-08  0.10566000000E+00  0.10566000000E+00 0.  1.
     999900   -1    0    0    0    0 -0.00000000000E+00 -0.00000000000E+00 -0.74505805969E-08  0.93827000000E+00  0.93827000000E+00 0.  1.
     999903    2    1    2    0    0  0.63571483813E-01  0.42748310409E-01  0.38515595522E-01  0.88094296822E-01  0.20208969226E-01 0.  0.
         14    1    1    2    0    0  0.22074364028E-01 -0.65461586477E-01 -0.16907645454E-01  0.71122185892E-01  0.00000000000E+00 0.  1.
     999901    1    1    2    0    0 -0.85645847841E-01  0.22713276068E-01 -0.21607950068E-01  0.88471351729E+00  0.88000000000E+00 0. -1.
        -11    1    3    3    0    0  0.36219928576E-01  0.18004340667E-01  0.29658661328E-01  0.50159115041E-01  0.51100000000E-03 0.  1.
         11    1    3    3    0    0  0.27351555236E-01  0.24743969742E-01  0.88569341939E-02  0.37935181781E-01  0.51100000000E-03 0. -1.
</event>
<event>
 8    1  0.1511919E+005  0.1043930E+01  0.7957747E-01            NaN
         13   -1    0    0    0    0  0.00000000000E+00  0.00000000000E+00  0.74505805969E-08  0.10566000000E+00  0.10566000000E+00 0. -1.
     999900   -1    0    0    0    0 -0.00000000000E+00 -0.00000000000E+00 -0.74505805969E-08  0.93827000000E+00  0.93827000000E+00 0. -1.
     999902    2    1    2    0    0 -0.18983688958E-01 -0.82973839171E-03  0.12699067002E-01  0.10210753459E+01  0.10208195368E+01 0.  0.
     999903    2    3    3    0    0  0.60075943778E-01 -0.10830290115E+00 -0.33199708160E-01  0.12983598196E+00  0.20408923783E-01 0.  0.
         14    1    1    2    0    0  0.18983688958E-01  0.82973839171E-03 -0.12699067002E-01  0.22854654121E-01  0.00000000000E+00 0.  1.
     999901    1    3    3    0    0 -0.79059632736E-01  0.10747316276E+00  0.45898775162E-01  0.89123936392E+00  0.88000000000E+00 0.  1.
        -11    1    4    4    0    0  0.26115528157E-01 -0.59675041941E-01 -0.89402326509E-02  0.65751960597E-01  0.51100000000E-03 0. -1.
         11    1    4    4    0    0  0.33960415621E-01 -0.48627859212E-01 -0.24259475509E-01  0.64084021360E-01  0.51100000000E-03 0.  1.
</event>
<event>
 8    1  0.1148488E+005  0.1043930E+01  0.7957747E-01            NaN
         13   -1    0    0    0    0  0.00000000000E+00  0.00000000000E+00  0.74505805969E-08  0.10566000000E+00  0.10566000000E+00 0.  1.
     999900   -1    0    0    0    0 -0.00000000000E+00 -0.00000000000E+00 -0.74505805969E-08  0.93827000000E+00  0.93827000000E+00 0.  1.
     999902    2    1    2    0    0 -0.23499976500E-01  0.20189587297E-02  0.18162270258E-02  0.10202736315E+01  0.10199993428E+01 0.  0.
     999903    2    3    3    0    0 -0.96148654979E-01  0.28265443352E-01  0.85363587300E-01  0.13294794730E+00  0.18566515884E-01 0.  0.
         14    1    1    2    0    0  0.23499976500E-01 -0.20189587297E-02 -0.18162270258E-02  0.23656368497E-01  0.00000000000E+00 0. -1.
     999901    1    3    3    0    0  0.72648678479E-01 -0.26246484622E-01 -0.83547360274E-01  0.88732568420E+00  0.88000000000E+00 0.  1.
        -11    1    4    4    0    0 -0.74241987153E-02  0.69959673588E-02  0.12771224840E-01  0.16353213469E-01  0.51100000000E-03 0.  1.
         11    1    4    4    0    0 -0.88724456264E-01  0.21269475993E-01  0.72592362460E-01  0.11659473383E+00  0.51100000000E-03 0. -1.
</event>
<event>
 8    1  0.1148488E+005  0.1043930E+01  0.7957747E-01            NaN
         13   -1    0    0    0    0  0.00000000000E+00  0.00000000000E+00  0.74505805969E-08  0.10566000000E+00  0.10566000000E+00 0.  1.
     999900   -1    0    0    0    0 -0.00000000000E+00 -0.00000000000E+00 -0.74505805969E-08  0.93827000000E+00  0.93827000000E+00 0.  1.
     999902    2    1    2    0    0 -0.57105989905E-03 -0.16397149164E-01 -0.17328635167E-01  0.10200663413E+01  0.10197871672E+01 0.  0.
     999903    2    3    3    0    0  0.62425946165E-01 -0.11107831864E+00  0.26440466082E-01  0.13166953758E+00  0.20059343270E-01 0.  0.
         14    1    1    2    0    0  0.57105989905E-03  0.16397149164E-01  0.17328635167E-01  0.23863658706E-01  0.00000000000E+00 0.  1.
     999901    1    3    3    0    0 -0.62997006064E-01  0.94681169479E-01 -0.43769101249E-01  0.88839680372E+00  0.88000000000E+00 0.  1.
        -11    1    4    4    0    0  0.45809069516E-01 -0.67723369816E-01  0.98160117081E-02  0.82350111572E-01  0.51100000000E-03 0. -1.
         11    1    4    4    0    0  0.16616876650E-01 -0.43354948827E-01  0.16624454374E-01  0.49319426007E-01  0.51100000000E-03 0.  1.
</event>
<event>
 8    1  0.1148488E+005  0.1043930E+01  0.7957747E-01            NaN
         13   -1    0    0    0    0  0.00000000000E+00  0.00000000000E+00  0.74505805969E-08  0.10566000000E+00  0.10566000000E+00 0. -1.
     999900   -1    0    0    0    0 -0.00000000000E+00 -0.00000000000E+00 -0.74505805969E-08  0.93827000000E+00  0.93827000000E+00 0.  1.
     999902    2    1    2    0    0  0.19252239685E-01 -0.19186843094E-02  0.14423231312E-01  0.10197978703E+01  0.10195123033E+01 0.  0.
     999903    2    3    3    0    0 -0.10016777134E+00  0.74689237003E-01 -0.17846923277E-01  0.12784984742E+00  0.20371702820E-01 0.  0.
         14    1    1    2    0    0 -0.19252239685E-01  0.19186843094E-02 -0.14423231312E-01  0.24132129700E-01  0.00000000000E+00 0. -1.
     999901    1    3    3    0    0  0.11942001103E+00 -0.76607921312E-01  0.32270154590E-01  0.89194802288E+00  0.88000000000E+00 0.  1.
        -11    1    4    4    0    0 -0.29409484706E-01  0.34035335260E-01 -0.57168590801E-02  0.45346063067E-01  0.51100000000E-03 0. -1.
         11    1    4    4    0    0 -0.70758286634E-01  0.40653901743E-01 -0.12130064197E-01  0.82503784354E-01  0.51100000000E-03 0.  1.
</event>
<event>
 8    1  0.1148488E+005  0.1043930E+01  0.7957747E-01            NaN
         13   -1    0    0    0    0  0.00000000000E+00  0.00000000000E+00  0.74505805969E-08  0.10566000000E+00  0.10566000000E+00 0.  1.
     999900   -1    0    0    0    0 -0.00000000000E+00 -0.00000000000E+00 -0.74505805969E-08  0.93827000000E+00  0.93827000000E+00 0. -1.
     999902    2    1    2    0    0 -0.22889308611E-01  0.58721377244E-02  0.34030008763E-02  0.10200556861E+01  0.10197762597E+01 0.  0.
     999903    2    3    3    0    0  0.68201804878E-01  0.11709787258E-01  0.10639019593E+00  0.12936043435E+00  0.25032836009E-01 0.  0.
         14    1    1    2    0    0  0.22889308611E-01 -0.58721377244E-02 -0.34030008763E-02  0.23874313919E-01  0.00000000000E+00 0.  1.
     999901    1    3    3    0    0 -0.91091113489E-01 -0.58376495332E-02 -0.10298719506E+00  0.89069525173E+00  0.88000000000E+00 0.  1.
        -11    1    4    4    0    0  0.57679823255E-01  0.16754062797E-01  0.76459514449E-01  0.97231574613E-01  0.51100000000E-03 0. -1.
         11    1    4    4    0    0  0.10521981623E-01 -0.50442755393E-02  0.29930681484E-01  0.32128859738E-01  0.51100000000E-03 0.  1.
</event>
<event>
 8    1  0.1148488E+005  0.1043930E+01  0.7957747E-01            NaN
         13   -1    0    0    0    0  0.00000000000E+00  0.00000000000E+00  0.74505805969E-08  0.10566000000E+00  0.10566000000E+00 0. -1.
     999900   -1    0    0    0    0 -0.00000000000E+00 -0.00000000000E+00 -0.74505805969E-08  0.93827000000E+00  0.93827000000E+00 0. -1.
     999902    2    1    2    0    0  0.90187590785E-02  0.23597446836E-01 -0.13823670511E-02  0.10186300306E+01  0.10183157913E+01 0.  0.
     999903    2    3    3    0    0  0.62582271536E-01 -0.14099474905E-01 -0.11070396592E+00  0.12944989152E+00  0.19661394651E-01 0.  0.
         14    1    1    2    0    0 -0.90187590785E-02 -0.23597446836E-01  0.13823670511E-02  0.25299969391E-01  0.00000000000E+00 0. -1.
     999901    1    3    3    0    0 -0.53563512458E-01  0.37696921742E-01  0.10932159887E+00  0.88918013909E+00  0.88000000000E+00 0.  1.
        -11    1    4    4    0    0  0.20512671001E-01  0.42125159083E-02 -0.29533065611E-01  0.36207430830E-01  0.51100000000E-03 0. -1.
         11    1    4    4    0    0  0.42069600535E-01 -0.18311990814E-01 -0.81170900311E-01  0.93242460688E-01  0.51100000000E-03 0.  1.
</event>
<event>
 8    1  0.1148488E+005  0.1043930E+01  0.7957747E-01            NaN
         13   -1    0    0    0    0  0.00000000000E+00  0.00000000000E+00  0.74505805969E-08  0.10566000000E+00  0.10566000000E+00 0.  1.
     999900   -1    0    0    0    0 -0.00000000000E+00 -0.00000000000E+00 -0.74505805969E-08  0.93827000000E+00  0.93827000000E+00 0.  1.
     999902    2    1    2    0    0 -0.47285442291E-02 -0.18629972509E-01  0.26360453338E-01  0.10113062585E+01  0.10107799167E+01 0.  0.
     999903    2    3    3    0    0  0.15823770462E-01  0.11480448639E+00 -0.21748520119E-01  0.11971126877E+00  0.20671911785E-01 0.  0.
         14    1    1    2    0    0  0.47285442291E-02  0.18629972509E-01 -0.26360453338E-01  0.32623741453E-01  0.00000000000E+00 0. -1.
     999901    1    3    3    0    0 -0.20552314691E-01 -0.13343445890E+00  0.48108973456E-01  0.89159498977E+00  0.88000000000E+00 0.  1.
        -11    1    4    4    0    0  0.16127545092E-01  0.54763754412E-01 -0.46498066107E-02  0.57280435845E-01  0.51100000000E-03 0. -1.
         11    1    4    4    0    0 -0.30377463013E-03  0.60040731979E-01 -0.17098713508E-01  0.62430832930E-01  0.51100000000E-03 0.  1.
</event>
<event>
 8    1  0.1148488E+005  0.1043930E+01  0.7957747E-01            NaN
         13   -1    0    0    0    0  0.00000000000E+00  0.00000000000E+00  0.74505805969E-08  0.10566000000E+00  0.10566000000E+00 0. -1.
     999900   -1    0    0    0    0 -0.00000000000E+00 -0.00000000000E+00 -0.74505805969E-08  0.93827000000E+00  0.93827000000E+00 0.  1.
     999902    2    1    2    0    0 -0.30673903901E-02 -0.13193005347E-01 -0.19658170200E-01  0.10200572555E+01  0.10197778663E+01 0.  0.
     999903    2    3    3    0    0 -0.24255951306E-01 -0.44194405531E-01 -0.12165240567E+00  0.13337080247E+00  0.21141582093E-01 0.  0.
         14    1    1    2    0    0  0.30673903901E-02  0.13193005347E-01  0.19658170200E-01  0.23872744490E-01  0.00000000000E+00 0.  1.
     999901    1    3    3    0    0  0.21188560916E-01  0.31001400184E-01  0.10199423547E+00  0.88668645304E+00  0.88000000000E+00 0. -1.
        -11    1    4    4    0    0 -0.87738877381E-02 -0.21472893296E-01 -0.81248991667E-01  0.84496899472E-01  0.51100000000E-03 0. -1.
         11    1    4    4    0    0 -0.15482063568E-01 -0.22721512235E-01 -0.40403414003E-01  0.48873903003E-01  0.51100000000E-03 0.  1.
</event>
<event>
 8    1  0.1148488E+005  0.1043930E+01  0.7957747E-01            NaN
         13   -1    0    0    0    0  0.00000000000E+00  0.00000000000E+00  0.74505805969E-08  0.10566000000E+00  0.10566000000E+00 0. -1.
     999900   -1    0    0    0    0 -0.00000000000E+00 -0.00000000000E+00 -0.74505805969E-08  0.93827000000E+00  0.93827000000E+00 0.  1.
     999902    2    1    2    0    0  0.23871191720E-01  0.47138950006E-03  0.15935868521E-02  0.10200010318E+01  0.10197203093E+01 0.  0.
     999903    2    3    3    0    0  0.54147710884E-01  0.14572941697E-01  0.11744818232E+00  0.13177932031E+00  0.20672893062E-01 0.  0.
         14    1    1    2    0    0 -0.23871191720E-01 -0.47138950006E-03 -0.15935868521E-02  0.23928968245E-01  0.00000000000E+00 0. -1.
     999901    1    3    3    0    0 -0.30276519163E-01 -0.14101552197E-01 -0.11585459547E+00  0.88822171144E+00  0.88000000000E+00 0.  1.
        -11    1    4    4    0    0  0.37787244593E-01  0.94352734798E-02  0.57696692222E-01  0.69613717426E-01  0.51100000000E-03 0. -1.
         11    1    4    4    0    0  0.16360466291E-01  0.51376682172E-02  0.59751490100E-01  0.62165602886E-01  0.51100000000E-03 0.  1.
</event>
<event>
 8    1  0.1148488E+005  0.1043930E+01  0.7957747E-01            NaN
         13   -1    0    0    0    0  0.00000000000E+00  0.00000000000E+00  0.74505805969E-08  0.10566000000E+00  0.10566000000E+00 0.  1.
     999900   -1    0    0    0    0 -0.00000000000E+00 -0.00000000000E+00 -0.74505805969E-08  0.93827000000E+00  0.93827000000E+00 0. -1.
     999902    2    1    2    0    0 -0.91367170178E-02 -0.88919287513E-02  0.19931422523E-01  0.10202697464E+01  0.10199953666E+01 0.  0.
     999903    2    3    3    0    0  0.80984562161E-01 -0.97321571811E-01  0.28131502676E-01  0.13122031697E+00  0.19934956578E-01 0.  0.
         14    1    1    2    0    0  0.91367170178E-02  0.88919287513E-02 -0.19931422523E-01  0.23660253561E-01  0.00000000000E+00 0. -1.
     999901    1    3    3    0    0 -0.90121279179E-01  0.88429643059E-01 -0.82000801532E-02  0.88904942947E+00  0.88000000000E+00 0. -1.
        -11    1    4    4    0    0  0.67990681371E-01 -0.90795432969E-01  0.27160354278E-01  0.11663828431E+00  0.51100000000E-03 0. -1.
         11    1    4    4    0    0  0.12993880790E-01 -0.65261388417E-02  0.97114839819E-03  0.14582032656E-01  0.51100000000E-03 0.  1.
</event>
<event>
 8    1  0.1148488E+005  0.1043930E+01  0.7957747E-01            NaN
         13   -1    0    0    0    0  0.00000000000E+00  0.00000000000E+00  0.74505805969E-08  0.10566000000E+00  0.10566000000E+00 0.  1.
     999900   -1    0    0    0    0 -0.00000000000E+00 -0.00000000000E+00 -0.74505805969E-08  0.93827000000E+00  0.93827000000E+00 0. -1.
     999902    2    1    2    0    0  0.13088341207E-01 -0.11572543542E-01  0.15617740545E-01  0.10204962154E+01  0.10202271235E+01 0.  0.
     999903    2    3    3    0    0 -0.19267162812E-01  0.24521484791E-01  0.12643005969E+00  0.13222315629E+00  0.22931992625E-01 0.  0.
         14    1    1    2    0    0 -0.13088341207E-01  0.11572543542E-01 -0.15617740545E-01  0.23433784571E-01  0.00000000000E+00 0.  1.
     999901    1    3    3    0    0  0.32355504020E-01 -0.36094028333E-01 -0.11081231915E+00  0.88827305914E+00  0.88000000000E+00 0. -1.
        -11    1    4    4    0    0 -0.19330356010E-01  0.61214749244E-02  0.68350471544E-01  0.71296445914E-01  0.51100000000E-03 0.  1.
         11    1    4    4    0    0  0.63193197897E-04  0.18400009867E-01  0.58079588149E-01  0.60926710374E-01  0.51100000000E-03 0. -1.
</event>
<event>
 8    1  0.1148488E+005  0.1043930E+01  0.7957747E-01            NaN
         13   -1    0    0    0    0  0.00000000000E+00  0.00000000000E+00  0.74505805969E-08  0.10566000000E+00  0.10566000000E+00 0.  1.
     999900   -1    0    0    0    0 -0.00000000000E+00 -0.00000000000E+00 -0.74505805969E-08  0.93827000000E+00  0.93827000000E+00 0. -1.
     999902    2    1    2    0    0  0.12814364952E-01 -0.17920771243E-01  0.93705827914E-02  0.10199890348E+01  0.10197080275E+01 0.  0.
     999903    2    3    3    0    0  0.68707966344E-01 -0.93541399880E-01  0.62478224440E-01  0.13338709724E+00  0.20440426858E-01 0.  0.
         14    1    1    2    0    0 -0.12814364952E-01  0.17920771243E-01 -0.93705827914E-02  0.23940965163E-01  0.00000000000E+00 0. -1.
     999901    1    3    3    0    0 -0.55893601391E-01  0.75620628636E-01 -0.53107641648E-01  0.88660193760E+00  0.88000000000E+00 0. -1.
        -11    1    4    4    0    0  0.14260833550E-01 -0.84273939731E-02  0.11841060679E-01  0.20368214986E-01  0.51100000000E-03 0. -1.
         11    1    4    4    0    0  0.54447132794E-01 -0.85114005906E-01  0.50637163761E-01  0.11301888225E+00  0.51100000000E-03 0.  1.
</event>
<event>
 8    1  0.1148488E+005  0.1043930E+01  0.7957747E-01            NaN
         13   -1    0    0    0    0  0.00000000000E+00  0.00000000000E+00  0.74505805969E-08  0.10566000000E+00  0.10566000000E+00 0. -1.
     999900   -1    0    0    0    0 -0.00000000000E+00 -0.00000000000E+00 -0.74505805969E-08  0.93827000000E+00  0.93827000000E+00 0. -1.
     999902    2    1    2    0    0 -0.64174262234E-02  0.20087490763E-01 -0.11688297865E-01  0.10198196920E+01  0.10195346474E+01 0.  0.
     999903    2    3    3    0    0 -0.66766310398E-01 -0.19001412147E-01 -0.10963543265E+00  0.13147090276E+00  0.21115783467E-01 0.  0.
         14    1    1    2    0    0  0.64174262234E-02 -0.20087490763E-01  0.11688297865E-01  0.24110307992E-01  0.00000000000E+00 0. -1.
     999901    1    3    3    0    0  0.60348884175E-01  0.39088902910E-01  0.97947134786E-01  0.88834878925E+00  0.88000000000E+00 0.  1.
        -11    1    4    4    0    0 -0.26809437526E-01 -0.17916383801E-01 -0.42742689262E-01  0.53543826491E-01  0.51100000000E-03 0. -1.
         11    1    4    4    0    0 -0.39956872872E-01 -0.10850283456E-02 -0.66892743389E-01  0.77927076266E-01  0.51100000000E-03 0.  1.
</event>
<event>
 8    1  0.1148488E+005  0.1043930E+01  0.7957747E-01            NaN
         13   -1    0    0    0    0  0.00000000000E+00  0.00000000000E+00  0.74505805969E-08  0.10566000000E+00  0.10566000000E+00 0.  1.
     999900   -1    0    0    0    0 -0.00000000000E+00 -0.00000000000E+00 -0.74505805969E-08  0.93827000000E+00  0.93827000000E+00 0.  1.
     999902    2    1    2    0    0 -0.27332173708E-02  0.19265808616E-01  0.13350559664E-01  0.10203317098E+01  0.10200587820E+01 0.  0.
     999903    2    3    3    0    0 -0.80463024437E-01  0.96693971538E-01  0.38363457286E-01  0.13316617370E+00  0.20915365902E-01 0.  0.
         14    1    1    2    0    0  0.27332173708E-02 -0.19265808616E-01 -0.13350559664E-01  0.23598290238E-01  0.00000000000E+00 0. -1.
     999901    1    3    3    0    0  0.77729807067E-01 -0.77428162922E-01 -0.25012897622E-01  0.88716553606E+00  0.88000000000E+00 0.  1.
        -11    1    4    4    0    0 -0.66765330028E-02  0.62636539659E-02  0.89260414376E-02  0.12796280346E-01  0.51100000000E-03 0.  1.
         11    1    4    4    0    0 -0.73786491435E-01  0.90430317572E-01  0.29437415848E-01  0.12036989336E+00  0.51100000000E-03 0. -1.
</event>
<event>
 8    1  0.1148488E+005  0.1043930E+01  0.7957747E-01            NaN
         13   -1    0    0    0    0  0.00000000000E+00  0.00000000000E+00  0.74505805969E-08  0.10566000000E+00  0.10566000000E+00 0. -1.
     999900   -1    0    0    0    0 -0.00000000000E+00 -0.00000000000E+00 -0.74505805969E-08  0.93827000000E+00  0.93827000000E+00 0.  1.
     999902    2    1    2    0    0  0.18748384227E-01  0.31386241325E-02  0.14425431423E-01  0.10200669335E+01  0.10197877734E+01 0.  0.
     999903    2    3    3    0    0  0.11592566545E+00 -0.16126277348E-01 -0.54022126248E-01  0.13186671473E+00  0.27778113679E-01 0.  0.
         14    1    1    2    0    0 -0.18748384227E-01 -0.31386241325E-02 -0.14425431423E-01  0.23863066532E-01  0.00000000000E+00 0.  1.
     999901    1    3    3    0    0 -0.97177281218E-01  0.19264901480E-01  0.68447557670E-01  0.88820021874E+00  0.88000000000E+00 0.  1.
        -11    1    4    4    0    0  0.70002662574E-01 -0.18422135868E-01 -0.21392414959E-01  0.75482742373E-01  0.51100000000E-03 0.  1.
         11    1    4    4    0    0  0.45923002872E-01  0.22958585206E-02 -0.32629711288E-01  0.56383972358E-01  0.51100000000E-03 0. -1.
</event>
<event>
 8    1  0.1148488E+005  0.1043930E+01  0.7957747E-01            NaN
         13   -1    0    0    0    0  0.00000000000E+00  0.00000000000E+00  0.74505805969E-08  0.10566000000E+00  0.10566000000E+00 0. -1.
     999900   -1    0    0    0    0 -0.00000000000E+00 -0.00000000000E+00 -0.74505805969E-08  0.93827000000E+00  0.93827000000E+00 0.  1.
     999902    2    1    2    0    0 -0.10850438690E-01 -0.19462814336E-01 -0.10124157628E-01  0.10194548753E+01  0.10191610329E+01 0.  0.
     999903    2    3    3    0    0 -0.19425375008E-01 -0.62713113930E-01 -0.11287298869E+00  0.13238022216E+00  0.21769974549E-01 0.  0.
         14    1    1    2    0    0  0.10850438690E-01  0.19462814336E-01  0.10124157628E-01  0.24475124704E-01  0.00000000000E+00 0. -1.
     999901    1    3    3    0    0  0.85749363178E-02  0.43250299595E-01  0.10274883106E+00  0.88707465313E+00  0.88000000000E+00 0. -1.
        -11    1    4    4    0    0 -0.14932232482E-01 -0.61011613285E-01 -0.95176673055E-01  0.11403617293E+00  0.51100000000E-03 0. -1.
         11    1    4    4    0    0 -0.44931425252E-02 -0.17015006453E-02 -0.17696315631E-01  0.18344049229E-01  0.51100000000E-03 0.  1.
</event>
<event>
 8    1  0.1148488E+005  0.1043930E+01  0.7957747E-01            NaN
         13   -1    0    0    0    0  0.00000000000E+00  0.00000000000E+00  0.74505805969E-08  0.10566000000E+00  0.10566000000E+00 0. -1.
     999900   -1    0    0    0    0 -0.00000000000E+00 -0.00000000000E+00 -0.74505805969E-08  0.93827000000E+00  0.93827000000E+00 0.  1.
     999902    2    1    2    0    0  0.13951377427E-01  0.71902978308E-02 -0.15277460578E-01  0.10220269838E+01  0.10217922556E+01 0.  0.
     999903    2    3    3    0    0  0.48552844940E-01 -0.11637102185E+00  0.31985275698E-01  0.13146624615E+00  0.18992696977E-01 0.  0.
         14    1    1    2    0    0 -0.13951377427E-01 -0.71902978308E-02  0.15277460578E-01  0.21903016156E-01  0.00000000000E+00 0. -1.
     999901    1    3    3    0    0 -0.34601467513E-01  0.12356131968E+00 -0.47262736276E-01  0.89056073769E+00  0.88000000000E+00 0. -1.
        -11    1    4    4    0    0  0.28474303268E-01 -0.75313704171E-01  0.29289253669E-01  0.85679994655E-01  0.51100000000E-03 0. -1.
         11    1    4    4    0    0  0.20078541673E-01 -0.41057317677E-01  0.26960220290E-02  0.45786251499E-01  0.51100000000E-03 0.  1.
</event>
<event>
 8    1  0.1148488E+005  0.1043930E+01  0.7957747E-01            NaN
         13   -1    0    0    0    0  0.00000000000E+00  0.00000000000E+00  0.74505805969E-08  0.10566000000E+00  0.10566000000E+00 0. -1.
     999900   -1    0    0    0    0 -0.00000000000E+00 -0.00000000000E+00 -0.74505805969E-08  0.93827000000E+00  0.93827000000E+00 0.  1.
     999902    2    1    2    0    0 -0.12853055050E-01 -0.12775325036E-01  0.14177449939E-01  0.10209210878E+01  0.10206617743E+01 0.  0.
     999903    2    3    3    0    0  0.10331912231E+00 -0.14487702202E-02  0.78247982074E-01  0.13090462799E+00  0.18339437308E-01 0.  0.
         14    1    1    2    0    0  0.12853055050E-01  0.12775325036E-01 -0.14177449939E-01  0.23008912201E-01  0.00000000000E+00 0.  1.
     999901    1    3    3    0    0 -0.11617217736E+00 -0.11326554816E-01 -0.64070532135E-01  0.89001645981E+00  0.88000000000E+00 0.  1.
        -11    1    4    4    0    0  0.53518109730E-01 -0.53887140779E-02  0.50373993851E-01  0.73695499768E-01  0.51100000000E-03 0. -1.
         11    1    4    4    0    0  0.49801012583E-01  0.39399438577E-02  0.27873988222E-01  0.57209128226E-01  0.51100000000E-03 0.  1.
</event>
<event>
 8    1  0.1148488E+005  0.1043930E+01  0.7957747E-01            NaN
         13   -1    0    0    0    0  0.00000000000E+00  0.00000000000E+00  0.74505805969E-08  0.10566000000E+00  0.10566000000E+00 0.  1.
     999900   -1    0    0    0    0 -0.00000000000E+00 -0.00000000000E+00 -0.74505805969E-08  0.93827000000E+00  0.93827000000E+00 0.  1.
     999902    2    1    2    0    0 -0.12952716234E-01  0.16256807785E-01 -0.11064013894E-01  0.10203828333E+01  0.10201111005E+01 0.  0.
     999903    2    3    3    0    0 -0.38687376468E-01  0.12419451558E+00 -0.21827796739E-01  0.13334919213E+00  0.19610291554E-01 0.  0.
         14    1    1    2    0    0  0.12952716234E-01 -0.16256807785E-01  0.11064013894E-01  0.23547166722E-01  0.00000000000E+00 0.  1.
     999901    1    3    3    0    0  0.25734660234E-01 -0.10793770779E+00  0.10763782844E-01  0.88703364114E+00  0.88000000000E+00 0.  1.
        -11    1    4    4    0    0 -0.27947644655E-01  0.87143606847E-01 -0.62064660821E-02  0.91727097405E-01  0.51100000000E-03 0.  1.
         11    1    4    4    0    0 -0.10739731812E-01  0.37050908730E-01 -0.15621330656E-01  0.41622094728E-01  0.51100000000E-03 0. -1.
</event>
<event>
 8    1  0.1148488E+005  0.1043930E+01  0.7957747E-01            NaN
         13   -1    0    0    0    0  0.00000000000E+00  0.00000000000E+00  0.74505805969E-08  0.10566000000E+00  0.10566000000E+00 0.  1.
     999900   -1    0    0    0    0 -0.00000000000E+00 -0.00000000000E+00 -0.74505805969E-08  0.93827000000E+00  0.93827000000E+00 0. -1.
     999902    2    1    2    0    0 -0.15497429669E-01 -0.15669106951E-01 -0.97045135271E-02  0.10198495344E+01  0.10195652034E+01 0.  0.
     999903    2    3    3    0    0  0.10111393569E+00 -0.73472970078E-01 -0.29804618075E-01  0.13004983151E+00  0.20058367205E-01 0.  0.
         14    1    1    2    0    0  0.15497429669E-01  0.15669106951E-01  0.97045135271E-02  0.24080465564E-01  0.00000000000E+00 0. -1.
     999901    1    3    3    0    0 -0.11661136536E+00  0.57803863126E-01  0.20100104548E-01  0.88979970293E+00  0.88000000000E+00 0.  1.
        -11    1    4    4    0    0  0.57088615598E-01 -0.35793916365E-01 -0.25108959798E-01  0.71909912132E-01  0.51100000000E-03 0.  1.
         11    1    4    4    0    0  0.44025320090E-01 -0.37679053713E-01 -0.46956582772E-02  0.58139919379E-01  0.51100000000E-03 0. -1.
</event>
<event>
 8    1  0.1148488E+005  0.1043930E+01  0.7957747E-01            NaN
         13   -1    0    0    0    0  0.00000000000E+00  0.00000000000E+00  0.74505805969E-08  0.10566000000E+00  0.10566000000E+00 0. -1.
     999900   -1    0    0    0    0 -0.00000000000E+00 -0.00000000000E+00 -0.74505805969E-08  0.93827000000E+00  0.93827000000E+00 0.  1.
     999902    2    1    2    0    0 -0.15679023709E-01  0.27669572343E-02  0.12037165119E-01  0.10239705115E+01  0.10237759654E+01 0.  0.
     999903    2    3    3    0    0  0.96345943180E-01  0.43477548807E-01  0.75253312664E-01  0.13368784472E+00  0.32195352786E-01 0.  0.
         14    1    1    2    0    0  0.15679023709E-01 -0.27669572343E-02 -0.12037165119E-01  0.19959488493E-01  0.00000000000E+00 0.  1.
     999901    1    3    3    0    0 -0.11202496689E+00 -0.40710591573E-01 -0.63216147545E-01  0.89028266679E+00  0.88000000000E+00 0.  1.
        -11    1    4    4    0    0  0.30598357846E-01 -0.12749640659E-02  0.25666335604E-01  0.39961318054E-01  0.51100000000E-03 0. -1.
         11    1    4    4    0    0  0.65747585334E-01  0.44752512873E-01  0.49586977060E-01  0.93726526665E-01  0.51100000000E-03 0.  1.
</event>
<event>
 8    1  0.1148488E+005  0.1043930E+01  0.7957747E-01            NaN
         13   -1    0    0    0    0  0.00000000000E+00  0.00000000000E+00  0.74505805969E-08  0.10566000000E+00  0.10566000000E+00 0. -1.
     999900   -1    0    0    0    0 -0.00000000000E+00 -0.00000000000E+00 -0.74505805969E-08  0.93827000000E+00  0.93827000000E+00 0.  1.
     999902    2    1    2    0    0  0.99127626629E-02 -0.89286337373E-02  0.18217600035E-01  0.10213498247E+01  0.10211001911E+01 0.  0.
     999903    2    3    3    0    0  0.10969407414E+00 -0.72871214661E-01  0.85058295507E-02  0.13335248112E+00  0.19171104762E-01 0.  0.
         14    1    1    2    0    0 -0.99127626629E-02  0.89286337373E-02 -0.18217600035E-01  0.22580175266E-01  0.00000000000E+00 0.  1.
     999901    1    3    3    0    0 -0.99781311476E-01  0.63942580923E-01  0.97117704844E-02  0.88799734361E+00  0.88000000000E+00 0.  1.
        -11    1    4    4    0    0  0.58530905592E-01 -0.43285516432E-01 -0.41173841321E-02  0.72915820062E-01  0.51100000000E-03 0.  1.
         11    1    4    4    0    0  0.51163168547E-01 -0.29585698229E-01  0.12623213683E-01  0.60436661060E-01  0.51100000000E-03 0. -1.
</event>
<event>
 8    1  0.1148488E+005  0.1043930E+01  0.7957747E-01            NaN
         13   -1    0    0    0    0  0.00000000000E+00  0.00000000000E+00  0.74505805969E-08  0.10566000000E+00  0.10566000000E+00 0.  1.
     999900   -1    0    0    0    0 -0.00000000000E+00 -0.00000000000E+00 -0.74505805969E-08  0.93827000000E+00  0.93827000000E+00 0. -1.
     999902    2    1    2    0    0  0.70760026882E-02  0.12657643272E-01  0.19054637225E-01  0.10199849599E+01  0.10197038557E+01 0.  0.
     999903    2    3    3    0    0 -0.12082656412E+00 -0.31450928932E-01 -0.23503435413E-01  0.12862878959E+00  0.20118014488E-01 0.  0.
         14    1    1    2    0    0 -0.70760026882E-02 -0.12657643272E-01 -0.19054637225E-01  0.23945040134E-01  0.00000000000E+00 0. -1.
     999901    1    3    3    0    0  0.12790256681E+00  0.44108572203E-01  0.42558072638E-01  0.89135617027E+00  0.88000000000E+00 0.  1.
        -11    1    4    4    0    0 -0.58012057814E-01 -0.14482132806E-01 -0.10768924319E-02  0.59804279452E-01  0.51100000000E-03 0.  1.
         11    1    4    4    0    0 -0.62814506310E-01 -0.16968796125E-01 -0.22426542981E-01  0.68824510140E-01  0.51100000000E-03 0. -1.
</event>
<event>
 8    1  0.1148488E+005  0.1043930E+01  0.7957747E-01            NaN
         13   -1    0    0    0    0  0.00000000000E+00  0.00000000000E+00  0.74505805969E-08  0.10566000000E+00  0.10566000000E+00 0.  1.
     999900   -1    0    0    0    0 -0.00000000000E+00 -0.00000000000E+00 -0.74505805969E-08  0.93827000000E+00  0.93827000000E+00 0.  1.
     999902    2    1    2    0    0 -0.50477016850E-02  0.21745890098E-01 -0.13510641317E-02  0.10215651078E+01  0.10213202637E+01 0.  0.
     999903    2    3    3    0    0 -0.12183277274E+00 -0.24800473626E-01 -0.39065006424E-01  0.13183050792E+00  0.19872596379E-01 0.  0.
         14    1    1    2    0    0  0.50477016850E-02 -0.21745890098E-01  0.13510641317E-02  0.22364892192E-01  0.00000000000E+00 0.  1.
     999901    1    3    3    0    0  0.11678507105E+00  0.46546363724E-01  0.37713942292E-01  0.88973459989E+00  0.88000000000E+00 0. -1.
        -11    1    4    4    0    0 -0.11223412472E+00 -0.23792681061E-01 -0.41253523666E-01  0.12192089550E+00  0.51100000000E-03 0.  1.
         11    1    4    4    0    0 -0.95986480129E-02 -0.10077925650E-02  0.21885172419E-02  0.99096124166E-02  0.51100000000E-03 0. -1.
</event>
<event>
 8    1  0.1148488E+005  0.1043930E+01  0.7957747E-01            NaN
         13   -1    0    0    0    0  0.00000000000E+00  0.00000000000E+00  0.74505805969E-08  0.10566000000E+00  0.10566000000E+00 0. -1.
     999900   -1    0    0    0    0 -0.00000000000E+00 -0.00000000000E+00 -0.74505805969E-08  0.93827000000E+00  0.93827000000E+00 0. -1.
     999902    2    1    2    0    0  0.97959023504E-02  0.11932683053E-01  0.17342226943E-01  0.10207114414E+01  0.10204473260E+01 0.  0.
     999903    2    3    3    0    0  0.16352986616E-01 -0.72906973018E-01 -0.10268945138E+00  0.12849601541E+00  0.19576916617E-01 0.  0.
         14    1    1    2    0    0 -0.97959023504E-02 -0.11932683053E-01 -0.17342226943E-01  0.23218558591E-01  0.00000000000E+00 0. -1.
     999901    1    3    3    0    0 -0.65570842656E-02  0.84839656071E-01  0.12003167832E+00  0.89221542600E+00  0.88000000000E+00 0.  1.
        -11    1    4    4    0    0  0.15260608872E-01 -0.48357885478E-01 -0.54775953498E-01  0.74646081435E-01  0.51100000000E-03 0. -1.
         11    1    4    4    0    0  0.10923777444E-02 -0.24549087540E-01 -0.47913497884E-01  0.53849933971E-01  0.51100000000E-03 0.  1.
</event>
<event>
 8    1  0.1148488E+005  0.1043930E+01  0.7957747E-01            NaN
         13   -1    0    0    0    0  0.00000000000E+00  0.00000000000E+00  0.74505805969E-08  0.10566000000E+00  0.10566000000E+00 0. -1.
     999900   -1    0    0    0    0 -0.00000000000E+00 -0.00000000000E+00 -0.74505805969E-08  0.93827000000E+00  0.93827000000E+00 0.  1.
     999902    2    1    2    0    0  0.35240555750E-02  0.91076511286E-03 -0.23586088829E-01  0.10200647104E+01  0.10197854977E+01 0.  0.
     999903    2    3    3    0    0 -0.11937609555E+00  0.40561636428E-01  0.21353914916E-01  0.12950519939E+00  0.20486787136E-01 0.  0.
         14    1    1    2    0    0 -0.35240555750E-02 -0.91076511286E-03  0.23586088829E-01  0.23865289587E-01  0.00000000000E+00 0. -1.
     999901    1    3    3    0    0  0.12290015113E+00 -0.39650871315E-01 -0.44940003745E-01  0.89055951103E+00  0.88000000000E+00 0.  1.
        -11    1    4    4    0    0 -0.47526300858E-01  0.21385699997E-01  0.17724857053E-01  0.55050241745E-01  0.51100000000E-03 0.  1.
         11    1    4    4    0    0 -0.71849794694E-01  0.19175936431E-01  0.36290578621E-02  0.74454957642E-01  0.51100000000E-03 0. -1.
</event>
<event>
 8    1  0.1148488E+005  0.1043930E+01  0.7957747E-01            NaN
         13   -1    0    0    0    0  0.00000000000E+00  0.00000000000E+00  0.74505805969E-08  0.10566000000E+00  0.10566000000E+00 0.  1.
     999900   -1    0    0    0    0 -0.00000000000E+00 -0.00000000000E+00 -0.74505805969E-08  0.93827000000E+00  0.93827000000E+00 0. -1.
     999902    2    1    2    0    0 -0.15608312982E-03  0.37441864048E-02 -0.23793989537E-01  0.10198427164E+01  0.10195582224E+01 0.  0.
     999903    2    3    3    0    0 -0.49652596866E-01  0.20396645975E-01  0.11403139025E+00  0.12758544150E+00  0.19836415444E-01 0.  0.
         14    1    1    2    0    0  0.15608312982E-03 -0.37441864048E-02  0.23793989537E-01  0.24087283613E-01  0.00000000000E+00 0.  1.
     999901    1    3    3    0    0  0.49496513736E-01 -0.16652459571E-01 -0.13782537978E+00  0.89225727489E+00  0.88000000000E+00 0. -1.
        -11    1    4    4    0    0 -0.29079134426E-01  0.18889778014E-01  0.86393294669E-01  0.93093943182E-01  0.51100000000E-03 0.  1.
         11    1    4    4    0    0 -0.20573462440E-01  0.15068679613E-02  0.27638095578E-01  0.34491498315E-01  0.51100000000E-03 0. -1.
</event>
<event>
 8    1  0.1148488E+005  0.1043930E+01  0.7957747E-01            NaN
         13   -1    0    0    0    0  0.00000000000E+00  0.00000000000E+00  0.74505805969E-08  0.10566000000E+00  0.10566000000E+00 0. -1.
     999900   -1    0    0    0    0 -0.00000000000E+00 -0.00000000000E+00 -0.74505805969E-08  0.93827000000E+00  0.93827000000E+00 0. -1.
     999902    2    1    2    0    0  0.13986702952E-01  0.86500309828E-02 -0.14408596531E-01  0.10220654499E+01  0.10218315543E+01 0.  0.
     999903    2    3    3    0    0  0.93436405324E-01  0.91982586855E-01  0.18065607661E-01  0.13397134230E+00  0.20755631865E-01 0.  0.
         14    1    1    2    0    0 -0.13986702952E-01 -0.86500309828E-02  0.14408596531E-01  0.21864550063E-01  0.00000000000E+00 0.  1.
     999901    1    3    3    0    0 -0.79449702372E-01 -0.83332555872E-01 -0.32474204193E-01  0.88809410763E+00  0.88000000000E+00 0. -1.
        -11    1    4    4    0    0  0.31277232453E-01  0.41536291833E-01  0.13821720695E-01  0.53803623420E-01  0.51100000000E-03 0.  1.
         11    1    4    4    0    0  0.62159172871E-01  0.50446295022E-01  0.42438869663E-02  0.80167718883E-01  0.51100000000E-03 0. -1.
</event>
<event>
 8    1  0.1148488E+005  0.1043930E+01  0.7957747E-01            NaN
         13   -1    0    0    0    0  0.00000000000E+00  0.00000000000E+00  0.74505805969E-08  0.10566000000E+00  0.10566000000E+00 0. -1.
     999900   -1    0    0    0    0 -0.00000000000E+00 -0.00000000000E+00 -0.74505805969E-08  0.93827000000E+00  0.93827000000E+00 0. -1.
     999902    2    1    2    0    0  0.24917195705E-02 -0.16441647888E-01 -0.15570745579E-01  0.10211487672E+01  0.10208946175E+01 0.  0.
     999903    2    3    3    0    0  0.30729206265E-01 -0.12658006246E+00  0.19114816796E-01  0.13315613529E+00  0.19959554476E-01 0.  0.
         14    1    1    2    0    0 -0.24917195705E-02  0.16441647888E-01  0.15570745579E-01  0.22781232837E-01  0.00000000000E+00 0. -1.
     999901    1    3    3    0    0 -0.28237486694E-01  0.11013841457E+00 -0.34685562376E-01  0.88799263187E+00  0.88000000000E+00 0. -1.
        -11    1    4    4    0    0  0.22481970630E-01 -0.57338350648E-01  0.14477243272E-01  0.63269085280E-01  0.51100000000E-03 0.  1.
         11    1    4    4    0    0  0.82472356352E-02 -0.69241711811E-01  0.46375735242E-02  0.69887050012E-01  0.51100000000E-03 0. -1.
</event>
<event>
 8    1  0.1148488E+005  0.1043930E+01  0.7957747E-01            NaN
         13   -1    0    0    0    0  0.00000000000E+00  0.00000000000E+00  0.74505805969E-08  0.10566000000E+00  0.10566000000E+00 0. -1.
     999900   -1    0    0    0    0 -0.00000000000E+00 -0.00000000000E+00 -0.74505805969E-08  0.93827000000E+00  0.93827000000E+00 0. -1.
     999902    2    1    2    0    0  0.20819925955E-01 -0.70068331248E-02 -0.67369964415E-02  0.10209527907E+01  0.10206941994E+01 0.  0.
     999903    2    3    3    0    0 -0.65011140479E-01  0.90192508489E-01 -0.63663146504E-01  0.12963058713E+00  0.19747301665E-01 0.  0.
         14    1    1    2    0    0 -0.20819925955E-01  0.70068331248E-02  0.67369964415E-02  0.22977209322E-01  0.00000000000E+00 0.  1.
     999901    1    3    3    0    0  0.85831066434E-01 -0.97199341614E-01  0.56926150062E-01  0.89132220355E+00  0.88000000000E+00 0. -1.
        -11    1    4    4    0    0 -0.15032152798E-01  0.25795754714E-01 -0.26963466106E-01  0.40232775251E-01  0.51100000000E-03 0.  1.
         11    1    4    4    0    0 -0.49978987681E-01  0.64396753776E-01 -0.36699680398E-01  0.89397811879E-01  0.51100000000E-03 0. -1.
</event>
<event>
 8    1  0.1148488E+005  0.1043930E+01  0.7957747E-01            NaN
         13   -1    0    0    0    0  0.00000000000E+00  0.00000000000E+00  0.74505805969E-08  0.10566000000E+00  0.10566000000E+00 0. -1.
     999900   -1    0    0    0    0 -0.00000000000E+00 -0.00000000000E+00 -0.74505805969E-08  0.93827000000E+00  0.93827000000E+00 0.  1.
     999902    2    1    2    0    0  0.13510013841E-01 -0.32888853868E-02  0.10045852561E-01  0.10267760968E+01  0.10266327954E+01 0.  0.
     999903    2    3    3    0    0  0.22594679003E-01  0.53414950787E-01  0.12350930184E+00  0.13763504472E+00  0.18032787007E-01 0.  0.
         14    1    1    2    0    0 -0.13510013841E-01  0.32888853868E-02 -0.10045852561E-01  0.17153903192E-01  0.00000000000E+00 0. -1.
     999901    1    3    3    0    0 -0.90846651629E-02 -0.56703836173E-01 -0.11346344928E+00  0.88914105208E+00  0.88000000000E+00 0.  1.
        -11    1    4    4    0    0  0.13279814286E-01  0.31548900746E-01  0.51819938384E-01  0.62106793033E-01  0.51100000000E-03 0.  1.
         11    1    4    4    0    0  0.93148647170E-02  0.21866050041E-01  0.71689363461E-01  0.75528251691E-01  0.51100000000E-03 0. -1.
</event>
<event>
 8    1  0.1148488E+005  0.1043930E+01  0.7957747E-01            NaN
         13   -1    0    0    0    0  0.00000000000E+00  0.00000000000E+00  0.74505805969E-08  0.10566000000E+00  0.10566000000E+00 0.  1.
     999900   -1    0    0    0    0 -0.00000000000E+00 -0.00000000000E+00 -0.74505805969E-08  0.93827000000E+00  0.93827000000E+00 0.  1.
     999902    2    1    2    0    0  0.14828544813E-01 -0.15142087656E-01  0.10903810418E-01  0.10200959562E+01  0.10198174828E+01 0.  0.
     999903    2    3    3    0    0 -0.11485080990E+00  0.52813762645E-01 -0.10827802975E-02  0.12791973432E+00  0.19552083137E-01 0.  0.
         14    1    1    2    0    0 -0.14828544813E-01  0.15142087656E-01 -0.10903810418E-01  0.23834043750E-01  0.00000000000E+00 0. -1.
     999901    1    3    3    0    0  0.12967935471E+00 -0.67955850301E-01  0.11986590716E-01  0.89217622193E+00  0.88000000000E+00 0.  1.
        -11    1    4    4    0    0 -0.71307609248E-01  0.43006138286E-01 -0.11948837954E-02  0.83282602837E-01  0.51100000000E-03 0.  1.
         11    1    4    4    0    0 -0.43543200650E-01  0.98076243599E-02  0.11210349787E-03  0.44637131478E-01  0.51100000000E-03 0. -1.
</event>
<event>
 8    1  0.1148488E+005  0.1043930E+01  0.7957747E-01            NaN
         13   -1    0    0    0    0  0.00000000000E+00  0.00000000000E+00  0.74505805969E-08  0.10566000000E+00  0.10566000000E+00 0.  1.
     999900   -1    0    0    0    0 -0.00000000000E+00 -0.00000000000E+00 -0.74505805969E-08  0.93827000000E+00  0.93827000000E+00 0.  1.
     999902    2    1    2    0    0 -0.15616734154E-01 -0.90113815025E-02 -0.14873281888E-01  0.10205568980E+01  0.10202892140E+01 0.  0.
     999903    2    3    3    0    0 -0.41578161037E-01 -0.11204585056E+00 -0.55626418781E-01  0.13322893403E+00  0.19303737832E-01 0.  0.
         14    1    1    2    0    0  0.15616734154E-01  0.90113815025E-02  0.14873281888E-01  0.23373101984E-01  0.00000000000E+00 0.  1.
     999901    1    3    3    0    0  0.25961426883E-01  0.10303446906E+00  0.40753136893E-01  0.88732796398E+00  0.88000000000E+00 0. -1.
        -11    1    4    4    0    0 -0.17155697725E-01 -0.37631124810E-01 -0.98724754452E-02  0.42522304868E-01  0.51100000000E-03 0.  1.
         11    1    4    4    0    0 -0.24422463312E-01 -0.74414725749E-01 -0.45753943336E-01  0.90706629165E-01  0.51100000000E-03 0. -1.
</event>
<event>
 8    1  0.1148488E+005  0.1043930E+01  0.7957747E-01            NaN
         13   -1    0    0    0    0  0.00000000000E+00  0.00000000000E+00  0.74505805969E-08  0.10566000000E+00  0.10566000000E+00 0. -1.
     999900   -1    0    0    0    0 -0.00000000000E+00 -0.00000000000E+00 -0.74505805969E-08  0.93827000000E+00  0.93827000000E+00 0. -1.
     999902    2    1    2    0    0  0.17482305429E-01 -0.14169112454E-01  0.64637072227E-02  0.10205168784E+01  0.10202482663E+01 0.  0.
     999903    2    3    3    0    0  0.11282300846E+00 -0.62698462044E-01  0.27845080444E-01  0.13378010207E+00  0.21485781907E-01 0.  0.
         14    1    1    2    0    0 -0.17482305429E-01  0.14169112454E-01 -0.64637072227E-02  0.23413121576E-01  0.00000000000E+00 0.  1.
     999901    1    3    3    0    0 -0.95340703027E-01  0.48529349590E-01 -0.21381373221E-01  0.88673677636E+00  0.88000000000E+00 0.  1.
        -11    1    4    4    0    0  0.74873005178E-01 -0.38148565377E-01  0.79957102452E-02  0.84412513575E-01  0.51100000000E-03 0. -1.
         11    1    4    4    0    0  0.37950003278E-01 -0.24549896667E-01  0.19849370199E-01  0.49367588492E-01  0.51100000000E-03 0.  1.
</event>
<event>
 8    1  0.1148488E+005  0.1043930E+01  0.7957747E-01            NaN
         13   -1    0    0    0    0  0.00000000000E+00  0.00000000000E+00  0.74505805969E-08  0.10566000000E+00  0.10566000000E+00 0.  1.
     999900   -1    0    0    0    0 -0.00000000000E+00 -0.00000000000E+00 -0.74505805969E-08  0.93827000000E+00  0.93827000000E+00 0. -1.
     999902    2    1    2    0    0  0.21120263323E-01 -0.45157169169E-02 -0.10001687604E-01  0.10201289291E+01  0.10198512347E+01 0.  0.
     999903    2    3    3    0    0 -0.71640482512E-01  0.95384978446E-01  0.39448408537E-01  0.12826009516E+00  0.25764747763E-01 0.  0.
         14    1    1    2    0    0 -0.21120263323E-01  0.45157169169E-02  0.10001687604E-01  0.23801070922E-01  0.00000000000E+00 0. -1.
     999901    1    3    3    0    0  0.92760745834E-01 -0.99900695363E-01 -0.49450096142E-01  0.89186883392E+00  0.88000000000E+00 0. -1.
        -11    1    4    4    0    0 -0.54170104774E-01  0.69347690314E-01  0.16827064244E-01  0.89593044458E-01  0.51100000000E-03 0. -1.
         11    1    4    4    0    0 -0.17470377738E-01  0.26037288132E-01  0.22621344294E-01  0.38667050705E-01  0.51100000000E-03 0.  1.
</event>
<event>
 8    1  0.1148488E+005  0.1043930E+01  0.7957747E-01            NaN
         13   -1    0    0    0    0  0.00000000000E+00  0.00000000000E+00  0.74505805969E-08  0.10566000000E+00  0.10566000000E+00 0.  1.
     999900   -1    0    0    0    0 -0.00000000000E+00 -0.00000000000E+00 -0.74505805969E-08  0.93827000000E+00  0.93827000000E+00 0. -1.
     999902    2    1    2    0    0 -0.93385598548E-02  0.18381813305E-01 -0.13000398437E-01  0.10195556258E+01  0.10192642267E+01 0.  0.
     999903    2    3    3    0    0 -0.10246010349E+00  0.77074758562E-01  0.24672577799E-01  0.13189818234E+00  0.18703026326E-01 0.  0.
         14    1    1    2    0    0  0.93385598548E-02 -0.18381813305E-01  0.13000398437E-01  0.24374374250E-01  0.00000000000E+00 0.  1.
     999901    1    3    3    0    0  0.93121543634E-01 -0.58692945257E-01 -0.37672976236E-01  0.88765744342E+00  0.88000000000E+00 0.  1.
        -11    1    4    4    0    0 -0.61257398843E-01  0.34982219427E-01  0.16288645201E-01  0.72400315417E-01  0.51100000000E-03 0. -1.
         11    1    4    4    0    0 -0.41202704646E-01  0.42092539135E-01  0.83839325982E-02  0.59497866918E-01  0.51100000000E-03 0.  1.
</event>
<event>
 8    1  0.1148488E+005  0.1043930E+01  0.7957747E-01            NaN
         13   -1    0    0    0    0  0.00000000000E+00  0.00000000000E+00  0.74505805969E-08  0.10566000000E+00  0.10566000000E+00 0. -1.
     999900   -1    0    0    0    0 -0.00000000000E+00 -0.00000000000E+00 -0.74505805969E-08  0.93827000000E+00  0.93827000000E+00 0.  1.
     999902    2    1    2    0    0  0.14063075038E-01  0.11568456750E-01  0.13491592132E-01  0.10212667626E+01  0.10210152683E+01 0.  0.
     999903    2    3    3    0    0  0.65630265489E-01 -0.10262418905E+00  0.46131892238E-01  0.13179246580E+00  0.20051100542E-01 0.  0.
         14    1    1    2    0    0 -0.14063075038E-01 -0.11568456750E-01 -0.13491592132E-01  0.22663237398E-01  0.00000000000E+00 0.  1.
     999901    1    3    3    0    0 -0.51567190452E-01  0.11419264580E+00 -0.32640300106E-01  0.88947429681E+00  0.88000000000E+00 0.  1.
        -11    1    4    4    0    0  0.53603600358E-01 -0.69269468487E-01  0.37609726376E-01  0.95322389158E-01  0.51100000000E-03 0.  1.
         11    1    4    4    0    0  0.12026665132E-01 -0.33354720564E-01  0.85221658618E-02  0.36470076639E-01  0.51100000000E-03 0. -1.
</event>
<event>
 8    1  0.1148488E+005  0.1043930E+01  0.7957747E-01            NaN
         13   -1    0    0    0    0  0.00000000000E+00  0.00000000000E+00  0.74505805969E-08  0.10566000000E+00  0.10566000000E+00 0.  1.
     999900   -1    0    0    0    0 -0.00000000000E+00 -0.00000000000E+00 -0.74505805969E-08  0.93827000000E+00  0.93827000000E+00 0. -1.
     999902    2    1    2    0    0 -0.19619071883E-01  0.57007826114E-02 -0.12164049665E-01  0.10201524684E+01  0.10198753295E+01 0.  0.
     999903    2    3    3    0    0 -0.87101870439E-01  0.41380173690E-03 -0.98814868009E-01  0.13330961617E+00  0.20498013486E-01 0.  0.
         14    1    1    2    0    0  0.19619071883E-01 -0.57007826114E-02  0.12164049665E-01  0.23777531583E-01  0.00000000000E+00 0.  1.
     999901    1    3    3    0    0  0.67482798556E-01  0.52869808745E-02  0.86650818345E-01  0.88684285225E+00  0.88000000000E+00 0.  1.
        -11    1    4    4    0    0 -0.45552391264E-01 -0.43599728165E-02 -0.37911279216E-01  0.59426895642E-01  0.51100000000E-03 0. -1.
         11    1    4    4    0    0 -0.41549479175E-01  0.47737745534E-02 -0.60903588793E-01  0.73882720524E-01  0.51100000000E-03 0.  1.
</event>
<event>
 8    1  0.1148488E+005  0.1043930E+01  0.7957747E-01            NaN
         13   -1    0    0    0    0  0.00000000000E+00  0.00000000000E+00  0.74505805969E-08  0.10566000000E+00  0.10566000000E+00 0.  1.
     999900   -1    0    0    0    0 -0.00000000000E+00 -0.00000000000E+00 -0.74505805969E-08  0.93827000000E+00  0.93827000000E+00 0.  1.
     999902    2    1    2    0    0  0.20519353479E-01 -0.46505219744E-02 -0.10753759877E-01  0.10203013188E+01  0.10200276794E+01 0.  0.
     999903    2    3    3    0    0 -0.85610219935E-01 -0.89732950953E-01  0.29264284676E-01  0.12895180829E+00  0.19775193019E-01 0.  0.
         14    1    1    2    0    0 -0.20519353479E-01  0.46505219744E-02  0.10753759877E-01  0.23628681159E-01  0.00000000000E+00 0. -1.
     999901    1    3    3    0    0  0.10612957341E+00  0.85082428979E-01 -0.40018044553E-01  0.89134951055E+00  0.88000000000E+00 0. -1.
        -11    1    4    4    0    0 -0.26775945567E-01 -0.16259251747E-01  0.47929585600E-02  0.31694606814E-01  0.51100000000E-03 0. -1.
         11    1    4    4    0    0 -0.58834274368E-01 -0.73473699207E-01  0.24471326116E-01  0.97257201473E-01  0.51100000000E-03 0.  1.
</event>
<event>
 8    1  0.1148488E+005  0.1043930E+01  0.7957747E-01            NaN
         13   -1    0    0    0    0  0.00000000000E+00  0.00000000000E+00  0.74505805969E-08  0.10566000000E+00  0.10566000000E+00 0.  1.
     999900   -1    0    0    0    0 -0.00000000000E+00 -0.00000000000E+00 -0.74505805969E-08  0.93827000000E+00  0.93827000000E+00 0. -1.
     999902    2    1    2    0    0  0.12568527502E-01  0.17556450240E-01 -0.76987202604E-02  0.10210069303E+01  0.10207495700E+01 0.  0.
     999903    2    3    3    0    0 -0.88159023466E-01  0.86224545891E-01  0.40047957966E-01  0.13132097892E+00  0.20848856930E-01 0.  0.
         14    1    1    2    0    0 -0.12568527502E-01 -0.17556450240E-01  0.76987202604E-02  0.22923069651E-01  0.00000000000E+00 0.  1.
     999901    1    3    3    0    0  0.10072755097E+00 -0.68668095651E-01 -0.47746678226E-01  0.88968595143E+00  0.88000000000E+00 0. -1.
        -11    1    4    4    0    0 -0.45563604333E-01  0.56899633384E-01  0.17901367960E-01  0.75062176993E-01  0.51100000000E-03 0. -1.
         11    1    4    4    0    0 -0.42595419133E-01  0.29324912507E-01  0.22146590006E-01  0.56258801929E-01  0.51100000000E-03 0.  1.
</event>
<event>
 8    1  0.1148488E+005  0.1043930E+01  0.7957747E-01            NaN
         13   -1    0    0    0    0  0.00000000000E+00  0.00000000000E+00  0.74505805969E-08  0.10566000000E+00  0.10566000000E+00 0. -1.
     999900   -1    0    0    0    0 -0.00000000000E+00 -0.00000000000E+00 -0.74505805969E-08  0.93827000000E+00  0.93827000000E+00 0.  1.
     999902    2    1    2    0    0 -0.21180432034E-02 -0.21584382925E-01 -0.10682788294E-01  0.10197536963E+01  0.10194670703E+01 0.  0.
     999903    2    3    3    0    0 -0.12655386856E-01 -0.12517615281E+00 -0.38963503228E-01  0.13316354906E+00  0.19625192118E-01 0.  0.
         14    1    1    2    0    0  0.21180432034E-02  0.21584382925E-01  0.10682788294E-01  0.24176303667E-01  0.00000000000E+00 0. -1.
     999901    1    3    3    0    0  0.10537343652E-01  0.10359176989E+00  0.28280714934E-01  0.88659014727E+00  0.88000000000E+00 0. -1.
        -11    1    4    4    0    0 -0.15217386656E-01 -0.11715910918E+00 -0.32481703289E-01  0.12252815142E+00  0.51100000000E-03 0. -1.
         11    1    4    4    0    0  0.25619998005E-02 -0.80170436308E-02 -0.64817999394E-02  0.10635397642E-01  0.51100000000E-03 0.  1.
</event>
<event>
 8    1  0.1148488E+005  0.1043930E+01  0.7957747E-01            NaN
         13   -1    0    0    0    0  0.00000000000E+00  0.00000000000E+00  0.74505805969E-08  0.10566000000E+00  0.10566000000E+00 0.  1.
     999900   -1    0    0    0    0 -0.00000000000E+00 -0.00000000000E+00 -0.74505805969E-08  0.93827000000E+00  0.93827000000E+00 0. -1.
     999902    2    1    2    0    0 -0.66226542159E-02 -0.19450429632E-01 -0.11470498281E-01  0.10203980835E+01  0.10201267067E+01 0.  0.
     999903    2    3    3    0    0  0.11193666165E+00  0.37901699986E-01 -0.49991297130E-01  0.12976379827E+00  0.19317310108E-01 0.  0.
         14    1    1    2    0    0  0.66226542159E-02  0.19450429632E-01  0.11470498281E-01  0.23531916465E-01  0.00000000000E+00 0.  1.
     999901    1    3    3    0    0 -0.11855931586E+00 -0.57352129618E-01  0.38520798849E-01  0.89063428527E+00  0.88000000000E+00 0.  1.
        -11    1    4    4    0    0  0.76320575851E-01  0.34594784530E-01 -0.31765007470E-01  0.89615323665E-01  0.51100000000E-03 0.  1.
         11    1    4    4    0    0  0.35616085795E-01  0.33069154559E-02 -0.18226289659E-01  0.40148474603E-01  0.51100000000E-03 0. -1.
</event>
<event>
 8    1  0.1148488E+005  0.1043930E+01  0.7957747E-01            NaN
         13   -1    0    0    0    0  0.00000000000E+00  0.00000000000E+00  0.74505805969E-08  0.10566000000E+00  0.10566000000E+00 0.  1.
     999900   -1    0    0    0    0 -0.00000000000E+00 -0.00000000000E+00 -0.74505805969E-08  0.93827000000E+00  0.93827000000E+00 0. -1.
     999902    2    1    2    0    0 -0.10875834366E-01  0.17543376146E-02 -0.21145909151E-01  0.10200865324E+01  0.10198078361E+01 0.  0.
     999903    2    3    3    0    0 -0.12431512607E-01  0.12858805161E+00 -0.67403246542E-03  0.13075627379E+00  0.20182152790E-01 0.  0.
         14    1    1    2    0    0  0.10875834366E-01 -0.17543376146E-02  0.21145909151E-01  0.23843467606E-01  0.00000000000E+00 0.  1.
     999901    1    3    3    0    0  0.15556782414E-02 -0.12683371400E+00 -0.20471876686E-01  0.88933025861E+00  0.88000000000E+00 0. -1.
        -11    1    4    4    0    0 -0.16298104950E-02  0.14162961306E-01 -0.64938551048E-02  0.15674087863E-01  0.51100000000E-03 0.  1.
         11    1    4    4    0    0 -0.10801702112E-01  0.11442509031E+00  0.58198226394E-02  0.11508218592E+00  0.51100000000E-03 0. -1.
</event>
<event>
 8    1  0.1148488E+005  0.1043930E+01  0.7957747E-01            NaN
         13   -1    0    0    0    0  0.00000000000E+00  0.00000000000E+00  0.74505805969E-08  0.10566000000E+00  0.10566000000E+00 0. -1.
     999900   -1    0    0    0    0 -0.00000000000E+00 -0.00000000000E+00 -0.74505805969E-08  0.93827000000E+00  0.93827000000E+00 0. -1.
     999902    2    1    2    0    0  0.13546572576E-01 -0.15295708359E-01 -0.12184272830E-01  0.10201408254E+01  0.10198634119E+01 0.  0.
     999903    2    3    3    0    0  0.11220876654E-01  0.11271738530E+00  0.56676514640E-01  0.12821337935E+00  0.19882814435E-01 0.  0.
         14    1    1    2    0    0 -0.13546572576E-01  0.15295708359E-01  0.12184272830E-01  0.23789174579E-01  0.00000000000E+00 0. -1.
     999901    1    3    3    0    0  0.23256959221E-02 -0.12801309366E+00 -0.68860787471E-01  0.89192744607E+00  0.88000000000E+00 0.  1.
        -11    1    4    4    0    0  0.71014626038E-02  0.49396595958E-01  0.35767831193E-01  0.61400760033E-01  0.51100000000E-03 0.  1.
         11    1    4    4    0    0  0.41194140499E-02  0.63320789342E-01  0.20908683447E-01  0.66812619313E-01  0.51100000000E-03 0. -1.
</event>
<event>
 8    1  0.1148488E+005  0.1043930E+01  0.7957747E-01            NaN
         13   -1    0    0    0    0  0.00000000000E+00  0.00000000000E+00  0.74505805969E-08  0.10566000000E+00  0.10566000000E+00 0. -1.
     999900   -1    0    0    0    0 -0.00000000000E+00 -0.00000000000E+00 -0.74505805969E-08  0.93827000000E+00  0.93827000000E+00 0. -1.
     999902    2    1    2    0    0  0.13067892672E-01 -0.38332813352E-02  0.17588174815E-01  0.10216857253E+01  0.10214435439E+01 0.  0.
     999903    2    3    3    0    0 -0.81293190026E-01 -0.99252025920E-01 -0.16595253973E-01  0.13085619189E+00  0.19707691595E-01 0.  0.
         14    1    1    2    0    0 -0.13067892672E-01  0.38332813352E-02 -0.17588174815E-01  0.22244274724E-01  0.00000000000E+00 0.  1.
     999901    1    3    3    0    0  0.94361082698E-01  0.95418744585E-01  0.34183428788E-01  0.89082953338E+00  0.88000000000E+00 0. -1.
        -11    1    4    4    0    0 -0.76161366885E-01 -0.95105451646E-01 -0.11272939243E-01  0.12236396945E+00  0.51100000000E-03 0. -1.
         11    1    4    4    0    0 -0.51318231414E-02 -0.41465742741E-02 -0.53223147301E-02  0.84922224448E-02  0.51100000000E-03 0.  1.
</event>
<event>
 8    1  0.1148488E+005  0.1043930E+01  0.7957747E-01            NaN
         13   -1    0    0    0    0  0.00000000000E+00  0.00000000000E+00  0.74505805969E-08  0.10566000000E+00  0.10566000000E+00 0.  1.
     999900   -1    0    0    0    0 -0.00000000000E+00 -0.00000000000E+00 -0.74505805969E-08  0.93827000000E+00  0.93827000000E+00 0.  1.
     999902    2    1    2    0    0  0.51480347995E-02  0.61673819724E-02  0.21715607565E-01  0.10207760268E+01  0.10205133955E+01 0.  0.
     999903    2    3    3    0    0  0.10744525979E+00  0.50772697859E-01 -0.50722825949E-01  0.13077508125E+00  0.20173400915E-01 0.  0.
         14    1    1    2    0    0 -0.51480347995E-02 -0.61673819724E-02 -0.21715607565E-01  0.23153973193E-01  0.00000000000E+00 0.  1.
     999901    1    3    3    0    0 -0.10229722499E+00 -0.44605315887E-01  0.72438433514E-01  0.89000094556E+00  0.88000000000E+00 0. -1.
        -11    1    4    4    0    0  0.19156551582E-01  0.38818245533E-02 -0.22747388790E-02  0.19684450421E-01  0.51100000000E-03 0.  1.
         11    1    4    4    0    0  0.88288708206E-01  0.46890873306E-01 -0.48448087070E-01  0.11109063083E+00  0.51100000000E-03 0. -1.
</event>
<event>
 8    1  0.1148488E+005  0.1043930E+01  0.7957747E-01            NaN
         13   -1    0    0    0    0  0.00000000000E+00  0.00000000000E+00  0.74505805969E-08  0.10566000000E+00  0.10566000000E+00 0.  1.
     999900   -1    0    0    0    0 -0.00000000000E+00 -0.00000000000E+00 -0.74505805969E-08  0.93827000000E+00  0.93827000000E+00 0. -1.
     999902    2    1    2    0    0  0.48293227596E-02  0.20852972217E-01 -0.84792719299E-02  0.10209068190E+01  0.10206471801E+01 0.  0.
     999903    2    3    3    0    0 -0.33936829339E-01  0.57592275934E-01 -0.11330435500E+00  0.13307750605E+00  0.20079021894E-01 0.  0.
         14    1    1    2    0    0 -0.48293227596E-02 -0.20852972217E-01  0.84792719299E-02  0.23023180950E-01  0.00000000000E+00 0. -1.
     999901    1    3    3    0    0  0.38766152098E-01 -0.36739303717E-01  0.10482508307E+00  0.88782931300E+00  0.88000000000E+00 0. -1.
        -11    1    4    4    0    0 -0.29328868797E-01  0.45001099077E-01 -0.73250363299E-01  0.90835886672E-01  0.51100000000E-03 0. -1.
         11    1    4    4    0    0 -0.46079605419E-02  0.12591176857E-01 -0.40053991704E-01  0.42241619375E-01  0.51100000000E-03 0.  1.
</event>
<event>
 8    1  0.1148488E+005  0.1043930E+01  0.7957747E-01            NaN
         13   -1    0    0    0    0  0.00000000000E+00  0.00000000000E+00  0.74505805969E-08  0.10566000000E+00  0.10566000000E+00 0. -1.
     999900   -1    0    0    0    0 -0.00000000000E+00 -0.00000000000E+00 -0.74505805969E-08  0.93827000000E+00  0.93827000000E+00 0. -1.
     999902    2    1    2    0    0  0.78063018838E-02  0.10703751433E-01  0.19958397460E-01  0.10199749113E+01  0.10196935684E+01 0.  0.
     999903    2    3    3    0    0 -0.54859213067E-01 -0.97996934465E-01 -0.57474975359E-01  0.12770884501E+00  0.19830377693E-01 0.  0.
         14    1    1    2    0    0 -0.78063018838E-02 -0.10703751433E-01 -0.19958397460E-01  0.23955088667E-01  0.00000000000E+00 0.  1.
     999901    1    3    3    0    0  0.62665514951E-01  0.10870068590E+00  0.77433372820E-01  0.89226606632E+00  0.88000000000E+00 0.  1.
        -11    1    4    4    0    0 -0.10348101869E-01 -0.21282473087E-01 -0.21565879822E-01  0.32021479767E-01  0.51100000000E-03 0.  1.
         11    1    4    4    0    0 -0.44511111199E-01 -0.76714461378E-01 -0.35909095538E-01  0.95687365247E-01  0.51100000000E-03 0. -1.
</event>
<event>
 8    1  0.1148488E+005  0.1043930E+01  0.7957747E-01            NaN
         13   -1    0    0    0    0  0.00000000000E+00  0.00000000000E+00  0.74505805969E-08  0.10566000000E+00  0.10566000000E+00 0.  1.
     999900   -1    0    0    0    0 -0.00000000000E+00 -0.00000000000E+00 -0.74505805969E-08  0.93827000000E+00  0.93827000000E+00 0.  1.
     999902    2    1    2    0    0  0.12297333295E-01  0.65203658615E-02  0.19758430457E-01  0.10197611119E+01  0.10194746638E+01 0.  0.
     999903    2    3    3    0    0  0.38172529444E-01 -0.14970225402E-01  0.12478701225E+00  0.13287759404E+00  0.20084992343E-01 0.  0.
         14    1    1    2    0    0 -0.12297333295E-01 -0.65203658615E-02 -0.19758430457E-01  0.24168888085E-01  0.00000000000E+00 0. -1.
     999901    1    3    3    0    0 -0.25875196149E-01  0.21490591263E-01 -0.10502858180E+00  0.88688351788E+00  0.88000000000E+00 0.  1.
        -11    1    4    4    0    0  0.40626701645E-02  0.28945069680E-02  0.51168440751E-02  0.71642636567E-02  0.51100000000E-03 0. -1.
         11    1    4    4    0    0  0.34109859280E-01 -0.17864732370E-01  0.11967016818E+00  0.12571333038E+00  0.51100000000E-03 0.  1.
</event>
<event>
 8    1  0.1148488E+005  0.1043930E+01  0.7957747E-01            NaN
         13   -1    0    0    0    0  0.00000000000E+00  0.00000000000E+00  0.74505805969E-08  0.10566000000E+00  0.10566000000E+00 0.  1.
     999900   -1    0    0    0    0 -0.00000000000E+00 -0.00000000000E+00 -0.74505805969E-08  0.93827000000E+00  0.93827000000E+00 0. -1.
     999902    2    1    2    0    0  0.74443274312E-02 -0.65946176885E-02  0.20174824576E-01  0.10214371002E+01  0.10211894140E+01 0.  0.
     999903    2    3    3    0    0  0.86667804794E-01  0.19072952288E-01  0.98332209941E-01  0.13405682076E+00  0.20662085628E-01 0.  0.
         14    1    1    2    0    0 -0.74443274312E-02  0.65946176885E-02 -0.20174824576E-01  0.22492899770E-01  0.00000000000E+00 0. -1.
     999901    1    3    3    0    0 -0.79223477363E-01 -0.25667569976E-01 -0.78157385364E-01  0.88738027947E+00  0.88000000000E+00 0. -1.
        -11    1    4    4    0    0  0.54616252306E-01  0.23228759798E-02  0.53983306678E-01  0.76829612062E-01  0.51100000000E-03 0. -1.
         11    1    4    4    0    0  0.32051552488E-01  0.16750076308E-01  0.44348903263E-01  0.57227208693E-01  0.51100000000E-03 0.  1.
</event>
<event>
 8    1  0.1148488E+005  0.1043930E+01  0.7957747E-01            NaN
         13   -1    0    0    0    0  0.00000000000E+00  0.00000000000E+00  0.74505805969E-08  0.10566000000E+00  0.10566000000E+00 0.  1.
     999900   -1    0    0    0    0 -0.00000000000E+00 -0.00000000000E+00 -0.74505805969E-08  0.93827000000E+00  0.93827000000E+00 0. -1.
     999902    2    1    2    0    0 -0.11072666508E-01 -0.21292781130E-01  0.19558440337E-02  0.10198507185E+01  0.10195664158E+01 0.  0.
     999903    2    3    3    0    0  0.12232703320E+00 -0.34394565632E-01 -0.13383324967E-01  0.12956850103E+00  0.21494042776E-01 0.  0.
         14    1    1    2    0    0  0.11072666508E-01  0.21292781130E-01 -0.19558440337E-02  0.24079281504E-01  0.00000000000E+00 0.  1.
     999901    1    3    3    0    0 -0.13339969971E+00  0.13101784503E-01  0.15339169000E-01  0.89028221747E+00  0.88000000000E+00 0. -1.
        -11    1    4    4    0    0  0.36588160390E-01 -0.20497000608E-01 -0.22944619614E-02  0.42004121124E-01  0.51100000000E-03 0.  1.
         11    1    4    4    0    0  0.85738872807E-01 -0.13897565025E-01 -0.11088863005E-01  0.87564379902E-01  0.51100000000E-03 0. -1.
</event>
<event>
 8    1  0.1148488E+005  0.1043930E+01  0.7957747E-01            NaN
         13   -1    0    0    0    0  0.00000000000E+00  0.00000000000E+00  0.74505805969E-08  0.10566000000E+00  0.10566000000E+00 0.  1.
     999900   -1    0    0    0    0 -0.00000000000E+00 -0.00000000000E+00 -0.74505805969E-08  0.93827000000E+00  0.93827000000E+00 0.  1.
     999902    2    1    2    0    0 -0.19849889831E-01  0.43610784781E-02  0.13656117476E-01  0.10194447662E+01  0.10191506780E+01 0.  0.
     999903    2    3    3    0    0 -0.56902469897E-01  0.10654947004E+00 -0.45846753807E-01  0.13076262233E+00  0.20155840840E-01 0.  0.
         14    1    1    2    0    0  0.19849889831E-01 -0.43610784781E-02 -0.13656117476E-01  0.24485233842E-01  0.00000000000E+00 0. -1.
     999901    1    3    3    0    0  0.37052580066E-01 -0.10218839156E+00  0.59502871283E-01  0.88868214382E+00  0.88000000000E+00 0. -1.
        -11    1    4    4    0    0 -0.18394322132E-01  0.30214291041E-01 -0.23230668807E-01  0.42322329379E-01  0.51100000000E-03 0.  1.
         11    1    4    4    0    0 -0.38508147765E-01  0.76335178995E-01 -0.22616084999E-01  0.88440292956E-01  0.51100000000E-03 0. -1.
</event>
<event>
 8    1  0.1148488E+005  0.1043930E+01  0.7957747E-01            NaN
         13   -1    0    0    0    0  0.00000000000E+00  0.00000000000E+00  0.74505805969E-08  0.10566000000E+00  0.10566000000E+00 0. -1.
     999900   -1    0    0    0    0 -0.00000000000E+00 -0.00000000000E+00 -0.74505805969E-08  0.93827000000E+00  0.93827000000E+00 0.  1.
     999902    2    1    2    0    0  0.16400646514E-01  0.16287756888E-01  0.15658091895E-01  0.10160114028E+01  0.10156277480E+01 0.  0.
     999903    2    3    3    0    0  0.78322842097E-01 -0.93596879444E-01 -0.24175500872E-01  0.12612618166E+00  0.20700614034E-01 0.  0.
         14    1    1    2    0    0 -0.16400646514E-01 -0.16287756888E-01 -0.15658091895E-01  0.27918597248E-01  0.00000000000E+00 0. -1.
     999901    1    3    3    0    0 -0.61922195583E-01  0.10988463633E+00  0.39833592767E-01  0.88988522109E+00  0.88000000000E+00 0. -1.
        -11    1    4    4    0    0  0.54232403038E-01 -0.59038459775E-01 -0.64750666399E-02  0.80429353353E-01  0.51100000000E-03 0. -1.
         11    1    4    4    0    0  0.24090439060E-01 -0.34558419669E-01 -0.17700434232E-01  0.45696828305E-01  0.51100000000E-03 0.  1.
</event>
<event>
 8    1  0.1148488E+005  0.1043930E+01  0.7957747E-01            NaN
         13   -1    0    0    0    0  0.00000000000E+00  0.00000000000E+00  0.74505805969E-08  0.10566000000E+00  0.10566000000E+00 0.  1.
     999900   -1    0    0    0    0 -0.00000000000E+00 -0.00000000000E+00 -0.74505805969E-08  0.93827000000E+00  0.93827000000E+00 0.  1.
     999902    2    1    2    0    0 -0.22057201447E-01 -0.23354367988E-02  0.82926350968E-02  0.10202500043E+01  0.10199751610E+01 0.  0.
     999903    2    3    3    0    0  0.18741524286E-01  0.84485521771E-01 -0.93849988950E-01  0.12916329103E+00  0.19654190475E-01 0.  0.
         14    1    1    2    0    0  0.22057201447E-01  0.23354367988E-02 -0.82926350968E-02  0.23679995725E-01  0.00000000000E+00 0. -1.
     999901    1    3    3    0    0 -0.40798725733E-01 -0.86820958570E-01  0.10214262405E+00  0.89108671324E+00  0.88000000000E+00 0. -1.
        -11    1    4    4    0    0  0.15956748036E-01  0.29261929297E-01 -0.38486243916E-01  0.50914933034E-01  0.51100000000E-03 0.  1.
         11    1    4    4    0    0  0.27847762507E-02  0.55223592474E-01 -0.55363745034E-01  0.78248358000E-01  0.51100000000E-03 0. -1.
</event>
<event>
 8    1  0.1148488E+005  0.1043930E+01  0.7957747E-01            NaN
         13   -1    0    0    0    0  0.00000000000E+00  0.00000000000E+00  0.74505805969E-08  0.10566000000E+00  0.10566000000E+00 0.  1.
     999900   -1    0    0    0    0 -0.00000000000E+00 -0.00000000000E+00 -0.74505805969E-08  0.93827000000E+00  0.93827000000E+00 0. -1.
     999902    2    1    2    0    0 -0.18864978551E-01 -0.45633772367E-02 -0.19001954542E-01  0.10167677817E+01  0.10164049074E+01 0.  0.
     999903    2    3    3    0    0  0.15884928740E-02  0.92815082208E-01  0.82216675033E-01  0.12539461637E+00  0.18629690479E-01 0.  0.
         14    1    1    2    0    0  0.18864978551E-01  0.45633772367E-02  0.19001954542E-01  0.27162218318E-01  0.00000000000E+00 0.  1.
     999901    1    3    3    0    0 -0.20453471425E-01 -0.97378459445E-01 -0.10121862957E+00  0.89137316531E+00  0.88000000000E+00 0. -1.
        -11    1    4    4    0    0 -0.24115630939E-02  0.77145486025E-01  0.75190061498E-01  0.10775457354E+00  0.51100000000E-03 0. -1.
         11    1    4    4    0    0  0.40000559679E-02  0.15669596184E-01  0.70266135348E-02  0.17640042831E-01  0.51100000000E-03 0.  1.
</event>
<event>
 8    1  0.1148488E+005  0.1043930E+01  0.7957747E-01            NaN
         13   -1    0    0    0    0  0.00000000000E+00  0.00000000000E+00  0.74505805969E-08  0.10566000000E+00  0.10566000000E+00 0. -1.
     999900   -1    0    0    0    0 -0.00000000000E+00 -0.00000000000E+00 -0.74505805969E-08  0.93827000000E+00  0.93827000000E+00 0. -1.
     999902    2    1    2    0    0 -0.15983802320E-01  0.17206532092E-01 -0.23218909476E-01  0.10109047908E+01  0.10103651972E+01 0.  0.
     999903    2    3    3    0    0  0.51902941153E-01 -0.58556275565E-01  0.86376810871E-01  0.11829074497E+00  0.20223604520E-01 0.  0.
         14    1    1    2    0    0  0.15983802320E-01 -0.17206532092E-01  0.23218909476E-01  0.33025209166E-01  0.00000000000E+00 0. -1.
     999901    1    3    3    0    0 -0.67886743473E-01  0.75762807657E-01 -0.10959572035E+00  0.89261404587E+00  0.88000000000E+00 0. -1.
        -11    1    4    4    0    0  0.30110794306E-01 -0.32992750457E-01  0.34309172095E-01  0.56325499796E-01  0.51100000000E-03 0. -1.
         11    1    4    4    0    0  0.21792146847E-01 -0.25563525109E-01  0.52067638776E-01  0.61965245169E-01  0.51100000000E-03 0.  1.
</event>
<event>
 8    1  0.1148488E+005  0.1043930E+01  0.7957747E-01            NaN
         13   -1    0    0    0    0  0.00000000000E+00  0.00000000000E+00  0.74505805969E-08  0.10566000000E+00  0.10566000000E+00 0. -1.
     999900   -1    0    0    0    0 -0.00000000000E+00 -0.00000000000E+00 -0.74505805969E-08  0.93827000000E+00  0.93827000000E+00 0.  1.
     999902    2    1    2    0    0 -0.10016479434E-01  0.16499279290E-01 -0.13072582392E-01  0.10206180184E+01  0.10203517486E+01 0.  0.
     999903    2    3    3    0    0  0.25542311962E-01  0.79686902435E-01  0.98324427247E-01  0.13063689659E+00  0.19897076082E-01 0.  0.
         14    1    1    2    0    0  0.10016479434E-01 -0.16499279290E-01  0.13072582392E-01  0.23311981635E-01  0.00000000000E+00 0. -1.
     999901    1    3    3    0    0 -0.35558791395E-01 -0.63187623144E-01 -0.11139700964E+00  0.88998112178E+00  0.88000000000E+00 0.  1.
        -11    1    4    4    0    0  0.19349091732E-01  0.40526197094E-01  0.64044771581E-01  0.78222464099E-01  0.51100000000E-03 0. -1.
         11    1    4    4    0    0  0.61932202292E-02  0.39160705340E-01  0.34279655666E-01  0.52414432489E-01  0.51100000000E-03 0.  1.
</event>
<event>
 8    1  0.1148488E+005  0.1043930E+01  0.7957747E-01            NaN
         13   -1    0    0    0    0  0.00000000000E+00  0.00000000000E+00  0.74505805969E-08  0.10566000000E+00  0.10566000000E+00 0. -1.
     999900   -1    0    0    0    0 -0.00000000000E+00 -0.00000000000E+00 -0.74505805969E-08  0.93827000000E+00  0.93827000000E+00 0.  1.
     999902    2    1    2    0    0 -0.19274625264E-01 -0.10415555711E-01 -0.10064125635E-01  0.10198202177E+01  0.10195351856E+01 0.  0.
     999903    2    3    3    0    0 -0.11853225597E+00  0.54016383124E-01  0.12681492121E-01  0.13160801603E+00  0.13863054858E-01 0.  0.
         14    1    1    2    0    0  0.19274625264E-01  0.10415555711E-01  0.10064125635E-01  0.24109782343E-01  0.00000000000E+00 0. -1.
     999901    1    3    3    0    0  0.99257630704E-01 -0.64431938835E-01 -0.22745617756E-01  0.88821220163E+00  0.88000000000E+00 0. -1.
        -11    1    4    4    0    0 -0.48574210328E-01  0.27983192274E-01  0.11219822760E-02  0.56071676665E-01  0.51100000000E-03 0. -1.
         11    1    4    4    0    0 -0.69958045640E-01  0.26033190850E-01  0.11559509845E-01  0.75536339364E-01  0.51100000000E-03 0.  1.
</event>
<event>
 8    1  0.1148488E+005  0.1043930E+01  0.7957747E-01            NaN
         13   -1    0    0    0    0  0.00000000000E+00  0.00000000000E+00  0.74505805969E-08  0.10566000000E+00  0.10566000000E+00 0.  1.
     999900   -1    0    0    0    0 -0.00000000000E+00 -0.00000000000E+00 -0.74505805969E-08  0.93827000000E+00  0.93827000000E+00 0.  1.
     999902    2    1    2    0    0 -0.14138428961E-01 -0.18504874447E-01  0.95257232424E-02  0.10187692179E+01  0.10184584697E+01 0.  0.
     999903    2    3    3    0    0  0.31859591449E-01 -0.31397145290E-01 -0.11916307543E+00  0.12812740695E+00  0.14696243296E-01 0.  0.
         14    1    1    2    0    0  0.14138428961E-01  0.18504874447E-01 -0.95257232424E-02  0.25160782083E-01  0.00000000000E+00 0.  1.
     999901    1    3    3    0    0 -0.45998020409E-01  0.12892270844E-01  0.12868879867E+00  0.89064181096E+00  0.88000000000E+00 0. -1.
        -11    1    4    4    0    0  0.97626200881E-02 -0.12703741698E-01 -0.62180199983E-01  0.64213177737E-01  0.51100000000E-03 0. -1.
         11    1    4    4    0    0  0.22096971361E-01 -0.18693403592E-01 -0.56982875448E-01  0.63914229218E-01  0.51100000000E-03 0.  1.
</event>
<event>
 8    1  0.1148488E+005  0.1043930E+01  0.7957747E-01            NaN
         13   -1    0    0    0    0  0.00000000000E+00  0.00000000000E+00  0.74505805969E-08  0.10566000000E+00  0.10566000000E+00 0.  1.
     999900   -1    0    0    0    0 -0.00000000000E+00 -0.00000000000E+00 -0.74505805969E-08  0.93827000000E+00  0.93827000000E+00 0.  1.
     999902    2    1    2    0    0 -0.99992337378E-03  0.24050212047E-01 -0.67530562542E-02  0.10189296737E+01  0.10186229251E+01 0.  0.
     999903    2    3    3    0    0  0.35968362470E-01 -0.11253294175E+00  0.40259802207E-01  0.12638733806E+00  0.19887721604E-01 0.  0.
         14    1    1    2    0    0  0.99992337378E-03 -0.24050212047E-01  0.67530562542E-02  0.25000326298E-01  0.00000000000E+00 0. -1.
     999901    1    3    3    0    0 -0.36968285844E-01  0.13658315379E+00 -0.47012858461E-01  0.89254233565E+00  0.88000000000E+00 0. -1.
        -11    1    4    4    0    0  0.21379679318E-01 -0.37636900239E-01  0.10998228487E-01  0.44663733590E-01  0.51100000000E-03 0.  1.
         11    1    4    4    0    0  0.14588683152E-01 -0.74896041506E-01  0.29261573719E-01  0.81723604466E-01  0.51100000000E-03 0. -1.
</event>
<event>
 8    1  0.1148488E+005  0.1043930E+01  0.7957747E-01            NaN
         13   -1    0    0    0    0  0.00000000000E+00  0.00000000000E+00  0.74505805969E-08  0.10566000000E+00  0.10566000000E+00 0.  1.
     999900   -1    0    0    0    0 -0.00000000000E+00 -0.00000000000E+00 -0.74505805969E-08  0.93827000000E+00  0.93827000000E+00 0.  1.
     999902    2    1    2    0    0  0.75749533081E-02  0.14990766624E-02 -0.19523845366E-01  0.10229345794E+01  0.10227190944E+01 0.  0.
     999903    2    3    3    0    0 -0.45886627513E-01 -0.11039828931E+00 -0.53840553132E-01  0.13357705985E+00  0.25508055392E-01 0.  0.
         14    1    1    2    0    0 -0.75749533081E-02 -0.14990766624E-02  0.19523845366E-01  0.20995420604E-01  0.00000000000E+00 0.  1.
     999901    1    3    3    0    0  0.53461580821E-01  0.11189736597E+00  0.34316707766E-01  0.88935751954E+00  0.88000000000E+00 0. -1.
        -11    1    4    4    0    0 -0.43569444525E-01 -0.74986976450E-01 -0.39495073317E-01  0.95296721196E-01  0.51100000000E-03 0.  1.
         11    1    4    4    0    0 -0.23171829881E-02 -0.35411312861E-01 -0.14345479815E-01  0.38280338657E-01  0.51100000000E-03 0. -1.
</event>
<event>
 8    1  0.1148488E+005  0.1043930E+01  0.7957747E-01            NaN
         13   -1    0    0    0    0  0.00000000000E+00  0.00000000000E+00  0.74505805969E-08  0.10566000000E+00  0.10566000000E+00 0.  1.
     999900   -1    0    0    0    0 -0.00000000000E+00 -0.00000000000E+00 -0.74505805969E-08  0.93827000000E+00  0.93827000000E+00 0. -1.
     999902    2    1    2    0    0  0.25976337340E-02  0.12754442812E-01  0.19414821524E-01  0.10205556806E+01  0.10202879684E+01 0.  0.
     999903    2    3    3    0    0 -0.92109396330E-01 -0.37878827150E-01 -0.78856593344E-01  0.12859692564E+00  0.19996513003E-01 0.  0.
         14    1    1    2    0    0 -0.25976337340E-02 -0.12754442812E-01 -0.19414821524E-01  0.23374319397E-01  0.00000000000E+00 0. -1.
     999901    1    3    3    0    0  0.94707030064E-01  0.50633269962E-01  0.98271414869E-01  0.89195875496E+00  0.88000000000E+00 0.  1.
        -11    1    4    4    0    0 -0.76416826615E-01 -0.33297178714E-01 -0.74182458144E-01  0.11158643160E+00  0.51100000000E-03 0. -1.
         11    1    4    4    0    0 -0.15692569715E-01 -0.45816484356E-02 -0.46741352000E-02  0.17010494041E-01  0.51100000000E-03 0.  1.
</event>
<event>
 8    1  0.1148488E+005  0.1043930E+01  0.7957747E-01            NaN
         13   -1    0    0    0    0  0.00000000000E+00  0.00000000000E+00  0.74505805969E-08  0.10566000000E+00  0.10566000000E+00 0.  1.
     999900   -1    0    0    0    0 -0.00000000000E+00 -0.00000000000E+00 -0.74505805969E-08  0.93827000000E+00  0.93827000000E+00 0.  1.
     999902    2    1    2    0    0 -0.18527946066E-01  0.84500358097E-02 -0.11531424218E-01  0.10205278284E+01  0.10202594704E+01 0.  0.
     999903    2    3    3    0    0  0.93486014672E-01 -0.73436880037E-01 -0.46063521781E-01  0.12898699359E+00  0.19575142099E-01 0.  0.
         14    1    1    2    0    0  0.18527946066E-01 -0.84500358097E-02  0.11531424218E-01  0.23402171589E-01  0.00000000000E+00 0. -1.
     999901    1    3    3    0    0 -0.11201396074E+00  0.81886915846E-01  0.34532097563E-01  0.89154083482E+00  0.88000000000E+00 0. -1.
        -11    1    4    4    0    0  0.12910738100E-01 -0.17269161667E-01 -0.31364047753E-02  0.21794707130E-01  0.51100000000E-03 0. -1.
         11    1    4    4    0    0  0.80575276572E-01 -0.56167718370E-01 -0.42927117006E-01  0.10719228646E+00  0.51100000000E-03 0.  1.
</event>
<event>
 8    1  0.1148488E+005  0.1043930E+01  0.7957747E-01            NaN
         13   -1    0    0    0    0  0.00000000000E+00  0.00000000000E+00  0.74505805969E-08  0.10566000000E+00  0.10566000000E+00 0. -1.
     999900   -1    0    0    0    0 -0.00000000000E+00 -0.00000000000E+00 -0.74505805969E-08  0.93827000000E+00  0.93827000000E+00 0. -1.
     999902    2    1    2    0    0  0.21052800430E-01 -0.10062000593E-01 -0.38725322482E-02  0.10202770770E+01  0.10200028691E+01 0.  0.
     999903    2    3    3    0    0  0.66121881518E-01 -0.90119787291E-01  0.68355949832E-01  0.13255109171E+00  0.20089219972E-01 0.  0.
         14    1    1    2    0    0 -0.21052800430E-01  0.10062000593E-01  0.38725322482E-02  0.23652923031E-01  0.00000000000E+00 0. -1.
     999901    1    3    3    0    0 -0.45069081088E-01  0.80057786699E-01 -0.72228482080E-01  0.88772598526E+00  0.88000000000E+00 0. -1.
        -11    1    4    4    0    0  0.40912774108E-01 -0.64171932654E-01  0.36772505870E-01  0.84524377163E-01  0.51100000000E-03 0.  1.
         11    1    4    4    0    0  0.25209107410E-01 -0.25947854637E-01  0.31583443962E-01  0.48026714547E-01  0.51100000000E-03 0. -1.
</event>
<event>
 8    1  0.1148488E+005  0.1043930E+01  0.7957747E-01            NaN
         13   -1    0    0    0    0  0.00000000000E+00  0.00000000000E+00  0.74505805969E-08  0.10566000000E+00  0.10566000000E+00 0.  1.
     999900   -1    0    0    0    0 -0.00000000000E+00 -0.00000000000E+00 -0.74505805969E-08  0.93827000000E+00  0.93827000000E+00 0.  1.
     999902    2    1    2    0    0 -0.83584970110E-02  0.20575983340E-01  0.77384662037E-02  0.10204115089E+01  0.10201404453E+01 0.  0.
     999903    2    3    3    0    0  0.77141665694E-02  0.11686896288E+00  0.60755596847E-01  0.13342701946E+00  0.19840970855E-01 0.  0.
         14    1    1    2    0    0  0.83584970110E-02 -0.20575983340E-01 -0.77384662037E-02  0.23518491063E-01  0.00000000000E+00 0. -1.
     999901    1    3    3    0    0 -0.16072663580E-01 -0.96292979540E-01 -0.53017130643E-01  0.88698448947E+00  0.88000000000E+00 0.  1.
        -11    1    4    4    0    0  0.61007951254E-02  0.10919639019E+00  0.61603841286E-01  0.12552436303E+00  0.51100000000E-03 0. -1.
         11    1    4    4    0    0  0.16133714441E-02  0.76725726917E-02 -0.84824443960E-03  0.79026564366E-02  0.51100000000E-03 0.  1.
</event>
<event>
 8    1  0.1148488E+005  0.1043930E+01  0.7957747E-01            NaN
         13   -1    0    0    0    0  0.00000000000E+00  0.00000000000E+00  0.74505805969E-08  0.10566000000E+00  0.10566000000E+00 0. -1.
     999900   -1    0    0    0    0 -0.00000000000E+00 -0.00000000000E+00 -0.74505805969E-08  0.93827000000E+00  0.93827000000E+00 0.  1.
     999902    2    1    2    0    0 -0.13966810815E-01  0.18572948746E-01 -0.62332078339E-02  0.10198700933E+01  0.10195862534E+01 0.  0.
     999903    2    3    3    0    0  0.93080953733E-02 -0.81318897608E-01  0.96333482948E-01  0.12799564684E+00  0.20083374364E-01 0.  0.
         14    1    1    2    0    0  0.13966810815E-01 -0.18572948746E-01  0.62332078339E-02  0.24059906678E-01  0.00000000000E+00 0.  1.
     999901    1    3    3    0    0 -0.23274906188E-01  0.99891846354E-01 -0.10256669078E+00  0.89187444648E+00  0.88000000000E+00 0.  1.
        -11    1    4    4    0    0  0.71724705889E-02 -0.48810975425E-01  0.42742545995E-01  0.65277423474E-01  0.51100000000E-03 0.  1.
         11    1    4    4    0    0  0.21356247843E-02 -0.32507922184E-01  0.53590936953E-01  0.62718223368E-01  0.51100000000E-03 0. -1.
</event>
<event>
 8    1  0.1148488E+005  0.1043930E+01  0.7957747E-01            NaN
         13   -1    0    0    0    0  0.00000000000E+00  0.00000000000E+00  0.74505805969E-08  0.10566000000E+00  0.10566000000E+00 0.  1.
     999900   -1    0    0    0    0 -0.00000000000E+00 -0.00000000000E+00 -0.74505805969E-08  0.93827000000E+00  0.93827000000E+00 0.  1.
     999902    2    1    2    0    0  0.10355962699E-01 -0.14818762686E-01  0.21001442252E-01  0.10162189504E+01  0.10158410569E+01 0.  0.
     999903    2    3    3    0    0 -0.52309725890E-01 -0.68401689092E-02 -0.11052789440E+00  0.12420403303E+00  0.20667148991E-01 0.  0.
         14    1    1    2    0    0 -0.10355962699E-01  0.14818762686E-01 -0.21001442252E-01  0.27711049559E-01  0.00000000000E+00 0. -1.
     999901    1    3    3    0    0  0.62665688588E-01 -0.79785937769E-02  0.13152933665E+00  0.89201491741E+00  0.88000000000E+00 0. -1.
        -11    1    4    4    0    0 -0.11623328364E-01 -0.34557885426E-02 -0.48114423117E-01  0.49621598821E-01  0.51100000000E-03 0.  1.
         11    1    4    4    0    0 -0.40686397526E-01 -0.33843803666E-02 -0.62413471281E-01  0.74582434209E-01  0.51100000000E-03 0. -1.
</event>
<event>
 8    1  0.1148488E+005  0.1043930E+01  0.7957747E-01            NaN
         13   -1    0    0    0    0  0.00000000000E+00  0.00000000000E+00  0.74505805969E-08  0.10566000000E+00  0.10566000000E+00 0.  1.
     999900   -1    0    0    0    0 -0.00000000000E+00 -0.00000000000E+00 -0.74505805969E-08  0.93827000000E+00  0.93827000000E+00 0.  1.
     999902    2    1    2    0    0 -0.23708846981E-01  0.19048309904E-02  0.53584579697E-02  0.10195486367E+01  0.10192570685E+01 0.  0.
     999903    2    3    3    0    0  0.42214398595E-01 -0.11823107149E+00 -0.19255462781E-01  0.12860287262E+00  0.20181285541E-01 0.  0.
         14    1    1    2    0    0  0.23708846981E-01 -0.19048309904E-02 -0.53584579697E-02  0.24381363335E-01  0.00000000000E+00 0.  1.
     999901    1    3    3    0    0 -0.65923245576E-01  0.12013590248E+00  0.24613920751E-01  0.89094576404E+00  0.88000000000E+00 0.  1.
        -11    1    4    4    0    0  0.21045730639E-01 -0.82103708332E-01 -0.18319839362E-01  0.86716891868E-01  0.51100000000E-03 0. -1.
         11    1    4    4    0    0  0.21168667956E-01 -0.36127363155E-01 -0.93562341906E-03  0.41885980754E-01  0.51100000000E-03 0.  1.
</event>
<event>
 8    1  0.1148488E+005  0.1043930E+01  0.7957747E-01            NaN
         13   -1    0    0    0    0  0.00000000000E+00  0.00000000000E+00  0.74505805969E-08  0.10566000000E+00  0.10566000000E+00 0. -1.
     999900   -1    0    0    0    0 -0.00000000000E+00 -0.00000000000E+00 -0.74505805969E-08  0.93827000000E+00  0.93827000000E+00 0.  1.
     999902    2    1    2    0    0  0.99249197187E-02 -0.11872784011E-01  0.17638579234E-01  0.10204654201E+01  0.10201956122E+01 0.  0.
     999903    2    3    3    0    0  0.48263798447E-01 -0.11452665289E+00  0.43715874846E-01  0.13328578117E+00  0.20205773576E-01 0.  0.
         14    1    1    2    0    0 -0.99249197187E-02  0.11872784011E-01 -0.17638579234E-01  0.23464579881E-01  0.00000000000E+00 0.  1.
     999901    1    3    3    0    0 -0.38338878728E-01  0.10265386888E+00 -0.26077295612E-01  0.88717963895E+00  0.88000000000E+00 0.  1.
        -11    1    4    4    0    0  0.47089772079E-01 -0.10155321137E+00  0.43917627927E-01  0.12024774649E+00  0.51100000000E-03 0. -1.
         11    1    4    4    0    0  0.11740263672E-02 -0.12973441525E-01 -0.20175308095E-03  0.13038034677E-01  0.51100000000E-03 0.  1.
</event>
<event>
 8    1  0.1148488E+005  0.1043930E+01  0.7957747E-01            NaN
         13   -1    0    0    0    0  0.00000000000E+00  0.00000000000E+00  0.74505805969E-08  0.10566000000E+00  0.10566000000E+00 0.  1.
     999900   -1    0    0    0    0 -0.00000000000E+00 -0.00000000000E+00 -0.74505805969E-08  0.93827000000E+00  0.93827000000E+00 0. -1.
     999902    2    1    2    0    0 -0.20934626760E-01  0.11426884187E-01  0.29060319615E-02  0.10199034043E+01  0.10196203591E+01 0.  0.
     999903    2    3    3    0    0 -0.28811974693E-01 -0.12350720949E+00 -0.15717764006E-01  0.12938888558E+00  0.20255244397E-01 0.  0.
         14    1    1    2    0    0  0.20934626760E-01 -0.11426884187E-01 -0.29060319615E-02  0.24026595713E-01  0.00000000000E+00 0.  1.
     999901    1    3    3    0    0  0.78773479331E-02  0.13493409368E+00  0.18623795968E-01  0.89051451870E+00  0.88000000000E+00 0. -1.
        -11    1    4    4    0    0 -0.17283087428E-01 -0.34431757086E-01 -0.68337811100E-02  0.39130712904E-01  0.51100000000E-03 0. -1.
         11    1    4    4    0    0 -0.11528887265E-01 -0.89075452402E-01 -0.88839828961E-02  0.90258172679E-01  0.51100000000E-03 0.  1.
</event>
<event>
 8    1  0.1148488E+005  0.1043930E+01  0.7957747E-01            NaN
         13   -1    0    0    0    0  0.00000000000E+00  0.00000000000E+00  0.74505805969E-08  0.10566000000E+00  0.10566000000E+00 0. -1.
     999900   -1    0    0    0    0 -0.00000000000E+00 -0.00000000000E+00 -0.74505805969E-08  0.93827000000E+00  0.93827000000E+00 0. -1.
     999902    2    1    2    0    0 -0.41001752413E-02  0.11931752977E-01  0.21721320732E-01  0.10188104072E+01  0.10185006882E+01 0.  0.
     999903    2    3    3    0    0  0.99729028509E-02 -0.27133614096E-01  0.12687457260E+00  0.13157799078E+00  0.19491502775E-01 0.  0.
         14    1    1    2    0    0  0.41001752413E-02 -0.11931752977E-01 -0.21721320732E-01  0.25119592760E-01  0.00000000000E+00 0.  1.
     999901    1    3    3    0    0 -0.14073078092E-01  0.39065367072E-01 -0.10515325187E+00  0.88723241646E+00  0.88000000000E+00 0. -1.
        -11    1    4    4    0    0 -0.57789235716E-02 -0.10020544237E-01  0.44404784878E-01  0.45889577308E-01  0.51100000000E-03 0. -1.
         11    1    4    4    0    0  0.15751826422E-01 -0.17113069859E-01  0.82469787724E-01  0.85688413475E-01  0.51100000000E-03 0.  1.
</event>
<event>
 8    1  0.1148488E+005  0.1043930E+01  0.7957747E-01            NaN
         13   -1    0    0    0    0  0.00000000000E+00  0.00000000000E+00  0.74505805969E-08  0.10566000000E+00  0.10566000000E+00 0. -1.
     999900   -1    0    0    0    0 -0.00000000000E+00 -0.00000000000E+00 -0.74505805969E-08  0.93827000000E+00  0.93827000000E+00 0. -1.
     999902    2    1    2    0    0  0.15389040204E-01  0.17225409404E-01  0.32343313997E-02  0.10206062313E+01  0.10203396891E+01 0.  0.
     999903    2    3    3    0    0 -0.74281781865E-01  0.68229905300E-01  0.81442078000E-01  0.13113517129E+00  0.19761527946E-01 0.  0.
         14    1    1    2    0    0 -0.15389040204E-01 -0.17225409404E-01 -0.32343313997E-02  0.23323768716E-01  0.00000000000E+00 0.  1.
     999901    1    3    3    0    0  0.89670822069E-01 -0.51004495897E-01 -0.78207746601E-01  0.88947105999E+00  0.88000000000E+00 0. -1.
        -11    1    4    4    0    0 -0.35881581996E-01  0.22401902585E-01  0.41281402453E-01  0.59107939191E-01  0.51100000000E-03 0. -1.
         11    1    4    4    0    0 -0.38400199869E-01  0.45828002715E-01  0.40160675547E-01  0.72027232102E-01  0.51100000000E-03 0.  1.
</event>
<event>
 8    1  0.1148488E+005  0.1043930E+01  0.7957747E-01            NaN
         13   -1    0    0    0    0  0.00000000000E+00  0.00000000000E+00  0.74505805969E-08  0.10566000000E+00  0.10566000000E+00 0.  1.
     999900   -1    0    0    0    0 -0.00000000000E+00 -0.00000000000E+00 -0.74505805969E-08  0.93827000000E+00  0.93827000000E+00 0. -1.
     999902    2    1    2    0    0 -0.10241709710E-01 -0.14000542968E-01  0.13248081475E-01  0.10221029644E+01  0.10218698793E+01 0.  0.
     999903    2    3    3    0    0 -0.32207942921E-01  0.11223108432E+00  0.57697107446E-01  0.13171391737E+00  0.19657872354E-01 0.  0.
         14    1    1    2    0    0  0.10241709710E-01  0.14000542968E-01 -0.13248081475E-01  0.21827035619E-01  0.00000000000E+00 0. -1.
     999901    1    3    3    0    0  0.21966233211E-01 -0.12623162729E+00 -0.44449025971E-01  0.89038904701E+00  0.88000000000E+00 0.  1.
        -11    1    4    4    0    0 -0.26945289401E-01  0.64124427590E-01  0.39631695128E-01  0.80055750664E-01  0.51100000000E-03 0. -1.
         11    1    4    4    0    0 -0.52626535203E-02  0.48106656732E-01  0.18065412317E-01  0.51658166704E-01  0.51100000000E-03 0.  1.
</event>
<event>
 8    1  0.1148488E+005  0.1043930E+01  0.7957747E-01            NaN
         13   -1    0    0    0    0  0.00000000000E+00  0.00000000000E+00  0.74505805969E-08  0.10566000000E+00  0.10566000000E+00 0.  1.
     999900   -1    0    0    0    0 -0.00000000000E+00 -0.00000000000E+00 -0.74505805969E-08  0.93827000000E+00  0.93827000000E+00 0.  1.
     999902    2    1    2    0    0  0.71506486036E-02 -0.34875971228E-02  0.23221885463E-01  0.10193830842E+01  0.10190874945E+01 0.  0.
     999903    2    3    3    0    0  0.99648293992E-01  0.59589307658E-02  0.84613708300E-01  0.13235771413E+00  0.19844231073E-01 0.  0.
         14    1    1    2    0    0 -0.71506486036E-02  0.34875971228E-02 -0.23221885463E-01  0.24546915766E-01  0.00000000000E+00 0. -1.
     999901    1    3    3    0    0 -0.92497645388E-01 -0.94465278886E-02 -0.61391822837E-01  0.88702537010E+00  0.88000000000E+00 0.  1.
        -11    1    4    4    0    0  0.34769649166E-01 -0.42777920720E-02  0.38787760212E-01  0.52268341005E-01  0.51100000000E-03 0.  1.
         11    1    4    4    0    0  0.64878644826E-01  0.10236722838E-01  0.45825948088E-01  0.80089373129E-01  0.51100000000E-03 0. -1.
</event>
<event>
 8    1  0.1148488E+005  0.1043930E+01  0.7957747E-01            NaN
         13   -1    0    0    0    0  0.00000000000E+00  0.00000000000E+00  0.74505805969E-08  0.10566000000E+00  0.10566000000E+00 0. -1.
     999900   -1    0    0    0    0 -0.00000000000E+00 -0.00000000000E+00 -0.74505805969E-08  0.93827000000E+00  0.93827000000E+00 0. -1.
     999902    2    1    2    0    0  0.51046781668E-02 -0.14528560417E-01  0.19950792486E-01  0.10187274024E+01  0.10184156074E+01 0.  0.
     999903    2    3    3    0    0  0.52745377091E-01  0.10586554353E+00 -0.42123824230E-01  0.12708978847E+00  0.19692883369E-01 0.  0.
         14    1    1    2    0    0 -0.51046781668E-02  0.14528560417E-01 -0.19950792486E-01  0.25202597640E-01  0.00000000000E+00 0.  1.
     999901    1    3    3    0    0 -0.47640698924E-01 -0.12039410394E+00  0.62074616716E-01  0.89163761389E+00  0.88000000000E+00 0.  1.
        -11    1    4    4    0    0  0.10348269199E-01  0.34592829531E-01 -0.19905275613E-01  0.41233865312E-01  0.51100000000E-03 0. -1.
         11    1    4    4    0    0  0.42397107892E-01  0.71272713997E-01 -0.22218548617E-01  0.85855923161E-01  0.51100000000E-03 0.  1.
</event>
<event>
 8    1  0.1148488E+005  0.1043930E+01  0.7957747E-01            NaN
         13   -1    0    0    0    0  0.00000000000E+00  0.00000000000E+00  0.74505805969E-08  0.10566000000E+00  0.10566000000E+00 0. -1.
     999900   -1    0    0    0    0 -0.00000000000E+00 -0.00000000000E+00 -0.74505805969E-08  0.93827000000E+00  0.93827000000E+00 0. -1.
     999902    2    1    2    0    0 -0.50348281862E-02  0.91064758419E-02  0.22790907653E-01  0.10188760009E+01  0.10185679174E+01 0.  0.
     999903    2    3    3    0    0  0.48597540947E-01 -0.93613355695E-01  0.72922855990E-01  0.12986474845E+00  0.20540901011E-01 0.  0.
         14    1    1    2    0    0  0.50348281862E-02 -0.91064758419E-02 -0.22790907653E-01  0.25053999057E-01  0.00000000000E+00 0.  1.
     999901    1    3    3    0    0 -0.53632369133E-01  0.10271983154E+00 -0.50131948337E-01  0.88901125249E+00  0.88000000000E+00 0. -1.
        -11    1    4    4    0    0  0.48252669527E-01 -0.90415224411E-01  0.65161200083E-01  0.12144742088E+00  0.51100000000E-03 0.  1.
         11    1    4    4    0    0  0.34487141975E-03 -0.31981312846E-02  0.77616559066E-02  0.84173275701E-02  0.51100000000E-03 0. -1.
</event>
<event>
 8    1  0.1148488E+005  0.1043930E+01  0.7957747E-01            NaN
         13   -1    0    0    0    0  0.00000000000E+00  0.00000000000E+00  0.74505805969E-08  0.10566000000E+00  0.10566000000E+00 0.  1.
     999900   -1    0    0    0    0 -0.00000000000E+00 -0.00000000000E+00 -0.74505805969E-08  0.93827000000E+00  0.93827000000E+00 0. -1.
     999902    2    1    2    0    0  0.21971074455E-01  0.35969374845E-02 -0.74702911955E-02  0.10204465734E+01  0.10201763269E+01 0.  0.
     999903    2    3    3    0    0  0.77306509159E-01  0.16791717924E-01 -0.10455050534E+00  0.13328216899E+00  0.23980622489E-01 0.  0.
         14    1    1    2    0    0 -0.21971074455E-01 -0.35969374845E-02  0.74702911955E-02  0.23483426550E-01  0.00000000000E+00 0. -1.
     999901    1    3    3    0    0 -0.55335434703E-01 -0.13194780440E-01  0.97080214142E-01  0.88716440446E+00  0.88000000000E+00 0.  1.
        -11    1    4    4    0    0  0.31022130414E-01 -0.47267555419E-02 -0.35000085853E-01  0.47010444841E-01  0.51100000000E-03 0. -1.
         11    1    4    4    0    0  0.46284378744E-01  0.21518473466E-01 -0.69550419484E-01  0.86271724148E-01  0.51100000000E-03 0.  1.
</event>
<event>
 8    1  0.1148488E+005  0.1043930E+01  0.7957747E-01            NaN
         13   -1    0    0    0    0  0.00000000000E+00  0.00000000000E+00  0.74505805969E-08  0.10566000000E+00  0.10566000000E+00 0. -1.
     999900   -1    0    0    0    0 -0.00000000000E+00 -0.00000000000E+00 -0.74505805969E-08  0.93827000000E+00  0.93827000000E+00 0. -1.
     999902    2    1    2    0    0  0.22833178548E-01 -0.19484099436E-02  0.50899266758E-02  0.10204553818E+01  0.10201853403E+01 0.  0.
     999903    2    3    3    0    0 -0.69195387062E-01 -0.50111244207E-01  0.95594592746E-01  0.12973656534E+00  0.19852250200E-01 0.  0.
         14    1    1    2    0    0 -0.22833178548E-01  0.19484099436E-02 -0.50899266758E-02  0.23474618154E-01  0.00000000000E+00 0. -1.
     999901    1    3    3    0    0  0.92028565610E-01  0.48162834264E-01 -0.90504666070E-01  0.89071881650E+00  0.88000000000E+00 0. -1.
        -11    1    4    4    0    0 -0.34463766886E-01 -0.12888572600E-01  0.40270163672E-01  0.54551019558E-01  0.51100000000E-03 0.  1.
         11    1    4    4    0    0 -0.34731620176E-01 -0.37222671607E-01  0.55324429074E-01  0.75185545785E-01  0.51100000000E-03 0. -1.
</event>
<event>
 8    1  0.1148488E+005  0.1043930E+01  0.7957747E-01            NaN
         13   -1    0    0    0    0  0.00000000000E+00  0.00000000000E+00  0.74505805969E-08  0.10566000000E+00  0.10566000000E+00 0.  1.
     999900   -1    0    0    0    0 -0.00000000000E+00 -0.00000000000E+00 -0.74505805969E-08  0.93827000000E+00  0.93827000000E+00 0. -1.
     999902    2    1    2    0    0 -0.67070360508E-02  0.21229520668E-01  0.18560150550E-02  0.10215889689E+01  0.10213446527E+01 0.  0.
     999903    2    3    3    0    0  0.32692805309E-01  0.15605383975E-01  0.12557438493E+00  0.13204402146E+00  0.18824184508E-01 0.  0.
         14    1    1    2    0    0  0.67070360508E-02 -0.21229520668E-01 -0.18560150550E-02  0.22341031137E-01  0.00000000000E+00 0.  1.
     999901    1    3    3    0    0 -0.39399841360E-01  0.56241366931E-02 -0.12371836988E+00  0.88954494741E+00  0.88000000000E+00 0. -1.
        -11    1    4    4    0    0  0.45447578626E-02  0.76387920376E-02  0.53859178056E-01  0.54590092047E-01  0.51100000000E-03 0. -1.
         11    1    4    4    0    0  0.28148047447E-01  0.79665919372E-02  0.71715206878E-01  0.77453929408E-01  0.51100000000E-03 0.  1.
</event>
<event>
 8    1  0.1148488E+005  0.1043930E+01  0.7957747E-01            NaN
         13   -1    0    0    0    0  0.00000000000E+00  0.00000000000E+00  0.74505805969E-08  0.10566000000E+00  0.10566000000E+00 0.  1.
     999900   -1    0    0    0    0 -0.00000000000E+00 -0.00000000000E+00 -0.74505805969E-08  0.93827000000E+00  0.93827000000E+00 0. -1.
     999902    2    1    2    0    0 -0.86209946079E-02 -0.22547679531E-01 -0.25385224626E-02  0.10196573097E+01  0.10193683660E+01 0.  0.
     999903    2    3    3    0    0  0.90356306971E-02  0.11804899929E+00 -0.42794163334E-01  0.12741311711E+00  0.19635507138E-01 0.  0.
         14    1    1    2    0    0  0.86209946079E-02  0.22547679531E-01  0.25385224626E-02  0.24272690345E-01  0.00000000000E+00 0. -1.
     999901    1    3    3    0    0 -0.17656625305E-01 -0.14059667882E+00  0.40255640871E-01  0.89224419255E+00  0.88000000000E+00 0.  1.
        -11    1    4    4    0    0  0.15060714981E-01  0.93477702593E-01 -0.32756669973E-01  0.10019065109E+00  0.51100000000E-03 0. -1.
         11    1    4    4    0    0 -0.60250842841E-02  0.24571296695E-01 -0.10037493361E-01  0.27222466014E-01  0.51100000000E-03 0.  1.
</event>
<event>
 8    1  0.1148488E+005  0.1043930E+01  0.7957747E-01            NaN
         13   -1    0    0    0    0  0.00000000000E+00  0.00000000000E+00  0.74505805969E-08  0.10566000000E+00  0.10566000000E+00 0.  1.
     999900   -1    0    0    0    0 -0.00000000000E+00 -0.00000000000E+00 -0.74505805969E-08  0.93827000000E+00  0.93827000000E+00 0.  1.
     999902    2    1    2    0    0  0.18977379406E-01  0.12473626199E-01 -0.50431377948E-02  0.10206670355E+01  0.10204018972E+01 0.  0.
     999903    2    3    3    0    0 -0.29396318030E-01  0.97342892225E-01  0.80278817221E-01  0.13116006927E+00  0.20457103804E-01 0.  0.
         14    1    1    2    0    0 -0.18977379406E-01 -0.12473626199E-01  0.50431377948E-02  0.23262964525E-01  0.00000000000E+00 0.  1.
     999901    1    3    3    0    0  0.48373697436E-01 -0.84869266026E-01 -0.85321955015E-01  0.88950696620E+00  0.88000000000E+00 0.  1.
        -11    1    4    4    0    0 -0.14012613005E-01  0.19525066613E-01  0.14209960238E-01  0.27924284063E-01  0.51100000000E-03 0.  1.
         11    1    4    4    0    0 -0.15383705025E-01  0.77817825612E-01  0.66068856983E-01  0.10323578521E+00  0.51100000000E-03 0. -1.
</event>
<event>
 8    1  0.1148488E+005  0.1043930E+01  0.7957747E-01            NaN
         13   -1    0    0    0    0  0.00000000000E+00  0.00000000000E+00  0.74505805969E-08  0.10566000000E+00  0.10566000000E+00 0. -1.
     999900   -1    0    0    0    0 -0.00000000000E+00 -0.00000000000E+00 -0.74505805969E-08  0.93827000000E+00  0.93827000000E+00 0.  1.
     999902    2    1    2    0    0  0.10680115736E-01  0.10920335176E-02 -0.21841473254E-01  0.10195926344E+01  0.10193021303E+01 0.  0.
     999903    2    3    3    0    0 -0.82361509085E-01  0.42708483031E-01 -0.90326419450E-01  0.13106640483E+00  0.20300436516E-01 0.  0.
         14    1    1    2    0    0 -0.10680115736E-01 -0.10920335176E-02  0.21841473254E-01  0.24337365577E-01  0.00000000000E+00 0. -1.
     999901    1    3    3    0    0  0.93041624821E-01 -0.41616449514E-01  0.68484946196E-01  0.88852622959E+00  0.88000000000E+00 0. -1.
        -11    1    4    4    0    0 -0.46005844354E-01  0.31425367137E-01 -0.63589985950E-01  0.84546075300E-01  0.51100000000E-03 0.  1.
         11    1    4    4    0    0 -0.36355664731E-01  0.11283115895E-01 -0.26736433500E-01  0.46520329530E-01  0.51100000000E-03 0. -1.
</event>
<event>
 8    1  0.1148488E+005  0.1043930E+01  0.7957747E-01            NaN
         13   -1    0    0    0    0  0.00000000000E+00  0.00000000000E+00  0.74505805969E-08  0.10566000000E+00  0.10566000000E+00 0. -1.
     999900   -1    0    0    0    0 -0.00000000000E+00 -0.00000000000E+00 -0.74505805969E-08  0.93827000000E+00  0.93827000000E+00 0.  1.
     999902    2    1    2    0    0  0.10296499484E-01  0.13256745015E-01  0.16371706699E-01  0.10204823568E+01  0.10202129428E+01 0.  0.
     999903    2    3    3    0    0 -0.60129496108E-01 -0.11208899815E+00 -0.14190335267E-02  0.12863714233E+00  0.19131150589E-01 0.  0.
         14    1    1    2    0    0 -0.10296499484E-01 -0.13256745015E-01 -0.16371706699E-01  0.23447643171E-01  0.00000000000E+00 0.  1.
     999901    1    3    3    0    0  0.70425995593E-01  0.12534574316E+00  0.17790740225E-01  0.89184521450E+00  0.88000000000E+00 0. -1.
        -11    1    4    4    0    0 -0.22754313622E-02 -0.10227780540E-01 -0.45858995189E-02  0.11448872348E-01  0.51100000000E-03 0.  1.
         11    1    4    4    0    0 -0.57854064746E-01 -0.10186121761E+00  0.31668659921E-02  0.11718826998E+00  0.51100000000E-03 0. -1.
</event>
<event>
 8    1  0.1148488E+005  0.1043930E+01  0.7957747E-01            NaN
         13   -1    0    0    0    0  0.00000000000E+00  0.00000000000E+00  0.74505805969E-08  0.10566000000E+00  0.10566000000E+00 0. -1.
     999900   -1    0    0    0    0 -0.00000000000E+00 -0.00000000000E+00 -0.74505805969E-08  0.93827000000E+00  0.93827000000E+00 0. -1.
     999902    2    1    2    0    0 -0.20158524596E-01 -0.12389007982E-02 -0.89265594575E-02  0.10218486854E+01  0.10216100780E+01 0.  0.
     999903    2    3    3    0    0 -0.33358367004E-01  0.11750606462E+00  0.46126295102E-01  0.13207038752E+00  0.19861930589E-01 0.  0.
         14    1    1    2    0    0  0.20158524596E-01  0.12389007982E-02  0.89265594575E-02  0.22081314563E-01  0.00000000000E+00 0. -1.
     999901    1    3    3    0    0  0.13199842408E-01 -0.11874496542E+00 -0.55052854560E-01  0.88977829792E+00  0.88000000000E+00 0. -1.
        -11    1    4    4    0    0 -0.28274717582E-01  0.65021644645E-01  0.29273695225E-01  0.76710392254E-01  0.51100000000E-03 0.  1.
         11    1    4    4    0    0 -0.50836494216E-02  0.52484419979E-01  0.16852599877E-01  0.55359995264E-01  0.51100000000E-03 0. -1.
</event>
<event>
 8    1  0.1148488E+005  0.1043930E+01  0.7957747E-01            NaN
         13   -1    0    0    0    0  0.00000000000E+00  0.00000000000E+00  0.74505805969E-08  0.10566000000E+00  0.10566000000E+00 0. -1.
     999900   -1    0    0    0    0 -0.00000000000E+00 -0.00000000000E+00 -0.74505805969E-08  0.93827000000E+00  0.93827000000E+00 0.  1.
     999902    2    1    2    0    0 -0.21390650182E-01 -0.59490999364E-02 -0.48479868963E-02  0.10212043607E+01  0.10209514639E+01 0.  0.
     999903    2    3    3    0    0 -0.70465411990E-01  0.57817628814E-01 -0.95074598831E-01  0.13293898962E+00  0.18037270543E-01 0.  0.
         14    1    1    2    0    0  0.21390650182E-01  0.59490999364E-02  0.48479868963E-02  0.22725639313E-01  0.00000000000E+00 0. -1.
     999901    1    3    3    0    0  0.49074761809E-01 -0.63766728750E-01  0.90226611935E-01  0.88826537107E+00  0.88000000000E+00 0. -1.
        -11    1    4    4    0    0 -0.59889549100E-01  0.39650400701E-01 -0.71473480687E-01  0.10132932414E+00  0.51100000000E-03 0. -1.
         11    1    4    4    0    0 -0.10575862891E-01  0.18167228113E-01 -0.23601118144E-01  0.31609665481E-01  0.51100000000E-03 0.  1.
</event>
<event>
 8    1  0.1148488E+005  0.1043930E+01  0.7957747E-01            NaN
         13   -1    0    0    0    0  0.00000000000E+00  0.00000000000E+00  0.74505805969E-08  0.10566000000E+00  0.10566000000E+00 0.  1.
     999900   -1    0    0    0    0 -0.00000000000E+00 -0.00000000000E+00 -0.74505805969E-08  0.93827000000E+00  0.93827000000E+00 0.  1.
     999902    2    1    2    0    0  0.19553968837E-01  0.11325090857E-01 -0.44727735935E-02  0.10208947860E+01  0.10206348725E+01 0.  0.
     999903    2    3    3    0    0  0.52563146488E-01 -0.25109097214E-01 -0.11703303373E+00  0.13236405045E+00  0.20740292534E-01 0.  0.
         14    1    1    2    0    0 -0.19553968837E-01 -0.11325090857E-01  0.44727735935E-02  0.23035213995E-01  0.00000000000E+00 0.  1.
     999901    1    3    3    0    0 -0.33009177650E-01  0.36434188070E-01  0.11256026014E+00  0.88853073556E+00  0.88000000000E+00 0. -1.
        -11    1    4    4    0    0  0.17577198801E-01 -0.18436308016E-01 -0.38986219018E-01  0.46572972476E-01  0.51100000000E-03 0.  1.
         11    1    4    4    0    0  0.34985947686E-01 -0.66727891975E-02 -0.78046814715E-01  0.85791077970E-01  0.51100000000E-03 0. -1.
</event>
<event>
 8    1  0.1148488E+005  0.1043930E+01  0.7957747E-01            NaN
         13   -1    0    0    0    0  0.00000000000E+00  0.00000000000E+00  0.74505805969E-08  0.10566000000E+00  0.10566000000E+00 0. -1.
     999900   -1    0    0    0    0 -0.00000000000E+00 -0.00000000000E+00 -0.74505805969E-08  0.93827000000E+00  0.93827000000E+00 0.  1.
     999902    2    1    2    0    0  0.11879981243E-01  0.17019038790E-01 -0.13097932393E-02  0.10231334331E+01  0.10229220521E+01 0.  0.
     999903    2    3    3    0    0  0.11114879615E+00  0.19195773868E-01  0.70004673710E-01  0.13468265284E+00  0.22720695729E-01 0.  0.
         14    1    1    2    0    0 -0.11879981243E-01 -0.17019038790E-01  0.13097932393E-02  0.20796566880E-01  0.00000000000E+00 0. -1.
     999901    1    3    3    0    0 -0.99268814907E-01 -0.21767350783E-02 -0.71314466949E-01  0.88845078028E+00  0.88000000000E+00 0. -1.
        -11    1    4    4    0    0  0.83178630681E-01  0.13276135909E-01  0.63154948463E-01  0.10527938556E+00  0.51100000000E-03 0.  1.
         11    1    4    4    0    0  0.27970165469E-01  0.59196379591E-02  0.68497252463E-02  0.29403267282E-01  0.51100000000E-03 0. -1.
</event>
<event>
 8    1  0.1148488E+005  0.1043930E+01  0.7957747E-01            NaN
         13   -1    0    0    0    0  0.00000000000E+00  0.00000000000E+00  0.74505805969E-08  0.10566000000E+00  0.10566000000E+00 0. -1.
     999900   -1    0    0    0    0 -0.00000000000E+00 -0.00000000000E+00 -0.74505805969E-08  0.93827000000E+00  0.93827000000E+00 0. -1.
     999902    2    1    2    0    0 -0.11930352920E-01 -0.14165038974E-01  0.16322490664E-01  0.10192438632E+01  0.10189448696E+01 0.  0.
     999903    2    3    3    0    0 -0.11169520113E+00 -0.78815521435E-02  0.67357065073E-01  0.13211532968E+00  0.19482025114E-01 0.  0.
         14    1    1    2    0    0  0.11930352920E-01  0.14165038974E-01 -0.16322490664E-01  0.24686136827E-01  0.00000000000E+00 0.  1.
     999901    1    3    3    0    0  0.99764848210E-01 -0.62834868305E-02 -0.51034574409E-01  0.88712853349E+00  0.88000000000E+00 0.  1.
        -11    1    4    4    0    0 -0.66761249051E-01 -0.13813676168E-01  0.43776358506E-01  0.81021680489E-01  0.51100000000E-03 0.  1.
         11    1    4    4    0    0 -0.44933952080E-01  0.59321240250E-02  0.23580706567E-01  0.51093649196E-01  0.51100000000E-03 0. -1.
</event>
<event>
 8    1  0.1148488E+005  0.1043930E+01  0.7957747E-01            NaN
         13   -1    0    0    0    0  0.00000000000E+00  0.00000000000E+00  0.74505805969E-08  0.10566000000E+00  0.10566000000E+00 0. -1.
     999900   -1    0    0    0    0 -0.00000000000E+00 -0.00000000000E+00 -0.74505805969E-08  0.93827000000E+00  0.93827000000E+00 0.  1.
     999902    2    1    2    0    0 -0.35364139043E-03 -0.28352404818E-04 -0.23951612863E-01  0.10199757598E+01  0.10196944370E+01 0.  0.
     999903    2    3    3    0    0  0.10513307442E+00 -0.48347316085E-01 -0.59490806718E-01  0.13164856568E+00  0.20044012894E-01 0.  0.
         14    1    1    2    0    0  0.35364139043E-03  0.28352404818E-04  0.23951612863E-01  0.23954240227E-01  0.00000000000E+00 0. -1.
     999901    1    3    3    0    0 -0.10548671581E+00  0.48318963680E-01  0.35539193855E-01  0.88832719409E+00  0.88000000000E+00 0.  1.
        -11    1    4    4    0    0  0.56697422458E-01 -0.17099905019E-01 -0.36650523824E-01  0.69645721208E-01  0.51100000000E-03 0.  1.
         11    1    4    4    0    0  0.48435651960E-01 -0.31247411067E-01 -0.22840282894E-01  0.62002844474E-01  0.51100000000E-03 0. -1.
</event>
<event>
 8    1  0.1148488E+005  0.1043930E+01  0.7957747E-01            NaN
         13   -1    0    0    0    0  0.00000000000E+00  0.00000000000E+00  0.74505805969E-08  0.10566000000E+00  0.10566000000E+00 0.  1.
     999900   -1    0    0    0    0 -0.00000000000E+00 -0.00000000000E+00 -0.74505805969E-08  0.93827000000E+00  0.93827000000E+00 0.  1.
     999902    2    1    2    0    0  0.47443481145E-02 -0.14629796477E-01  0.17749943086E-01  0.10204438282E+01  0.10201735178E+01 0.  0.
     999903    2    3    3    0    0  0.51627490735E-02  0.10791944216E+00  0.69883089607E-01  0.13042340381E+00  0.21292206916E-01 0.  0.
         14    1    1    2    0    0 -0.47443481145E-02  0.14629796477E-01 -0.17749943086E-01  0.23486171752E-01  0.00000000000E+00 0. -1.
     999901    1    3    3    0    0 -0.41840095906E-03 -0.12254923863E+00 -0.52133146521E-01  0.89002042444E+00  0.88000000000E+00 0. -1.
        -11    1    4    4    0    0 -0.32153933101E-02  0.45318180460E-02  0.44223014674E-03  0.55975724599E-02  0.51100000000E-03 0. -1.
         11    1    4    4    0    0  0.83781423836E-02  0.10338762411E+00  0.69440859460E-01  0.12482583135E+00  0.51100000000E-03 0.  1.
</event>
<event>
 8    1  0.1148488E+005  0.1043930E+01  0.7957747E-01            NaN
         13   -1    0    0    0    0  0.00000000000E+00  0.00000000000E+00  0.74505805969E-08  0.10566000000E+00  0.10566000000E+00 0.  1.
     999900   -1    0    0    0    0 -0.00000000000E+00 -0.00000000000E+00 -0.74505805969E-08  0.93827000000E+00  0.93827000000E+00 0.  1.
     999902    2    1    2    0    0  0.18889234526E-01  0.11134025849E-01  0.12144566878E-01  0.10188648805E+01  0.10185565200E+01 0.  0.
     999903    2    3    3    0    0 -0.74794750212E-01 -0.91154634114E-01  0.43670397998E-01  0.12744268140E+00  0.20763222355E-01 0.  0.
         14    1    1    2    0    0 -0.18889234526E-01 -0.11134025849E-01 -0.12144566878E-01  0.25065119533E-01  0.00000000000E+00 0. -1.
     999901    1    3    3    0    0  0.93683984738E-01  0.10228865996E+00 -0.31525831121E-01  0.89142219906E+00  0.88000000000E+00 0. -1.
        -11    1    4    4    0    0 -0.31783197690E-01 -0.32268332601E-01  0.26669101458E-01  0.52563476273E-01  0.51100000000E-03 0.  1.
         11    1    4    4    0    0 -0.43011552521E-01 -0.58886301512E-01  0.17001296541E-01  0.74879205132E-01  0.51100000000E-03 0. -1.
</event>
<event>
 8    1  0.1148488E+005  0.1043930E+01  0.7957747E-01            NaN
         13   -1    0    0    0    0  0.00000000000E+00  0.00000000000E+00  0.74505805969E-08  0.10566000000E+00  0.10566000000E+00 0.  1.
     999900   -1    0    0    0    0 -0.00000000000E+00 -0.00000000000E+00 -0.74505805969E-08  0.93827000000E+00  0.93827000000E+00 0.  1.
     999902    2    1    2    0    0 -0.76768707263E-02 -0.12553343528E-01  0.18844127699E-01  0.10200213838E+01  0.10197411444E+01 0.  0.
     999903    2    3    3    0    0  0.68874112234E-01  0.78856901422E-01  0.74597439933E-01  0.13023246635E+00  0.20824577017E-01 0.  0.
         14    1    1    2    0    0  0.76768707263E-02  0.12553343528E-01 -0.18844127699E-01  0.23908616158E-01  0.00000000000E+00 0. -1.
     999901    1    3    3    0    0 -0.76550982960E-01 -0.91410244950E-01 -0.55753312234E-01  0.88978891750E+00  0.88000000000E+00 0. -1.
        -11    1    4    4    0    0  0.22271028118E-01  0.13120666221E-01  0.13937043594E-01  0.29370953009E-01  0.51100000000E-03 0.  1.
         11    1    4    4    0    0  0.46603084117E-01  0.65736235201E-01  0.60660396339E-01  0.10086151334E+00  0.51100000000E-03 0. -1.
</event>
<event>
 8    1  0.1148488E+005  0.1043930E+01  0.7957747E-01            NaN
         13   -1    0    0    0    0  0.00000000000E+00  0.00000000000E+00  0.74505805969E-08  0.10566000000E+00  0.10566000000E+00 0.  1.
     999900   -1    0    0    0    0 -0.00000000000E+00 -0.00000000000E+00 -0.74505805969E-08  0.93827000000E+00  0.93827000000E+00 0.  1.
     999902    2    1    2    0    0  0.80911190248E-02  0.11596848048E-01 -0.19960211224E-01  0.10194685380E+01  0.10191750276E+01 0.  0.
     999903    2    3    3    0    0 -0.80253496554E-01 -0.90309402726E-01 -0.40659216235E-01  0.12895289868E+00  0.19474760134E-01 0.  0.
         14    1    1    2    0    0 -0.80911190248E-02 -0.11596848048E-01  0.19960211224E-01  0.24461462013E-01  0.00000000000E+00 0.  1.
     999901    1    3    3    0    0  0.88344615579E-01  0.10190625077E+00  0.20699005011E-01  0.89051563931E+00  0.88000000000E+00 0. -1.
        -11    1    4    4    0    0 -0.38626265646E-01 -0.34780121229E-01 -0.25575148554E-01  0.57930946609E-01  0.51100000000E-03 0. -1.
         11    1    4    4    0    0 -0.41627230908E-01 -0.55529281497E-01 -0.15084067681E-01  0.71021952067E-01  0.51100000000E-03 0.  1.
</event>
<event>
 8    1  0.1148488E+005  0.1043930E+01  0.7957747E-01            NaN
         13   -1    0    0    0    0  0.00000000000E+00  0.00000000000E+00  0.74505805969E-08  0.10566000000E+00  0.10566000000E+00 0.  1.
     999900   -1    0    0    0    0 -0.00000000000E+00 -0.00000000000E+00 -0.74505805969E-08  0.93827000000E+00  0.93827000000E+00 0. -1.
     999902    2    1    2    0    0 -0.90235342542E-02  0.20721399001E-01  0.93325602822E-02  0.10194780629E+01  0.10191847838E+01 0.  0.
     999903    2    3    3    0    0 -0.77190971160E-01 -0.53264322358E-01  0.88187010120E-01  0.13024316103E+00  0.19768615971E-01 0.  0.
         14    1    1    2    0    0  0.90235342542E-02 -0.20721399001E-01 -0.93325602822E-02  0.24451937110E-01  0.00000000000E+00 0.  1.
     999901    1    3    3    0    0  0.68167436906E-01  0.73985721359E-01 -0.78854449838E-01  0.88923490186E+00  0.88000000000E+00 0.  1.
        -11    1    4    4    0    0 -0.48330583661E-01 -0.21573364152E-01  0.46630514374E-01  0.70540210871E-01  0.51100000000E-03 0. -1.
         11    1    4    4    0    0 -0.28860387499E-01 -0.31690958205E-01  0.41556495746E-01  0.59702950164E-01  0.51100000000E-03 0.  1.
</event>
<event>
 8    1  0.1148488E+005  0.1043930E+01  0.7957747E-01            NaN
         13   -1    0    0    0    0  0.00000000000E+00  0.00000000000E+00  0.74505805969E-08  0.10566000000E+00  0.10566000000E+00 0.  1.
     999900   -1    0    0    0    0 -0.00000000000E+00 -0.00000000000E+00 -0.74505805969E-08  0.93827000000E+00  0.93827000000E+00 0. -1.
     999902    2    1    2    0    0  0.22282190139E-01 -0.21808660934E-02 -0.74842333809E-02  0.10203235195E+01  0.10200503999E+01 0.  0.
     999903    2    3    3    0    0  0.20331999272E-01 -0.26381780900E-01 -0.12629912031E+00  0.13200687272E+00  0.19103876441E-01 0.  0.
         14    1    1    2    0    0 -0.22282190139E-01  0.21808660934E-02  0.74842333809E-02  0.23606480543E-01  0.00000000000E+00 0.  1.
     999901    1    3    3    0    0  0.19501908677E-02  0.24200914806E-01  0.11881488693E+00  0.88831664674E+00  0.88000000000E+00 0.  1.
        -11    1    4    4    0    0 -0.20674110044E-02 -0.28316728096E-02 -0.33354031551E-01  0.33541691980E-01  0.51100000000E-03 0. -1.
         11    1    4    4    0    0  0.22399410276E-01 -0.23550108090E-01 -0.92945088759E-01  0.98465180735E-01  0.51100000000E-03 0.  1.
</event>
<event>
 8    1  0.1148488E+005  0.1043930E+01  0.7957747E-01            NaN
         13   -1    0    0    0    0  0.00000000000E+00  0.00000000000E+00  0.74505805969E-08  0.10566000000E+00  0.10566000000E+00 0.  1.
     999900   -1    0    0    0    0 -0.00000000000E+00 -0.00000000000E+00 -0.74505805969E-08  0.93827000000E+00  0.93827000000E+00 0. -1.
     999902    2    1    2    0    0 -0.34017597647E-02  0.25133884658E-01  0.98950472885E-02  0.10167050833E+01  0.10163405091E+01 0.  0.
     999903    2    3    3    0    0  0.75613240046E-01  0.53990408000E-01 -0.85128819713E-01  0.12760126236E+00  0.20070874046E-01 0.  0.
         14    1    1    2    0    0  0.34017597647E-02 -0.25133884658E-01 -0.98950472885E-02  0.27224916682E-01  0.00000000000E+00 0. -1.
     999901    1    3    3    0    0 -0.79014999811E-01 -0.28856523343E-01  0.95023867002E-01  0.88910382095E+00  0.88000000000E+00 0.  1.
        -11    1    4    4    0    0  0.39803790449E-01  0.16166337376E-01 -0.38602281279E-01  0.57758890564E-01  0.51100000000E-03 0.  1.
         11    1    4    4    0    0  0.35809449597E-01  0.37824070624E-01 -0.46526538434E-01  0.69842371800E-01  0.51100000000E-03 0. -1.
</event>
<event>
 8    1  0.1148488E+005  0.1043930E+01  0.7957747E-01            NaN
         13   -1    0    0    0    0  0.00000000000E+00  0.00000000000E+00  0.74505805969E-08  0.10566000000E+00  0.10566000000E+00 0. -1.
     999900   -1    0    0    0    0 -0.00000000000E+00 -0.00000000000E+00 -0.74505805969E-08  0.93827000000E+00  0.93827000000E+00 0. -1.
     999902    2    1    2    0    0  0.35183544273E-03 -0.22935979365E-01  0.56812517115E-02  0.10202982510E+01  0.10200245397E+01 0.  0.
     999903    2    3    3    0    0 -0.64060714846E-01 -0.74622278844E-01  0.85134483121E-01  0.13286754042E+00  0.27085852276E-01 0.  0.
         14    1    1    2    0    0 -0.35183544273E-03  0.22935979365E-01 -0.56812517115E-02  0.23631748954E-01  0.00000000000E+00 0.  1.
     999901    1    3    3    0    0  0.64412550288E-01  0.51686299479E-01 -0.79453231410E-01  0.88743071063E+00  0.88000000000E+00 0. -1.
        -11    1    4    4    0    0 -0.65572168264E-02 -0.11152363550E-01  0.12883026618E-02  0.13011270115E-01  0.51100000000E-03 0. -1.
         11    1    4    4    0    0 -0.57503498019E-01 -0.63469915294E-01  0.83846180459E-01  0.11985627030E+00  0.51100000000E-03 0.  1.
</event>
<event>
 8    1  0.1148488E+005  0.1043930E+01  0.7957747E-01            NaN
         13   -1    0    0    0    0  0.00000000000E+00  0.00000000000E+00  0.74505805969E-08  0.10566000000E+00  0.10566000000E+00 0. -1.
     999900   -1    0    0    0    0 -0.00000000000E+00 -0.00000000000E+00 -0.74505805969E-08  0.93827000000E+00  0.93827000000E+00 0. -1.
     999902    2    1    2    0    0  0.17502853969E-01  0.17353670049E-01  0.19439714032E-02  0.10192059472E+01  0.10189060232E+01 0.  0.
     999903    2    3    3    0    0 -0.12521236576E+00 -0.11129199518E-01  0.19687227904E-02  0.12725364557E+00  0.19688037479E-01 0.  0.
         14    1    1    2    0    0 -0.17502853969E-01 -0.17353670049E-01 -0.19439714032E-02  0.24724052783E-01  0.00000000000E+00 0. -1.
     999901    1    3    3    0    0  0.14271521973E+00  0.28482869567E-01 -0.24751387178E-04  0.89195230165E+00  0.88000000000E+00 0.  1.
        -11    1    4    4    0    0 -0.74181375213E-01  0.14933735443E-02 -0.42266295142E-02  0.74318450677E-01  0.51100000000E-03 0. -1.
         11    1    4    4    0    0 -0.51030990549E-01 -0.12622573063E-01  0.61953523046E-02  0.52935194892E-01  0.51100000000E-03 0.  1.
</event>
<event>
 8    1  0.1148488E+005  0.1043930E+01  0.7957747E-01            NaN
         13   -1    0    0    0    0  0.00000000000E+00  0.00000000000E+00  0.74505805969E-08  0.10566000000E+00  0.10566000000E+00 0. -1.
     999900   -1    0    0    0    0 -0.00000000000E+00 -0.00000000000E+00 -0.74505805969E-08  0.93827000000E+00  0.93827000000E+00 0.  1.
     999902    2    1    2    0    0  0.17535866416E-01 -0.19190447630E-02  0.15906868898E-01  0.10201767303E+01  0.10199001634E+01 0.  0.
     999903    2    3    3    0    0  0.36020967379E-02 -0.11990684849E+00  0.49944985848E-01  0.13154077267E+00  0.20441278072E-01 0.  0.
         14    1    1    2    0    0 -0.17535866416E-01  0.19190447630E-02 -0.15906868898E-01  0.23753269710E-01  0.00000000000E+00 0.  1.
     999901    1    3    3    0    0  0.13933769678E-01  0.11798780372E+00 -0.34038116950E-01  0.88863595762E+00  0.88000000000E+00 0. -1.
        -11    1    4    4    0    0  0.79632231448E-02 -0.24798234237E-01  0.15373808957E-01  0.30248644052E-01  0.51100000000E-03 0. -1.
         11    1    4    4    0    0 -0.43611264068E-02 -0.95108614249E-01  0.34571176891E-01  0.10129212862E+00  0.51100000000E-03 0.  1.
</event>
<event>
 8    1  0.1148488E+005  0.1043930E+01  0.7957747E-01            NaN
         13   -1    0    0    0    0  0.00000000000E+00  0.00000000000E+00  0.74505805969E-08  0.10566000000E+00  0.10566000000E+00 0.  1.
     999900   -1    0    0    0    0 -0.00000000000E+00 -0.00000000000E+00 -0.74505805969E-08  0.93827000000E+00  0.93827000000E+00 0. -1.
     999902    2    1    2    0    0  0.28216056537E-02  0.15422767782E-01  0.23355136953E-01  0.10158002000E+01  0.10154106365E+01 0.  0.
     999903    2    3    3    0    0  0.49536791913E-01 -0.23509753250E-01 -0.10920345960E+00  0.12379693134E+00  0.19841430663E-01 0.  0.
         14    1    1    2    0    0 -0.28216056537E-02 -0.15422767782E-01 -0.23355136953E-01  0.28129799975E-01  0.00000000000E+00 0. -1.
     999901    1    3    3    0    0 -0.46715186259E-01  0.38932521032E-01  0.13255859655E+00  0.89200326868E+00  0.88000000000E+00 0.  1.
        -11    1    4    4    0    0  0.60280929117E-02 -0.10821660305E-01 -0.31332698937E-01  0.33696370422E-01  0.51100000000E-03 0. -1.
         11    1    4    4    0    0  0.43508699001E-01 -0.12688092945E-01 -0.77870760661E-01  0.90100560921E-01  0.51100000000E-03 0.  1.
</event>
<event>
 8    1  0.1148488E+005  0.1043930E+01  0.7957747E-01            NaN
         13   -1    0    0    0    0  0.00000000000E+00  0.00000000000E+00  0.74505805969E-08  0.10566000000E+00  0.10566000000E+00 0.  1.
     999900   -1    0    0    0    0 -0.00000000000E+00 -0.00000000000E+00 -0.74505805969E-08  0.93827000000E+00  0.93827000000E+00 0. -1.
     999902    2    1    2    0    0  0.13407346866E-01  0.18840027584E-01 -0.16820336153E-02  0.10207452458E+01  0.10204819077E+01 0.  0.
     999903    2    3    3    0    0 -0.11350085177E+00  0.46419647095E-01  0.42327417388E-01  0.13012570972E+00  0.10191323692E-01 0.  0.
         14    1    1    2    0    0 -0.13407346866E-01 -0.18840027584E-01  0.16820336153E-02  0.23184754181E-01  0.00000000000E+00 0. -1.
     999901    1    3    3    0    0  0.12690819864E+00 -0.27579619510E-01 -0.44009451003E-01  0.89061953609E+00  0.88000000000E+00 0. -1.
        -11    1    4    4    0    0 -0.53761148924E-01  0.18173268912E-01  0.23388123630E-01  0.61382361347E-01  0.51100000000E-03 0. -1.
         11    1    4    4    0    0 -0.59739702851E-01  0.28246378183E-01  0.18939293758E-01  0.68743348378E-01  0.51100000000E-03 0.  1.
</event>
<event>
 8    1  0.1148488E+005  0.1043930E+01  0.7957747E-01            NaN
         13   -1    0    0    0    0  0.00000000000E+00  0.00000000000E+00  0.74505805969E-08  0.10566000000E+00  0.10566000000E+00 0. -1.
     999900   -1    0    0    0    0 -0.00000000000E+00 -0.00000000000E+00 -0.74505805969E-08  0.93827000000E+00  0.93827000000E+00 0. -1.
     999902    2    1    2    0    0 -0.13370877269E-01  0.94154098042E-03  0.18716843154E-01  0.10209085518E+01  0.10206489524E+01 0.  0.
     999903    2    3    3    0    0  0.37016088828E-01  0.10770422877E+00 -0.58720878184E-01  0.12965453722E+00  0.19793073565E-01 0.  0.
         14    1    1    2    0    0  0.13370877269E-01 -0.94154098042E-03 -0.18716843154E-01  0.23021448174E-01  0.00000000000E+00 0.  1.
     999901    1    3    3    0    0 -0.50386966097E-01 -0.10676268779E+00  0.77437721339E-01  0.89125401460E+00  0.88000000000E+00 0. -1.
        -11    1    4    4    0    0  0.17364249869E-02  0.18751992642E-01 -0.34722844646E-02  0.19156468364E-01  0.51100000000E-03 0. -1.
         11    1    4    4    0    0  0.35279663841E-01  0.88952236129E-01 -0.55248593719E-01  0.11049806886E+00  0.51100000000E-03 0.  1.
</event>
<event>
 8    1  0.1148488E+005  0.1043930E+01  0.7957747E-01            NaN
         13   -1    0    0    0    0  0.00000000000E+00  0.00000000000E+00  0.74505805969E-08  0.10566000000E+00  0.10566000000E+00 0.  1.
     999900   -1    0    0    0    0 -0.00000000000E+00 -0.00000000000E+00 -0.74505805969E-08  0.93827000000E+00  0.93827000000E+00 0.  1.
     999902    2    1    2    0    0  0.14653815920E-01 -0.55320989981E-02 -0.17608982428E-01  0.10203627621E+01  0.10200905605E+01 0.  0.
     999903    2    3    3    0    0  0.13037142502E+00 -0.14220586462E-01 -0.70873195402E-02  0.13268221130E+00  0.18852202950E-01 0.  0.
         14    1    1    2    0    0 -0.14653815920E-01  0.55320989981E-02  0.17608982428E-01  0.23567237905E-01  0.00000000000E+00 0.  1.
     999901    1    3    3    0    0 -0.11571760910E+00  0.86884874637E-02 -0.10521662887E-01  0.88768055080E+00  0.88000000000E+00 0.  1.
        -11    1    4    4    0    0  0.54356334074E-01  0.29622786509E-02 -0.56797161174E-02  0.54734874120E-01  0.51100000000E-03 0. -1.
         11    1    4    4    0    0  0.76015090946E-01 -0.17182865113E-01 -0.14076034228E-02  0.77947337180E-01  0.51100000000E-03 0.  1.
</event>
<event>
 8    1  0.1148488E+005  0.1043930E+01  0.7957747E-01            NaN
         13   -1    0    0    0    0  0.00000000000E+00  0.00000000000E+00  0.74505805969E-08  0.10566000000E+00  0.10566000000E+00 0.  1.
     999900   -1    0    0    0    0 -0.00000000000E+00 -0.00000000000E+00 -0.74505805969E-08  0.93827000000E+00  0.93827000000E+00 0. -1.
     999902    2    1    2    0    0  0.10124527474E-01 -0.17318380956E-01  0.13476640982E-01  0.10197628275E+01  0.10194764206E+01 0.  0.
     999903    2    3    3    0    0  0.11124628902E+00 -0.61696871930E-01 -0.28919683586E-01  0.13184813031E+00  0.19113883448E-01 0.  0.
         14    1    1    2    0    0 -0.10124527474E-01  0.17318380956E-01 -0.13476640982E-01  0.24167172522E-01  0.00000000000E+00 0. -1.
     999901    1    3    3    0    0 -0.10112176154E+00  0.44378490974E-01  0.42396324568E-01  0.88791469717E+00  0.88000000000E+00 0. -1.
        -11    1    4    4    0    0  0.82293938231E-01 -0.54788808100E-01 -0.21877218689E-01  0.10125699769E+00  0.51100000000E-03 0.  1.
         11    1    4    4    0    0  0.28952350785E-01 -0.69080638299E-02 -0.70424648969E-02  0.30591132616E-01  0.51100000000E-03 0. -1.
</event>
<event>
 8    1  0.1148488E+005  0.1043930E+01  0.7957747E-01            NaN
         13   -1    0    0    0    0  0.00000000000E+00  0.00000000000E+00  0.74505805969E-08  0.10566000000E+00  0.10566000000E+00 0.  1.
     999900   -1    0    0    0    0 -0.00000000000E+00 -0.00000000000E+00 -0.74505805969E-08  0.93827000000E+00  0.93827000000E+00 0. -1.
     999902    2    1    2    0    0 -0.17691451812E-01 -0.10963244040E-01 -0.13696574489E-01  0.10190146164E+01  0.10187099745E+01 0.  0.
     999903    2    3    3    0    0  0.66046900966E-01  0.10695736417E+00 -0.28514272099E-02  0.12714298955E+00  0.18845112796E-01 0.  0.
         14    1    1    2    0    0  0.17691451812E-01  0.10963244040E-01  0.13696574489E-01  0.24915383598E-01  0.00000000000E+00 0. -1.
     999901    1    3    3    0    0 -0.83738352777E-01 -0.11792060821E+00 -0.10845147280E-01  0.89187162685E+00  0.88000000000E+00 0.  1.
        -11    1    4    4    0    0  0.32261749181E-01  0.37220741859E-01  0.35555944185E-02  0.49387320816E-01  0.51100000000E-03 0. -1.
         11    1    4    4    0    0  0.33785151784E-01  0.69736622314E-01 -0.64070216285E-02  0.77755668732E-01  0.51100000000E-03 0.  1.
</event>
<event>
 8    1  0.1148488E+005  0.1043930E+01  0.7957747E-01            NaN
         13   -1    0    0    0    0  0.00000000000E+00  0.00000000000E+00  0.74505805969E-08  0.10566000000E+00  0.10566000000E+00 0. -1.
     999900   -1    0    0    0    0 -0.00000000000E+00 -0.00000000000E+00 -0.74505805969E-08  0.93827000000E+00  0.93827000000E+00 0.  1.
     999902    2    1    2    0    0 -0.97815381521E-02 -0.17486119794E-01 -0.12258949967E-01  0.10204411787E+01  0.10201708065E+01 0.  0.
     999903    2    3    3    0    0 -0.92251968002E-01  0.49985252433E-01  0.74134552422E-01  0.12981353753E+00  0.18619119284E-01 0.  0.
         14    1    1    2    0    0  0.97815381521E-02  0.17486119794E-01  0.12258949967E-01  0.23488821349E-01  0.00000000000E+00 0.  1.
     999901    1    3    3    0    0  0.82470429849E-01 -0.67471372227E-01 -0.86393502389E-01  0.89062764112E+00  0.88000000000E+00 0.  1.
        -11    1    4    4    0    0 -0.47501775697E-01  0.15920893755E-01  0.39085806400E-01  0.63544118022E-01  0.51100000000E-03 0.  1.
         11    1    4    4    0    0 -0.44750192305E-01  0.34064358679E-01  0.35048746022E-01  0.66269419510E-01  0.51100000000E-03 0. -1.
</event>
<event>
 8    1  0.1148488E+005  0.1043930E+01  0.7957747E-01            NaN
         13   -1    0    0    0    0  0.00000000000E+00  0.00000000000E+00  0.74505805969E-08  0.10566000000E+00  0.10566000000E+00 0.  1.
     999900   -1    0    0    0    0 -0.00000000000E+00 -0.00000000000E+00 -0.74505805969E-08  0.93827000000E+00  0.93827000000E+00 0. -1.
     999902    2    1    2    0    0 -0.11898601387E-01 -0.84881868180E-02 -0.19190642526E-01  0.10198072557E+01  0.10195219135E+01 0.  0.
     999903    2    3    3    0    0 -0.94730915907E-01 -0.13168654847E-01  0.85439478400E-01  0.12973390970E+00  0.19586295165E-01 0.  0.
         14    1    1    2    0    0  0.11898601387E-01  0.84881868180E-02  0.19190642526E-01  0.24122744267E-01  0.00000000000E+00 0.  1.
     999901    1    3    3    0    0  0.82832314520E-01  0.46804680294E-02 -0.10463012093E+00  0.89007334603E+00  0.88000000000E+00 0.  1.
        -11    1    4    4    0    0 -0.46664735564E-01  0.14484566419E-02  0.48895098233E-01  0.67606858558E-01  0.51100000000E-03 0.  1.
         11    1    4    4    0    0 -0.48066180343E-01 -0.14617111489E-01  0.36544380168E-01  0.62127051144E-01  0.51100000000E-03 0. -1.
</event>
<event>
 8    1  0.1148488E+005  0.1043930E+01  0.7957747E-01            NaN
         13   -1    0    0    0    0  0.00000000000E+00  0.00000000000E+00  0.74505805969E-08  0.10566000000E+00  0.10566000000E+00 0.  1.
     999900   -1    0    0    0    0 -0.00000000000E+00 -0.00000000000E+00 -0.74505805969E-08  0.93827000000E+00  0.93827000000E+00 0. -1.
     999902    2    1    2    0    0 -0.38760211973E-02  0.22476910613E-02 -0.22876683143E-01  0.10206186661E+01  0.10203524114E+01 0.  0.
     999903    2    3    3    0    0  0.66285641945E-02  0.12864296891E+00 -0.17176330912E-01  0.13150753326E+00  0.20155734819E-01 0.  0.
         14    1    1    2    0    0  0.38760211973E-02 -0.22476910613E-02  0.22876683143E-01  0.23311333875E-01  0.00000000000E+00 0.  1.
     999901    1    3    3    0    0 -0.10504585392E-01 -0.12639527785E+00 -0.57003522305E-02  0.88911113287E+00  0.88000000000E+00 0.  1.
        -11    1    4    4    0    0  0.86607707920E-02  0.50839719126E-01 -0.14732903949E-01  0.53637725263E-01  0.51100000000E-03 0.  1.
         11    1    4    4    0    0 -0.20322065976E-02  0.77803249784E-01 -0.24434269628E-02  0.77869807993E-01  0.51100000000E-03 0. -1.
</event>
<event>
 8    1  0.1148488E+005  0.1043930E+01  0.7957747E-01            NaN
         13   -1    0    0    0    0  0.00000000000E+00  0.00000000000E+00  0.74505805969E-08  0.10566000000E+00  0.10566000000E+00 0.  1.
     999900   -1    0    0    0    0 -0.00000000000E+00 -0.00000000000E+00 -0.74505805969E-08  0.93827000000E+00  0.93827000000E+00 0. -1.
     999902    2    1    2    0    0 -0.90521242205E-02 -0.56065884993E-02  0.21148627166E-01  0.10202521788E+01  0.10199773865E+01 0.  0.
     999903    2    3    3    0    0 -0.10177395942E+00  0.41313389518E-02  0.82244450193E-01  0.13322068803E+00  0.24669725497E-01 0.  0.
         14    1    1    2    0    0  0.90521242205E-02  0.56065884993E-02 -0.21148627166E-01  0.23677821237E-01  0.00000000000E+00 0. -1.
     999901    1    3    3    0    0  0.92721835196E-01 -0.97379274511E-02 -0.61095823027E-01  0.88703149073E+00  0.88000000000E+00 0.  1.
        -11    1    4    4    0    0 -0.65488845167E-01  0.99593324171E-02  0.40681695697E-01  0.77738270043E-01  0.51100000000E-03 0. -1.
         11    1    4    4    0    0 -0.36285114249E-01 -0.58279934653E-02  0.41562754496E-01  0.55482417992E-01  0.51100000000E-03 0.  1.
</event>
<event>
 8    1  0.1148488E+005  0.1043930E+01  0.7957747E-01            NaN
         13   -1    0    0    0    0  0.00000000000E+00  0.00000000000E+00  0.74505805969E-08  0.10566000000E+00  0.10566000000E+00 0.  1.
     999900   -1    0    0    0    0 -0.00000000000E+00 -0.00000000000E+00 -0.74505805969E-08  0.93827000000E+00  0.93827000000E+00 0. -1.
     999902    2    1    2    0    0 -0.84187886899E-02  0.13396974551E-01  0.17178963311E-01  0.10205746642E+01  0.10203073917E+01 0.  0.
     999903    2    3    3    0    0 -0.46935548820E-01  0.12068547330E+00  0.23940936422E-01  0.13319645449E+00  0.20004945472E-01 0.  0.
         14    1    1    2    0    0  0.84187886899E-02 -0.13396974551E-01 -0.17178963311E-01  0.23355335805E-01  0.00000000000E+00 0.  1.
     999901    1    3    3    0    0  0.38516760130E-01 -0.10728849875E+00 -0.67619731111E-02  0.88737820970E+00  0.88000000000E+00 0.  1.
        -11    1    4    4    0    0 -0.24038311744E-01  0.44640854445E-01  0.16986685647E-01  0.53473871445E-01  0.51100000000E-03 0.  1.
         11    1    4    4    0    0 -0.22897237077E-01  0.76044618857E-01  0.69542507747E-02  0.79722583047E-01  0.51100000000E-03 0. -1.
</event>
<event>
 8    1  0.1148488E+005  0.1043930E+01  0.7957747E-01            NaN
         13   -1    0    0    0    0  0.00000000000E+00  0.00000000000E+00  0.74505805969E-08  0.10566000000E+00  0.10566000000E+00 0. -1.
     999900   -1    0    0    0    0 -0.00000000000E+00 -0.00000000000E+00 -0.74505805969E-08  0.93827000000E+00  0.93827000000E+00 0. -1.
     999902    2    1    2    0    0  0.10118751382E-01 -0.14807842275E-01  0.16537028954E-01  0.10195346183E+01  0.10192427107E+01 0.  0.
     999903    2    3    3    0    0 -0.68800370112E-01 -0.30473615194E-01 -0.10180304853E+00  0.12797529995E+00  0.18753254557E-01 0.  0.
         14    1    1    2    0    0 -0.10118751382E-01  0.14807842275E-01 -0.16537028954E-01  0.24395381715E-01  0.00000000000E+00 0.  1.
     999901    1    3    3    0    0  0.78919121495E-01  0.15665772919E-01  0.11834007748E+00  0.89155931834E+00  0.88000000000E+00 0.  1.
        -11    1    4    4    0    0 -0.29341733180E-01 -0.23046389151E-01 -0.46135136171E-01  0.59336205384E-01  0.51100000000E-03 0. -1.
         11    1    4    4    0    0 -0.39458636932E-01 -0.74272260429E-02 -0.55667912356E-01  0.68639094562E-01  0.51100000000E-03 0.  1.
</event>
<event>
 8    1  0.1397191E+005  0.1043930E+01  0.7957747E-01            NaN
         13   -1    0    0    0    0  0.00000000000E+00  0.00000000000E+00  0.74505805969E-08  0.10566000000E+00  0.10566000000E+00 0. -1.
     999900   -1    0    0    0    0 -0.00000000000E+00 -0.00000000000E+00 -0.74505805969E-08  0.93827000000E+00  0.93827000000E+00 0. -1.
     999902    2    1    2    0    0  0.54171391393E-03  0.23948822624E-01 -0.34508476655E-02  0.10197277706E+01  0.10194405221E+01 0.  0.
     999903    2    3    3    0    0 -0.12401482780E+00  0.33410303064E-01  0.23219536826E-02  0.13088741544E+00  0.25103748484E-01 0.  0.
         14    1    1    2    0    0 -0.54171391393E-03 -0.23948822624E-01  0.34508476655E-02  0.24202229415E-01  0.00000000000E+00 0.  1.
     999901    1    3    3    0    0  0.12455654171E+00 -0.94614804398E-02 -0.57728013481E-02  0.88884035514E+00  0.88000000000E+00 0. -1.
        -11    1    4    4    0    0 -0.52097146614E-01  0.88707470271E-02  0.12250609382E-01  0.54250727086E-01  0.51100000000E-03 0. -1.
         11    1    4    4    0    0 -0.71917681183E-01  0.24539556037E-01 -0.99286556997E-02  0.76636688356E-01  0.51100000000E-03 0.  1.
</event>
<event>
 8    1  0.1148488E+005  0.1043930E+01  0.7957747E-01            NaN
         13   -1    0    0    0    0  0.00000000000E+00  0.00000000000E+00  0.74505805969E-08  0.10566000000E+00  0.10566000000E+00 0.  1.
     999900   -1    0    0    0    0 -0.00000000000E+00 -0.00000000000E+00 -0.74505805969E-08  0.93827000000E+00  0.93827000000E+00 0. -1.
     999902    2    1    2    0    0  0.14015535572E-01  0.12360923880E-01 -0.13563720009E-01  0.10208388290E+01  0.10205776368E+01 0.  0.
     999903    2    3    3    0    0  0.44347802910E-01 -0.87001127800E-01 -0.86031222165E-01  0.13176942643E+00  0.20637022405E-01 0.  0.
         14    1    1    2    0    0 -0.14015535572E-01 -0.12360923880E-01  0.13563720009E-01  0.23091170976E-01  0.00000000000E+00 0.  1.
     999901    1    3    3    0    0 -0.30332267337E-01  0.99362051680E-01  0.72467502156E-01  0.88906940259E+00  0.88000000000E+00 0.  1.
        -11    1    4    4    0    0  0.12757508963E-01 -0.14543155061E-01 -0.88086249392E-02  0.21262887583E-01  0.51100000000E-03 0.  1.
         11    1    4    4    0    0  0.31590293947E-01 -0.72457972739E-01 -0.77222597226E-01  0.11050653885E+00  0.51100000000E-03 0. -1.
</event>
<event>
 8    1  0.1148488E+005  0.1043930E+01  0.7957747E-01            NaN
         13   -1    0    0    0    0  0.00000000000E+00  0.00000000000E+00  0.74505805969E-08  0.10566000000E+00  0.10566000000E+00 0.  1.
     999900   -1    0    0    0    0 -0.00000000000E+00 -0.00000000000E+00 -0.74505805969E-08  0.93827000000E+00  0.93827000000E+00 0. -1.
     999902    2    1    2    0    0  0.19035986596E-01 -0.14456328032E-01 -0.23949784729E-02  0.10199072997E+01  0.10196243475E+01 0.  0.
     999903    2    3    3    0    0 -0.62428095210E-02 -0.13014248072E+00 -0.55071629304E-02  0.13197037115E+00  0.20243815331E-01 0.  0.
         14    1    1    2    0    0 -0.19035986596E-01  0.14456328032E-01  0.23949784729E-02  0.24022700260E-01  0.00000000000E+00 0. -1.
     999901    1    3    3    0    0  0.25278796117E-01  0.11568615269E+00  0.31121844575E-02  0.88793692859E+00  0.88000000000E+00 0. -1.
        -11    1    4    4    0    0 -0.11185948066E-01 -0.83055386010E-01  0.30145276118E-02  0.83861022395E-01  0.51100000000E-03 0.  1.
         11    1    4    4    0    0  0.49431385447E-02 -0.47087094713E-01 -0.85216905423E-02  0.48109348758E-01  0.51100000000E-03 0. -1.
</event>
<event>
 7    1  0.1148488E+005  0.1043930E+01  0.7957747E-01            NaN
         13   -1    0    0    0    0  0.00000000000E+00  0.00000000000E+00  0.74505805969E-08  0.10566000000E+00  0.10566000000E+00 0.  1.
     999900   -1    0    0    0    0 -0.00000000000E+00 -0.00000000000E+00 -0.74505805969E-08  0.93827000000E+00  0.93827000000E+00 0.  1.
     999903    2    1    2    0    0  0.39670761936E-01  0.26969229928E-01 -0.40762988327E-01  0.66006207038E-01  0.19851685943E-01 0.  0.
         14    1    1    2    0    0 -0.24474649421E-01 -0.55161707852E-01  0.75502316641E-01  0.96656206710E-01  0.00000000000E+00 0.  1.
     999901    1    1    2    0    0 -0.15196112514E-01  0.28192477924E-01 -0.34739328314E-01  0.88126758625E+00  0.88000000000E+00 0.  1.
        -11    1    3    3    0    0  0.27513111949E-01  0.20101973618E-01 -0.39207334157E-01  0.51947443106E-01  0.51100000000E-03 0.  1.
         11    1    3    3    0    0  0.12157649986E-01  0.68672563096E-02 -0.15556541693E-02  0.14058763932E-01  0.51100000000E-03 0. -1.
</event>
<event>
 8    1  0.1148488E+005  0.1043930E+01  0.7957747E-01            NaN
         13   -1    0    0    0    0  0.00000000000E+00  0.00000000000E+00  0.74505805969E-08  0.10566000000E+00  0.10566000000E+00 0.  1.
     999900   -1    0    0    0    0 -0.00000000000E+00 -0.00000000000E+00 -0.74505805969E-08  0.93827000000E+00  0.93827000000E+00 0. -1.
     999902    2    1    2    0    0  0.86854842150E-02 -0.16831187646E-01  0.14167464593E-01  0.10202774406E+01  0.10200032413E+01 0.  0.
     999903    2    3    3    0    0 -0.37085465325E-01  0.10899677145E+00  0.55101366884E-01  0.12920884645E+00  0.20078282877E-01 0.  0.
         14    1    1    2    0    0 -0.86854842150E-02  0.16831187646E-01 -0.14167464593E-01  0.23652559410E-01  0.00000000000E+00 0. -1.
     999901    1    3    3    0    0  0.45770949540E-01 -0.12582795909E+00 -0.40933902292E-01  0.89106859414E+00  0.88000000000E+00 0.  1.
        -11    1    4    4    0    0 -0.91462147626E-02  0.44674782848E-01  0.30613733607E-01  0.54926781021E-01  0.51100000000E-03 0.  1.
         11    1    4    4    0    0 -0.27939250562E-01  0.64321988600E-01  0.24487633277E-01  0.74282065426E-01  0.51100000000E-03 0. -1.
</event>
<event>
 8    1  0.1148488E+005  0.1043930E+01  0.7957747E-01            NaN
         13   -1    0    0    0    0  0.00000000000E+00  0.00000000000E+00  0.74505805969E-08  0.10566000000E+00  0.10566000000E+00 0. -1.
     999900   -1    0    0    0    0 -0.00000000000E+00 -0.00000000000E+00 -0.74505805969E-08  0.93827000000E+00  0.93827000000E+00 0.  1.
     999902    2    1    2    0    0  0.21111678704E-02  0.21919306897E-01 -0.78540074008E-02  0.10205505544E+01  0.10202827234E+01 0.  0.
     999903    2    3    3    0    0  0.48291328280E-01  0.32262281789E-01  0.11546021298E+00  0.13069327297E+00  0.19410399419E-01 0.  0.
         14    1    1    2    0    0 -0.21111678704E-02 -0.21919306897E-01  0.78540074008E-02  0.23379445607E-01  0.00000000000E+00 0.  1.
     999901    1    3    3    0    0 -0.46180160409E-01 -0.10342974892E-01 -0.12331422038E+00  0.88985728142E+00  0.88000000000E+00 0.  1.
        -11    1    4    4    0    0  0.19828237712E-01  0.19738395686E-01  0.72040028588E-01  0.77283828289E-01  0.51100000000E-03 0. -1.
         11    1    4    4    0    0  0.28463090568E-01  0.12523886103E-01  0.43420184394E-01  0.53409444686E-01  0.51100000000E-03 0.  1.
</event>
<event>
 8    1  0.1148488E+005  0.1043930E+01  0.7957747E-01            NaN
         13   -1    0    0    0    0  0.00000000000E+00  0.00000000000E+00  0.74505805969E-08  0.10566000000E+00  0.10566000000E+00 0.  1.
     999900   -1    0    0    0    0 -0.00000000000E+00 -0.00000000000E+00 -0.74505805969E-08  0.93827000000E+00  0.93827000000E+00 0. -1.
     999902    2    1    2    0    0 -0.13781596724E-01 -0.19152087049E-01 -0.47283556946E-02  0.10198656655E+01  0.10195817199E+01 0.  0.
     999903    2    3    3    0    0 -0.72101651589E-01 -0.95278306259E-01 -0.55230664137E-01  0.13321640385E+00  0.20483656628E-01 0.  0.
         14    1    1    2    0    0  0.13781596724E-01  0.19152087049E-01  0.47283556946E-02  0.24064334484E-01  0.00000000000E+00 0.  1.
     999901    1    3    3    0    0  0.58320054864E-01  0.76126219211E-01  0.50502308442E-01  0.88664926166E+00  0.88000000000E+00 0.  1.
        -11    1    4    4    0    0 -0.45984493278E-01 -0.69788734829E-01 -0.29796616969E-01  0.88730719793E-01  0.51100000000E-03 0.  1.
         11    1    4    4    0    0 -0.26117158310E-01 -0.25489571430E-01 -0.25434047168E-01  0.44485684059E-01  0.51100000000E-03 0. -1.
</event>
<event>
 8    1  0.1148488E+005  0.1043930E+01  0.7957747E-01            NaN
         13   -1    0    0    0    0  0.00000000000E+00  0.00000000000E+00  0.74505805969E-08  0.10566000000E+00  0.10566000000E+00 0. -1.
     999900   -1    0    0    0    0 -0.00000000000E+00 -0.00000000000E+00 -0.74505805969E-08  0.93827000000E+00  0.93827000000E+00 0.  1.
     999902    2    1    2    0    0 -0.93507926390E-02  0.17855448933E-01  0.10832831136E-01  0.10210475917E+01  0.10207911539E+01 0.  0.
     999903    2    3    3    0    0  0.11567715869E+00  0.15493267539E-01  0.55892640886E-01  0.13106559470E+00  0.20807605022E-01 0.  0.
         14    1    1    2    0    0  0.93507926390E-02 -0.17855448933E-01 -0.10832831136E-01  0.22882408308E-01  0.00000000000E+00 0. -1.
     999901    1    3    3    0    0 -0.12502795133E+00  0.23621813932E-02 -0.45059809750E-01  0.88998199699E+00  0.88000000000E+00 0.  1.
        -11    1    4    4    0    0  0.33617481026E-01 -0.16258187560E-04  0.71679878165E-02  0.34376975800E-01  0.51100000000E-03 0. -1.
         11    1    4    4    0    0  0.82059677667E-01  0.15509525727E-01  0.48724653069E-01  0.96688618900E-01  0.51100000000E-03 0.  1.
</event>
<event>
 8    1  0.1148488E+005  0.1043930E+01  0.7957747E-01            NaN
         13   -1    0    0    0    0  0.00000000000E+00  0.00000000000E+00  0.74505805969E-08  0.10566000000E+00  0.10566000000E+00 0.  1.
     999900   -1    0    0    0    0 -0.00000000000E+00 -0.00000000000E+00 -0.74505805969E-08  0.93827000000E+00  0.93827000000E+00 0. -1.
     999902    2    1    2    0    0  0.13788325776E-01  0.14778759865E-01  0.11032023403E-01  0.10209031632E+01  0.10206434409E+01 0.  0.
     999903    2    3    3    0    0 -0.10740384292E+00  0.70805455814E-01  0.11371058231E-01  0.13083201588E+00  0.20945581083E-01 0.  0.
         14    1    1    2    0    0 -0.13788325776E-01 -0.14778759865E-01 -0.11032023403E-01  0.23026836761E-01  0.00000000000E+00 0. -1.
     999901    1    3    3    0    0  0.12119216870E+00 -0.56026695949E-01 -0.33903482796E-03  0.89007114736E+00  0.88000000000E+00 0. -1.
        -11    1    4    4    0    0 -0.38320538142E-01  0.33702801985E-01  0.11934043768E-01  0.52412069476E-01  0.51100000000E-03 0.  1.
         11    1    4    4    0    0 -0.69083304781E-01  0.37102653829E-01 -0.56298553729E-03  0.78419946406E-01  0.51100000000E-03 0. -1.
</event>
<event>
 8    1  0.1148488E+005  0.1043930E+01  0.7957747E-01            NaN
         13   -1    0    0    0    0  0.00000000000E+00  0.00000000000E+00  0.74505805969E-08  0.10566000000E+00  0.10566000000E+00 0.  1.
     999900   -1    0    0    0    0 -0.00000000000E+00 -0.00000000000E+00 -0.74505805969E-08  0.93827000000E+00  0.93827000000E+00 0. -1.
     999902    2    1    2    0    0 -0.16746489748E-01  0.11278047035E-01  0.12308646107E-01  0.10202838157E+01  0.10200097659E+01 0.  0.
     999903    2    3    3    0    0  0.81085880353E-01 -0.88967022416E-01  0.41137301004E-01  0.12873946012E+00  0.19786864038E-01 0.  0.
         14    1    1    2    0    0  0.16746489748E-01 -0.11278047035E-01 -0.12308646107E-01  0.23646184318E-01  0.00000000000E+00 0. -1.
     999901    1    3    3    0    0 -0.97832370100E-01  0.10024506945E+00 -0.28828654897E-01  0.89154435556E+00  0.88000000000E+00 0.  1.
        -11    1    4    4    0    0  0.59306981302E-01 -0.58102670572E-01  0.19812919957E-01  0.85358369694E-01  0.51100000000E-03 0. -1.
         11    1    4    4    0    0  0.21778899051E-01 -0.30864351844E-01  0.21324381046E-01  0.43381090427E-01  0.51100000000E-03 0.  1.
</event>
<event>
 8    1  0.1148488E+005  0.1043930E+01  0.7957747E-01            NaN
         13   -1    0    0    0    0  0.00000000000E+00  0.00000000000E+00  0.74505805969E-08  0.10566000000E+00  0.10566000000E+00 0. -1.
     999900   -1    0    0    0    0 -0.00000000000E+00 -0.00000000000E+00 -0.74505805969E-08  0.93827000000E+00  0.93827000000E+00 0. -1.
     999902    2    1    2    0    0 -0.13099722830E-01 -0.17105013034E-01  0.91018622361E-02  0.10205413680E+01  0.10202733240E+01 0.  0.
     999903    2    3    3    0    0 -0.11785429648E+00  0.11281474830E-01  0.56401324153E-01  0.13261313192E+00  0.19703464637E-01 0.  0.
         14    1    1    2    0    0  0.13099722830E-01  0.17105013034E-01 -0.91018622361E-02  0.23388631967E-01  0.00000000000E+00 0. -1.
     999901    1    3    3    0    0  0.10475457365E+00 -0.28386487864E-01 -0.47299461917E-01  0.88792823612E+00  0.88000000000E+00 0.  1.
        -11    1    4    4    0    0 -0.57323742684E-01  0.14414977280E-01  0.23186799699E-01  0.63495604939E-01  0.51100000000E-03 0.  1.
         11    1    4    4    0    0 -0.60530553792E-01 -0.31335024507E-02  0.33214524454E-01  0.69117526979E-01  0.51100000000E-03 0. -1.
</event>
<event>
 8    1  0.1148488E+005  0.1043930E+01  0.7957747E-01            NaN
         13   -1    0    0    0    0  0.00000000000E+00  0.00000000000E+00  0.74505805969E-08  0.10566000000E+00  0.10566000000E+00 0. -1.
     999900   -1    0    0    0    0 -0.00000000000E+00 -0.00000000000E+00 -0.74505805969E-08  0.93827000000E+00  0.93827000000E+00 0. -1.
     999902    2    1    2    0    0  0.11205250119E-01  0.19065922298E-01 -0.77238940937E-02  0.10205051080E+01  0.10202362226E+01 0.  0.
     999903    2    3    3    0    0  0.28231002301E-01  0.29249261955E-01  0.12263008225E+00  0.13068167848E+00  0.19673718564E-01 0.  0.
         14    1    1    2    0    0 -0.11205250119E-01 -0.19065922298E-01  0.77238940937E-02  0.23424891959E-01  0.00000000000E+00 0. -1.
     999901    1    3    3    0    0 -0.17025752181E-01 -0.10183339657E-01 -0.13035397634E+00  0.88982342956E+00  0.88000000000E+00 0. -1.
        -11    1    4    4    0    0  0.22158563481E-01  0.22275035733E-01  0.63708986346E-01  0.71037139685E-01  0.51100000000E-03 0.  1.
         11    1    4    4    0    0  0.60724388197E-02  0.69742262225E-02  0.58921095905E-01  0.59644538796E-01  0.51100000000E-03 0. -1.
</event>
<event>
 8    1  0.1148488E+005  0.1043930E+01  0.7957747E-01            NaN
         13   -1    0    0    0    0  0.00000000000E+00  0.00000000000E+00  0.74505805969E-08  0.10566000000E+00  0.10566000000E+00 0. -1.
     999900   -1    0    0    0    0 -0.00000000000E+00 -0.00000000000E+00 -0.74505805969E-08  0.93827000000E+00  0.93827000000E+00 0. -1.
     999902    2    1    2    0    0  0.19669396308E-01  0.12318085756E-01 -0.51090157702E-02  0.10201661108E+01  0.10198892936E+01 0.  0.
     999903    2    3    3    0    0  0.77346719748E-01 -0.81884046489E-01  0.62831390986E-01  0.13066253339E+00  0.20914153408E-01 0.  0.
         14    1    1    2    0    0 -0.19669396308E-01 -0.12318085756E-01  0.51090157702E-02  0.23763889201E-01  0.00000000000E+00 0.  1.
     999901    1    3    3    0    0 -0.57677323439E-01  0.94202132245E-01 -0.67940406756E-01  0.88950357741E+00  0.88000000000E+00 0.  1.
        -11    1    4    4    0    0  0.20231046342E-01 -0.25325188922E-01  0.80954882857E-02  0.33413447616E-01  0.51100000000E-03 0. -1.
         11    1    4    4    0    0  0.57115673406E-01 -0.56558857567E-01  0.54735902700E-01  0.97249085771E-01  0.51100000000E-03 0.  1.
</event>
<event>
 7    1  0.1148488E+005  0.1043930E+01  0.7957747E-01            NaN
         13   -1    0    0    0    0  0.00000000000E+00  0.00000000000E+00  0.74505805969E-08  0.10566000000E+00  0.10566000000E+00 0.  1.
     999900   -1    0    0    0    0 -0.00000000000E+00 -0.00000000000E+00 -0.74505805969E-08  0.93827000000E+00  0.93827000000E+00 0. -1.
     999903    2    1    2    0    0  0.10473380473E-01  0.83430911247E-01  0.79513031108E-01  0.11740093286E+00  0.19754702480E-01 0.  0.
         14    1    1    2    0    0 -0.19021097368E-01 -0.28888244164E-01 -0.25825799312E-01  0.43166013321E-01  0.00000000000E+00 0. -1.
     999901    1    1    2    0    0  0.85477168949E-02 -0.54542667084E-01 -0.53687231796E-01  0.88336305382E+00  0.88000000000E+00 0. -1.
        -11    1    3    3    0    0  0.90181796335E-02  0.36012727456E-01  0.23260146205E-01  0.43812551001E-01  0.51100000000E-03 0. -1.
         11    1    3    3    0    0  0.14552008397E-02  0.47418183791E-01  0.56252884903E-01  0.73588381858E-01  0.51100000000E-03 0.  1.
</event>
<event>
 8    1  0.1148488E+005  0.1043930E+01  0.7957747E-01            NaN
         13   -1    0    0    0    0  0.00000000000E+00  0.00000000000E+00  0.74505805969E-08  0.10566000000E+00  0.10566000000E+00 0.  1.
     999900   -1    0    0    0    0 -0.00000000000E+00 -0.00000000000E+00 -0.74505805969E-08  0.93827000000E+00  0.93827000000E+00 0. -1.
     999902    2    1    2    0    0  0.12259365846E-01 -0.20874270377E-01  0.61701447142E-02  0.10189480485E+01  0.10186417563E+01 0.  0.
     999903    2    3    3    0    0 -0.54157665289E-01 -0.42109810605E-01 -0.10766307512E+00  0.12888053863E+00  0.17679554131E-01 0.  0.
         14    1    1    2    0    0 -0.12259365846E-01  0.20874270377E-01 -0.61701447142E-02  0.24981951496E-01  0.00000000000E+00 0. -1.
     999901    1    3    3    0    0  0.66417031135E-01  0.21235540227E-01  0.11383321984E+00  0.89006750987E+00  0.88000000000E+00 0.  1.
        -11    1    4    4    0    0 -0.13383037279E-01 -0.19860078287E-01 -0.30064543485E-01  0.38440425237E-01  0.51100000000E-03 0.  1.
         11    1    4    4    0    0 -0.40774628010E-01 -0.22249732317E-01 -0.77598531637E-01  0.90440113395E-01  0.51100000000E-03 0. -1.
</event>
<event>
 8    1  0.1148488E+005  0.1043930E+01  0.7957747E-01            NaN
         13   -1    0    0    0    0  0.00000000000E+00  0.00000000000E+00  0.74505805969E-08  0.10566000000E+00  0.10566000000E+00 0.  1.
     999900   -1    0    0    0    0 -0.00000000000E+00 -0.00000000000E+00 -0.74505805969E-08  0.93827000000E+00  0.93827000000E+00 0.  1.
     999902    2    1    2    0    0  0.19521841295E-01  0.95975086163E-02  0.90905439523E-02  0.10203534768E+01  0.10200810581E+01 0.  0.
     999903    2    3    3    0    0 -0.62974351945E-02 -0.10375079464E+00 -0.73188931802E-01  0.12890275741E+00  0.21340479164E-01 0.  0.
         14    1    1    2    0    0 -0.19521841295E-01 -0.95975086163E-02 -0.90905439523E-02  0.23576523249E-01  0.00000000000E+00 0.  1.
     999901    1    3    3    0    0  0.25819276489E-01  0.11334830325E+00  0.82279475754E-01  0.89145071934E+00  0.88000000000E+00 0. -1.
        -11    1    4    4    0    0 -0.11075921555E-01 -0.28550974889E-01 -0.18315518208E-01  0.35686881814E-01  0.51100000000E-03 0. -1.
         11    1    4    4    0    0  0.47784863604E-02 -0.75199819748E-01 -0.54873413594E-01  0.93215875592E-01  0.51100000000E-03 0.  1.
</event>
<event>
 8    1  0.1148488E+005  0.1043930E+01  0.7957747E-01            NaN
         13   -1    0    0    0    0  0.00000000000E+00  0.00000000000E+00  0.74505805969E-08  0.10566000000E+00  0.10566000000E+00 0.  1.
     999900   -1    0    0    0    0 -0.00000000000E+00 -0.00000000000E+00 -0.74505805969E-08  0.93827000000E+00  0.93827000000E+00 0.  1.
     999902    2    1    2    0    0  0.13660493902E-01 -0.98076229596E-02  0.28168493832E-01  0.10111235585E+01  0.10105912071E+01 0.  0.
     999903    2    3    3    0    0 -0.21014691705E-01 -0.48391796785E-02  0.12188349230E+00  0.12545457127E+00  0.20450643777E-01 0.  0.
         14    1    1    2    0    0 -0.13660493902E-01  0.98076229596E-02 -0.28168493832E-01  0.32806441540E-01  0.00000000000E+00 0. -1.
     999901    1    3    3    0    0  0.34675185607E-01 -0.49684432811E-02 -0.93714998468E-01  0.88566898719E+00  0.88000000000E+00 0.  1.
        -11    1    4    4    0    0 -0.22715342631E-03 -0.18892713094E-02  0.61343329142E-01  0.61374963104E-01  0.51100000000E-03 0.  1.
         11    1    4    4    0    0 -0.20787538278E-01 -0.29499083692E-02  0.60540163158E-01  0.64079608170E-01  0.51100000000E-03 0. -1.
</event>
<event>
 8    1  0.1148488E+005  0.1043930E+01  0.7957747E-01            NaN
         13   -1    0    0    0    0  0.00000000000E+00  0.00000000000E+00  0.74505805969E-08  0.10566000000E+00  0.10566000000E+00 0. -1.
     999900   -1    0    0    0    0 -0.00000000000E+00 -0.00000000000E+00 -0.74505805969E-08  0.93827000000E+00  0.93827000000E+00 0.  1.
     999902    2    1    2    0    0 -0.32788849085E-02  0.16434838361E-01  0.16832231081E-01  0.10201775475E+01  0.10199009998E+01 0.  0.
     999903    2    3    3    0    0 -0.11564873984E+00  0.14361154711E-01 -0.54457930619E-01  0.13016992300E+00  0.19941636183E-01 0.  0.
         14    1    1    2    0    0  0.32788849085E-02 -0.16434838361E-01 -0.16832231081E-01  0.23752452534E-01  0.00000000000E+00 0.  1.
     999901    1    3    3    0    0  0.11236985493E+00  0.20736836497E-02  0.71290161700E-01  0.89000762447E+00  0.88000000000E+00 0.  1.
        -11    1    4    4    0    0 -0.88154671220E-01  0.69591461459E-02 -0.32513738075E-01  0.94218257560E-01  0.51100000000E-03 0.  1.
         11    1    4    4    0    0 -0.27494068622E-01  0.74020085654E-02 -0.21944192544E-01  0.35951665436E-01  0.51100000000E-03 0. -1.
</event>
<event>
 8    1  0.1148488E+005  0.1043930E+01  0.7957747E-01            NaN
         13   -1    0    0    0    0  0.00000000000E+00  0.00000000000E+00  0.74505805969E-08  0.10566000000E+00  0.10566000000E+00 0. -1.
     999900   -1    0    0    0    0 -0.00000000000E+00 -0.00000000000E+00 -0.74505805969E-08  0.93827000000E+00  0.93827000000E+00 0. -1.
     999902    2    1    2    0    0  0.22923319242E-01  0.44050680518E-02 -0.12782661965E-02  0.10205522937E+01  0.10202845029E+01 0.  0.
     999903    2    3    3    0    0  0.10089026178E+00 -0.11231592274E-02  0.84293139087E-01  0.13295335786E+00  0.19777655575E-01 0.  0.
         14    1    1    2    0    0 -0.22923319242E-01 -0.44050680518E-02  0.12782661965E-02  0.23377706348E-01  0.00000000000E+00 0. -1.
     999901    1    3    3    0    0 -0.77966942534E-01  0.55282272792E-02 -0.85571405284E-01  0.88759893580E+00  0.88000000000E+00 0. -1.
        -11    1    4    4    0    0  0.65544360955E-01 -0.77208016533E-02  0.46165677671E-01  0.80543186844E-01  0.51100000000E-03 0.  1.
         11    1    4    4    0    0  0.35345900821E-01  0.65976424259E-02  0.38127461416E-01  0.52410171012E-01  0.51100000000E-03 0. -1.
</event>
<event>
 8    1  0.1148488E+005  0.1043930E+01  0.7957747E-01            NaN
         13   -1    0    0    0    0  0.00000000000E+00  0.00000000000E+00  0.74505805969E-08  0.10566000000E+00  0.10566000000E+00 0.  1.
     999900   -1    0    0    0    0 -0.00000000000E+00 -0.00000000000E+00 -0.74505805969E-08  0.93827000000E+00  0.93827000000E+00 0.  1.
     999902    2    1    2    0    0  0.16910459942E-02 -0.26373318403E-01 -0.54034226653E-02  0.10169557801E+01  0.10165979787E+01 0.  0.
     999903    2    3    3    0    0 -0.71019121843E-01  0.74462364413E-01  0.68379922123E-01  0.12516063248E+00  0.20025253855E-01 0.  0.
         14    1    1    2    0    0 -0.16910459942E-02  0.26373318403E-01  0.54034226653E-02  0.26974219852E-01  0.00000000000E+00 0. -1.
     999901    1    3    3    0    0  0.72710167837E-01 -0.10083568282E+00 -0.73783344789E-01  0.89179514767E+00  0.88000000000E+00 0.  1.
        -11    1    4    4    0    0 -0.33772082173E-01  0.47781519099E-01  0.32273444765E-01  0.66824123337E-01  0.51100000000E-03 0. -1.
         11    1    4    4    0    0 -0.37247039669E-01  0.26680845314E-01  0.36106477358E-01  0.58336509143E-01  0.51100000000E-03 0.  1.
</event>
<event>
 8    1  0.1148488E+005  0.1043930E+01  0.7957747E-01            NaN
         13   -1    0    0    0    0  0.00000000000E+00  0.00000000000E+00  0.74505805969E-08  0.10566000000E+00  0.10566000000E+00 0.  1.
     999900   -1    0    0    0    0 -0.00000000000E+00 -0.00000000000E+00 -0.74505805969E-08  0.93827000000E+00  0.93827000000E+00 0.  1.
     999902    2    1    2    0    0 -0.89954349578E-02  0.11000102750E-01 -0.18846862877E-01  0.10203265182E+01  0.10200534689E+01 0.  0.
     999903    2    3    3    0    0 -0.86953309518E-01 -0.22532903215E-01  0.91039372209E-01  0.12944107255E+00  0.19955305227E-01 0.  0.
         14    1    1    2    0    0  0.89954349578E-02 -0.11000102750E-01  0.18846862877E-01  0.23603481754E-01  0.00000000000E+00 0.  1.
     999901    1    3    3    0    0  0.77957874560E-01  0.33533005965E-01 -0.10988623509E+00  0.89088544570E+00  0.88000000000E+00 0.  1.
        -11    1    4    4    0    0 -0.51988177391E-01 -0.17807938704E-01  0.42711731548E-01  0.69602057456E-01  0.51100000000E-03 0.  1.
         11    1    4    4    0    0 -0.34965132127E-01 -0.47249645112E-02  0.48327640661E-01  0.59839015092E-01  0.51100000000E-03 0. -1.
</event>
<event>
 8    1  0.1148488E+005  0.1043930E+01  0.7957747E-01            NaN
         13   -1    0    0    0    0  0.00000000000E+00  0.00000000000E+00  0.74505805969E-08  0.10566000000E+00  0.10566000000E+00 0.  1.
     999900   -1    0    0    0    0 -0.00000000000E+00 -0.00000000000E+00 -0.74505805969E-08  0.93827000000E+00  0.93827000000E+00 0.  1.
     999902    2    1    2    0    0  0.43295018858E-02 -0.21501913506E-01 -0.74737285362E-02  0.10207581747E+01  0.10204951336E+01 0.  0.
     999903    2    3    3    0    0 -0.95127090643E-01 -0.11454001132E-02  0.86137541347E-01  0.12998936556E+00  0.20666006218E-01 0.  0.
         14    1    1    2    0    0 -0.43295018858E-02  0.21501913506E-01  0.74737285362E-02  0.23171825332E-01  0.00000000000E+00 0.  1.
     999901    1    3    3    0    0  0.99456592529E-01 -0.20356513393E-01 -0.93611269883E-01  0.89076880911E+00  0.88000000000E+00 0.  1.
        -11    1    4    4    0    0 -0.49135219847E-01 -0.86818267702E-02  0.53055713175E-01  0.72834152477E-01  0.51100000000E-03 0. -1.
         11    1    4    4    0    0 -0.45991870796E-01  0.75364266570E-02  0.33081828172E-01  0.57155213080E-01  0.51100000000E-03 0.  1.
</event>
<event>
 7    1  0.1148488E+005  0.1043930E+01  0.7957747E-01            NaN
         13   -1    0    0    0    0  0.00000000000E+00  0.00000000000E+00  0.74505805969E-08  0.10566000000E+00  0.10566000000E+00 0.  1.
     999900   -1    0    0    0    0 -0.00000000000E+00 -0.00000000000E+00 -0.74505805969E-08  0.93827000000E+00  0.93827000000E+00 0.  1.
     999903    2    1    2    0    0  0.15133516907E-02  0.29389468139E-01  0.95706234308E-01  0.10207621250E+00  0.19845372319E-01 0.  0.
         14    1    1    2    0    0 -0.72989008106E-02  0.33449800861E-01  0.36156757322E-01  0.49794319262E-01  0.00000000000E+00 0. -1.
     999901    1    1    2    0    0  0.57855491199E-02 -0.62839269001E-01 -0.13186299163E+00  0.89205946824E+00  0.88000000000E+00 0. -1.
        -11    1    3    3    0    0  0.27438694555E-02  0.25213796536E-01  0.49116010977E-01  0.55280267823E-01  0.51100000000E-03 0.  1.
         11    1    3    3    0    0 -0.12305177648E-02  0.41756716032E-02  0.46590223332E-01  0.46795944679E-01  0.51100000000E-03 0. -1.
</event>
<event>
 8    1  0.1148488E+005  0.1043930E+01  0.7957747E-01            NaN
         13   -1    0    0    0    0  0.00000000000E+00  0.00000000000E+00  0.74505805969E-08  0.10566000000E+00  0.10566000000E+00 0.  1.
     999900   -1    0    0    0    0 -0.00000000000E+00 -0.00000000000E+00 -0.74505805969E-08  0.93827000000E+00  0.93827000000E+00 0. -1.
     999902    2    1    2    0    0  0.15705163917E-01 -0.13111959687E-01 -0.18845911494E-01  0.10161137450E+01  0.10157329368E+01 0.  0.
     999903    2    3    3    0    0  0.14922902054E-01 -0.81407834729E-02  0.12212001307E+00  0.12488048913E+00  0.19821039627E-01 0.  0.
         14    1    1    2    0    0 -0.15705163917E-01  0.13111959687E-01  0.18845911494E-01  0.27816254970E-01  0.00000000000E+00 0.  1.
     999901    1    3    3    0    0  0.78226186299E-03 -0.49711762145E-02 -0.14096592457E+00  0.89123325590E+00  0.88000000000E+00 0. -1.
        -11    1    4    4    0    0  0.10924112646E-01  0.11581521325E-02  0.99348830393E-01  0.99955634033E-01  0.51100000000E-03 0. -1.
         11    1    4    4    0    0  0.39987894082E-02 -0.92989356054E-02  0.22771182681E-01  0.24924855101E-01  0.51100000000E-03 0.  1.
</event>
<event>
 8    1  0.1148488E+005  0.1043930E+01  0.7957747E-01            NaN
         13   -1    0    0    0    0  0.00000000000E+00  0.00000000000E+00  0.74505805969E-08  0.10566000000E+00  0.10566000000E+00 0. -1.
     999900   -1    0    0    0    0 -0.00000000000E+00 -0.00000000000E+00 -0.74505805969E-08  0.93827000000E+00  0.93827000000E+00 0. -1.
     999902    2    1    2    0    0 -0.21926182107E-01  0.98691362739E-02 -0.17332836007E-02  0.10198227068E+01  0.10195377343E+01 0.  0.
     999903    2    3    3    0    0 -0.33557745670E-01  0.41559066692E-01  0.11747511465E+00  0.13114380689E+00  0.23345603575E-01 0.  0.
         14    1    1    2    0    0  0.21926182107E-01 -0.98691362739E-02  0.17332836007E-02  0.24107293183E-01  0.00000000000E+00 0. -1.
     999901    1    3    3    0    0  0.11631563563E-01 -0.31689930418E-01 -0.11920839825E+00  0.88867889993E+00  0.88000000000E+00 0. -1.
        -11    1    4    4    0    0 -0.29241985712E-01  0.37889411894E-01  0.79891716534E-01  0.93132425899E-01  0.51100000000E-03 0.  1.
         11    1    4    4    0    0 -0.43157599575E-02  0.36696547978E-02  0.37583398111E-01  0.38011380992E-01  0.51100000000E-03 0. -1.
</event>
<event>
 8    1  0.1148488E+005  0.1043930E+01  0.7957747E-01            NaN
         13   -1    0    0    0    0  0.00000000000E+00  0.00000000000E+00  0.74505805969E-08  0.10566000000E+00  0.10566000000E+00 0.  1.
     999900   -1    0    0    0    0 -0.00000000000E+00 -0.00000000000E+00 -0.74505805969E-08  0.93827000000E+00  0.93827000000E+00 0. -1.
     999902    2    1    2    0    0  0.40140243767E-02  0.99360190145E-02  0.18855816196E-01  0.10222417850E+01  0.10220116870E+01 0.  0.
     999903    2    3    3    0    0  0.75714211941E-01  0.91639638793E-01  0.59899025602E-01  0.13460394025E+00  0.19996554108E-01 0.  0.
         14    1    1    2    0    0 -0.40140243767E-02 -0.99360190145E-02 -0.18855816196E-01  0.21688215002E-01  0.00000000000E+00 0.  1.
     999901    1    3    3    0    0 -0.71700187564E-01 -0.81703619778E-01 -0.41043209405E-01  0.88763784474E+00  0.88000000000E+00 0.  1.
        -11    1    4    4    0    0  0.19172788005E-01  0.14440689768E-01  0.58789502341E-02  0.24717453301E-01  0.51100000000E-03 0.  1.
         11    1    4    4    0    0  0.56541423936E-01  0.77198949025E-01  0.54020075367E-01  0.10988648695E+00  0.51100000000E-03 0. -1.
</event>
<event>
 8    1  0.1148488E+005  0.1043930E+01  0.7957747E-01            NaN
         13   -1    0    0    0    0  0.00000000000E+00  0.00000000000E+00  0.74505805969E-08  0.10566000000E+00  0.10566000000E+00 0. -1.
     999900   -1    0    0    0    0 -0.00000000000E+00 -0.00000000000E+00 -0.74505805969E-08  0.93827000000E+00  0.93827000000E+00 0. -1.
     999902    2    1    2    0    0 -0.18066189847E-01  0.14987461694E-01 -0.31830343704E-02  0.10202415443E+01  0.10199665023E+01 0.  0.
     999903    2    3    3    0    0  0.35220960593E-01 -0.49554249631E-01  0.11174829894E+00  0.12883009934E+00  0.20331563121E-01 0.  0.
         14    1    1    2    0    0  0.18066189847E-01 -0.14987461694E-01  0.31830343704E-02  0.23688455657E-01  0.00000000000E+00 0. -1.
     999901    1    3    3    0    0 -0.53287150441E-01  0.64541711325E-01 -0.11493133331E+00  0.89141144500E+00  0.88000000000E+00 0.  1.
        -11    1    4    4    0    0  0.28412445291E-01 -0.41370823845E-01  0.72621172457E-01  0.88277448554E-01  0.51100000000E-03 0. -1.
         11    1    4    4    0    0  0.68085153027E-02 -0.81834257861E-02  0.39127126482E-01  0.40552650788E-01  0.51100000000E-03 0.  1.
</event>
<event>
 8    1  0.1148488E+005  0.1043930E+01  0.7957747E-01            NaN
         13   -1    0    0    0    0  0.00000000000E+00  0.00000000000E+00  0.74505805969E-08  0.10566000000E+00  0.10566000000E+00 0. -1.
     999900   -1    0    0    0    0 -0.00000000000E+00 -0.00000000000E+00 -0.74505805969E-08  0.93827000000E+00  0.93827000000E+00 0. -1.
     999902    2    1    2    0    0 -0.25096198872E-02  0.83578229227E-02  0.21794858082E-01  0.10204530489E+01  0.10201829531E+01 0.  0.
     999903    2    3    3    0    0  0.10443894115E+00  0.68599421069E-01 -0.32540644786E-01  0.13027363339E+00  0.17290257235E-01 0.  0.
         14    1    1    2    0    0  0.25096198872E-02 -0.83578229227E-02 -0.21794858082E-01  0.23476951139E-01  0.00000000000E+00 0.  1.
     999901    1    3    3    0    0 -0.10694856103E+00 -0.60241598146E-01  0.54335502867E-01  0.89017941547E+00  0.88000000000E+00 0.  1.
        -11    1    4    4    0    0  0.18056891759E-01  0.19880024618E-01 -0.47460766709E-02  0.27277336446E-01  0.51100000000E-03 0.  1.
         11    1    4    4    0    0  0.86382049387E-01  0.48719396451E-01 -0.27794568115E-01  0.10299629695E+00  0.51100000000E-03 0. -1.
</event>
<event>
 8    1  0.1148488E+005  0.1043930E+01  0.7957747E-01            NaN
         13   -1    0    0    0    0  0.00000000000E+00  0.00000000000E+00  0.74505805969E-08  0.10566000000E+00  0.10566000000E+00 0. -1.
     999900   -1    0    0    0    0 -0.00000000000E+00 -0.00000000000E+00 -0.74505805969E-08  0.93827000000E+00  0.93827000000E+00 0. -1.
     999902    2    1    2    0    0 -0.44075819917E-02 -0.22899236075E-01  0.38567948409E-02  0.10202936581E+01  0.10200198391E+01 0.  0.
     999903    2    3    3    0    0 -0.52149370175E-01  0.48513185948E-01 -0.10624534767E+00  0.12928215754E+00  0.18780743712E-01 0.  0.
         14    1    1    2    0    0  0.44075819917E-02  0.22899236075E-01 -0.38567948409E-02  0.23636341897E-01  0.00000000000E+00 0.  1.
     999901    1    3    3    0    0  0.47741788183E-01 -0.71412422023E-01  0.11010214251E+00  0.89101150057E+00  0.88000000000E+00 0.  1.
        -11    1    4    4    0    0 -0.33168117687E-01  0.23820840010E-01 -0.73528239565E-01  0.84108379988E-01  0.51100000000E-03 0.  1.
         11    1    4    4    0    0 -0.18981252487E-01  0.24692345938E-01 -0.32717108108E-01  0.45173777547E-01  0.51100000000E-03 0. -1.
</event>
<event>
 8    1  0.1148488E+005  0.1043930E+01  0.7957747E-01            NaN
         13   -1    0    0    0    0  0.00000000000E+00  0.00000000000E+00  0.74505805969E-08  0.10566000000E+00  0.10566000000E+00 0. -1.
     999900   -1    0    0    0    0 -0.00000000000E+00 -0.00000000000E+00 -0.74505805969E-08  0.93827000000E+00  0.93827000000E+00 0. -1.
     999902    2    1    2    0    0  0.91715299739E-02 -0.11907248849E-01  0.18435552594E-01  0.10201440979E+01  0.10198667616E+01 0.  0.
     999903    2    3    3    0    0  0.20957423661E-01 -0.12824609356E+00  0.15384758043E-01  0.13240374095E+00  0.20193704911E-01 0.  0.
         14    1    1    2    0    0 -0.91715299739E-02  0.11907248849E-01 -0.18435552594E-01  0.23785902057E-01  0.00000000000E+00 0.  1.
     999901    1    3    3    0    0 -0.11785893687E-01  0.11633884471E+00  0.30507945513E-02  0.88774035699E+00  0.88000000000E+00 0. -1.
        -11    1    4    4    0    0  0.19631044831E-01 -0.94842027370E-01  0.34900398883E-02  0.96916611457E-01  0.51100000000E-03 0.  1.
         11    1    4    4    0    0  0.13263788299E-02 -0.33404066192E-01  0.11894718154E-01  0.35487129497E-01  0.51100000000E-03 0. -1.
</event>
<event>
 8    1  0.1148488E+005  0.1043930E+01  0.7957747E-01            NaN
         13   -1    0    0    0    0  0.00000000000E+00  0.00000000000E+00  0.74505805969E-08  0.10566000000E+00  0.10566000000E+00 0.  1.
     999900   -1    0    0    0    0 -0.00000000000E+00 -0.00000000000E+00 -0.74505805969E-08  0.93827000000E+00  0.93827000000E+00 0. -1.
     999902    2    1    2    0    0  0.69595996097E-02 -0.48366433252E-03 -0.23935691746E-01  0.10189983475E+01  0.10186933027E+01 0.  0.
     999903    2    3    3    0    0 -0.65572834064E-01 -0.64573388720E-01  0.85215215825E-01  0.12698805195E+00  0.19869907713E-01 0.  0.
         14    1    1    2    0    0 -0.69595996097E-02  0.48366433252E-03  0.23935691746E-01  0.24931652518E-01  0.00000000000E+00 0.  1.
     999901    1    3    3    0    0  0.72532433674E-01  0.64089724387E-01 -0.10915090757E+00  0.89201029553E+00  0.88000000000E+00 0. -1.
        -11    1    4    4    0    0 -0.24518065165E-01 -0.16324662749E-01  0.17539862620E-01  0.34286120151E-01  0.51100000000E-03 0.  1.
         11    1    4    4    0    0 -0.41054768900E-01 -0.48248725971E-01  0.67675353205E-01  0.92701931801E-01  0.51100000000E-03 0. -1.
</event>
<event>
 8    1  0.1148488E+005  0.1043930E+01  0.7957747E-01            NaN
         13   -1    0    0    0    0  0.00000000000E+00  0.00000000000E+00  0.74505805969E-08  0.10566000000E+00  0.10566000000E+00 0. -1.
     999900   -1    0    0    0    0 -0.00000000000E+00 -0.00000000000E+00 -0.74505805969E-08  0.93827000000E+00  0.93827000000E+00 0. -1.
     999902    2    1    2    0    0  0.23322601063E-01 -0.22386730898E-02 -0.24874836115E-02  0.10203685282E+01  0.10200964613E+01 0.  0.
     999903    2    3    3    0    0  0.13115364272E+00  0.13816007879E-01 -0.81193413229E-02  0.13362335392E+00  0.19927793116E-01 0.  0.
         14    1    1    2    0    0 -0.23322601063E-01  0.22386730898E-02  0.24874836115E-02  0.23561471776E-01  0.00000000000E+00 0.  1.
     999901    1    3    3    0    0 -0.10783104165E+00 -0.16054680968E-01  0.56318577114E-02  0.88674517430E+00  0.88000000000E+00 0. -1.
        -11    1    4    4    0    0  0.70541910657E-01  0.84474391224E-02  0.55216312432E-02  0.71261980884E-01  0.51100000000E-03 0. -1.
         11    1    4    4    0    0  0.60611732059E-01  0.53685687563E-02 -0.13640972566E-01  0.62361373039E-01  0.51100000000E-03 0.  1.
</event>
<event>
 8    1  0.1206634E+005  0.1043930E+01  0.7957747E-01            NaN
         13   -1    0    0    0    0  0.00000000000E+00  0.00000000000E+00  0.74505805969E-08  0.10566000000E+00  0.10566000000E+00 0. -1.
     999900   -1    0    0    0    0 -0.00000000000E+00 -0.00000000000E+00 -0.74505805969E-08  0.93827000000E+00  0.93827000000E+00 0. -1.
     999902    2    1    2    0    0 -0.68851959293E-02 -0.17247162295E-01  0.15353690668E-01  0.10198342255E+01  0.10195495286E+01 0.  0.
     999903    2    3    3    0    0  0.12102993004E+00 -0.42834744483E-01  0.77860233344E-02  0.13018582678E+00  0.20116362324E-01 0.  0.
         14    1    1    2    0    0  0.68851959293E-02  0.17247162295E-01 -0.15353690668E-01  0.24095774471E-01  0.00000000000E+00 0.  1.
     999901    1    3    3    0    0 -0.12791512597E+00  0.25587582188E-01  0.75676673338E-02  0.88964839875E+00  0.88000000000E+00 0. -1.
        -11    1    4    4    0    0  0.72119450214E-01 -0.29717381988E-01  0.13708276908E-01  0.79199216336E-01  0.51100000000E-03 0. -1.
         11    1    4    4    0    0  0.48910479828E-01 -0.13117362495E-01 -0.59222535739E-02  0.50986610441E-01  0.51100000000E-03 0.  1.
</event>
<event>
 8    1  0.1148488E+005  0.1043930E+01  0.7957747E-01            NaN
         13   -1    0    0    0    0  0.00000000000E+00  0.00000000000E+00  0.74505805969E-08  0.10566000000E+00  0.10566000000E+00 0.  1.
     999900   -1    0    0    0    0 -0.00000000000E+00 -0.00000000000E+00 -0.74505805969E-08  0.93827000000E+00  0.93827000000E+00 0.  1.
     999902    2    1    2    0    0  0.61421882034E-02  0.13223089903E-01  0.18570186442E-01  0.10203200782E+01  0.10200468781E+01 0.  0.
     999903    2    3    3    0    0  0.31818125780E-01  0.12621530996E+00  0.14670023773E-01  0.13271560164E+00  0.21343001769E-01 0.  0.
         14    1    1    2    0    0 -0.61421882034E-02 -0.13223089903E-01 -0.18570186442E-01  0.23609921792E-01  0.00000000000E+00 0. -1.
     999901    1    3    3    0    0 -0.25675937577E-01 -0.11299222005E+00  0.39001626691E-02  0.88760447657E+00  0.88000000000E+00 0. -1.
        -11    1    4    4    0    0  0.25425905984E-01  0.93059709130E-01  0.20011690390E-01  0.98525707466E-01  0.51100000000E-03 0. -1.
         11    1    4    4    0    0  0.63922197963E-02  0.33155600827E-01 -0.53416666169E-02  0.34189894170E-01  0.51100000000E-03 0.  1.
</event>
<event>
 8    1  0.1148488E+005  0.1043930E+01  0.7957747E-01            NaN
         13   -1    0    0    0    0  0.00000000000E+00  0.00000000000E+00  0.74505805969E-08  0.10566000000E+00  0.10566000000E+00 0. -1.
     999900   -1    0    0    0    0 -0.00000000000E+00 -0.00000000000E+00 -0.74505805969E-08  0.93827000000E+00  0.93827000000E+00 0. -1.
     999902    2    1    2    0    0 -0.10864756427E-02 -0.20097504893E-01  0.17271898307E-01  0.10174081486E+01  0.10170624033E+01 0.  0.
     999903    2    3    3    0    0  0.11410294980E+00  0.32545923507E-01  0.44938639349E-01  0.12791088446E+00  0.16217051751E-01 0.  0.
         14    1    1    2    0    0  0.10864756427E-02  0.20097504893E-01 -0.17271898307E-01  0.26521851432E-01  0.00000000000E+00 0.  1.
     999901    1    3    3    0    0 -0.11518942545E+00 -0.52643428400E-01 -0.27666741042E-01  0.88949726410E+00  0.88000000000E+00 0.  1.
        -11    1    4    4    0    0  0.86667200002E-01  0.23837311741E-01  0.41201929828E-01  0.98880135162E-01  0.51100000000E-03 0.  1.
         11    1    4    4    0    0  0.27435749801E-01  0.87086117659E-02  0.37367095207E-02  0.29030749302E-01  0.51100000000E-03 0. -1.
</event>
<event>
 8    1  0.1148488E+005  0.1043930E+01  0.7957747E-01            NaN
         13   -1    0    0    0    0  0.00000000000E+00  0.00000000000E+00  0.74505805969E-08  0.10566000000E+00  0.10566000000E+00 0. -1.
     999900   -1    0    0    0    0 -0.00000000000E+00 -0.00000000000E+00 -0.74505805969E-08  0.93827000000E+00  0.93827000000E+00 0.  1.
     999902    2    1    2    0    0  0.55759767980E-02  0.20095363076E-01  0.99255520039E-02  0.10208338593E+01  0.10205725533E+01 0.  0.
     999903    2    3    3    0    0 -0.12722192291E+00 -0.17028766710E-01  0.13520642234E-01  0.13008899801E+00  0.16277071953E-01 0.  0.
         14    1    1    2    0    0 -0.55759767980E-02 -0.20095363076E-01 -0.99255520039E-02  0.23096140738E-01  0.00000000000E+00 0.  1.
     999901    1    3    3    0    0  0.13279789971E+00  0.37124129786E-01 -0.35950902300E-02  0.89074486126E+00  0.88000000000E+00 0. -1.
        -11    1    4    4    0    0 -0.12148178914E+00 -0.15048353220E-01  0.94809696875E-02  0.12277796193E+00  0.51100000000E-03 0.  1.
         11    1    4    4    0    0 -0.57401337659E-02 -0.19804134905E-02  0.40396725464E-02  0.73110360774E-02  0.51100000000E-03 0. -1.
</event>
<event>
 7    1  0.1148488E+005  0.1043930E+01  0.7957747E-01            NaN
         13   -1    0    0    0    0  0.00000000000E+00  0.00000000000E+00  0.74505805969E-08  0.10566000000E+00  0.10566000000E+00 0. -1.
     999900   -1    0    0    0    0 -0.00000000000E+00 -0.00000000000E+00 -0.74505805969E-08  0.93827000000E+00  0.93827000000E+00 0.  1.
     999903    2    1    2    0    0  0.12672544474E+00 -0.37205876829E-01 -0.57627937473E-01  0.14547691623E+00  0.19973441436E-01 0.  0.
         14    1    1    2    0    0 -0.19826736375E-02  0.31094248660E-02 -0.56576000135E-02  0.67533662468E-02  0.00000000000E+00 0.  1.
     999901    1    1    2    0    0 -0.12474277110E+00  0.34096451963E-01  0.63285537486E-01  0.89169971752E+00  0.88000000000E+00 0. -1.
        -11    1    3    3    0    0  0.59815255568E-01 -0.26850064120E-01 -0.23480587377E-01  0.69644740264E-01  0.51100000000E-03 0.  1.
         11    1    3    3    0    0  0.66910189172E-01 -0.10355812709E-01 -0.34147350096E-01  0.75832175964E-01  0.51100000000E-03 0. -1.
</event>
<event>
 8    1  0.1148488E+005  0.1043930E+01  0.7957747E-01            NaN
         13   -1    0    0    0    0  0.00000000000E+00  0.00000000000E+00  0.74505805969E-08  0.10566000000E+00  0.10566000000E+00 0. -1.
     999900   -1    0    0    0    0 -0.00000000000E+00 -0.00000000000E+00 -0.74505805969E-08  0.93827000000E+00  0.93827000000E+00 0. -1.
     999902    2    1    2    0    0 -0.30268628309E-02 -0.21094322659E-01 -0.85119452814E-02  0.10209825479E+01  0.10207246335E+01 0.  0.
     999903    2    3    3    0    0 -0.25638262613E-01 -0.97057335465E-01  0.84113474911E-01  0.13257885405E+00  0.20606528154E-01 0.  0.
         14    1    1    2    0    0  0.30268628309E-02  0.21094322659E-01  0.85119452814E-02  0.22947452136E-01  0.00000000000E+00 0. -1.
     999901    1    3    3    0    0  0.22611399782E-01  0.75963012806E-01 -0.92625420192E-01  0.88840369381E+00  0.88000000000E+00 0. -1.
        -11    1    4    4    0    0 -0.38066935133E-02 -0.28422528291E-01  0.35703812906E-01  0.45796882066E-01  0.51100000000E-03 0.  1.
         11    1    4    4    0    0 -0.21831569100E-01 -0.68634807174E-01  0.48409662005E-01  0.86781971985E-01  0.51100000000E-03 0. -1.
</event>
<event>
 8    1  0.1148488E+005  0.1043930E+01  0.7957747E-01            NaN
         13   -1    0    0    0    0  0.00000000000E+00  0.00000000000E+00  0.74505805969E-08  0.10566000000E+00  0.10566000000E+00 0. -1.
     999900   -1    0    0    0    0 -0.00000000000E+00 -0.00000000000E+00 -0.74505805969E-08  0.93827000000E+00  0.93827000000E+00 0.  1.
     999902    2    1    2    0    0  0.26576245930E-02 -0.10453331815E-01 -0.20786999277E-01  0.10205113226E+01  0.10202425814E+01 0.  0.
     999903    2    3    3    0    0  0.84933753024E-01 -0.47240830808E-01  0.83999730960E-01  0.12972350257E+00  0.18077439524E-01 0.  0.
         14    1    1    2    0    0 -0.26576245930E-02  0.10453331815E-01  0.20786999277E-01  0.23418677449E-01  0.00000000000E+00 0. -1.
     999901    1    3    3    0    0 -0.82276128431E-01  0.36787498993E-01 -0.10478673024E+00  0.89078781998E+00  0.88000000000E+00 0. -1.
        -11    1    4    4    0    0  0.51125179343E-01 -0.23058420189E-01  0.38135950709E-01  0.67823937972E-01  0.51100000000E-03 0.  1.
         11    1    4    4    0    0  0.33808573680E-01 -0.24182410618E-01  0.45863780251E-01  0.61899564599E-01  0.51100000000E-03 0. -1.
</event>
<event>
 8    1  0.1148488E+005  0.1043930E+01  0.7957747E-01            NaN
         13   -1    0    0    0    0  0.00000000000E+00  0.00000000000E+00  0.74505805969E-08  0.10566000000E+00  0.10566000000E+00 0. -1.
     999900   -1    0    0    0    0 -0.00000000000E+00 -0.00000000000E+00 -0.74505805969E-08  0.93827000000E+00  0.93827000000E+00 0.  1.
     999902    2    1    2    0    0 -0.56805593825E-02  0.30260764410E-01  0.10639652636E-01  0.10113541681E+01  0.10108293963E+01 0.  0.
     999903    2    3    3    0    0  0.46628135076E-01  0.10194832654E+00  0.53587747681E-01  0.12584875027E+00  0.19965394547E-01 0.  0.
         14    1    1    2    0    0  0.56805593825E-02 -0.30260764410E-01 -0.10639652636E-01  0.32575831928E-01  0.00000000000E+00 0.  1.
     999901    1    3    3    0    0 -0.52308694459E-01 -0.71687562129E-01 -0.42948095044E-01  0.88550541780E+00  0.88000000000E+00 0.  1.
        -11    1    4    4    0    0  0.31436804506E-01  0.79589862587E-01  0.32413530257E-01  0.91508015872E-01  0.51100000000E-03 0.  1.
         11    1    4    4    0    0  0.15191330571E-01  0.22358463953E-01  0.21174217424E-01  0.34340734403E-01  0.51100000000E-03 0. -1.
</event>
<event>
 8    1  0.1148488E+005  0.1043930E+01  0.7957747E-01            NaN
         13   -1    0    0    0    0  0.00000000000E+00  0.00000000000E+00  0.74505805969E-08  0.10566000000E+00  0.10566000000E+00 0.  1.
     999900   -1    0    0    0    0 -0.00000000000E+00 -0.00000000000E+00 -0.74505805969E-08  0.93827000000E+00  0.93827000000E+00 0.  1.
     999902    2    1    2    0    0 -0.19738300837E-01  0.10278961650E-01  0.55809503162E-02  0.10209864916E+01  0.10207286669E+01 0.  0.
     999903    2    3    3    0    0 -0.10689604983E-01 -0.10137909970E+00 -0.77876967913E-01  0.12996762214E+00  0.20851166952E-01 0.  0.
         14    1    1    2    0    0  0.19738300837E-01 -0.10278961650E-01 -0.55809503162E-02  0.22943508427E-01  0.00000000000E+00 0.  1.
     999901    1    3    3    0    0 -0.90486958540E-02  0.11165806135E+00  0.83457918229E-01  0.89101886943E+00  0.88000000000E+00 0. -1.
        -11    1    4    4    0    0  0.58501072189E-02 -0.16201867383E-01 -0.14408013589E-01  0.22462774489E-01  0.51100000000E-03 0. -1.
         11    1    4    4    0    0 -0.16539712202E-01 -0.85177232320E-01 -0.63468954324E-01  0.10750484766E+00  0.51100000000E-03 0.  1.
</event>
<event>
 8    1  0.1148488E+005  0.1043930E+01  0.7957747E-01            NaN
         13   -1    0    0    0    0  0.00000000000E+00  0.00000000000E+00  0.74505805969E-08  0.10566000000E+00  0.10566000000E+00 0.  1.
     999900   -1    0    0    0    0 -0.00000000000E+00 -0.00000000000E+00 -0.74505805969E-08  0.93827000000E+00  0.93827000000E+00 0. -1.
     999902    2    1    2    0    0 -0.12784877012E-01 -0.20283053274E-01  0.71093110845E-02  0.10189220486E+01  0.10186151105E+01 0.  0.
     999903    2    3    3    0    0 -0.54870502784E-01  0.11196190153E+00 -0.17986117369E-01  0.12769272427E+00  0.20873235150E-01 0.  0.
         14    1    1    2    0    0  0.12784877012E-01  0.20283053274E-01 -0.71093110845E-02  0.25007951424E-01  0.00000000000E+00 0. -1.
     999901    1    3    3    0    0  0.42085625772E-01 -0.13224495480E+00  0.25095428454E-01  0.89122932430E+00  0.88000000000E+00 0.  1.
        -11    1    4    4    0    0 -0.17840018599E-01  0.22893835212E-01  0.23091905882E-02  0.29120223840E-01  0.51100000000E-03 0. -1.
         11    1    4    4    0    0 -0.37030484186E-01  0.89068066313E-01 -0.20295307958E-01  0.98572500435E-01  0.51100000000E-03 0.  1.
</event>
<event>
 8    1  0.1148488E+005  0.1043930E+01  0.7957747E-01            NaN
         13   -1    0    0    0    0  0.00000000000E+00  0.00000000000E+00  0.74505805969E-08  0.10566000000E+00  0.10566000000E+00 0.  1.
     999900   -1    0    0    0    0 -0.00000000000E+00 -0.00000000000E+00 -0.74505805969E-08  0.93827000000E+00  0.93827000000E+00 0.  1.
     999902    2    1    2    0    0  0.19084043518E-01 -0.79624601113E-02  0.11983520180E-01  0.10200300786E+01  0.10197500453E+01 0.  0.
     999903    2    3    3    0    0 -0.99757626433E-01 -0.75902185828E-01  0.86879507080E-02  0.12944038089E+00  0.31090285833E-01 0.  0.
         14    1    1    2    0    0 -0.19084043518E-01  0.79624601113E-02 -0.11983520180E-01  0.23899921421E-01  0.00000000000E+00 0. -1.
     999901    1    3    3    0    0  0.11884166995E+00  0.67939725716E-01  0.32955694719E-02  0.89058969769E+00  0.88000000000E+00 0. -1.
        -11    1    4    4    0    0 -0.44273025174E-01 -0.15279566492E-01  0.38512454631E-03  0.46839890607E-01  0.51100000000E-03 0. -1.
         11    1    4    4    0    0 -0.55484601260E-01 -0.60622619336E-01  0.83028261617E-02  0.82600490285E-01  0.51100000000E-03 0.  1.
</event>
<event>
 8    1  0.1148488E+005  0.1043930E+01  0.7957747E-01            NaN
         13   -1    0    0    0    0  0.00000000000E+00  0.00000000000E+00  0.74505805969E-08  0.10566000000E+00  0.10566000000E+00 0.  1.
     999900   -1    0    0    0    0 -0.00000000000E+00 -0.00000000000E+00 -0.74505805969E-08  0.93827000000E+00  0.93827000000E+00 0. -1.
     999902    2    1    2    0    0  0.14688803452E-02 -0.24744253612E-01  0.16297037323E-02  0.10190886709E+01  0.10187858595E+01 0.  0.
     999903    2    3    3    0    0  0.91156948870E-01 -0.92451660625E-01 -0.11334817001E-01  0.13184782346E+00  0.19961753308E-01 0.  0.
         14    1    1    2    0    0 -0.14688803452E-02  0.24744253612E-01 -0.16297037323E-02  0.24841329082E-01  0.00000000000E+00 0.  1.
     999901    1    3    3    0    0 -0.89688068524E-01  0.67707407013E-01  0.12964520733E-01  0.88724084746E+00  0.88000000000E+00 0.  1.
        -11    1    4    4    0    0  0.22085109843E-01 -0.18285781038E-01  0.52392095101E-02  0.29151883340E-01  0.51100000000E-03 0.  1.
         11    1    4    4    0    0  0.69071839026E-01 -0.74165879587E-01 -0.16574026511E-01  0.10269594012E+00  0.51100000000E-03 0. -1.
</event>
<event>
 8    1  0.1148488E+005  0.1043930E+01  0.7957747E-01            NaN
         13   -1    0    0    0    0  0.00000000000E+00  0.00000000000E+00  0.74505805969E-08  0.10566000000E+00  0.10566000000E+00 0.  1.
     999900   -1    0    0    0    0 -0.00000000000E+00 -0.00000000000E+00 -0.74505805969E-08  0.93827000000E+00  0.93827000000E+00 0.  1.
     999902    2    1    2    0    0  0.43556809324E-02  0.16284361828E-01 -0.18966319914E-01  0.10185553337E+01  0.10182392127E+01 0.  0.
     999903    2    3    3    0    0 -0.10047398395E+00 -0.22617648610E-01 -0.75722831675E-01  0.12966618054E+00  0.21743772895E-01 0.  0.
         14    1    1    2    0    0 -0.43556809324E-02 -0.16284361828E-01  0.18966319914E-01  0.25374666255E-01  0.00000000000E+00 0.  1.
     999901    1    3    3    0    0  0.10482966488E+00  0.38902010438E-01  0.56756511761E-01  0.88888915320E+00  0.88000000000E+00 0. -1.
        -11    1    4    4    0    0 -0.38879364427E-01 -0.55076444111E-02 -0.41570444842E-01  0.57186555505E-01  0.51100000000E-03 0. -1.
         11    1    4    4    0    0 -0.61594619524E-01 -0.17110004199E-01 -0.34152386833E-01  0.72479625036E-01  0.51100000000E-03 0.  1.
</event>
<event>
 8    1  0.1148488E+005  0.1043930E+01  0.7957747E-01            NaN
         13   -1    0    0    0    0  0.00000000000E+00  0.00000000000E+00  0.74505805969E-08  0.10566000000E+00  0.10566000000E+00 0.  1.
     999900   -1    0    0    0    0 -0.00000000000E+00 -0.00000000000E+00 -0.74505805969E-08  0.93827000000E+00  0.93827000000E+00 0.  1.
     999902    2    1    2    0    0  0.15918981139E-01 -0.61855012424E-02 -0.15999349546E-01  0.10205280007E+01  0.10202596467E+01 0.  0.
     999903    2    3    3    0    0  0.12484126863E+00 -0.15368373522E-01 -0.40073620261E-01  0.13343839959E+00  0.19452048396E-01 0.  0.
         14    1    1    2    0    0 -0.15918981139E-01  0.61855012424E-02  0.15999349546E-01  0.23401999317E-01  0.00000000000E+00 0.  1.
     999901    1    3    3    0    0 -0.10892228749E+00  0.91828722799E-02  0.24074270715E-01  0.88708960109E+00  0.88000000000E+00 0.  1.
        -11    1    4    4    0    0  0.41560546274E-01 -0.39537249140E-02 -0.39278585861E-02  0.41935666698E-01  0.51100000000E-03 0. -1.
         11    1    4    4    0    0  0.83280722355E-01 -0.11414648608E-01 -0.36145761675E-01  0.91502732893E-01  0.51100000000E-03 0.  1.
</event>
<event>
 8    1  0.1148488E+005  0.1043930E+01  0.7957747E-01            NaN
         13   -1    0    0    0    0  0.00000000000E+00  0.00000000000E+00  0.74505805969E-08  0.10566000000E+00  0.10566000000E+00 0.  1.
     999900   -1    0    0    0    0 -0.00000000000E+00 -0.00000000000E+00 -0.74505805969E-08  0.93827000000E+00  0.93827000000E+00 0.  1.
     999902    2    1    2    0    0 -0.23532908300E-01  0.98898985351E-03 -0.38064239758E-02  0.10200707306E+01  0.10197916604E+01 0.  0.
     999903    2    3    3    0    0  0.76753094018E-01 -0.30393524498E-01  0.96206017634E-01  0.12819370265E+00  0.19058431127E-01 0.  0.
         14    1    1    2    0    0  0.23532908300E-01 -0.98898985351E-03  0.38064239758E-02  0.23859269424E-01  0.00000000000E+00 0.  1.
     999901    1    3    3    0    0 -0.10028600232E+00  0.31382514351E-01 -0.10001244161E+00  0.89187702793E+00  0.88000000000E+00 0.  1.
        -11    1    4    4    0    0  0.35857488316E-01 -0.22263727196E-01  0.57254749499E-01  0.71132274519E-01  0.51100000000E-03 0. -1.
         11    1    4    4    0    0  0.40895605702E-01 -0.81297973022E-02  0.38951268134E-01  0.57061428130E-01  0.51100000000E-03 0.  1.
</event>
<event>
 8    1  0.1148488E+005  0.1043930E+01  0.7957747E-01            NaN
         13   -1    0    0    0    0  0.00000000000E+00  0.00000000000E+00  0.74505805969E-08  0.10566000000E+00  0.10566000000E+00 0. -1.
     999900   -1    0    0    0    0 -0.00000000000E+00 -0.00000000000E+00 -0.74505805969E-08  0.93827000000E+00  0.93827000000E+00 0. -1.
     999902    2    1    2    0    0 -0.18570111456E-01 -0.54693971528E-02  0.12960681648E-01  0.10206331630E+01  0.10203672431E+01 0.  0.
     999903    2    3    3    0    0  0.98165302132E-01 -0.63463572509E-01 -0.49830075567E-01  0.12881863053E+00  0.21145958535E-01 0.  0.
         14    1    1    2    0    0  0.18570111456E-01  0.54693971528E-02 -0.12960681648E-01  0.23296836984E-01  0.00000000000E+00 0.  1.
     999901    1    3    3    0    0 -0.11673541359E+00  0.57994175356E-01  0.62790757215E-01  0.89181453249E+00  0.88000000000E+00 0.  1.
        -11    1    4    4    0    0  0.92153712641E-01 -0.62200956900E-01 -0.41993986822E-01  0.11884873513E+00  0.51100000000E-03 0. -1.
         11    1    4    4    0    0  0.60115894916E-02 -0.12626156086E-02 -0.78360887451E-02  0.99698953962E-02  0.51100000000E-03 0.  1.
</event>
<event>
 8    1  0.1148488E+005  0.1043930E+01  0.7957747E-01            NaN
         13   -1    0    0    0    0  0.00000000000E+00  0.00000000000E+00  0.74505805969E-08  0.10566000000E+00  0.10566000000E+00 0. -1.
     999900   -1    0    0    0    0 -0.00000000000E+00 -0.00000000000E+00 -0.74505805969E-08  0.93827000000E+00  0.93827000000E+00 0. -1.
     999902    2    1    2    0    0 -0.15486258590E-01  0.13122176308E-01 -0.12026059389E-01  0.10203367421E+01  0.10200639320E+01 0.  0.
     999903    2    3    3    0    0 -0.12472944770E+00  0.41559335924E-01 -0.27684387846E-02  0.13307778890E+00  0.20430861909E-01 0.  0.
         14    1    1    2    0    0  0.15486258590E-01 -0.13122176308E-01  0.12026059389E-01  0.23593257948E-01  0.00000000000E+00 0.  1.
     999901    1    3    3    0    0  0.10924318911E+00 -0.28437159615E-01 -0.92576206042E-02  0.88725895315E+00  0.88000000000E+00 0. -1.
        -11    1    4    4    0    0 -0.78619835229E-01  0.33866306474E-01  0.47047597003E-02  0.85734480173E-01  0.51100000000E-03 0. -1.
         11    1    4    4    0    0 -0.46109612471E-01  0.76930294493E-02 -0.74731984849E-02  0.47343308724E-01  0.51100000000E-03 0.  1.
</event>
<event>
 8    1  0.1148488E+005  0.1043930E+01  0.7957747E-01            NaN
         13   -1    0    0    0    0  0.00000000000E+00  0.00000000000E+00  0.74505805969E-08  0.10566000000E+00  0.10566000000E+00 0. -1.
     999900   -1    0    0    0    0 -0.00000000000E+00 -0.00000000000E+00 -0.74505805969E-08  0.93827000000E+00  0.93827000000E+00 0. -1.
     999902    2    1    2    0    0  0.12689207939E-01 -0.93506435252E-02  0.18799186672E-01  0.10193971658E+01  0.10191019192E+01 0.  0.
     999903    2    3    3    0    0 -0.68832190001E-01 -0.10792473342E+00  0.12741992712E-01  0.13012820814E+00  0.19630937621E-01 0.  0.
         14    1    1    2    0    0 -0.12689207939E-01  0.93506435252E-02 -0.18799186672E-01  0.24532834161E-01  0.00000000000E+00 0.  1.
     999901    1    3    3    0    0  0.81521397940E-01  0.98574089897E-01  0.60571939605E-02  0.88926895769E+00  0.88000000000E+00 0. -1.
        -11    1    4    4    0    0 -0.38993568716E-01 -0.56546979292E-01 -0.26832188834E-02  0.68742418148E-01  0.51100000000E-03 0.  1.
         11    1    4    4    0    0 -0.29838621285E-01 -0.51377754130E-01  0.15425211595E-01  0.61385789996E-01  0.51100000000E-03 0. -1.
</event>
<event>
 8    1  0.1148488E+005  0.1043930E+01  0.7957747E-01            NaN
         13   -1    0    0    0    0  0.00000000000E+00  0.00000000000E+00  0.74505805969E-08  0.10566000000E+00  0.10566000000E+00 0. -1.
     999900   -1    0    0    0    0 -0.00000000000E+00 -0.00000000000E+00 -0.74505805969E-08  0.93827000000E+00  0.93827000000E+00 0. -1.
     999902    2    1    2    0    0 -0.22668117006E-02  0.19127182613E-01  0.14309601665E-01  0.10199351620E+01  0.10196528735E+01 0.  0.
     999903    2    3    3    0    0 -0.50214719271E-01 -0.72175289560E-01 -0.90443635107E-01  0.12774214261E+00  0.20179529545E-01 0.  0.
         14    1    1    2    0    0  0.22668117006E-02 -0.19127182613E-01 -0.14309601665E-01  0.23994837983E-01  0.00000000000E+00 0.  1.
     999901    1    3    3    0    0  0.47947907570E-01  0.91302472173E-01  0.10475323677E+00  0.89219301941E+00  0.88000000000E+00 0.  1.
        -11    1    4    4    0    0 -0.14028180762E-01 -0.37672909746E-01 -0.41058047061E-01  0.57463573972E-01  0.51100000000E-03 0. -1.
         11    1    4    4    0    0 -0.36186538509E-01 -0.34502379814E-01 -0.49385588046E-01  0.70278568637E-01  0.51100000000E-03 0.  1.
</event>
<event>
 8    1  0.1148488E+005  0.1043930E+01  0.7957747E-01            NaN
         13   -1    0    0    0    0  0.00000000000E+00  0.00000000000E+00  0.74505805969E-08  0.10566000000E+00  0.10566000000E+00 0. -1.
     999900   -1    0    0    0    0 -0.00000000000E+00 -0.00000000000E+00 -0.74505805969E-08  0.93827000000E+00  0.93827000000E+00 0.  1.
     999902    2    1    2    0    0 -0.11875560180E-01 -0.18659453862E-01 -0.74706680530E-02  0.10205844431E+01  0.10203173969E+01 0.  0.
     999903    2    3    3    0    0 -0.12779802623E+00  0.25633565377E-01  0.13185839688E-02  0.13183411780E+00  0.19725130447E-01 0.  0.
         14    1    1    2    0    0  0.11875560180E-01  0.18659453862E-01  0.74706680530E-02  0.23345556947E-01  0.00000000000E+00 0. -1.
     999901    1    3    3    0    0  0.11592246605E+00 -0.44293019239E-01 -0.87892520219E-02  0.88875032525E+00  0.88000000000E+00 0.  1.
        -11    1    4    4    0    0 -0.74485064696E-01  0.10111305456E-01  0.92672429751E-02  0.75739067028E-01  0.51100000000E-03 0. -1.
         11    1    4    4    0    0 -0.53312961529E-01  0.15522259922E-01 -0.79486590063E-02  0.56095050772E-01  0.51100000000E-03 0.  1.
</event>
<event>
 8    1  0.1148488E+005  0.1043930E+01  0.7957747E-01            NaN
         13   -1    0    0    0    0  0.00000000000E+00  0.00000000000E+00  0.74505805969E-08  0.10566000000E+00  0.10566000000E+00 0.  1.
     999900   -1    0    0    0    0 -0.00000000000E+00 -0.00000000000E+00 -0.74505805969E-08  0.93827000000E+00  0.93827000000E+00 0. -1.
     999902    2    1    2    0    0  0.55822384174E-02 -0.11473284593E-02  0.21810591565E-01  0.10213871596E+01  0.10211383600E+01 0.  0.
     999903    2    3    3    0    0 -0.62024939533E-01 -0.48390627582E-01  0.10606738805E+00  0.13352350590E+00  0.19735497433E-01 0.  0.
         14    1    1    2    0    0 -0.55822384174E-02  0.11473284593E-02 -0.21810591565E-01  0.22542840388E-01  0.00000000000E+00 0. -1.
     999901    1    3    3    0    0  0.67607177950E-01  0.47243299123E-01 -0.84256796485E-01  0.88786365371E+00  0.88000000000E+00 0. -1.
        -11    1    4    4    0    0 -0.42437744711E-01 -0.39329275069E-01  0.64261240457E-01  0.86472667356E-01  0.51100000000E-03 0. -1.
         11    1    4    4    0    0 -0.19587194822E-01 -0.90613525130E-02  0.41806147594E-01  0.47050838547E-01  0.51100000000E-03 0.  1.
</event>
<event>
 8    1  0.1148488E+005  0.1043930E+01  0.7957747E-01            NaN
         13   -1    0    0    0    0  0.00000000000E+00  0.00000000000E+00  0.74505805969E-08  0.10566000000E+00  0.10566000000E+00 0.  1.
     999900   -1    0    0    0    0 -0.00000000000E+00 -0.00000000000E+00 -0.74505805969E-08  0.93827000000E+00  0.93827000000E+00 0. -1.
     999902    2    1    2    0    0 -0.11323443447E-01 -0.19042625307E-01  0.94287282976E-02  0.10198521499E+01  0.10195678814E+01 0.  0.
     999903    2    3    3    0    0  0.12096923726E+00  0.20959985574E-01  0.33448540972E-01  0.12874131857E+00  0.19561310143E-01 0.  0.
         14    1    1    2    0    0  0.11323443447E-01  0.19042625307E-01 -0.94287282976E-02  0.24077850140E-01  0.00000000000E+00 0. -1.
     999901    1    3    3    0    0 -0.13229268071E+00 -0.40002610881E-01 -0.24019812675E-01  0.89111083129E+00  0.88000000000E+00 0. -1.
        -11    1    4    4    0    0  0.88100542285E-01  0.17701296869E-01  0.15641855239E-01  0.91213870755E-01  0.51100000000E-03 0.  1.
         11    1    4    4    0    0  0.32868694975E-01  0.32586887056E-02  0.17806685734E-01  0.37527447812E-01  0.51100000000E-03 0. -1.
</event>
<event>
 8    1  0.1148488E+005  0.1043930E+01  0.7957747E-01            NaN
         13   -1    0    0    0    0  0.00000000000E+00  0.00000000000E+00  0.74505805969E-08  0.10566000000E+00  0.10566000000E+00 0. -1.
     999900   -1    0    0    0    0 -0.00000000000E+00 -0.00000000000E+00 -0.74505805969E-08  0.93827000000E+00  0.93827000000E+00 0. -1.
     999902    2    1    2    0    0 -0.20740985926E-01 -0.13181812337E-01 -0.49442090381E-02  0.10188622144E+01  0.10185537875E+01 0.  0.
     999903    2    3    3    0    0  0.93841872242E-01  0.67836893494E-01 -0.47472474055E-01  0.12672886368E+00  0.19960661102E-01 0.  0.
         14    1    1    2    0    0  0.20740985926E-01  0.13181812337E-01  0.49442090381E-02  0.25067785636E-01  0.00000000000E+00 0. -1.
     999901    1    3    3    0    0 -0.11458285817E+00 -0.81018705831E-01  0.42528265017E-01  0.89213335069E+00  0.88000000000E+00 0.  1.
        -11    1    4    4    0    0  0.40804286422E-01  0.23190698139E-01 -0.28256902452E-01  0.54786055962E-01  0.51100000000E-03 0.  1.
         11    1    4    4    0    0  0.53037585819E-01  0.44646195355E-01 -0.19215571603E-01  0.71942807717E-01  0.51100000000E-03 0. -1.
</event>
<event>
 8    1  0.1148488E+005  0.1043930E+01  0.7957747E-01            NaN
         13   -1    0    0    0    0  0.00000000000E+00  0.00000000000E+00  0.74505805969E-08  0.10566000000E+00  0.10566000000E+00 0. -1.
     999900   -1    0    0    0    0 -0.00000000000E+00 -0.00000000000E+00 -0.74505805969E-08  0.93827000000E+00  0.93827000000E+00 0. -1.
     999902    2    1    2    0    0 -0.14402957845E-01  0.14787559840E-01 -0.12405270969E-01  0.10198466475E+01  0.10195622475E+01 0.  0.
     999903    2    3    3    0    0 -0.69492044939E-01  0.10705581507E+00  0.30320074841E-01  0.13228048453E+00  0.16991992190E-01 0.  0.
         14    1    1    2    0    0  0.14402957845E-01 -0.14787559840E-01  0.12405270969E-01  0.24083352518E-01  0.00000000000E+00 0. -1.
     999901    1    3    3    0    0  0.55089087094E-01 -0.92268255232E-01 -0.42725345810E-01  0.88756616295E+00  0.88000000000E+00 0. -1.
        -11    1    4    4    0    0 -0.42126652594E-01  0.73392793023E-01  0.13244231242E-01  0.85655284184E-01  0.51100000000E-03 0. -1.
         11    1    4    4    0    0 -0.27365392346E-01  0.33663022050E-01  0.17075843599E-01  0.46625200347E-01  0.51100000000E-03 0.  1.
</event>
<event>
 8    1  0.1148488E+005  0.1043930E+01  0.7957747E-01            NaN
         13   -1    0    0    0    0  0.00000000000E+00  0.00000000000E+00  0.74505805969E-08  0.10566000000E+00  0.10566000000E+00 0.  1.
     999900   -1    0    0    0    0 -0.00000000000E+00 -0.00000000000E+00 -0.74505805969E-08  0.93827000000E+00  0.93827000000E+00 0.  1.
     999902    2    1    2    0    0 -0.10980641914E-01 -0.48229486312E-02 -0.20508217642E-01  0.10201724260E+01  0.10198957577E+01 0.  0.
     999903    2    3    3    0    0  0.22725119608E-01 -0.98223508972E-01 -0.83475983020E-01  0.13235224012E+00  0.19610888470E-01 0.  0.
         14    1    1    2    0    0  0.10980641914E-01  0.48229486312E-02  0.20508217642E-01  0.23757573975E-01  0.00000000000E+00 0.  1.
     999901    1    3    3    0    0 -0.33705761522E-01  0.93400560340E-01  0.62967765378E-01  0.88782018591E+00  0.88000000000E+00 0.  1.
        -11    1    4    4    0    0  0.49334018501E-03 -0.33293963793E-01 -0.35103433977E-01  0.48386398993E-01  0.51100000000E-03 0. -1.
         11    1    4    4    0    0  0.22231779423E-01 -0.64929545179E-01 -0.48372549043E-01  0.83965841122E-01  0.51100000000E-03 0.  1.
</event>
<event>
 8    1  0.1148488E+005  0.1043930E+01  0.7957747E-01            NaN
         13   -1    0    0    0    0  0.00000000000E+00  0.00000000000E+00  0.74505805969E-08  0.10566000000E+00  0.10566000000E+00 0. -1.
     999900   -1    0    0    0    0 -0.00000000000E+00 -0.00000000000E+00 -0.74505805969E-08  0.93827000000E+00  0.93827000000E+00 0.  1.
     999902    2    1    2    0    0 -0.13773925283E-01  0.11622124531E-01 -0.13146525722E-01  0.10216224691E+01  0.10213788932E+01 0.  0.
     999903    2    3    3    0    0 -0.19329651090E-01 -0.10078113747E+00  0.77117198072E-01  0.12987536412E+00  0.19750313571E-01 0.  0.
         14    1    1    2    0    0  0.13773925283E-01 -0.11622124531E-01  0.13146525722E-01  0.22307530900E-01  0.00000000000E+00 0.  1.
     999901    1    3    3    0    0  0.55557258074E-02  0.11240326200E+00 -0.90263723794E-01  0.89174710498E+00  0.88000000000E+00 0.  1.
        -11    1    4    4    0    0 -0.10414742557E-01 -0.71811975822E-01  0.64330614907E-01  0.96974820800E-01  0.51100000000E-03 0.  1.
         11    1    4    4    0    0 -0.89149085333E-02 -0.28969161652E-01  0.12786583165E-01  0.32900543324E-01  0.51100000000E-03 0. -1.
</event>
<event>
 8    1  0.1148488E+005  0.1043930E+01  0.7957747E-01            NaN
         13   -1    0    0    0    0  0.00000000000E+00  0.00000000000E+00  0.74505805969E-08  0.10566000000E+00  0.10566000000E+00 0. -1.
     999900   -1    0    0    0    0 -0.00000000000E+00 -0.00000000000E+00 -0.74505805969E-08  0.93827000000E+00  0.93827000000E+00 0.  1.
     999902    2    1    2    0    0 -0.70890753136E-02 -0.18591321143E-01 -0.12774511694E-01  0.10202851198E+01  0.10200111006E+01 0.  0.
     999903    2    3    3    0    0 -0.21728318079E-02 -0.13235098663E+00  0.17676915586E-02  0.13282982142E+00  0.10914754542E-01 0.  0.
         14    1    1    2    0    0  0.70890753136E-02  0.18591321143E-01  0.12774511694E-01  0.23644880199E-01  0.00000000000E+00 0.  1.
     999901    1    3    3    0    0 -0.49162435056E-02  0.11375966548E+00 -0.14542203252E-01  0.88745529838E+00  0.88000000000E+00 0. -1.
        -11    1    4    4    0    0  0.93223282301E-03 -0.11666001651E+00  0.36101308929E-02  0.11672070371E+00  0.51100000000E-03 0.  1.
         11    1    4    4    0    0 -0.31050646309E-02 -0.15690970120E-01 -0.18424393343E-02  0.16109117709E-01  0.51100000000E-03 0. -1.
</event>
<event>
 8    1  0.1148488E+005  0.1043930E+01  0.7957747E-01            NaN
         13   -1    0    0    0    0  0.00000000000E+00  0.00000000000E+00  0.74505805969E-08  0.10566000000E+00  0.10566000000E+00 0.  1.
     999900   -1    0    0    0    0 -0.00000000000E+00 -0.00000000000E+00 -0.74505805969E-08  0.93827000000E+00  0.93827000000E+00 0. -1.
     999902    2    1    2    0    0 -0.66916057797E-02 -0.19856514582E-01 -0.11209849001E-01  0.10201661730E+01  0.10198893573E+01 0.  0.
     999903    2    3    3    0    0  0.10039826644E+00 -0.53558850130E-01  0.60815445923E-01  0.13011464007E+00  0.16820783785E-01 0.  0.
         14    1    1    2    0    0  0.66916057797E-02  0.19856514582E-01  0.11209849001E-01  0.23763827004E-01  0.00000000000E+00 0. -1.
     999901    1    3    3    0    0 -0.10708987222E+00  0.33702335548E-01 -0.72025294924E-01  0.89005153292E+00  0.88000000000E+00 0. -1.
        -11    1    4    4    0    0  0.29041714750E-01 -0.16494833435E-01  0.26717881427E-01  0.42773906002E-01  0.51100000000E-03 0.  1.
         11    1    4    4    0    0  0.71356551687E-01 -0.37064016695E-01  0.34097564496E-01  0.87340734070E-01  0.51100000000E-03 0. -1.
</event>
<event>
 8    1  0.1148488E+005  0.1043930E+01  0.7957747E-01            NaN
         13   -1    0    0    0    0  0.00000000000E+00  0.00000000000E+00  0.74505805969E-08  0.10566000000E+00  0.10566000000E+00 0.  1.
     999900   -1    0    0    0    0 -0.00000000000E+00 -0.00000000000E+00 -0.74505805969E-08  0.93827000000E+00  0.93827000000E+00 0. -1.
     999902    2    1    2    0    0 -0.21812909083E-01  0.74458397229E-02  0.35158195328E-02  0.10206146720E+01  0.10203483249E+01 0.  0.
     999903    2    3    3    0    0 -0.98844056818E-01  0.42908699701E-01  0.76342835443E-01  0.13354354387E+00  0.19858134513E-01 0.  0.
         14    1    1    2    0    0  0.21812909083E-01 -0.74458397229E-02 -0.35158195328E-02  0.23315327980E-01  0.00000000000E+00 0.  1.
     999901    1    3    3    0    0  0.77031147735E-01 -0.35462859978E-01 -0.72827015911E-01  0.88707112815E+00  0.88000000000E+00 0. -1.
        -11    1    4    4    0    0 -0.91097086627E-01  0.34149080306E-01  0.63558181801E-01  0.11620990695E+00  0.51100000000E-03 0. -1.
         11    1    4    4    0    0 -0.77469701910E-02  0.87596193945E-02  0.12784653642E-01  0.17333636919E-01  0.51100000000E-03 0.  1.
</event>
<event>
 8    1  0.1148488E+005  0.1043930E+01  0.7957747E-01            NaN
         13   -1    0    0    0    0  0.00000000000E+00  0.00000000000E+00  0.74505805969E-08  0.10566000000E+00  0.10566000000E+00 0. -1.
     999900   -1    0    0    0    0 -0.00000000000E+00 -0.00000000000E+00 -0.74505805969E-08  0.93827000000E+00  0.93827000000E+00 0.  1.
     999902    2    1    2    0    0 -0.19573600691E-01  0.13063989352E-01  0.83616082426E-03  0.10203823286E+01  0.10201105841E+01 0.  0.
     999903    2    3    3    0    0 -0.29401078472E-01  0.79743833289E-01 -0.99127152487E-01  0.13216194781E+00  0.20422676742E-01 0.  0.
         14    1    1    2    0    0  0.19573600691E-01 -0.13063989352E-01 -0.83616082426E-03  0.23547671365E-01  0.00000000000E+00 0. -1.
     999901    1    3    3    0    0  0.98274777805E-02 -0.66679843937E-01  0.99963313312E-01  0.88822038083E+00  0.88000000000E+00 0. -1.
        -11    1    4    4    0    0 -0.16121113531E-01  0.28774078085E-01 -0.25804363247E-01  0.41880355236E-01  0.51100000000E-03 0.  1.
         11    1    4    4    0    0 -0.13279964941E-01  0.50969755204E-01 -0.73322789240E-01  0.90281592572E-01  0.51100000000E-03 0. -1.
</event>
<event>
 8    1  0.1148488E+005  0.1043930E+01  0.7957747E-01            NaN
         13   -1    0    0    0    0  0.00000000000E+00  0.00000000000E+00  0.74505805969E-08  0.10566000000E+00  0.10566000000E+00 0. -1.
     999900   -1    0    0    0    0 -0.00000000000E+00 -0.00000000000E+00 -0.74505805969E-08  0.93827000000E+00  0.93827000000E+00 0.  1.
     999902    2    1    2    0    0 -0.22152669437E-01 -0.80396007421E-02  0.16901992410E-02  0.10203030510E+01  0.10200294522E+01 0.  0.
     999903    2    3    3    0    0 -0.10948098018E+00 -0.64938180881E-01  0.35676597426E-01  0.13350050395E+00  0.18614848773E-01 0.  0.
         14    1    1    2    0    0  0.22152669437E-01  0.80396007421E-02 -0.16901992410E-02  0.23626948951E-01  0.00000000000E+00 0. -1.
     999901    1    3    3    0    0  0.87328310738E-01  0.56898580139E-01 -0.33986398185E-01  0.88680254710E+00  0.88000000000E+00 0.  1.
        -11    1    4    4    0    0 -0.52548699176E-01 -0.23724633130E-01  0.23021645065E-01  0.62084468788E-01  0.51100000000E-03 0. -1.
         11    1    4    4    0    0 -0.56932281000E-01 -0.41213547751E-01  0.12654952362E-01  0.71416035162E-01  0.51100000000E-03 0.  1.
</event>
<event>
 8    1  0.1148488E+005  0.1043930E+01  0.7957747E-01            NaN
         13   -1    0    0    0    0  0.00000000000E+00  0.00000000000E+00  0.74505805969E-08  0.10566000000E+00  0.10566000000E+00 0. -1.
     999900   -1    0    0    0    0 -0.00000000000E+00 -0.00000000000E+00 -0.74505805969E-08  0.93827000000E+00  0.93827000000E+00 0.  1.
     999902    2    1    2    0    0 -0.12302132479E-01  0.28761704174E-03  0.15367292467E-01  0.10242429772E+01  0.10240537572E+01 0.  0.
     999903    2    3    3    0    0  0.11194268921E+00 -0.52439185269E-01 -0.42090180518E-01  0.13210047036E+00  0.19947860855E-01 0.  0.
         14    1    1    2    0    0  0.12302132479E-01 -0.28761704174E-03 -0.15367292467E-01  0.19687022752E-01  0.00000000000E+00 0.  1.
     999901    1    3    3    0    0 -0.12424482169E+00  0.52726802311E-01  0.57457472984E-01  0.89214250689E+00  0.88000000000E+00 0. -1.
        -11    1    4    4    0    0  0.64834321940E-01 -0.36668690159E-01 -0.33537136875E-01  0.81688939338E-01  0.51100000000E-03 0.  1.
         11    1    4    4    0    0  0.47108367273E-01 -0.15770495110E-01 -0.85530436426E-02  0.50411531019E-01  0.51100000000E-03 0. -1.
</event>
<event>
 8    1  0.1148488E+005  0.1043930E+01  0.7957747E-01            NaN
         13   -1    0    0    0    0  0.00000000000E+00  0.00000000000E+00  0.74505805969E-08  0.10566000000E+00  0.10566000000E+00 0. -1.
     999900   -1    0    0    0    0 -0.00000000000E+00 -0.00000000000E+00 -0.74505805969E-08  0.93827000000E+00  0.93827000000E+00 0. -1.
     999902    2    1    2    0    0  0.16910775987E-01 -0.17380281857E-01 -0.30591824456E-02  0.10194880864E+01  0.10191950506E+01 0.  0.
     999903    2    3    3    0    0  0.42732183435E-01 -0.12207856832E+00 -0.21894938911E-01  0.13270555277E+00  0.20053903423E-01 0.  0.
         14    1    1    2    0    0 -0.16910775987E-01  0.17380281857E-01  0.30591824456E-02  0.24441913574E-01  0.00000000000E+00 0.  1.
     999901    1    3    3    0    0 -0.25821407448E-01  0.10469828646E+00  0.18835756465E-01  0.88678253365E+00  0.88000000000E+00 0.  1.
        -11    1    4    4    0    0  0.27350568965E-01 -0.77986547109E-01 -0.41569722367E-02  0.82749602367E-01  0.51100000000E-03 0.  1.
         11    1    4    4    0    0  0.15381614470E-01 -0.44092021212E-01 -0.17737966674E-01  0.49955950406E-01  0.51100000000E-03 0. -1.
</event>
<event>
 8    1  0.1148488E+005  0.1043930E+01  0.7957747E-01            NaN
         13   -1    0    0    0    0  0.00000000000E+00  0.00000000000E+00  0.74505805969E-08  0.10566000000E+00  0.10566000000E+00 0.  1.
     999900   -1    0    0    0    0 -0.00000000000E+00 -0.00000000000E+00 -0.74505805969E-08  0.93827000000E+00  0.93827000000E+00 0. -1.
     999902    2    1    2    0    0 -0.60922145638E-02 -0.20533514912E-01 -0.92015076414E-02  0.10206188856E+01  0.10203526359E+01 0.  0.
     999903    2    3    3    0    0 -0.39022688542E-02  0.52396473781E-01 -0.11827609466E+00  0.13088811470E+00  0.19540875970E-01 0.  0.
         14    1    1    2    0    0  0.60922145638E-02  0.20533514912E-01  0.92015076414E-02  0.23311114426E-01  0.00000000000E+00 0. -1.
     999901    1    3    3    0    0 -0.21899457095E-02 -0.72929988693E-01  0.10907458702E+00  0.88973077088E+00  0.88000000000E+00 0.  1.
        -11    1    4    4    0    0 -0.34606963918E-02  0.79003093564E-02 -0.39287019682E-01  0.40225891462E-01  0.51100000000E-03 0.  1.
         11    1    4    4    0    0 -0.44157246245E-03  0.44496164425E-01 -0.78989074979E-01  0.90662223234E-01  0.51100000000E-03 0. -1.
</event>
<event>
 8    1  0.1148488E+005  0.1043930E+01  0.7957747E-01            NaN
         13   -1    0    0    0    0  0.00000000000E+00  0.00000000000E+00  0.74505805969E-08  0.10566000000E+00  0.10566000000E+00 0. -1.
     999900   -1    0    0    0    0 -0.00000000000E+00 -0.00000000000E+00 -0.74505805969E-08  0.93827000000E+00  0.93827000000E+00 0. -1.
     999902    2    1    2    0    0  0.12894807882E-01  0.90323765060E-02  0.17427572162E-01  0.10204442561E+01  0.10201739556E+01 0.  0.
     999903    2    3    3    0    0 -0.11391765790E+00 -0.15067999364E-01 -0.53011064672E-01  0.12824257981E+00  0.20777606055E-01 0.  0.
         14    1    1    2    0    0 -0.12894807882E-01 -0.90323765060E-02 -0.17427572162E-01  0.23485743912E-01  0.00000000000E+00 0.  1.
     999901    1    3    3    0    0  0.12681246578E+00  0.24100375870E-01  0.70438636833E-01  0.89220167628E+00  0.88000000000E+00 0. -1.
        -11    1    4    4    0    0 -0.49060577396E-01 -0.41322175525E-02 -0.11824164695E-01  0.50636819292E-01  0.51100000000E-03 0.  1.
         11    1    4    4    0    0 -0.64857080501E-01 -0.10935781811E-01 -0.41186899977E-01  0.77605760518E-01  0.51100000000E-03 0. -1.
</event>
<event>
 8    1  0.1148488E+005  0.1043930E+01  0.7957747E-01            NaN
         13   -1    0    0    0    0  0.00000000000E+00  0.00000000000E+00  0.74505805969E-08  0.10566000000E+00  0.10566000000E+00 0.  1.
     999900   -1    0    0    0    0 -0.00000000000E+00 -0.00000000000E+00 -0.74505805969E-08  0.93827000000E+00  0.93827000000E+00 0.  1.
     999902    2    1    2    0    0 -0.15725851431E-02  0.15089597324E-01 -0.18030932095E-01  0.10203655462E+01  0.10200934096E+01 0.  0.
     999903    2    3    3    0    0  0.29554208578E-01  0.61920484183E-01 -0.11261403353E+00  0.13351269913E+00  0.20883550350E-01 0.  0.
         14    1    1    2    0    0  0.15725851431E-02 -0.15089597324E-01  0.18030932095E-01  0.23564453815E-01  0.00000000000E+00 0.  1.
     999901    1    3    3    0    0 -0.31126793721E-01 -0.46830886860E-01  0.94583101434E-01  0.88685284705E+00  0.88000000000E+00 0. -1.
        -11    1    4    4    0    0  0.59338441879E-02  0.22901074872E-01 -0.56102961725E-01  0.60889023415E-01  0.51100000000E-03 0. -1.
         11    1    4    4    0    0  0.23620364390E-01  0.39019409312E-01 -0.56511071804E-01  0.72623675715E-01  0.51100000000E-03 0.  1.
</event>
<event>
 8    1  0.1264496E+005  0.1043930E+01  0.7957747E-01            NaN
         13   -1    0    0    0    0  0.00000000000E+00  0.00000000000E+00  0.74505805969E-08  0.10566000000E+00  0.10566000000E+00 0.  1.
     999900   -1    0    0    0    0 -0.00000000000E+00 -0.00000000000E+00 -0.74505805969E-08  0.93827000000E+00  0.93827000000E+00 0.  1.
     999902    2    1    2    0    0  0.45658439527E-02 -0.10281883661E-01 -0.21574375516E-01  0.10195985853E+01  0.10193082249E+01 0.  0.
     999903    2    3    3    0    0 -0.38911081289E-01  0.84899469976E-01  0.83897697767E-01  0.12714461374E+00  0.20123043066E-01 0.  0.
         14    1    1    2    0    0 -0.45658439527E-02  0.10281883661E-01  0.21574375516E-01  0.24331414704E-01  0.00000000000E+00 0.  1.
     999901    1    3    3    0    0  0.43476925242E-01 -0.95181353637E-01 -0.10547207328E+00  0.89245397156E+00  0.88000000000E+00 0.  1.
        -11    1    4    4    0    0 -0.17867424258E-01  0.49331608379E-01  0.58729394914E-01  0.78754399133E-01  0.51100000000E-03 0.  1.
         11    1    4    4    0    0 -0.21043657031E-01  0.35567861597E-01  0.25168302853E-01  0.48390214603E-01  0.51100000000E-03 0. -1.
</event>
<event>
 8    1  0.1148488E+005  0.1043930E+01  0.7957747E-01            NaN
         13   -1    0    0    0    0  0.00000000000E+00  0.00000000000E+00  0.74505805969E-08  0.10566000000E+00  0.10566000000E+00 0. -1.
     999900   -1    0    0    0    0 -0.00000000000E+00 -0.00000000000E+00 -0.74505805969E-08  0.93827000000E+00  0.93827000000E+00 0. -1.
     999902    2    1    2    0    0 -0.10597539800E-01  0.38081203181E-02  0.20610196551E-01  0.10204440503E+01  0.10201737450E+01 0.  0.
     999903    2    3    3    0    0 -0.40947426421E-01 -0.72639150622E-02  0.12264386488E+00  0.13395965957E+00  0.34266844136E-01 0.  0.
         14    1    1    2    0    0  0.10597539800E-01 -0.38081203181E-02 -0.20610196551E-01  0.23485949673E-01  0.00000000000E+00 0.  1.
     999901    1    3    3    0    0  0.30349886621E-01  0.11072035380E-01 -0.10203366833E+00  0.88648439076E+00  0.88000000000E+00 0. -1.
        -11    1    4    4    0    0 -0.41886855804E-01 -0.56901949607E-02  0.73585751588E-01  0.84864662643E-01  0.51100000000E-03 0.  1.
         11    1    4    4    0    0  0.93942938268E-03 -0.15737201014E-02  0.49058113291E-01  0.49094996926E-01  0.51100000000E-03 0. -1.
</event>
<event>
 8    1  0.1148488E+005  0.1043930E+01  0.7957747E-01            NaN
         13   -1    0    0    0    0  0.00000000000E+00  0.00000000000E+00  0.74505805969E-08  0.10566000000E+00  0.10566000000E+00 0.  1.
     999900   -1    0    0    0    0 -0.00000000000E+00 -0.00000000000E+00 -0.74505805969E-08  0.93827000000E+00  0.93827000000E+00 0. -1.
     999902    2    1    2    0    0 -0.24610246606E-02 -0.57990314217E-02  0.14595075957E-01  0.10280334076E+01  0.10279104949E+01 0.  0.
     999903    2    3    3    0    0  0.31785010537E-01 -0.75262352390E-01 -0.10712434639E+00  0.13628593120E+00  0.20579622738E-01 0.  0.
         14    1    1    2    0    0  0.24610246606E-02  0.57990314217E-02 -0.14595075957E-01  0.15896592402E-01  0.00000000000E+00 0. -1.
     999901    1    3    3    0    0 -0.34246035198E-01  0.69463320968E-01  0.12171942234E+00  0.89174747640E+00  0.88000000000E+00 0. -1.
        -11    1    4    4    0    0  0.12410369662E-01 -0.10483312073E-01 -0.15924129214E-01  0.22754254973E-01  0.51100000000E-03 0.  1.
         11    1    4    4    0    0  0.19374640876E-01 -0.64779040317E-01 -0.91200217173E-01  0.11353167623E+00  0.51100000000E-03 0. -1.
</event>
<event>
 8    1  0.1148488E+005  0.1043930E+01  0.7957747E-01            NaN
         13   -1    0    0    0    0  0.00000000000E+00  0.00000000000E+00  0.74505805969E-08  0.10566000000E+00  0.10566000000E+00 0. -1.
     999900   -1    0    0    0    0 -0.00000000000E+00 -0.00000000000E+00 -0.74505805969E-08  0.93827000000E+00  0.93827000000E+00 0.  1.
     999902    2    1    2    0    0 -0.18893928946E-01  0.12193179214E-01 -0.39167838756E-02  0.10211046771E+01  0.10208495316E+01 0.  0.
     999903    2    3    3    0    0 -0.64366661526E-01 -0.29769684694E-01  0.10920254172E+00  0.13170902093E+00  0.19818421576E-01 0.  0.
         14    1    1    2    0    0  0.18893928946E-01 -0.12193179214E-01  0.39167838756E-02  0.22825322918E-01  0.00000000000E+00 0. -1.
     999901    1    3    3    0    0  0.45472732580E-01  0.41962863908E-01 -0.11311932560E+00  0.88939565615E+00  0.88000000000E+00 0.  1.
        -11    1    4    4    0    0 -0.47606071636E-01 -0.30282822362E-01  0.77806343984E-01  0.96111787373E-01  0.51100000000E-03 0. -1.
         11    1    4    4    0    0 -0.16760589890E-01  0.51313766849E-03  0.31396197737E-01  0.35597233559E-01  0.51100000000E-03 0.  1.
</event>
<event>
 8    1  0.1148488E+005  0.1043930E+01  0.7957747E-01            NaN
         13   -1    0    0    0    0  0.00000000000E+00  0.00000000000E+00  0.74505805969E-08  0.10566000000E+00  0.10566000000E+00 0. -1.
     999900   -1    0    0    0    0 -0.00000000000E+00 -0.00000000000E+00 -0.74505805969E-08  0.93827000000E+00  0.93827000000E+00 0. -1.
     999902    2    1    2    0    0 -0.20663277761E-01  0.82346445584E-02  0.79866871418E-02  0.10202959654E+01  0.10200222005E+01 0.  0.
     999903    2    3    3    0    0 -0.66233649644E-01  0.14210992843E-01 -0.11059884005E+00  0.13115317442E+00  0.19498796833E-01 0.  0.
         14    1    1    2    0    0  0.20663277761E-01 -0.82346445584E-02 -0.79866871418E-02  0.23634034576E-01  0.00000000000E+00 0.  1.
     999901    1    3    3    0    0  0.45570371883E-01 -0.59763482850E-02  0.11858552719E+00  0.88914279100E+00  0.88000000000E+00 0.  1.
        -11    1    4    4    0    0 -0.58269157517E-01  0.14207530010E-01 -0.82864501748E-01  0.10229337905E+00  0.51100000000E-03 0. -1.
         11    1    4    4    0    0 -0.79644921265E-02  0.34628336798E-05 -0.27734338302E-01  0.28859795371E-01  0.51100000000E-03 0.  1.
</event>
<event>
 8    1  0.1148488E+005  0.1043930E+01  0.7957747E-01            NaN
         13   -1    0    0    0    0  0.00000000000E+00  0.00000000000E+00  0.74505805969E-08  0.10566000000E+00  0.10566000000E+00 0.  1.
     999900   -1    0    0    0    0 -0.00000000000E+00 -0.00000000000E+00 -0.74505805969E-08  0.93827000000E+00  0.93827000000E+00 0.  1.
     999902    2    1    2    0    0 -0.11680639465E-02  0.21674909309E-01 -0.72614938439E-02  0.10210412394E+01  0.10207846576E+01 0.  0.
     999903    2    3    3    0    0 -0.78597767053E-01 -0.83538010994E-01  0.55794109415E-01  0.12916617722E+00  0.20364440206E-01 0.  0.
         14    1    1    2    0    0  0.11680639465E-02 -0.21674909309E-01  0.72614938439E-02  0.22888760556E-01  0.00000000000E+00 0. -1.
     999901    1    3    3    0    0  0.77429703106E-01  0.10521292030E+00 -0.63055603258E-01  0.89187506223E+00  0.88000000000E+00 0.  1.
        -11    1    4    4    0    0 -0.10854671384E-01 -0.17550869857E-01  0.17768168745E-01  0.27236480410E-01  0.51100000000E-03 0.  1.
         11    1    4    4    0    0 -0.67743095669E-01 -0.65987141137E-01  0.38025940669E-01  0.10192969681E+00  0.51100000000E-03 0. -1.
</event>
<event>
 8    1  0.1148488E+005  0.1043930E+01  0.7957747E-01            NaN
         13   -1    0    0    0    0  0.00000000000E+00  0.00000000000E+00  0.74505805969E-08  0.10566000000E+00  0.10566000000E+00 0. -1.
     999900   -1    0    0    0    0 -0.00000000000E+00 -0.00000000000E+00 -0.74505805969E-08  0.93827000000E+00  0.93827000000E+00 0. -1.
     999902    2    1    2    0    0 -0.15386455907E-01 -0.13309599640E-01 -0.89350738292E-02  0.10217100987E+01  0.10214684537E+01 0.  0.
     999903    2    3    3    0    0 -0.60408214295E-01 -0.11729278280E+00 -0.13917175080E-01  0.13443095301E+00  0.21708157763E-01 0.  0.
         14    1    1    2    0    0  0.15386455907E-01  0.13309599640E-01  0.89350738292E-02  0.22219901267E-01  0.00000000000E+00 0.  1.
     999901    1    3    3    0    0  0.45021758388E-01  0.10398318316E+00  0.49821012513E-02  0.88727914573E+00  0.88000000000E+00 0.  1.
        -11    1    4    4    0    0 -0.50111678888E-02 -0.29222300028E-01 -0.24154400120E-02  0.29751472132E-01  0.51100000000E-03 0. -1.
         11    1    4    4    0    0 -0.55397046406E-01 -0.88070482770E-01 -0.11501735068E-01  0.10467948088E+00  0.51100000000E-03 0.  1.
</event>
<event>
 8    1  0.1148488E+005  0.1043930E+01  0.7957747E-01            NaN
         13   -1    0    0    0    0  0.00000000000E+00  0.00000000000E+00  0.74505805969E-08  0.10566000000E+00  0.10566000000E+00 0. -1.
     999900   -1    0    0    0    0 -0.00000000000E+00 -0.00000000000E+00 -0.74505805969E-08  0.93827000000E+00  0.93827000000E+00 0.  1.
     999902    2    1    2    0    0 -0.15807084240E-01 -0.10248598950E-01 -0.14231475377E-01  0.10203199898E+01  0.10200467876E+01 0.  0.
     999903    2    3    3    0    0 -0.46641442177E-01  0.93547819039E-01 -0.77677260054E-01  0.13141627077E+00  0.17602866792E-01 0.  0.
         14    1    1    2    0    0  0.15807084240E-01  0.10248598950E-01  0.14231475377E-01  0.23610010250E-01  0.00000000000E+00 0. -1.
     999901    1    3    3    0    0  0.30834357937E-01 -0.10379641799E+00  0.63445784678E-01  0.88890371898E+00  0.88000000000E+00 0. -1.
        -11    1    4    4    0    0 -0.11935144218E-01  0.13230056038E-01 -0.78753032927E-02  0.19487523527E-01  0.51100000000E-03 0. -1.
         11    1    4    4    0    0 -0.34706297960E-01  0.80317763001E-01 -0.69801956762E-01  0.11192874725E+00  0.51100000000E-03 0.  1.
</event>
<event>
 8    1  0.1148488E+005  0.1043930E+01  0.7957747E-01            NaN
         13   -1    0    0    0    0  0.00000000000E+00  0.00000000000E+00  0.74505805969E-08  0.10566000000E+00  0.10566000000E+00 0. -1.
     999900   -1    0    0    0    0 -0.00000000000E+00 -0.00000000000E+00 -0.74505805969E-08  0.93827000000E+00  0.93827000000E+00 0.  1.
     999902    2    1    2    0    0  0.20223719766E-01  0.14698466999E-01  0.13022967469E-01  0.10157406145E+01  0.10153493756E+01 0.  0.
     999903    2    3    3    0    0  0.62625951497E-01 -0.81116199608E-01  0.73188648450E-01  0.12748484685E+00  0.19848432543E-01 0.  0.
         14    1    1    2    0    0 -0.20223719766E-01 -0.14698466999E-01 -0.13022967469E-01  0.28189385503E-01  0.00000000000E+00 0.  1.
     999901    1    3    3    0    0 -0.42402231731E-01  0.95814666607E-01 -0.60165680980E-01  0.88825576765E+00  0.88000000000E+00 0.  1.
        -11    1    4    4    0    0  0.10775489185E-01 -0.67884445997E-02  0.15443581788E-01  0.20023972800E-01  0.51100000000E-03 0. -1.
         11    1    4    4    0    0  0.51850462312E-01 -0.74327755009E-01  0.57745066662E-01  0.10746087405E+00  0.51100000000E-03 0.  1.
</event>
<event>
 8    1  0.1148488E+005  0.1043930E+01  0.7957747E-01            NaN
         13   -1    0    0    0    0  0.00000000000E+00  0.00000000000E+00  0.74505805969E-08  0.10566000000E+00  0.10566000000E+00 0. -1.
     999900   -1    0    0    0    0 -0.00000000000E+00 -0.00000000000E+00 -0.74505805969E-08  0.93827000000E+00  0.93827000000E+00 0. -1.
     999902    2    1    2    0    0 -0.23353461188E-01  0.58096703256E-02 -0.14015720380E-01  0.10160808198E+01  0.10156990970E+01 0.  0.
     999903    2    3    3    0    0  0.56985986779E-01  0.10676651121E+00  0.27462049204E-01  0.12570611444E+00  0.20034282033E-01 0.  0.
         14    1    1    2    0    0  0.23353461188E-01 -0.58096703256E-02  0.14015720380E-01  0.27849180177E-01  0.00000000000E+00 0. -1.
     999901    1    3    3    0    0 -0.80339447967E-01 -0.10095684088E+00 -0.41477769584E-01  0.89037470539E+00  0.88000000000E+00 0. -1.
        -11    1    4    4    0    0  0.10717213946E-01  0.82368129959E-02  0.36998573862E-03  0.13531510394E-01  0.51100000000E-03 0. -1.
         11    1    4    4    0    0  0.46268772833E-01  0.98529698209E-01  0.27092063465E-01  0.11217460404E+00  0.51100000000E-03 0.  1.
</event>
<event>
 8    1  0.1148488E+005  0.1043930E+01  0.7957747E-01            NaN
         13   -1    0    0    0    0  0.00000000000E+00  0.00000000000E+00  0.74505805969E-08  0.10566000000E+00  0.10566000000E+00 0. -1.
     999900   -1    0    0    0    0 -0.00000000000E+00 -0.00000000000E+00 -0.74505805969E-08  0.93827000000E+00  0.93827000000E+00 0.  1.
     999902    2    1    2    0    0 -0.81669624567E-02  0.97898177483E-05 -0.22167419531E-01  0.10203059897E+01  0.10200324597E+01 0.  0.
     999903    2    3    3    0    0  0.28775313270E-01 -0.73668598960E-01 -0.10454883082E+00  0.13262365150E+00  0.20087154723E-01 0.  0.
         14    1    1    2    0    0  0.81669624567E-02 -0.97898177483E-05  0.22167419531E-01  0.23624010250E-01  0.00000000000E+00 0. -1.
     999901    1    3    3    0    0 -0.36942275727E-01  0.73678388778E-01  0.82381411292E-01  0.88768233825E+00  0.88000000000E+00 0. -1.
        -11    1    4    4    0    0  0.62668044792E-02 -0.22010449003E-01 -0.45892832118E-01  0.51284947738E-01  0.51100000000E-03 0. -1.
         11    1    4    4    0    0  0.22508508791E-01 -0.51658149957E-01 -0.58655998706E-01  0.81338703765E-01  0.51100000000E-03 0.  1.
</event>
<event>
 8    1  0.1148488E+005  0.1043930E+01  0.7957747E-01            NaN
         13   -1    0    0    0    0  0.00000000000E+00  0.00000000000E+00  0.74505805969E-08  0.10566000000E+00  0.10566000000E+00 0. -1.
     999900   -1    0    0    0    0 -0.00000000000E+00 -0.00000000000E+00 -0.74505805969E-08  0.93827000000E+00  0.93827000000E+00 0. -1.
     999902    2    1    2    0    0  0.19211283809E-01  0.98250258971E-02  0.11080950753E-02  0.10223236946E+01  0.10220953498E+01 0.  0.
     999903    2    3    3    0    0 -0.67838345689E-01 -0.48081184719E-01  0.99893638914E-01  0.13064586548E+00  0.13257511153E-01 0.  0.
         14    1    1    2    0    0 -0.19211283809E-01 -0.98250258971E-02 -0.11080950753E-02  0.21606305426E-01  0.00000000000E+00 0. -1.
     999901    1    3    3    0    0  0.87049629499E-01  0.57906210616E-01 -0.98785543839E-01  0.89167782909E+00  0.88000000000E+00 0. -1.
        -11    1    4    4    0    0 -0.14921707372E-01 -0.16841502269E-01  0.22532078028E-01  0.31847279488E-01  0.51100000000E-03 0. -1.
         11    1    4    4    0    0 -0.52916638317E-01 -0.31239682450E-01  0.77361560886E-01  0.98798585993E-01  0.51100000000E-03 0.  1.
</event>
<event>
 8    1  0.1148488E+005  0.1043930E+01  0.7957747E-01            NaN
         13   -1    0    0    0    0  0.00000000000E+00  0.00000000000E+00  0.74505805969E-08  0.10566000000E+00  0.10566000000E+00 0. -1.
     999900   -1    0    0    0    0 -0.00000000000E+00 -0.00000000000E+00 -0.74505805969E-08  0.93827000000E+00  0.93827000000E+00 0. -1.
     999902    2    1    2    0    0  0.14182225752E-01 -0.60873333597E-02 -0.16244919601E-01  0.10215226671E+01  0.10212768826E+01 0.  0.
     999903    2    3    3    0    0  0.10767423276E+00 -0.66743748366E-01  0.33067787249E-01  0.13312427724E+00  0.24085810972E-01 0.  0.
         14    1    1    2    0    0 -0.14182225752E-01  0.60873333597E-02  0.16244919601E-01  0.22407332897E-01  0.00000000000E+00 0. -1.
     999901    1    3    3    0    0 -0.93492007010E-01  0.60656415007E-01 -0.49312706849E-01  0.88839838986E+00  0.88000000000E+00 0. -1.
        -11    1    4    4    0    0  0.59408639865E-01 -0.50598723148E-01  0.18945198727E-01  0.80304414266E-01  0.51100000000E-03 0. -1.
         11    1    4    4    0    0  0.48265592896E-01 -0.16145025218E-01  0.14122588522E-01  0.52819862973E-01  0.51100000000E-03 0.  1.
</event>
<event>
 8    1  0.1148488E+005  0.1043930E+01  0.7957747E-01            NaN
         13   -1    0    0    0    0  0.00000000000E+00  0.00000000000E+00  0.74505805969E-08  0.10566000000E+00  0.10566000000E+00 0.  1.
     999900   -1    0    0    0    0 -0.00000000000E+00 -0.00000000000E+00 -0.74505805969E-08  0.93827000000E+00  0.93827000000E+00 0.  1.
     999902    2    1    2    0    0 -0.15968942119E-01 -0.10726179350E-01  0.83483408638E-02  0.10229597155E+01  0.10227447515E+01 0.  0.
     999903    2    3    3    0    0 -0.12236005575E+00  0.36062839644E-01 -0.35914608318E-01  0.13421481960E+00  0.21242576686E-01 0.  0.
         14    1    1    2    0    0  0.15968942119E-01  0.10726179350E-01 -0.83483408638E-02  0.20970284476E-01  0.00000000000E+00 0. -1.
     999901    1    3    3    0    0  0.10639111363E+00 -0.46789018993E-01  0.44262949182E-01  0.88874489592E+00  0.88000000000E+00 0.  1.
        -11    1    4    4    0    0 -0.91836598439E-01  0.17794247574E-01 -0.22677156547E-01  0.96255444571E-01  0.51100000000E-03 0.  1.
         11    1    4    4    0    0 -0.30523457309E-01  0.18268592069E-01 -0.13237451771E-01  0.37959375030E-01  0.51100000000E-03 0. -1.
</event>
<event>
 8    1  0.1148488E+005  0.1043930E+01  0.7957747E-01            NaN
         13   -1    0    0    0    0  0.00000000000E+00  0.00000000000E+00  0.74505805969E-08  0.10566000000E+00  0.10566000000E+00 0. -1.
     999900   -1    0    0    0    0 -0.00000000000E+00 -0.00000000000E+00 -0.74505805969E-08  0.93827000000E+00  0.93827000000E+00 0. -1.
     999902    2    1    2    0    0  0.50763464500E-03  0.21788104939E-01 -0.84847630354E-02  0.10205426014E+01  0.10202745860E+01 0.  0.
     999903    2    3    3    0    0 -0.87512395962E-01  0.85140097125E-01  0.46469621507E-01  0.13218401103E+00  0.20147740870E-01 0.  0.
         14    1    1    2    0    0 -0.50763464500E-03 -0.21788104939E-01  0.84847630354E-02  0.23387398606E-01  0.00000000000E+00 0.  1.
     999901    1    3    3    0    0  0.88020030607E-01 -0.63351992186E-01 -0.54954384543E-01  0.88835859037E+00  0.88000000000E+00 0. -1.
        -11    1    4    4    0    0 -0.46377797106E-01  0.31156125183E-01  0.20720796597E-01  0.59592086165E-01  0.51100000000E-03 0. -1.
         11    1    4    4    0    0 -0.41134598856E-01  0.53983971942E-01  0.25748824910E-01  0.72591924860E-01  0.51100000000E-03 0.  1.
</event>
<event>
 8    1  0.1148488E+005  0.1043930E+01  0.7957747E-01            NaN
         13   -1    0    0    0    0  0.00000000000E+00  0.00000000000E+00  0.74505805969E-08  0.10566000000E+00  0.10566000000E+00 0. -1.
     999900   -1    0    0    0    0 -0.00000000000E+00 -0.00000000000E+00 -0.74505805969E-08  0.93827000000E+00  0.93827000000E+00 0. -1.
     999902    2    1    2    0    0 -0.19618676778E-01 -0.17768326527E-01 -0.59595062316E-02  0.10167984387E+01  0.10164363941E+01 0.  0.
     999903    2    3    3    0    0 -0.11872316177E+00 -0.46255434702E-01  0.19981853080E-01  0.13039775703E+00  0.19223584638E-01 0.  0.
         14    1    1    2    0    0  0.19618676778E-01  0.17768326527E-01  0.59595062316E-02  0.27131561337E-01  0.00000000000E+00 0.  1.
     999901    1    3    3    0    0  0.99104484989E-01  0.28487108176E-01 -0.25941359311E-01  0.88640068163E+00  0.88000000000E+00 0.  1.
        -11    1    4    4    0    0 -0.19180218064E-01 -0.74856631713E-02  0.10588179264E-01  0.23157862147E-01  0.51100000000E-03 0.  1.
         11    1    4    4    0    0 -0.99542943703E-01 -0.38769771531E-01  0.93936738163E-02  0.10723989488E+00  0.51100000000E-03 0. -1.
</event>
<event>
 8    1  0.1148488E+005  0.1043930E+01  0.7957747E-01            NaN
         13   -1    0    0    0    0  0.00000000000E+00  0.00000000000E+00  0.74505805969E-08  0.10566000000E+00  0.10566000000E+00 0. -1.
     999900   -1    0    0    0    0 -0.00000000000E+00 -0.00000000000E+00 -0.74505805969E-08  0.93827000000E+00  0.93827000000E+00 0.  1.
     999902    2    1    2    0    0 -0.19438892797E-01  0.27445989632E-02  0.12238333012E-01  0.10207960386E+01  0.10205338663E+01 0.  0.
     999903    2    3    3    0    0 -0.73617045718E-01  0.10874484967E+00 -0.31403152137E-02  0.13264749906E+00  0.18454963513E-01 0.  0.
         14    1    1    2    0    0  0.19438892797E-01 -0.27445989632E-02 -0.12238333012E-01  0.23133961432E-01  0.00000000000E+00 0.  1.
     999901    1    3    3    0    0  0.54178152921E-01 -0.10600025071E+00  0.15378648226E-01  0.88814853951E+00  0.88000000000E+00 0.  1.
        -11    1    4    4    0    0 -0.49948380460E-01  0.72225181059E-01 -0.10730371671E-01  0.88468748645E-01  0.51100000000E-03 0. -1.
         11    1    4    4    0    0 -0.23668665258E-01  0.36519668610E-01  0.75900564576E-02  0.44178750418E-01  0.51100000000E-03 0.  1.
</event>
<event>
 8    1  0.1148488E+005  0.1043930E+01  0.7957747E-01            NaN
         13   -1    0    0    0    0  0.00000000000E+00  0.00000000000E+00  0.74505805969E-08  0.10566000000E+00  0.10566000000E+00 0.  1.
     999900   -1    0    0    0    0 -0.00000000000E+00 -0.00000000000E+00 -0.74505805969E-08  0.93827000000E+00  0.93827000000E+00 0. -1.
     999902    2    1    2    0    0 -0.13909176781E-01 -0.91946826625E-03 -0.18779329285E-01  0.10205425284E+01  0.10202745113E+01 0.  0.
     999903    2    3    3    0    0  0.10799012482E+00 -0.68094208500E-01 -0.95923933833E-02  0.12955639759E+00  0.19853409213E-01 0.  0.
         14    1    1    2    0    0  0.13909176781E-01  0.91946826625E-03  0.18779329285E-01  0.23387471625E-01  0.00000000000E+00 0. -1.
     999901    1    3    3    0    0 -0.12189930160E+00  0.67174740234E-01 -0.91869359019E-02  0.89098613078E+00  0.88000000000E+00 0.  1.
        -11    1    4    4    0    0  0.71616069369E-01 -0.45742319512E-01  0.30314376326E-02  0.85033357698E-01  0.51100000000E-03 0.  1.
         11    1    4    4    0    0  0.36374055447E-01 -0.22351888988E-01 -0.12623831016E-01  0.44523039895E-01  0.51100000000E-03 0. -1.
</event>
<event>
 8    1  0.1148488E+005  0.1043930E+01  0.7957747E-01            NaN
         13   -1    0    0    0    0  0.00000000000E+00  0.00000000000E+00  0.74505805969E-08  0.10566000000E+00  0.10566000000E+00 0. -1.
     999900   -1    0    0    0    0 -0.00000000000E+00 -0.00000000000E+00 -0.74505805969E-08  0.93827000000E+00  0.93827000000E+00 0.  1.
     999902    2    1    2    0    0  0.18463083149E-01  0.43044133775E-02 -0.14287468889E-01  0.10201908934E+01  0.10199146601E+01 0.  0.
     999903    2    3    3    0    0 -0.87599766130E-01 -0.88892966874E-01 -0.25167565978E-01  0.12886970766E+00  0.19957870329E-01 0.  0.
         14    1    1    2    0    0 -0.18463083149E-01 -0.43044133775E-02  0.14287468889E-01  0.23739106579E-01  0.00000000000E+00 0.  1.
     999901    1    3    3    0    0  0.10606284928E+00  0.93197380252E-01  0.10880097089E-01  0.89132118577E+00  0.88000000000E+00 0. -1.
        -11    1    4    4    0    0 -0.72430267161E-01 -0.63932799269E-01 -0.24407618685E-01  0.99647074189E-01  0.51100000000E-03 0.  1.
         11    1    4    4    0    0 -0.15169498969E-01 -0.24960167605E-01 -0.75994729319E-03  0.29222633466E-01  0.51100000000E-03 0. -1.
</event>
<event>
 8    1  0.1237639E+005  0.1043930E+01  0.7957747E-01            NaN
         13   -1    0    0    0    0  0.00000000000E+00  0.00000000000E+00  0.74505805969E-08  0.10566000000E+00  0.10566000000E+00 0. -1.
     999900   -1    0    0    0    0 -0.00000000000E+00 -0.00000000000E+00 -0.74505805969E-08  0.93827000000E+00  0.93827000000E+00 0. -1.
     999902    2    1    2    0    0 -0.31051902339E-02 -0.24238876276E-01  0.99554082508E-03  0.10194727632E+01  0.10191793554E+01 0.  0.
     999903    2    3    3    0    0  0.79558181478E-01 -0.95336315771E-01  0.39680762822E-01  0.13190044204E+00  0.20115822786E-01 0.  0.
         14    1    1    2    0    0  0.31051902339E-02  0.24238876276E-01 -0.99554082508E-03  0.24457236783E-01  0.00000000000E+00 0. -1.
     999901    1    3    3    0    0 -0.82663371711E-01  0.71097439495E-01 -0.38685221997E-01  0.88757232118E+00  0.88000000000E+00 0. -1.
        -11    1    4    4    0    0  0.43221009490E-01 -0.58600640564E-01  0.32460839466E-01  0.79724889186E-01  0.51100000000E-03 0.  1.
         11    1    4    4    0    0  0.36337171987E-01 -0.36735675207E-01  0.72199233563E-02  0.52175552850E-01  0.51100000000E-03 0. -1.
</event>
<event>
 8    1  0.1148488E+005  0.1043930E+01  0.7957747E-01            NaN
         13   -1    0    0    0    0  0.00000000000E+00  0.00000000000E+00  0.74505805969E-08  0.10566000000E+00  0.10566000000E+00 0. -1.
     999900   -1    0    0    0    0 -0.00000000000E+00 -0.00000000000E+00 -0.74505805969E-08  0.93827000000E+00  0.93827000000E+00 0.  1.
     999902    2    1    2    0    0  0.12878876710E-02  0.16612479634E-01 -0.16843372846E-01  0.10202375467E+01  0.10199624108E+01 0.  0.
     999903    2    3    3    0    0 -0.12813608872E+00  0.22375381819E-01 -0.27315321751E-02  0.13064049143E+00  0.11830544742E-01 0.  0.
         14    1    1    2    0    0 -0.12878876710E-02 -0.16612479634E-01  0.16843372846E-01  0.23692453293E-01  0.00000000000E+00 0. -1.
     999901    1    3    3    0    0  0.12942397639E+00 -0.57629021849E-02 -0.14111840671E-01  0.88959705528E+00  0.88000000000E+00 0. -1.
        -11    1    4    4    0    0 -0.82426897825E-01  0.17108800023E-01 -0.67226245925E-02  0.84453296713E-01  0.51100000000E-03 0. -1.
         11    1    4    4    0    0 -0.45709190897E-01  0.52665817957E-02  0.39910924174E-02  0.46187194718E-01  0.51100000000E-03 0.  1.
</event>
<event>
 8    1  0.1148488E+005  0.1043930E+01  0.7957747E-01            NaN
         13   -1    0    0    0    0  0.00000000000E+00  0.00000000000E+00  0.74505805969E-08  0.10566000000E+00  0.10566000000E+00 0.  1.
     999900   -1    0    0    0    0 -0.00000000000E+00 -0.00000000000E+00 -0.74505805969E-08  0.93827000000E+00  0.93827000000E+00 0. -1.
     999902    2    1    2    0    0  0.33080512008E-02 -0.22795064001E-01  0.37444115468E-02  0.10205937886E+01  0.10203269586E+01 0.  0.
     999903    2    3    3    0    0 -0.10617509076E+00 -0.15628515392E-02 -0.72695626771E-01  0.13026775578E+00  0.20234664375E-01 0.  0.
         14    1    1    2    0    0 -0.33080512008E-02  0.22795064001E-01 -0.37444115468E-02  0.23336211419E-01  0.00000000000E+00 0. -1.
     999901    1    3    3    0    0  0.10948314196E+00 -0.21232212462E-01  0.76440038318E-01  0.89032603280E+00  0.88000000000E+00 0.  1.
        -11    1    4    4    0    0 -0.69966109129E-01  0.20975808987E-02 -0.58407390925E-01  0.91166554766E-01  0.51100000000E-03 0. -1.
         11    1    4    4    0    0 -0.36208981631E-01 -0.36604324379E-02 -0.14288235846E-01  0.39101201017E-01  0.51100000000E-03 0.  1.
</event>
<event>
 8    1  0.1148488E+005  0.1043930E+01  0.7957747E-01            NaN
         13   -1    0    0    0    0  0.00000000000E+00  0.00000000000E+00  0.74505805969E-08  0.10566000000E+00  0.10566000000E+00 0. -1.
     999900   -1    0    0    0    0 -0.00000000000E+00 -0.00000000000E+00 -0.74505805969E-08  0.93827000000E+00  0.93827000000E+00 0.  1.
     999902    2    1    2    0    0 -0.12309619816E-01  0.10277153081E-01 -0.17977319305E-01  0.10198399476E+01  0.10195553875E+01 0.  0.
     999903    2    3    3    0    0 -0.36551971041E-01 -0.62728633637E-01 -0.10820346535E+00  0.13188820684E+00  0.20385806899E-01 0.  0.
         14    1    1    2    0    0  0.12309619816E-01 -0.10277153081E-01  0.17977319305E-01  0.24090052405E-01  0.00000000000E+00 0. -1.
     999901    1    3    3    0    0  0.24242351225E-01  0.73005786718E-01  0.90226146048E-01  0.88795174076E+00  0.88000000000E+00 0. -1.
        -11    1    4    4    0    0 -0.35635337548E-02 -0.24759736129E-01 -0.32978079990E-01  0.41395146899E-01  0.51100000000E-03 0. -1.
         11    1    4    4    0    0 -0.32988437286E-01 -0.37968897508E-01 -0.75225385364E-01  0.90493059937E-01  0.51100000000E-03 0.  1.
</event>
<event>
 8    1  0.1148488E+005  0.1043930E+01  0.7957747E-01            NaN
         13   -1    0    0    0    0  0.00000000000E+00  0.00000000000E+00  0.74505805969E-08  0.10566000000E+00  0.10566000000E+00 0. -1.
     999900   -1    0    0    0    0 -0.00000000000E+00 -0.00000000000E+00 -0.74505805969E-08  0.93827000000E+00  0.93827000000E+00 0. -1.
     999902    2    1    2    0    0  0.18529973568E-01  0.56423035875E-02 -0.74218662372E-02  0.10231868178E+01  0.10229765317E+01 0.  0.
     999903    2    3    3    0    0 -0.43742541021E-01  0.12405613413E+00 -0.93083553950E-03  0.13305096589E+00  0.19958926804E-01 0.  0.
         14    1    1    2    0    0 -0.18529973568E-01 -0.56423035875E-02  0.74218662372E-02  0.20743182220E-01  0.00000000000E+00 0. -1.
     999901    1    3    3    0    0  0.62272514589E-01 -0.11841383054E+00 -0.64910306977E-02  0.89013585189E+00  0.88000000000E+00 0.  1.
        -11    1    4    4    0    0 -0.90222690239E-02  0.55124426303E-01 -0.87957636712E-03  0.55867150359E-01  0.51100000000E-03 0.  1.
         11    1    4    4    0    0 -0.34720271997E-01  0.68931707828E-01 -0.51259172386E-04  0.77183815533E-01  0.51100000000E-03 0. -1.
</event>
<event>
 8    1  0.1148488E+005  0.1043930E+01  0.7957747E-01            NaN
         13   -1    0    0    0    0  0.00000000000E+00  0.00000000000E+00  0.74505805969E-08  0.10566000000E+00  0.10566000000E+00 0.  1.
     999900   -1    0    0    0    0 -0.00000000000E+00 -0.00000000000E+00 -0.74505805969E-08  0.93827000000E+00  0.93827000000E+00 0.  1.
     999902    2    1    2    0    0  0.38202472376E-02 -0.90613468192E-02  0.21630686700E-01  0.10201689204E+01  0.10198921695E+01 0.  0.
     999903    2    3    3    0    0 -0.11348014104E+00  0.53870481033E-01 -0.21401597643E-01  0.12911809498E+00  0.20825055409E-01 0.  0.
         14    1    1    2    0    0 -0.38202472376E-02  0.90613468192E-02 -0.21630686700E-01  0.23761079568E-01  0.00000000000E+00 0. -1.
     999901    1    3    3    0    0  0.11730038827E+00 -0.62931827853E-01  0.43032284343E-01  0.89105082545E+00  0.88000000000E+00 0. -1.
        -11    1    4    4    0    0 -0.69274602005E-01  0.34918019927E-01 -0.23234005748E-01  0.80983447337E-01  0.51100000000E-03 0.  1.
         11    1    4    4    0    0 -0.44205539031E-01  0.18952461106E-01  0.18324081054E-02  0.48134647640E-01  0.51100000000E-03 0. -1.
</event>
<event>
 8    1  0.1148488E+005  0.1043930E+01  0.7957747E-01            NaN
         13   -1    0    0    0    0  0.00000000000E+00  0.00000000000E+00  0.74505805969E-08  0.10566000000E+00  0.10566000000E+00 0.  1.
     999900   -1    0    0    0    0 -0.00000000000E+00 -0.00000000000E+00 -0.74505805969E-08  0.93827000000E+00  0.93827000000E+00 0.  1.
     999902    2    1    2    0    0 -0.58391175968E-03 -0.22233145648E-01 -0.13180366100E-01  0.10180770356E+01  0.10177487286E+01 0.  0.
     999903    2    3    3    0    0  0.98851015258E-01 -0.37103086610E-01 -0.73453944027E-01  0.13030379649E+00  0.20867084951E-01 0.  0.
         14    1    1    2    0    0  0.58391175968E-03  0.22233145648E-01  0.13180366100E-01  0.25852964411E-01  0.00000000000E+00 0.  1.
     999901    1    3    3    0    0 -0.99434927017E-01  0.14869940962E-01  0.60273577927E-01  0.88777323909E+00  0.88000000000E+00 0. -1.
        -11    1    4    4    0    0  0.78724978127E-01 -0.23475238829E-01 -0.64309295648E-01  0.10432955309E+00  0.51100000000E-03 0.  1.
         11    1    4    4    0    0  0.20126037130E-01 -0.13627847781E-01 -0.91446483787E-02  0.25974243409E-01  0.51100000000E-03 0. -1.
</event>
<event>
 7    1  0.1148488E+005  0.1043930E+01  0.7957747E-01            NaN
         13   -1    0    0    0    0  0.00000000000E+00  0.00000000000E+00  0.74505805969E-08  0.10566000000E+00  0.10566000000E+00 0.  1.
     999900   -1    0    0    0    0 -0.00000000000E+00 -0.00000000000E+00 -0.74505805969E-08  0.93827000000E+00  0.93827000000E+00 0.  1.
     999903    2    1    2    0    0 -0.83577745306E-03  0.10214312990E+00 -0.62437889202E-01  0.12130450345E+00  0.19554412280E-01 0.  0.
         14    1    1    2    0    0 -0.90547277854E-03 -0.23827189244E-01  0.30305874300E-01  0.38561649929E-01  0.00000000000E+00 0.  1.
     999901    1    1    2    0    0  0.17412502316E-02 -0.78315940660E-01  0.32132014902E-01  0.88406384662E+00  0.88000000000E+00 0.  1.
        -11    1    3    3    0    0 -0.89061607307E-02  0.39114372059E-01 -0.19454449312E-01  0.44586887305E-01  0.51100000000E-03 0.  1.
         11    1    3    3    0    0  0.80703832777E-02  0.63028757845E-01 -0.42983439890E-01  0.76717616149E-01  0.51100000000E-03 0. -1.
</event>
<event>
 8    1  0.1148488E+005  0.1043930E+01  0.7957747E-01            NaN
         13   -1    0    0    0    0  0.00000000000E+00  0.00000000000E+00  0.74505805969E-08  0.10566000000E+00  0.10566000000E+00 0.  1.
     999900   -1    0    0    0    0 -0.00000000000E+00 -0.00000000000E+00 -0.74505805969E-08  0.93827000000E+00  0.93827000000E+00 0. -1.
     999902    2    1    2    0    0  0.63042646556E-02  0.21168714196E-01  0.90567104741E-02  0.10200577940E+01  0.10197784176E+01 0.  0.
     999903    2    3    3    0    0 -0.12360847612E+00  0.20904993940E-01  0.29140531372E-01  0.13029335912E+00  0.20275964112E-01 0.  0.
         14    1    1    2    0    0 -0.63042646556E-02 -0.21168714196E-01 -0.90567104741E-02  0.23872205976E-01  0.00000000000E+00 0.  1.
     999901    1    3    3    0    0  0.12991274078E+00  0.26372025649E-03 -0.20083820897E-01  0.88976443491E+00  0.88000000000E+00 0. -1.
        -11    1    4    4    0    0 -0.11031483041E+00  0.16828326223E-01  0.31997517928E-01  0.11608900312E+00  0.51100000000E-03 0. -1.
         11    1    4    4    0    0 -0.13293645710E-01  0.40766677172E-02 -0.28569865569E-02  0.14204355991E-01  0.51100000000E-03 0.  1.
</event>
<event>
 8    1  0.1148488E+005  0.1043930E+01  0.7957747E-01            NaN
         13   -1    0    0    0    0  0.00000000000E+00  0.00000000000E+00  0.74505805969E-08  0.10566000000E+00  0.10566000000E+00 0. -1.
     999900   -1    0    0    0    0 -0.00000000000E+00 -0.00000000000E+00 -0.74505805969E-08  0.93827000000E+00  0.93827000000E+00 0. -1.
     999902    2    1    2    0    0  0.62536345298E-02 -0.12864052306E-01  0.18391016423E-01  0.10206314749E+01  0.10203655160E+01 0.  0.
     999903    2    3    3    0    0 -0.72068953200E-01 -0.78017371842E-01 -0.72136754722E-01  0.13014022838E+00  0.21263192029E-01 0.  0.
         14    1    1    2    0    0 -0.62536345298E-02  0.12864052306E-01 -0.18391016423E-01  0.23298525096E-01  0.00000000000E+00 0.  1.
     999901    1    3    3    0    0  0.78322587730E-01  0.65153319536E-01  0.90527771145E-01  0.89049124653E+00  0.88000000000E+00 0.  1.
        -11    1    4    4    0    0 -0.56047814116E-01 -0.54902808158E-01 -0.42305130620E-01  0.89138437324E-01  0.51100000000E-03 0.  1.
         11    1    4    4    0    0 -0.16021139085E-01 -0.23114563684E-01 -0.29831624102E-01  0.41001791052E-01  0.51100000000E-03 0. -1.
</event>
<event>
 8    1  0.1148488E+005  0.1043930E+01  0.7957747E-01            NaN
         13   -1    0    0    0    0  0.00000000000E+00  0.00000000000E+00  0.74505805969E-08  0.10566000000E+00  0.10566000000E+00 0. -1.
     999900   -1    0    0    0    0 -0.00000000000E+00 -0.00000000000E+00 -0.74505805969E-08  0.93827000000E+00  0.93827000000E+00 0. -1.
     999902    2    1    2    0    0  0.13716087830E-01  0.18836401783E-01 -0.12866925209E-02  0.10205934048E+01  0.10203265660E+01 0.  0.
     999903    2    3    3    0    0  0.85812858709E-01 -0.41871662113E-01  0.87056249367E-01  0.13116218837E+00  0.22531007440E-01 0.  0.
         14    1    1    2    0    0 -0.13716087830E-01 -0.18836401783E-01  0.12866925209E-02  0.23336595192E-01  0.00000000000E+00 0. -1.
     999901    1    3    3    0    0 -0.72096770880E-01  0.60708063897E-01 -0.88342941887E-01  0.88943121644E+00  0.88000000000E+00 0. -1.
        -11    1    4    4    0    0  0.27683710523E-01 -0.21790956436E-01  0.42554907854E-01  0.55248664366E-01  0.51100000000E-03 0. -1.
         11    1    4    4    0    0  0.58129148186E-01 -0.20080705677E-01  0.44501341513E-01  0.75913524004E-01  0.51100000000E-03 0.  1.
</event>
<event>
 8    1  0.1148488E+005  0.1043930E+01  0.7957747E-01            NaN
         13   -1    0    0    0    0  0.00000000000E+00  0.00000000000E+00  0.74505805969E-08  0.10566000000E+00  0.10566000000E+00 0. -1.
     999900   -1    0    0    0    0 -0.00000000000E+00 -0.00000000000E+00 -0.74505805969E-08  0.93827000000E+00  0.93827000000E+00 0. -1.
     999902    2    1    2    0    0  0.96185898669E-03 -0.35986717109E-03  0.24211658608E-01  0.10196965708E+01  0.10194085724E+01 0.  0.
     999903    2    3    3    0    0  0.50501951730E-01  0.11728243423E+00 -0.11263467584E-01  0.12977948679E+00  0.20254208997E-01 0.  0.
         14    1    1    2    0    0 -0.96185898669E-03  0.35986717109E-03 -0.24211658608E-01  0.24233429176E-01  0.00000000000E+00 0.  1.
     999901    1    3    3    0    0 -0.49540092743E-01 -0.11764230141E+00  0.35475126192E-01  0.88991708403E+00  0.88000000000E+00 0.  1.
        -11    1    4    4    0    0  0.32458734342E-01  0.90990065875E-01 -0.14634379270E-01  0.97709711394E-01  0.51100000000E-03 0. -1.
         11    1    4    4    0    0  0.18043217388E-01  0.26292368359E-01  0.33709116860E-02  0.32069775401E-01  0.51100000000E-03 0.  1.
</event>
<event>
 8    1  0.1148488E+005  0.1043930E+01  0.7957747E-01            NaN
         13   -1    0    0    0    0  0.00000000000E+00  0.00000000000E+00  0.74505805969E-08  0.10566000000E+00  0.10566000000E+00 0. -1.
     999900   -1    0    0    0    0 -0.00000000000E+00 -0.00000000000E+00 -0.74505805969E-08  0.93827000000E+00  0.93827000000E+00 0. -1.
     999902    2    1    2    0    0 -0.71442748177E-03  0.21137378867E-01 -0.11837464103E-01  0.10196931531E+01  0.10194050724E+01 0.  0.
     999903    2    3    3    0    0 -0.49651699012E-01  0.36480947830E-01 -0.11521534648E+00  0.13215877729E+00  0.19880029714E-01 0.  0.
         14    1    1    2    0    0  0.71442748177E-03 -0.21137378867E-01  0.11837464103E-01  0.24236846915E-01  0.00000000000E+00 0. -1.
     999901    1    3    3    0    0  0.48937271530E-01 -0.15343568963E-01  0.10337788237E+00  0.88753437579E+00  0.88000000000E+00 0. -1.
        -11    1    4    4    0    0 -0.24456498223E-01  0.14133048582E-01 -0.72165021104E-01  0.77497837128E-01  0.51100000000E-03 0. -1.
         11    1    4    4    0    0 -0.25195200789E-01  0.22347899248E-01 -0.43050325373E-01  0.54660940162E-01  0.51100000000E-03 0.  1.
</event>
<event>
 8    1  0.1148488E+005  0.1043930E+01  0.7957747E-01            NaN
         13   -1    0    0    0    0  0.00000000000E+00  0.00000000000E+00  0.74505805969E-08  0.10566000000E+00  0.10566000000E+00 0. -1.
     999900   -1    0    0    0    0 -0.00000000000E+00 -0.00000000000E+00 -0.74505805969E-08  0.93827000000E+00  0.93827000000E+00 0. -1.
     999902    2    1    2    0    0  0.70202825805E-02  0.74032128380E-02  0.20784316565E-01  0.10207766041E+01  0.10205139860E+01 0.  0.
     999903    2    3    3    0    0  0.76860325046E-01 -0.18674740990E-01 -0.10036291305E+00  0.12935395322E+00  0.20086696618E-01 0.  0.
         14    1    1    2    0    0 -0.70202825805E-02 -0.74032128380E-02 -0.20784316565E-01  0.23153395926E-01  0.00000000000E+00 0. -1.
     999901    1    3    3    0    0 -0.69840042465E-01  0.26077953828E-01  0.12114722962E+00  0.89142265085E+00  0.88000000000E+00 0.  1.
        -11    1    4    4    0    0  0.71412565600E-01 -0.12743712780E-01 -0.95516790733E-01  0.11994113212E+00  0.51100000000E-03 0.  1.
         11    1    4    4    0    0  0.54477594459E-02 -0.59310282104E-02 -0.48461223178E-02  0.94128211037E-02  0.51100000000E-03 0. -1.
</event>
<event>
 8    1  0.1148488E+005  0.1043930E+01  0.7957747E-01            NaN
         13   -1    0    0    0    0  0.00000000000E+00  0.00000000000E+00  0.74505805969E-08  0.10566000000E+00  0.10566000000E+00 0. -1.
     999900   -1    0    0    0    0 -0.00000000000E+00 -0.00000000000E+00 -0.74505805969E-08  0.93827000000E+00  0.93827000000E+00 0. -1.
     999902    2    1    2    0    0  0.21346805886E-02  0.22627803336E-01  0.60411915458E-02  0.10204125524E+01  0.10201415131E+01 0.  0.
     999903    2    3    3    0    0 -0.59474410013E-01  0.11559762607E+00 -0.19768748343E-01  0.13299764328E+00  0.19938733814E-01 0.  0.
         14    1    1    2    0    0 -0.21346805886E-02 -0.22627803336E-01 -0.60411915458E-02  0.23517447572E-01  0.00000000000E+00 0.  1.
     999901    1    3    3    0    0  0.61609090602E-01 -0.92969822737E-01  0.25809939889E-01  0.88741490915E+00  0.88000000000E+00 0. -1.
        -11    1    4    4    0    0 -0.37457841572E-01  0.82535027014E-01 -0.21788092276E-01  0.93220720151E-01  0.51100000000E-03 0.  1.
         11    1    4    4    0    0 -0.22016568441E-01  0.33062599060E-01  0.20193439335E-02  0.39776923127E-01  0.51100000000E-03 0. -1.
</event>
<event>
 8    1  0.1148488E+005  0.1043930E+01  0.7957747E-01            NaN
         13   -1    0    0    0    0  0.00000000000E+00  0.00000000000E+00  0.74505805969E-08  0.10566000000E+00  0.10566000000E+00 0.  1.
     999900   -1    0    0    0    0 -0.00000000000E+00 -0.00000000000E+00 -0.74505805969E-08  0.93827000000E+00  0.93827000000E+00 0. -1.
     999902    2    1    2    0    0  0.17780614076E-02  0.13497842870E-01  0.19314202370E-01  0.10202996873E+01  0.10200260096E+01 0.  0.
     999903    2    3    3    0    0 -0.79838711079E-01  0.90519514310E-01 -0.46098120813E-01  0.13076474846E+00  0.20158879893E-01 0.  0.
         14    1    1    2    0    0 -0.17780614076E-02 -0.13497842870E-01 -0.19314202370E-01  0.23630312687E-01  0.00000000000E+00 0. -1.
     999901    1    3    3    0    0  0.81616772487E-01 -0.77021671440E-01  0.65412323184E-01  0.88953493886E+00  0.88000000000E+00 0. -1.
        -11    1    4    4    0    0 -0.55956112865E-01  0.50158584443E-01 -0.32963643274E-01  0.82059935774E-01  0.51100000000E-03 0.  1.
         11    1    4    4    0    0 -0.23882598214E-01  0.40360929867E-01 -0.13134477539E-01  0.48704812682E-01  0.51100000000E-03 0. -1.
</event>
<event>
 8    1  0.1227349E+005  0.1043930E+01  0.7957747E-01            NaN
         13   -1    0    0    0    0  0.00000000000E+00  0.00000000000E+00  0.74505805969E-08  0.10566000000E+00  0.10566000000E+00 0.  1.
     999900   -1    0    0    0    0 -0.00000000000E+00 -0.00000000000E+00 -0.74505805969E-08  0.93827000000E+00  0.93827000000E+00 0. -1.
     999902    2    1    2    0    0  0.20967380943E-03 -0.11372342461E-01 -0.20208903773E-01  0.10207400468E+01  0.10204765893E+01 0.  0.
     999903    2    3    3    0    0 -0.31848777050E-01 -0.12678297581E+00  0.29762980045E-02  0.13232296452E+00  0.20303719750E-01 0.  0.
         14    1    1    2    0    0 -0.20967380943E-03  0.11372342461E-01  0.20208903773E-01  0.23189953167E-01  0.00000000000E+00 0.  1.
     999901    1    3    3    0    0  0.32058450859E-01  0.11541063335E+00 -0.23185201778E-01  0.88841708231E+00  0.88000000000E+00 0. -1.
        -11    1    4    4    0    0 -0.11471080986E-01 -0.63781671129E-01  0.10601766498E-01  0.65668453955E-01  0.51100000000E-03 0.  1.
         11    1    4    4    0    0 -0.20377696063E-01 -0.63001304679E-01 -0.76254684934E-02  0.66654510567E-01  0.51100000000E-03 0. -1.
</event>
<event>
 8    1  0.1148488E+005  0.1043930E+01  0.7957747E-01            NaN
         13   -1    0    0    0    0  0.00000000000E+00  0.00000000000E+00  0.74505805969E-08  0.10566000000E+00  0.10566000000E+00 0. -1.
     999900   -1    0    0    0    0 -0.00000000000E+00 -0.00000000000E+00 -0.74505805969E-08  0.93827000000E+00  0.93827000000E+00 0.  1.
     999902    2    1    2    0    0  0.17089352090E-01 -0.16030828278E-02  0.16378409928E-01  0.10202051577E+01  0.10199292601E+01 0.  0.
     999903    2    3    3    0    0 -0.59796854720E-01 -0.87897723347E-03  0.11515103591E+00  0.13134743864E+00  0.20394904558E-01 0.  0.
         14    1    1    2    0    0 -0.17089352090E-01  0.16030828278E-02 -0.16378409928E-01  0.23724842279E-01  0.00000000000E+00 0.  1.
     999901    1    3    3    0    0  0.76886206810E-01 -0.72410559434E-03 -0.98772625977E-01  0.88885771908E+00  0.88000000000E+00 0.  1.
        -11    1    4    4    0    0 -0.43414766483E-01 -0.99282349929E-03  0.61786886054E-01  0.75522897565E-01  0.51100000000E-03 0.  1.
         11    1    4    4    0    0 -0.16382088237E-01  0.11384626581E-03  0.53364149851E-01  0.55824541075E-01  0.51100000000E-03 0. -1.
</event>
<event>
 8    1  0.1148488E+005  0.1043930E+01  0.7957747E-01            NaN
         13   -1    0    0    0    0  0.00000000000E+00  0.00000000000E+00  0.74505805969E-08  0.10566000000E+00  0.10566000000E+00 0. -1.
     999900   -1    0    0    0    0 -0.00000000000E+00 -0.00000000000E+00 -0.74505805969E-08  0.93827000000E+00  0.93827000000E+00 0. -1.
     999902    2    1    2    0    0 -0.11067776730E-01 -0.18951153468E-01 -0.11553686314E-01  0.10191281943E+01  0.10188263575E+01 0.  0.
     999903    2    3    3    0    0  0.99083465969E-01 -0.71019955680E-01  0.38446538180E-01  0.12932794766E+00  0.19652338675E-01 0.  0.
         14    1    1    2    0    0  0.11067776730E-01  0.18951153468E-01  0.11553686314E-01  0.24801805720E-01  0.00000000000E+00 0. -1.
     999901    1    3    3    0    0 -0.11015124270E+00  0.52068802213E-01 -0.50000224494E-01  0.88980024662E+00  0.88000000000E+00 0. -1.
        -11    1    4    4    0    0  0.86269509497E-01 -0.57719277194E-01  0.38893773904E-01  0.11084642528E+00  0.51100000000E-03 0.  1.
         11    1    4    4    0    0  0.12813956472E-01 -0.13300678486E-01 -0.44723572382E-03  0.18481522379E-01  0.51100000000E-03 0. -1.
</event>
<event>
 8    1  0.1148488E+005  0.1043930E+01  0.7957747E-01            NaN
         13   -1    0    0    0    0  0.00000000000E+00  0.00000000000E+00  0.74505805969E-08  0.10566000000E+00  0.10566000000E+00 0. -1.
     999900   -1    0    0    0    0 -0.00000000000E+00 -0.00000000000E+00 -0.74505805969E-08  0.93827000000E+00  0.93827000000E+00 0.  1.
     999902    2    1    2    0    0 -0.56486462178E-02 -0.45741439401E-02  0.23804928399E-01  0.10190401504E+01  0.10187361403E+01 0.  0.
     999903    2    3    3    0    0 -0.43410172726E-01  0.11993446176E+00  0.59430281105E-02  0.12929447142E+00  0.20322956090E-01 0.  0.
         14    1    1    2    0    0  0.56486462178E-02  0.45741439401E-02 -0.23804928399E-01  0.24889849597E-01  0.00000000000E+00 0.  1.
     999901    1    3    3    0    0  0.37761526508E-01 -0.12450860570E+00  0.17861900289E-01  0.88974567898E+00  0.88000000000E+00 0.  1.
        -11    1    4    4    0    0 -0.54817208222E-03  0.24238881064E-01 -0.28815281618E-03  0.24252175179E-01  0.51100000000E-03 0. -1.
         11    1    4    4    0    0 -0.42862000644E-01  0.95695580696E-01  0.62311809267E-02  0.10504229625E+00  0.51100000000E-03 0.  1.
</event>
<event>
 8    1  0.1148488E+005  0.1043930E+01  0.7957747E-01            NaN
         13   -1    0    0    0    0  0.00000000000E+00  0.00000000000E+00  0.74505805969E-08  0.10566000000E+00  0.10566000000E+00 0.  1.
     999900   -1    0    0    0    0 -0.00000000000E+00 -0.00000000000E+00 -0.74505805969E-08  0.93827000000E+00  0.93827000000E+00 0.  1.
     999902    2    1    2    0    0  0.20423123432E-01 -0.40759245049E-02 -0.10055185502E-01  0.10208037403E+01  0.10205417445E+01 0.  0.
     999903    2    3    3    0    0 -0.82941773654E-01  0.96756324607E-01  0.17428322253E-02  0.12895698351E+00  0.19640314755E-01 0.  0.
         14    1    1    2    0    0 -0.20423123432E-01  0.40759245049E-02  0.10055185502E-01  0.23126259679E-01  0.00000000000E+00 0.  1.
     999901    1    3    3    0    0  0.10336489709E+00 -0.10083224911E+00 -0.11798017727E-01  0.89184675681E+00  0.88000000000E+00 0.  1.
        -11    1    4    4    0    0 -0.34330548549E-01  0.50717037058E-01  0.77455051799E-02  0.61733770200E-01  0.51100000000E-03 0. -1.
         11    1    4    4    0    0 -0.48611225104E-01  0.46039287549E-01 -0.60026729546E-02  0.67223213310E-01  0.51100000000E-03 0.  1.
</event>
<event>
 8    1  0.1148488E+005  0.1043930E+01  0.7957747E-01            NaN
         13   -1    0    0    0    0  0.00000000000E+00  0.00000000000E+00  0.74505805969E-08  0.10566000000E+00  0.10566000000E+00 0. -1.
     999900   -1    0    0    0    0 -0.00000000000E+00 -0.00000000000E+00 -0.74505805969E-08  0.93827000000E+00  0.93827000000E+00 0. -1.
     999902    2    1    2    0    0 -0.20616352807E-01 -0.48648107992E-02  0.61701003382E-02  0.10218671234E+01  0.10216289186E+01 0.  0.
     999903    2    3    3    0    0  0.26113170848E-01 -0.85837395848E-01 -0.94180228210E-01  0.13124352366E+00  0.17463988665E-01 0.  0.
         14    1    1    2    0    0  0.20616352807E-01  0.48648107992E-02 -0.61701003382E-02  0.22062876634E-01  0.00000000000E+00 0.  1.
     999901    1    3    3    0    0 -0.46729523654E-01  0.80972585048E-01  0.10035032855E+00  0.89062359970E+00  0.88000000000E+00 0.  1.
        -11    1    4    4    0    0  0.17070876642E-01 -0.69290592022E-01 -0.82384942846E-01  0.10899605911E+00  0.51100000000E-03 0. -1.
         11    1    4    4    0    0  0.90422942056E-02 -0.16546803825E-01 -0.11795285364E-01  0.22247464556E-01  0.51100000000E-03 0.  1.
</event>
<event>
 8    1  0.1148488E+005  0.1043930E+01  0.7957747E-01            NaN
         13   -1    0    0    0    0  0.00000000000E+00  0.00000000000E+00  0.74505805969E-08  0.10566000000E+00  0.10566000000E+00 0. -1.
     999900   -1    0    0    0    0 -0.00000000000E+00 -0.00000000000E+00 -0.74505805969E-08  0.93827000000E+00  0.93827000000E+00 0.  1.
     999902    2    1    2    0    0  0.19871669570E-01  0.12237813115E-01 -0.40352454425E-02  0.10202460281E+01  0.10199710914E+01 0.  0.
     999903    2    3    3    0    0  0.18732546704E-01  0.88064628393E-01  0.93944313011E-01  0.13156667227E+00  0.19441404944E-01 0.  0.
         14    1    1    2    0    0 -0.19871669570E-01 -0.12237813115E-01  0.40352454425E-02  0.23683971945E-01  0.00000000000E+00 0.  1.
     999901    1    3    3    0    0  0.11391228657E-02 -0.75826815278E-01 -0.97979558454E-01  0.88867935578E+00  0.88000000000E+00 0.  1.
        -11    1    4    4    0    0  0.37408584565E-02  0.93961012763E-02  0.20672425885E-01  0.23019362592E-01  0.51100000000E-03 0.  1.
         11    1    4    4    0    0  0.14991688247E-01  0.78668527116E-01  0.73271887127E-01  0.10854730968E+00  0.51100000000E-03 0. -1.
</event>
<event>
 8    1  0.1148488E+005  0.1043930E+01  0.7957747E-01            NaN
         13   -1    0    0    0    0  0.00000000000E+00  0.00000000000E+00  0.74505805969E-08  0.10566000000E+00  0.10566000000E+00 0. -1.
     999900   -1    0    0    0    0 -0.00000000000E+00 -0.00000000000E+00 -0.74505805969E-08  0.93827000000E+00  0.93827000000E+00 0.  1.
     999902    2    1    2    0    0 -0.21582480907E-01 -0.42219397377E-02  0.80839400275E-02  0.10204997131E+01  0.10202307024E+01 0.  0.
     999903    2    3    3    0    0 -0.97319320333E-01 -0.36361080421E-01  0.81622442587E-01  0.13360800351E+00  0.19892138841E-01 0.  0.
         14    1    1    2    0    0  0.21582480907E-01  0.42219397377E-02 -0.80839400275E-02  0.23430286887E-01  0.00000000000E+00 0. -1.
     999901    1    3    3    0    0  0.75736839427E-01  0.32139140684E-01 -0.73538502559E-01  0.88689170961E+00  0.88000000000E+00 0. -1.
        -11    1    4    4    0    0 -0.60625150805E-01 -0.27133186659E-01  0.40832654313E-01  0.77969131762E-01  0.51100000000E-03 0.  1.
         11    1    4    4    0    0 -0.36694169528E-01 -0.92278937622E-02  0.40789788274E-01  0.55638871745E-01  0.51100000000E-03 0. -1.
</event>
<event>
 8    1  0.1148488E+005  0.1043930E+01  0.7957747E-01            NaN
         13   -1    0    0    0    0  0.00000000000E+00  0.00000000000E+00  0.74505805969E-08  0.10566000000E+00  0.10566000000E+00 0.  1.
     999900   -1    0    0    0    0 -0.00000000000E+00 -0.00000000000E+00 -0.74505805969E-08  0.93827000000E+00  0.93827000000E+00 0.  1.
     999902    2    1    2    0    0 -0.19322070448E-01 -0.10307226465E-01 -0.82944610431E-02  0.10205124978E+01  0.10202437840E+01 0.  0.
     999903    2    3    3    0    0 -0.72922565136E-01 -0.26615259741E-01 -0.10667407518E+00  0.13325970778E+00  0.18780810540E-01 0.  0.
         14    1    1    2    0    0  0.19322070448E-01  0.10307226465E-01  0.82944610431E-02  0.23417502168E-01  0.00000000000E+00 0.  1.
     999901    1    3    3    0    0  0.53600494688E-01  0.16308033276E-01  0.98379614137E-01  0.88725279005E+00  0.88000000000E+00 0. -1.
        -11    1    4    4    0    0 -0.21246033086E-01 -0.30141460004E-02 -0.18340315942E-01  0.28233088883E-01  0.51100000000E-03 0. -1.
         11    1    4    4    0    0 -0.51676532049E-01 -0.23601113740E-01 -0.88333759238E-01  0.10502661890E+00  0.51100000000E-03 0.  1.
</event>
<event>
 8    1  0.1148488E+005  0.1043930E+01  0.7957747E-01            NaN
         13   -1    0    0    0    0  0.00000000000E+00  0.00000000000E+00  0.74505805969E-08  0.10566000000E+00  0.10566000000E+00 0.  1.
     999900   -1    0    0    0    0 -0.00000000000E+00 -0.00000000000E+00 -0.74505805969E-08  0.93827000000E+00  0.93827000000E+00 0. -1.
     999902    2    1    2    0    0  0.18765624262E-01  0.31979605777E-02  0.10977757518E-01  0.10219553153E+01  0.10217190317E+01 0.  0.
     999903    2    3    3    0    0 -0.46796913867E-01  0.81850103891E-01  0.90694811877E-01  0.13243892156E+00  0.20618641742E-01 0.  0.
         14    1    1    2    0    0 -0.18765624262E-01 -0.31979605777E-02 -0.10977757518E-01  0.21974684660E-01  0.00000000000E+00 0.  1.
     999901    1    3    3    0    0  0.65562538129E-01 -0.78652143313E-01 -0.79717054359E-01  0.88951639378E+00  0.88000000000E+00 0. -1.
        -11    1    4    4    0    0 -0.45405504813E-01  0.70848768595E-01  0.86192105273E-01  0.12045973606E+00  0.51100000000E-03 0.  1.
         11    1    4    4    0    0 -0.13914090544E-02  0.11001335296E-01  0.45027066034E-02  0.11979185499E-01  0.51100000000E-03 0. -1.
</event>
<event>
 8    1  0.1148488E+005  0.1043930E+01  0.7957747E-01            NaN
         13   -1    0    0    0    0  0.00000000000E+00  0.00000000000E+00  0.74505805969E-08  0.10566000000E+00  0.10566000000E+00 0. -1.
     999900   -1    0    0    0    0 -0.00000000000E+00 -0.00000000000E+00 -0.74505805969E-08  0.93827000000E+00  0.93827000000E+00 0. -1.
     999902    2    1    2    0    0 -0.21673456713E-01 -0.64314991850E-02  0.12988905928E-01  0.10178567458E+01  0.10175227469E+01 0.  0.
     999903    2    3    3    0    0  0.90204714094E-02  0.11129252662E+00  0.59929073143E-01  0.12824759410E+00  0.19711828889E-01 0.  0.
         14    1    1    2    0    0  0.21673456713E-01  0.64314991850E-02 -0.12988905928E-01  0.26073254206E-01  0.00000000000E+00 0.  1.
     999901    1    3    3    0    0 -0.30693928123E-01 -0.11772402581E+00 -0.46940167215E-01  0.88960915169E+00  0.88000000000E+00 0. -1.
        -11    1    4    4    0    0 -0.38769321896E-02  0.18957745871E-01  0.16326940974E-01  0.25323049861E-01  0.51100000000E-03 0.  1.
         11    1    4    4    0    0  0.12897403599E-01  0.92334780753E-01  0.43602132170E-01  0.10292454424E+00  0.51100000000E-03 0. -1.
</event>
<event>
 8    1  0.1148488E+005  0.1043930E+01  0.7957747E-01            NaN
         13   -1    0    0    0    0  0.00000000000E+00  0.00000000000E+00  0.74505805969E-08  0.10566000000E+00  0.10566000000E+00 0. -1.
     999900   -1    0    0    0    0 -0.00000000000E+00 -0.00000000000E+00 -0.74505805969E-08  0.93827000000E+00  0.93827000000E+00 0. -1.
     999902    2    1    2    0    0  0.21663438174E-01  0.14456857746E-01  0.11809359408E-01  0.10153333873E+01  0.10149305991E+01 0.  0.
     999903    2    3    3    0    0  0.73528232378E-02  0.11341563529E+00 -0.53043876228E-01  0.12729984314E+00  0.21781343361E-01 0.  0.
         14    1    1    2    0    0 -0.21663438174E-01 -0.14456857746E-01 -0.11809359408E-01  0.28596612720E-01  0.00000000000E+00 0.  1.
     999901    1    3    3    0    0  0.14310614936E-01 -0.98958777547E-01  0.64853235636E-01  0.88803354414E+00  0.88000000000E+00 0.  1.
        -11    1    4    4    0    0  0.87828604351E-02  0.71493201808E-01 -0.22695714163E-01  0.75523328214E-01  0.51100000000E-03 0.  1.
         11    1    4    4    0    0 -0.14300371973E-02  0.41922433485E-01 -0.30348162065E-01  0.51776514921E-01  0.51100000000E-03 0. -1.
</event>
<event>
 8    1  0.1148488E+005  0.1043930E+01  0.7957747E-01            NaN
         13   -1    0    0    0    0  0.00000000000E+00  0.00000000000E+00  0.74505805969E-08  0.10566000000E+00  0.10566000000E+00 0.  1.
     999900   -1    0    0    0    0 -0.00000000000E+00 -0.00000000000E+00 -0.74505805969E-08  0.93827000000E+00  0.93827000000E+00 0.  1.
     999902    2    1    2    0    0  0.14745166976E-02  0.84104140851E-02  0.14450664139E-01  0.10271451569E+01  0.10270080050E+01 0.  0.
     999903    2    3    3    0    0  0.39424585022E-02  0.38890999370E-01  0.13179068244E+00  0.13882998943E+00  0.19414663974E-01 0.  0.
         14    1    1    2    0    0 -0.14745166976E-02 -0.84104140851E-02 -0.14450664139E-01  0.16784843122E-01  0.00000000000E+00 0. -1.
     999901    1    3    3    0    0 -0.24679418046E-02 -0.30480585285E-01 -0.11734001830E+00  0.88831516744E+00  0.88000000000E+00 0.  1.
        -11    1    4    4    0    0  0.62902505480E-02  0.20833413988E-01  0.43071104081E-01  0.48259501842E-01  0.51100000000E-03 0.  1.
         11    1    4    4    0    0 -0.23477920458E-02  0.18057585381E-01  0.88719578359E-01  0.90570487591E-01  0.51100000000E-03 0. -1.
</event>
<event>
 8    1  0.1148488E+005  0.1043930E+01  0.7957747E-01            NaN
         13   -1    0    0    0    0  0.00000000000E+00  0.00000000000E+00  0.74505805969E-08  0.10566000000E+00  0.10566000000E+00 0.  1.
     999900   -1    0    0    0    0 -0.00000000000E+00 -0.00000000000E+00 -0.74505805969E-08  0.93827000000E+00  0.93827000000E+00 0. -1.
     999902    2    1    2    0    0  0.12811306339E-01  0.17456587716E-01 -0.69014399987E-02  0.10212035419E+01  0.10209506266E+01 0.  0.
     999903    2    3    3    0    0  0.92947978382E-02  0.11832278060E+00 -0.58705760788E-01  0.13392115033E+00  0.20045809518E-01 0.  0.
         14    1    1    2    0    0 -0.12811306339E-01 -0.17456587716E-01  0.69014399987E-02  0.22726458124E-01  0.00000000000E+00 0. -1.
     999901    1    3    3    0    0  0.35165085008E-02 -0.10086619289E+00  0.51804320789E-01  0.88728239155E+00  0.88000000000E+00 0. -1.
        -11    1    4    4    0    0  0.83510394565E-02  0.51915696094E-01 -0.36014548110E-01  0.63736082069E-01  0.51100000000E-03 0.  1.
         11    1    4    4    0    0  0.94375838165E-03  0.66407084508E-01 -0.22691212678E-01  0.70185068259E-01  0.51100000000E-03 0. -1.
</event>
<event>
 8    1  0.1148488E+005  0.1043930E+01  0.7957747E-01            NaN
         13   -1    0    0    0    0  0.00000000000E+00  0.00000000000E+00  0.74505805969E-08  0.10566000000E+00  0.10566000000E+00 0.  1.
     999900   -1    0    0    0    0 -0.00000000000E+00 -0.00000000000E+00 -0.74505805969E-08  0.93827000000E+00  0.93827000000E+00 0.  1.
     999902    2    1    2    0    0 -0.15645670446E-01  0.16739283701E-01  0.19434386340E-01  0.10138852668E+01  0.10134400072E+01 0.  0.
     999903    2    3    3    0    0  0.31322981024E-01  0.43810768098E-01  0.11345295740E+00  0.12721824291E+00  0.20307516958E-01 0.  0.
         14    1    1    2    0    0  0.15645670446E-01 -0.16739283701E-01 -0.19434386340E-01  0.30044733231E-01  0.00000000000E+00 0. -1.
     999901    1    3    3    0    0 -0.46968651470E-01 -0.27071484397E-01 -0.94018571063E-01  0.88666702386E+00  0.88000000000E+00 0.  1.
        -11    1    4    4    0    0  0.25962113487E-01  0.30514839631E-01  0.62141285320E-01  0.73939077873E-01  0.51100000000E-03 0.  1.
         11    1    4    4    0    0  0.53608675371E-02  0.13295928467E-01  0.51311672082E-01  0.53279165040E-01  0.51100000000E-03 0. -1.
</event>
<event>
 8    1  0.1148488E+005  0.1043930E+01  0.7957747E-01            NaN
         13   -1    0    0    0    0  0.00000000000E+00  0.00000000000E+00  0.74505805969E-08  0.10566000000E+00  0.10566000000E+00 0.  1.
     999900   -1    0    0    0    0 -0.00000000000E+00 -0.00000000000E+00 -0.74505805969E-08  0.93827000000E+00  0.93827000000E+00 0. -1.
     999902    2    1    2    0    0 -0.62226770010E-04 -0.73636973867E-02 -0.20517019816E-01  0.10221314676E+01  0.10218989975E+01 0.  0.
     999903    2    3    3    0    0 -0.29807835581E-01 -0.19836626684E-01 -0.12856458196E+00  0.13493664636E+00  0.19926062684E-01 0.  0.
         14    1    1    2    0    0  0.62226770010E-04  0.73636973867E-02  0.20517019816E-01  0.21798532370E-01  0.00000000000E+00 0.  1.
     999901    1    3    3    0    0  0.29745608811E-01  0.12472929297E-01  0.10804756215E+00  0.88719482127E+00  0.88000000000E+00 0.  1.
        -11    1    4    4    0    0 -0.16515712902E-01 -0.68624301186E-02 -0.32575930815E-01  0.37166034349E-01  0.51100000000E-03 0. -1.
         11    1    4    4    0    0 -0.13292122679E-01 -0.12974196566E-01 -0.95988651148E-01  0.97770612007E-01  0.51100000000E-03 0.  1.
</event>
<event>
 8    1  0.1148488E+005  0.1043930E+01  0.7957747E-01            NaN
         13   -1    0    0    0    0  0.00000000000E+00  0.00000000000E+00  0.74505805969E-08  0.10566000000E+00  0.10566000000E+00 0.  1.
     999900   -1    0    0    0    0 -0.00000000000E+00 -0.00000000000E+00 -0.74505805969E-08  0.93827000000E+00  0.93827000000E+00 0. -1.
     999902    2    1    2    0    0  0.14485850994E-01  0.15704754282E-01 -0.96828997963E-02  0.10204728532E+01  0.10202032182E+01 0.  0.
     999903    2    3    3    0    0 -0.75813075329E-01  0.98222612319E-01  0.36161195988E-01  0.13082979329E+00  0.20334668782E-01 0.  0.
         14    1    1    2    0    0 -0.14485850994E-01 -0.15704754282E-01  0.96828997963E-02  0.23457146769E-01  0.00000000000E+00 0.  1.
     999901    1    3    3    0    0  0.90298926323E-01 -0.82517858037E-01 -0.45844095784E-01  0.88964305994E+00  0.88000000000E+00 0. -1.
        -11    1    4    4    0    0 -0.60790806102E-01  0.73304507390E-01  0.19206983753E-01  0.97150616344E-01  0.51100000000E-03 0.  1.
         11    1    4    4    0    0 -0.15022269227E-01  0.24918104929E-01  0.16954212235E-01  0.33679176942E-01  0.51100000000E-03 0. -1.
</event>
<event>
 8    1  0.1148488E+005  0.1043930E+01  0.7957747E-01            NaN
         13   -1    0    0    0    0  0.00000000000E+00  0.00000000000E+00  0.74505805969E-08  0.10566000000E+00  0.10566000000E+00 0. -1.
     999900   -1    0    0    0    0 -0.00000000000E+00 -0.00000000000E+00 -0.74505805969E-08  0.93827000000E+00  0.93827000000E+00 0.  1.
     999902    2    1    2    0    0  0.20738195833E-01  0.11514780107E-01 -0.51717231027E-02  0.10196522397E+01  0.10193631738E+01 0.  0.
     999903    2    3    3    0    0 -0.68880382629E-02  0.48730028615E-01 -0.11969189612E+00  0.13102236532E+00  0.20460925138E-01 0.  0.
         14    1    1    2    0    0 -0.20738195833E-01 -0.11514780107E-01  0.51717231027E-02  0.24277760341E-01  0.00000000000E+00 0.  1.
     999901    1    3    3    0    0  0.27626234096E-01 -0.37215248508E-01  0.11452017302E+00  0.88862987433E+00  0.88000000000E+00 0. -1.
        -11    1    4    4    0    0  0.59755684741E-02  0.13167278576E-01 -0.22720255521E-01  0.26936142553E-01  0.51100000000E-03 0. -1.
         11    1    4    4    0    0 -0.12863606737E-01  0.35562750039E-01 -0.96971640602E-01  0.10408622277E+00  0.51100000000E-03 0.  1.
</event>
<event>
 8    1  0.1148488E+005  0.1043930E+01  0.7957747E-01            NaN
         13   -1    0    0    0    0  0.00000000000E+00  0.00000000000E+00  0.74505805969E-08  0.10566000000E+00  0.10566000000E+00 0. -1.
     999900   -1    0    0    0    0 -0.00000000000E+00 -0.00000000000E+00 -0.74505805969E-08  0.93827000000E+00  0.93827000000E+00 0. -1.
     999902    2    1    2    0    0  0.12500039463E-03  0.19282412538E-01  0.14364092331E-01  0.10198851626E+01  0.10196016823E+01 0.  0.
     999903    2    3    3    0    0  0.13440525318E-01  0.94977848577E-01 -0.86524495750E-01  0.13079258615E+00  0.20463938685E-01 0.  0.
         14    1    1    2    0    0 -0.12500039463E-03 -0.19282412538E-01 -0.14364092331E-01  0.24044837427E-01  0.00000000000E+00 0.  1.
     999901    1    3    3    0    0 -0.13315524923E-01 -0.75695436039E-01  0.10088858808E+00  0.88909257642E+00  0.88000000000E+00 0.  1.
        -11    1    4    4    0    0 -0.52254658108E-02  0.27848660425E-01 -0.27208057262E-01  0.39286039268E-01  0.51100000000E-03 0. -1.
         11    1    4    4    0    0  0.18665991129E-01  0.67129188153E-01 -0.59316438488E-01  0.91506546885E-01  0.51100000000E-03 0.  1.
</event>
<event>
 8    1  0.1148488E+005  0.1043930E+01  0.7957747E-01            NaN
         13   -1    0    0    0    0  0.00000000000E+00  0.00000000000E+00  0.74505805969E-08  0.10566000000E+00  0.10566000000E+00 0. -1.
     999900   -1    0    0    0    0 -0.00000000000E+00 -0.00000000000E+00 -0.74505805969E-08  0.93827000000E+00  0.93827000000E+00 0.  1.
     999902    2    1    2    0    0  0.30784514820E-02  0.48748871984E-03 -0.23137126256E-01  0.10205838843E+01  0.10203168252E+01 0.  0.
     999903    2    3    3    0    0  0.10023527848E+00  0.75574815127E-01 -0.35298492913E-01  0.13197516584E+00  0.20317407833E-01 0.  0.
         14    1    1    2    0    0 -0.30784514820E-02 -0.48748871984E-03  0.23137126256E-01  0.23346115740E-01  0.00000000000E+00 0. -1.
     999901    1    3    3    0    0 -0.97156827003E-01 -0.75087326407E-01  0.12161366657E-01  0.88860871842E+00  0.88000000000E+00 0.  1.
        -11    1    4    4    0    0  0.35663895984E-01  0.16418787135E-01 -0.15344401577E-01  0.42156871664E-01  0.51100000000E-03 0. -1.
         11    1    4    4    0    0  0.64571382501E-01  0.59156027993E-01 -0.19954091335E-01  0.89818294172E-01  0.51100000000E-03 0.  1.
</event>
<event>
 8    1  0.1148488E+005  0.1043930E+01  0.7957747E-01            NaN
         13   -1    0    0    0    0  0.00000000000E+00  0.00000000000E+00  0.74505805969E-08  0.10566000000E+00  0.10566000000E+00 0.  1.
     999900   -1    0    0    0    0 -0.00000000000E+00 -0.00000000000E+00 -0.74505805969E-08  0.93827000000E+00  0.93827000000E+00 0. -1.
     999902    2    1    2    0    0  0.15162911997E-01 -0.17839274693E-01 -0.36742346168E-02  0.10202307675E+01  0.10199554722E+01 0.  0.
     999903    2    3    3    0    0 -0.52322279390E-01  0.10789575153E+00 -0.40119184799E-01  0.12799101144E+00  0.19825133096E-01 0.  0.
         14    1    1    2    0    0 -0.15162911997E-01  0.17839274693E-01  0.36742346168E-02  0.23699232516E-01  0.00000000000E+00 0.  1.
     999901    1    3    3    0    0  0.67485191387E-01 -0.12573502622E+00  0.36444950182E-01  0.89223975605E+00  0.88000000000E+00 0.  1.
        -11    1    4    4    0    0 -0.45585297342E-02  0.25670698262E-01 -0.12815752506E-01  0.29056317315E-01  0.51100000000E-03 0. -1.
         11    1    4    4    0    0 -0.47763749656E-01  0.82225053263E-01 -0.27303432292E-01  0.98934694123E-01  0.51100000000E-03 0.  1.
</event>
<event>
 8    1  0.1148488E+005  0.1043930E+01  0.7957747E-01            NaN
         13   -1    0    0    0    0  0.00000000000E+00  0.00000000000E+00  0.74505805969E-08  0.10566000000E+00  0.10566000000E+00 0.  1.
     999900   -1    0    0    0    0 -0.00000000000E+00 -0.00000000000E+00 -0.74505805969E-08  0.93827000000E+00  0.93827000000E+00 0.  1.
     999902    2    1    2    0    0 -0.21866675755E-01  0.67186729105E-02  0.56403061336E-02  0.10203693309E+01  0.10200972828E+01 0.  0.
     999903    2    3    3    0    0  0.23520571284E-01 -0.12048727410E+00 -0.35506298868E-01  0.12911493500E+00  0.18427389589E-01 0.  0.
         14    1    1    2    0    0  0.21866675755E-01 -0.67186729105E-02 -0.56403061336E-02  0.23560669081E-01  0.00000000000E+00 0. -1.
     999901    1    3    3    0    0 -0.45387247039E-01  0.12720594701E+00  0.41146605002E-01  0.89125439592E+00  0.88000000000E+00 0. -1.
        -11    1    4    4    0    0 -0.78803882248E-03 -0.37580339231E-01 -0.79018274372E-02  0.38413577024E-01  0.51100000000E-03 0. -1.
         11    1    4    4    0    0  0.24308610107E-01 -0.82906934866E-01 -0.27604471431E-01  0.90701357973E-01  0.51100000000E-03 0.  1.
</event>
<event>
 8    1  0.1148488E+005  0.1043930E+01  0.7957747E-01            NaN
         13   -1    0    0    0    0  0.00000000000E+00  0.00000000000E+00  0.74505805969E-08  0.10566000000E+00  0.10566000000E+00 0. -1.
     999900   -1    0    0    0    0 -0.00000000000E+00 -0.00000000000E+00 -0.74505805969E-08  0.93827000000E+00  0.93827000000E+00 0. -1.
     999902    2    1    2    0    0  0.16690401683E-01  0.15082145878E-01 -0.70265990851E-02  0.10203627828E+01  0.10200905816E+01 0.  0.
     999903    2    3    3    0    0 -0.10547312335E+00  0.17963550661E-01  0.69249985601E-01  0.12865075151E+00  0.17555240170E-01 0.  0.
         14    1    1    2    0    0 -0.16690401683E-01 -0.15082145878E-01  0.70265990851E-02  0.23567217216E-01  0.00000000000E+00 0. -1.
     999901    1    3    3    0    0  0.12216352503E+00 -0.28814047821E-02 -0.76276584686E-01  0.89171203127E+00  0.88000000000E+00 0. -1.
        -11    1    4    4    0    0 -0.49907630544E-01  0.14983503793E-01  0.40607069383E-01  0.66064151984E-01  0.51100000000E-03 0.  1.
         11    1    4    4    0    0 -0.55565492806E-01  0.29800468671E-02  0.28642916218E-01  0.62586599529E-01  0.51100000000E-03 0. -1.
</event>
<event>
 8    1  0.1148488E+005  0.1043930E+01  0.7957747E-01            NaN
         13   -1    0    0    0    0  0.00000000000E+00  0.00000000000E+00  0.74505805969E-08  0.10566000000E+00  0.10566000000E+00 0. -1.
     999900   -1    0    0    0    0 -0.00000000000E+00 -0.00000000000E+00 -0.74505805969E-08  0.93827000000E+00  0.93827000000E+00 0. -1.
     999902    2    1    2    0    0  0.14446381050E-01  0.18642707198E-01 -0.19583436651E-02  0.10202639153E+01  0.10199893986E+01 0.  0.
     999903    2    3    3    0    0 -0.34851641447E-01 -0.12148781087E+00 -0.34189905927E-02  0.12781280141E+00  0.18721581285E-01 0.  0.
         14    1    1    2    0    0 -0.14446381050E-01 -0.18642707198E-01  0.19583436651E-02  0.23666084742E-01  0.00000000000E+00 0. -1.
     999901    1    3    3    0    0  0.49298022497E-01  0.14013051807E+00  0.14606469275E-02  0.89245111385E+00  0.88000000000E+00 0.  1.
        -11    1    4    4    0    0 -0.54851586492E-02 -0.48864805148E-01 -0.52512728055E-02  0.49453949637E-01  0.51100000000E-03 0.  1.
         11    1    4    4    0    0 -0.29366482798E-01 -0.72623005724E-01  0.18322822129E-02  0.78358851775E-01  0.51100000000E-03 0. -1.
</event>
<event>
 8    1  0.1148488E+005  0.1043930E+01  0.7957747E-01            NaN
         13   -1    0    0    0    0  0.00000000000E+00  0.00000000000E+00  0.74505805969E-08  0.10566000000E+00  0.10566000000E+00 0.  1.
     999900   -1    0    0    0    0 -0.00000000000E+00 -0.00000000000E+00 -0.74505805969E-08  0.93827000000E+00  0.93827000000E+00 0. -1.
     999902    2    1    2    0    0  0.24293380645E-01  0.10143159256E-02 -0.17611585614E-02  0.10195517544E+01  0.10192602617E+01 0.  0.
     999903    2    3    3    0    0  0.13933855979E-01 -0.10648338279E+00  0.70360650390E-01  0.13002118700E+00  0.20543241999E-01 0.  0.
         14    1    1    2    0    0 -0.24293380645E-01 -0.10143159256E-02  0.17611585614E-02  0.24378245618E-01  0.00000000000E+00 0.  1.
     999901    1    3    3    0    0  0.10359524666E-01  0.10749769872E+00 -0.72121808952E-01  0.88953056738E+00  0.88000000000E+00 0. -1.
        -11    1    4    4    0    0  0.10313682718E-01 -0.81751244944E-01  0.42953940837E-01  0.92924379231E-01  0.51100000000E-03 0. -1.
         11    1    4    4    0    0  0.36201732606E-02 -0.24732137849E-01  0.27406709553E-01  0.37096807768E-01  0.51100000000E-03 0.  1.
</event>
<event>
 8    1  0.1148488E+005  0.1043930E+01  0.7957747E-01            NaN
         13   -1    0    0    0    0  0.00000000000E+00  0.00000000000E+00  0.74505805969E-08  0.10566000000E+00  0.10566000000E+00 0.  1.
     999900   -1    0    0    0    0 -0.00000000000E+00 -0.00000000000E+00 -0.74505805969E-08  0.93827000000E+00  0.93827000000E+00 0.  1.
     999902    2    1    2    0    0 -0.12188375295E-01  0.26961304407E-01 -0.55865642694E-02  0.10138189036E+01  0.10133716451E+01 0.  0.
     999903    2    3    3    0    0 -0.85004249713E-01  0.57699991549E-02 -0.90993390807E-01  0.12643761630E+00  0.21157936701E-01 0.  0.
         14    1    1    2    0    0  0.12188375295E-01 -0.26961304407E-01  0.55865642694E-02  0.30111096426E-01  0.00000000000E+00 0.  1.
     999901    1    3    3    0    0  0.72815874418E-01  0.21191305252E-01  0.85406826538E-01  0.88738128727E+00  0.88000000000E+00 0. -1.
        -11    1    4    4    0    0 -0.48972495401E-01  0.54946286104E-02 -0.37451724449E-01  0.61898215116E-01  0.51100000000E-03 0.  1.
         11    1    4    4    0    0 -0.36031754312E-01  0.27537054455E-03 -0.53541666358E-01  0.64539401183E-01  0.51100000000E-03 0. -1.
</event>
<event>
 8    1  0.1148488E+005  0.1043930E+01  0.7957747E-01            NaN
         13   -1    0    0    0    0  0.00000000000E+00  0.00000000000E+00  0.74505805969E-08  0.10566000000E+00  0.10566000000E+00 0. -1.
     999900   -1    0    0    0    0 -0.00000000000E+00 -0.00000000000E+00 -0.74505805969E-08  0.93827000000E+00  0.93827000000E+00 0.  1.
     999902    2    1    2    0    0 -0.96099695381E-02 -0.13581552559E-01 -0.16523813943E-01  0.10204811938E+01  0.10202117527E+01 0.  0.
     999903    2    3    3    0    0  0.16398134225E-01 -0.12491251284E+00 -0.37130418813E-01  0.13284633851E+00  0.19936072442E-01 0.  0.
         14    1    1    2    0    0  0.96099695381E-02  0.13581552559E-01  0.16523813943E-01  0.23448806188E-01  0.00000000000E+00 0.  1.
     999901    1    3    3    0    0 -0.26008103763E-01  0.11133096028E+00  0.20606604870E-01  0.88763485530E+00  0.88000000000E+00 0.  1.
        -11    1    4    4    0    0 -0.11069278701E-02 -0.67574678256E-01 -0.20643990546E-01  0.70668224099E-01  0.51100000000E-03 0.  1.
         11    1    4    4    0    0  0.17505062095E-01 -0.57337834586E-01 -0.16486428266E-01  0.62178114413E-01  0.51100000000E-03 0. -1.
</event>
<event>
 8    1  0.1148488E+005  0.1043930E+01  0.7957747E-01            NaN
         13   -1    0    0    0    0  0.00000000000E+00  0.00000000000E+00  0.74505805969E-08  0.10566000000E+00  0.10566000000E+00 0.  1.
     999900   -1    0    0    0    0 -0.00000000000E+00 -0.00000000000E+00 -0.74505805969E-08  0.93827000000E+00  0.93827000000E+00 0.  1.
     999902    2    1    2    0    0 -0.10780055648E-01 -0.58897297462E-02  0.20205131058E-01  0.10202837352E+01  0.10200096836E+01 0.  0.
     999903    2    3    3    0    0 -0.75209290390E-01  0.15228243793E-01  0.10721561008E+00  0.13339709166E+00  0.20279552462E-01 0.  0.
         14    1    1    2    0    0  0.10780055648E-01  0.58897297462E-02 -0.20205131058E-01  0.23646264765E-01  0.00000000000E+00 0. -1.
     999901    1    3    3    0    0  0.64429234742E-01 -0.21117973539E-01 -0.87010479021E-01  0.88688664358E+00  0.88000000000E+00 0.  1.
        -11    1    4    4    0    0 -0.51495850752E-01  0.36345428743E-02  0.58774227584E-01  0.78228533769E-01  0.51100000000E-03 0.  1.
         11    1    4    4    0    0 -0.23713439638E-01  0.11593700918E-01  0.48441382495E-01  0.55168557889E-01  0.51100000000E-03 0. -1.
</event>
<event>
 8    1  0.1148488E+005  0.1043930E+01  0.7957747E-01            NaN
         13   -1    0    0    0    0  0.00000000000E+00  0.00000000000E+00  0.74505805969E-08  0.10566000000E+00  0.10566000000E+00 0.  1.
     999900   -1    0    0    0    0 -0.00000000000E+00 -0.00000000000E+00 -0.74505805969E-08  0.93827000000E+00  0.93827000000E+00 0.  1.
     999902    2    1    2    0    0 -0.11148918285E-01 -0.16678562462E-01  0.10279681478E-01  0.10213879354E+01  0.10211391531E+01 0.  0.
     999903    2    3    3    0    0  0.78284172524E-01  0.74905676333E-01 -0.66887446278E-01  0.12878459902E+00  0.19294311603E-01 0.  0.
         14    1    1    2    0    0  0.11148918285E-01  0.16678562462E-01 -0.10279681478E-01  0.22542064591E-01  0.00000000000E+00 0. -1.
     999901    1    3    3    0    0 -0.89433090809E-01 -0.91584238796E-01  0.77167127756E-01  0.89260333639E+00  0.88000000000E+00 0. -1.
        -11    1    4    4    0    0  0.48407542447E-01  0.57566040063E-01 -0.41435260452E-01  0.85873634277E-01  0.51100000000E-03 0. -1.
         11    1    4    4    0    0  0.29876630078E-01  0.17339636270E-01 -0.25452185826E-01  0.42910964742E-01  0.51100000000E-03 0.  1.
</event>
<event>
 8    1  0.1148488E+005  0.1043930E+01  0.7957747E-01            NaN
         13   -1    0    0    0    0  0.00000000000E+00  0.00000000000E+00  0.74505805969E-08  0.10566000000E+00  0.10566000000E+00 0. -1.
     999900   -1    0    0    0    0 -0.00000000000E+00 -0.00000000000E+00 -0.74505805969E-08  0.93827000000E+00  0.93827000000E+00 0.  1.
     999902    2    1    2    0    0  0.21286787116E-01  0.11241201469E-01  0.26918162991E-02  0.10197073290E+01  0.10194195893E+01 0.  0.
     999903    2    3    3    0    0  0.42374662558E-01 -0.11285476143E+00 -0.43219344278E-01  0.12956557557E+00  0.19685462895E-01 0.  0.
         14    1    1    2    0    0 -0.21286787116E-01 -0.11241201469E-01 -0.26918162991E-02  0.24222671017E-01  0.00000000000E+00 0.  1.
     999901    1    3    3    0    0 -0.21087875442E-01  0.12409596290E+00  0.45911160577E-01  0.89014175341E+00  0.88000000000E+00 0. -1.
        -11    1    4    4    0    0  0.41223225878E-01 -0.87195709407E-01 -0.33690422642E-01  0.10216531598E+00  0.51100000000E-03 0. -1.
         11    1    4    4    0    0  0.11514366805E-02 -0.25659052023E-01 -0.95289216359E-02  0.27400259592E-01  0.51100000000E-03 0.  1.
</event>
<event>
 8    1  0.1148488E+005  0.1043930E+01  0.7957747E-01            NaN
         13   -1    0    0    0    0  0.00000000000E+00  0.00000000000E+00  0.74505805969E-08  0.10566000000E+00  0.10566000000E+00 0.  1.
     999900   -1    0    0    0    0 -0.00000000000E+00 -0.00000000000E+00 -0.74505805969E-08  0.93827000000E+00  0.93827000000E+00 0.  1.
     999902    2    1    2    0    0  0.13684162514E-01 -0.18255213959E-01 -0.37702228182E-02  0.10208059061E+01  0.10205439599E+01 0.  0.
     999903    2    3    3    0    0 -0.15240782725E-02  0.78065377987E-02  0.12724314684E+00  0.13059525205E+00  0.28302589841E-01 0.  0.
         14    1    1    2    0    0 -0.13684162514E-01  0.18255213959E-01  0.37702228182E-02  0.23124093939E-01  0.00000000000E+00 0. -1.
     999901    1    3    3    0    0  0.15208240786E-01 -0.26061751758E-01 -0.13101336966E+00  0.89021065402E+00  0.88000000000E+00 0.  1.
        -11    1    4    4    0    0  0.17723778669E-02 -0.96680941196E-02  0.68918054143E-01  0.69617330278E-01  0.51100000000E-03 0. -1.
         11    1    4    4    0    0 -0.32964561395E-02  0.17474631918E-01  0.58325092699E-01  0.60977921768E-01  0.51100000000E-03 0.  1.
</event>
<event>
 8    1  0.1148488E+005  0.1043930E+01  0.7957747E-01            NaN
         13   -1    0    0    0    0  0.00000000000E+00  0.00000000000E+00  0.74505805969E-08  0.10566000000E+00  0.10566000000E+00 0. -1.
     999900   -1    0    0    0    0 -0.00000000000E+00 -0.00000000000E+00 -0.74505805969E-08  0.93827000000E+00  0.93827000000E+00 0.  1.
     999902    2    1    2    0    0  0.99307668920E-03  0.67196610655E-03 -0.23859515453E-01  0.10200403743E+01  0.10197605851E+01 0.  0.
     999903    2    3    3    0    0 -0.67881152077E-01 -0.10486980529E+00  0.27926083827E-01  0.12955484761E+00  0.19976624166E-01 0.  0.
         14    1    1    2    0    0 -0.99307668920E-03 -0.67196610655E-03  0.23859515453E-01  0.23889625728E-01  0.00000000000E+00 0. -1.
     999901    1    3    3    0    0  0.68874228767E-01  0.10554177140E+00 -0.51785599280E-01  0.89048552666E+00  0.88000000000E+00 0.  1.
        -11    1    4    4    0    0 -0.18384509165E-01 -0.21242398983E-01 -0.11440251655E-02  0.28121159407E-01  0.51100000000E-03 0.  1.
         11    1    4    4    0    0 -0.49496642912E-01 -0.83627406307E-01  0.29070108992E-01  0.10143368821E+00  0.51100000000E-03 0. -1.
</event>
<event>
 8    1  0.1148488E+005  0.1043930E+01  0.7957747E-01            NaN
         13   -1    0    0    0    0  0.00000000000E+00  0.00000000000E+00  0.74505805969E-08  0.10566000000E+00  0.10566000000E+00 0.  1.
     999900   -1    0    0    0    0 -0.00000000000E+00 -0.00000000000E+00 -0.74505805969E-08  0.93827000000E+00  0.93827000000E+00 0.  1.
     999902    2    1    2    0    0 -0.24482831294E-01  0.19785601120E-02  0.19974845075E-02  0.10192862650E+01  0.10189883103E+01 0.  0.
     999903    2    3    3    0    0 -0.64141887501E-01  0.96880053625E-01  0.57353751549E-01  0.13156815071E+00  0.22821019751E-01 0.  0.
         14    1    1    2    0    0  0.24482831294E-01 -0.19785601120E-02 -0.19974845075E-02  0.24643734957E-01  0.00000000000E+00 0.  1.
     999901    1    3    3    0    0  0.39659056207E-01 -0.94901493513E-01 -0.55356267041E-01  0.88771811433E+00  0.88000000000E+00 0.  1.
        -11    1    4    4    0    0 -0.20967320145E-01  0.40530016657E-01  0.33739808526E-01  0.56753383729E-01  0.51100000000E-03 0. -1.
         11    1    4    4    0    0 -0.43174567356E-01  0.56350036968E-01  0.23613943022E-01  0.74814766983E-01  0.51100000000E-03 0.  1.
</event>
<event>
 8    1  0.1148488E+005  0.1043930E+01  0.7957747E-01            NaN
         13   -1    0    0    0    0  0.00000000000E+00  0.00000000000E+00  0.74505805969E-08  0.10566000000E+00  0.10566000000E+00 0. -1.
     999900   -1    0    0    0    0 -0.00000000000E+00 -0.00000000000E+00 -0.74505805969E-08  0.93827000000E+00  0.93827000000E+00 0.  1.
     999902    2    1    2    0    0 -0.14128878954E-02  0.75507650662E-02 -0.22252708579E-01  0.10203886886E+01  0.10201170925E+01 0.  0.
     999903    2    3    3    0    0 -0.23320174617E-01  0.12809027351E+00 -0.23243953741E-02  0.13167791447E+00  0.19563272554E-01 0.  0.
         14    1    1    2    0    0  0.14128878954E-02 -0.75507650662E-02  0.22252708579E-01  0.23541311442E-01  0.00000000000E+00 0. -1.
     999901    1    3    3    0    0  0.21907286721E-01 -0.12053950845E+00 -0.19928313205E-01  0.88871077409E+00  0.88000000000E+00 0.  1.
        -11    1    4    4    0    0 -0.84224680185E-02  0.64642225614E-01 -0.10360536034E-01  0.66008765537E-01  0.51100000000E-03 0. -1.
         11    1    4    4    0    0 -0.14897706598E-01  0.63448047900E-01  0.80361406597E-02  0.65669148936E-01  0.51100000000E-03 0.  1.
</event>
<event>
 8    1  0.1148488E+005  0.1043930E+01  0.7957747E-01            NaN
         13   -1    0    0    0    0  0.00000000000E+00  0.00000000000E+00  0.74505805969E-08  0.10566000000E+00  0.10566000000E+00 0.  1.
     999900   -1    0    0    0    0 -0.00000000000E+00 -0.00000000000E+00 -0.74505805969E-08  0.93827000000E+00  0.93827000000E+00 0. -1.
     999902    2    1    2    0    0 -0.10373017420E-01  0.11310819442E-01 -0.17400906742E-01  0.10207281535E+01  0.10204644225E+01 0.  0.
     999903    2    3    3    0    0 -0.44848070174E-01 -0.11977791158E+00  0.10556888381E-01  0.12991143665E+00  0.20185043451E-01 0.  0.
         14    1    1    2    0    0  0.10373017420E-01 -0.11310819442E-01  0.17400906742E-01  0.23201846528E-01  0.00000000000E+00 0.  1.
     999901    1    3    3    0    0  0.34475052754E-01  0.13108873102E+00 -0.27957795124E-01  0.89081671682E+00  0.88000000000E+00 0. -1.
        -11    1    4    4    0    0 -0.30310803320E-01 -0.61094813198E-01 -0.16944618386E-02  0.68223553994E-01  0.51100000000E-03 0.  1.
         11    1    4    4    0    0 -0.14537266854E-01 -0.58683098382E-01  0.12251350220E-01  0.61687882655E-01  0.51100000000E-03 0. -1.
</event>
<event>
 8    1  0.1148488E+005  0.1043930E+01  0.7957747E-01            NaN
         13   -1    0    0    0    0  0.00000000000E+00  0.00000000000E+00  0.74505805969E-08  0.10566000000E+00  0.10566000000E+00 0.  1.
     999900   -1    0    0    0    0 -0.00000000000E+00 -0.00000000000E+00 -0.74505805969E-08  0.93827000000E+00  0.93827000000E+00 0.  1.
     999902    2    1    2    0    0  0.11958891451E-02  0.86361506032E-02  0.20129815676E-01  0.10219932106E+01  0.10217577501E+01 0.  0.
     999903    2    3    3    0    0  0.10987768562E+00 -0.54416057970E-01  0.46594685354E-01  0.13267453704E+00  0.19931254666E-01 0.  0.
         14    1    1    2    0    0 -0.11958891451E-02 -0.86361506032E-02 -0.20129815676E-01  0.21936789356E-01  0.00000000000E+00 0. -1.
     999901    1    3    3    0    0 -0.10868179648E+00  0.63052208574E-01 -0.26464869678E-01  0.88931867360E+00  0.88000000000E+00 0.  1.
        -11    1    4    4    0    0  0.89714444378E-01 -0.36186682250E-01  0.32507528214E-01  0.10205468149E+00  0.51100000000E-03 0. -1.
         11    1    4    4    0    0  0.20163241247E-01 -0.18229375720E-01  0.14087157140E-01  0.30619855552E-01  0.51100000000E-03 0.  1.
</event>
<event>
 8    1  0.1148488E+005  0.1043930E+01  0.7957747E-01            NaN
         13   -1    0    0    0    0  0.00000000000E+00  0.00000000000E+00  0.74505805969E-08  0.10566000000E+00  0.10566000000E+00 0. -1.
     999900   -1    0    0    0    0 -0.00000000000E+00 -0.00000000000E+00 -0.74505805969E-08  0.93827000000E+00  0.93827000000E+00 0.  1.
     999902    2    1    2    0    0 -0.19602505552E-01  0.11023926430E-01 -0.53425995054E-02  0.10208144523E+01  0.10205527019E+01 0.  0.
     999903    2    3    3    0    0 -0.73997427895E-01  0.48483743613E-01 -0.97988429950E-01  0.13348965526E+00  0.19785422068E-01 0.  0.
         14    1    1    2    0    0  0.19602505552E-01 -0.11023926430E-01  0.53425995054E-02  0.23115547740E-01  0.00000000000E+00 0. -1.
     999901    1    3    3    0    0  0.54394922343E-01 -0.37459817183E-01  0.92645830444E-01  0.88732479700E+00  0.88000000000E+00 0. -1.
        -11    1    4    4    0    0 -0.35935819168E-01  0.14180216952E-01 -0.50862118029E-01  0.63872355707E-01  0.51100000000E-03 0.  1.
         11    1    4    4    0    0 -0.38061608727E-01  0.34303526661E-01 -0.47126311921E-01  0.69617299549E-01  0.51100000000E-03 0. -1.
</event>
<event>
 8    1  0.1148488E+005  0.1043930E+01  0.7957747E-01            NaN
         13   -1    0    0    0    0  0.00000000000E+00  0.00000000000E+00  0.74505805969E-08  0.10566000000E+00  0.10566000000E+00 0.  1.
     999900   -1    0    0    0    0 -0.00000000000E+00 -0.00000000000E+00 -0.74505805969E-08  0.93827000000E+00  0.93827000000E+00 0.  1.
     999902    2    1    2    0    0 -0.12303408052E-01  0.61823225875E-02 -0.17201802763E-01  0.10218960040E+01  0.10216584292E+01 0.  0.
     999903    2    3    3    0    0 -0.78927643973E-01 -0.75985836870E-02 -0.10707682276E+00  0.13470593336E+00  0.19822488574E-01 0.  0.
         14    1    1    2    0    0  0.12303408052E-01 -0.61823225875E-02  0.17201802763E-01  0.22033996019E-01  0.00000000000E+00 0. -1.
     999901    1    3    3    0    0  0.66624235921E-01  0.13780906275E-01  0.89875019994E-01  0.88719007062E+00  0.88000000000E+00 0. -1.
        -11    1    4    4    0    0 -0.51921036482E-01  0.41727626335E-02 -0.64071908174E-01  0.82575277871E-01  0.51100000000E-03 0.  1.
         11    1    4    4    0    0 -0.27006607491E-01 -0.11771346321E-01 -0.43004914583E-01  0.52130655489E-01  0.51100000000E-03 0. -1.
</event>
<event>
 8    1  0.1148488E+005  0.1043930E+01  0.7957747E-01            NaN
         13   -1    0    0    0    0  0.00000000000E+00  0.00000000000E+00  0.74505805969E-08  0.10566000000E+00  0.10566000000E+00 0. -1.
     999900   -1    0    0    0    0 -0.00000000000E+00 -0.00000000000E+00 -0.74505805969E-08  0.93827000000E+00  0.93827000000E+00 0.  1.
     999902    2    1    2    0    0  0.10171057076E-01 -0.11604987012E-01 -0.17698068281E-01  0.10204492047E+01  0.10201790194E+01 0.  0.
     999903    2    3    3    0    0 -0.74270358588E-01  0.44209073193E-02  0.10228363106E+00  0.12815845047E+00  0.20664381328E-01 0.  0.
         14    1    1    2    0    0 -0.10171057076E-01  0.11604987012E-01  0.17698068281E-01  0.23480795269E-01  0.00000000000E+00 0. -1.
     999901    1    3    3    0    0  0.84441415665E-01 -0.16025894331E-01 -0.11998169935E+00  0.89229075426E+00  0.88000000000E+00 0.  1.
        -11    1    4    4    0    0 -0.57536259930E-01 -0.41582514678E-02  0.69120390605E-01  0.90031115624E-01  0.51100000000E-03 0. -1.
         11    1    4    4    0    0 -0.16734098658E-01  0.85791587871E-02  0.33163240459E-01  0.38127334842E-01  0.51100000000E-03 0.  1.
</event>
<event>
 8    1  0.1148488E+005  0.1043930E+01  0.7957747E-01            NaN
         13   -1    0    0    0    0  0.00000000000E+00  0.00000000000E+00  0.74505805969E-08  0.10566000000E+00  0.10566000000E+00 0. -1.
     999900   -1    0    0    0    0 -0.00000000000E+00 -0.00000000000E+00 -0.74505805969E-08  0.93827000000E+00  0.93827000000E+00 0. -1.
     999902    2    1    2    0    0 -0.44688924970E-03  0.17008593302E-01 -0.23919624852E-01  0.10145762880E+01  0.10141515684E+01 0.  0.
     999903    2    3    3    0    0  0.98595744302E-02 -0.34844845842E-01 -0.12112201555E+00  0.12764714363E+00  0.17660015188E-01 0.  0.
         14    1    1    2    0    0  0.44688924970E-03 -0.17008593302E-01  0.23919624852E-01  0.29353712017E-01  0.00000000000E+00 0. -1.
     999901    1    3    3    0    0 -0.10306463680E-01  0.51853439144E-01  0.97202390698E-01  0.88692914435E+00  0.88000000000E+00 0.  1.
        -11    1    4    4    0    0  0.12657274325E-01 -0.13945879560E-01 -0.65680015647E-01  0.68328762073E-01  0.51100000000E-03 0. -1.
         11    1    4    4    0    0 -0.27976998944E-02 -0.20898966282E-01 -0.55441999903E-01  0.59318381558E-01  0.51100000000E-03 0.  1.
</event>
<event>
 8    1  0.1148488E+005  0.1043930E+01  0.7957747E-01            NaN
         13   -1    0    0    0    0  0.00000000000E+00  0.00000000000E+00  0.74505805969E-08  0.10566000000E+00  0.10566000000E+00 0. -1.
     999900   -1    0    0    0    0 -0.00000000000E+00 -0.00000000000E+00 -0.74505805969E-08  0.93827000000E+00  0.93827000000E+00 0.  1.
     999902    2    1    2    0    0  0.17572776164E-01 -0.14022663873E-01  0.71601243492E-02  0.10203354043E+01  0.10200625630E+01 0.  0.
     999903    2    3    3    0    0 -0.93961934723E-01 -0.81519100537E-01  0.33187765497E-01  0.13035046131E+00  0.20386418421E-01 0.  0.
         14    1    1    2    0    0 -0.17572776164E-01  0.14022663873E-01 -0.71601243492E-02  0.23594595671E-01  0.00000000000E+00 0.  1.
     999901    1    3    3    0    0  0.11153471089E+00  0.67496436664E-01 -0.26027641148E-01  0.88998494302E+00  0.88000000000E+00 0.  1.
        -11    1    4    4    0    0 -0.42393731461E-01 -0.49643666220E-01  0.14090227481E-01  0.66787107247E-01  0.51100000000E-03 0. -1.
         11    1    4    4    0    0 -0.51568203262E-01 -0.31875434316E-01  0.19097538017E-01  0.63563354064E-01  0.51100000000E-03 0.  1.
</event>
<event>
 8    1  0.1148488E+005  0.1043930E+01  0.7957747E-01            NaN
         13   -1    0    0    0    0  0.00000000000E+00  0.00000000000E+00  0.74505805969E-08  0.10566000000E+00  0.10566000000E+00 0.  1.
     999900   -1    0    0    0    0 -0.00000000000E+00 -0.00000000000E+00 -0.74505805969E-08  0.93827000000E+00  0.93827000000E+00 0. -1.
     999902    2    1    2    0    0 -0.21478070569E-01  0.72672309993E-02 -0.54798016900E-02  0.10206030116E+01  0.10203363950E+01 0.  0.
     999903    2    3    3    0    0  0.80570889934E-01  0.11291265300E-01 -0.98961019246E-01  0.12977815718E+00  0.20734651546E-01 0.  0.
         14    1    1    2    0    0  0.21478070569E-01 -0.72672309993E-02  0.54798016900E-02  0.23326988411E-01  0.00000000000E+00 0.  1.
     999901    1    3    3    0    0 -0.10204896050E+00 -0.40240343006E-02  0.93481217556E-01  0.89082485441E+00  0.88000000000E+00 0.  1.
        -11    1    4    4    0    0  0.50445300747E-01  0.51742985073E-05 -0.48822483534E-01  0.70204162367E-01  0.51100000000E-03 0.  1.
         11    1    4    4    0    0  0.30125589187E-01  0.11286091001E-01 -0.50138535712E-01  0.59573994816E-01  0.51100000000E-03 0. -1.
</event>
<event>
 8    1  0.1148488E+005  0.1043930E+01  0.7957747E-01            NaN
         13   -1    0    0    0    0  0.00000000000E+00  0.00000000000E+00  0.74505805969E-08  0.10566000000E+00  0.10566000000E+00 0.  1.
     999900   -1    0    0    0    0 -0.00000000000E+00 -0.00000000000E+00 -0.74505805969E-08  0.93827000000E+00  0.93827000000E+00 0. -1.
     999902    2    1    2    0    0 -0.20038889157E-01  0.68506007187E-02  0.10757704910E-01  0.10201767681E+01  0.10199002021E+01 0.  0.
     999903    2    3    3    0    0  0.78179680755E-01 -0.99602461098E-01 -0.49640274537E-02  0.12819789243E+00  0.19425378122E-01 0.  0.
         14    1    1    2    0    0  0.20038889157E-01 -0.68506007187E-02 -0.10757704910E-01  0.23753231859E-01  0.00000000000E+00 0. -1.
     999901    1    3    3    0    0 -0.98218569912E-01  0.10645306182E+00  0.15721732363E-01  0.89197887571E+00  0.88000000000E+00 0.  1.
        -11    1    4    4    0    0  0.58732929062E-01 -0.79495026052E-01  0.37017648718E-02  0.98908949581E-01  0.51100000000E-03 0.  1.
         11    1    4    4    0    0  0.19446751693E-01 -0.20107435046E-01 -0.86657923254E-02  0.29288942849E-01  0.51100000000E-03 0. -1.
</event>
<event>
 8    1  0.1148488E+005  0.1043930E+01  0.7957747E-01            NaN
         13   -1    0    0    0    0  0.00000000000E+00  0.00000000000E+00  0.74505805969E-08  0.10566000000E+00  0.10566000000E+00 0. -1.
     999900   -1    0    0    0    0 -0.00000000000E+00 -0.00000000000E+00 -0.74505805969E-08  0.93827000000E+00  0.93827000000E+00 0. -1.
     999902    2    1    2    0    0  0.22182424187E-03 -0.19250332915E-01 -0.11936037868E-01  0.10212784322E+01  0.10210271997E+01 0.  0.
     999903    2    3    3    0    0  0.74068961821E-01  0.56541170495E-01  0.87430377482E-01  0.12938637808E+00  0.20338359333E-01 0.  0.
         14    1    1    2    0    0 -0.22182424187E-03  0.19250332915E-01  0.11936037868E-01  0.22651567790E-01  0.00000000000E+00 0. -1.
     999901    1    3    3    0    0 -0.73847137579E-01 -0.75791503410E-01 -0.99366415350E-01  0.89189205413E+00  0.88000000000E+00 0. -1.
        -11    1    4    4    0    0  0.15142532945E-01  0.13582864794E-01  0.88738669952E-02  0.22199035034E-01  0.51100000000E-03 0.  1.
         11    1    4    4    0    0  0.58926428876E-01  0.42958305700E-01  0.78556510487E-01  0.10718734305E+00  0.51100000000E-03 0. -1.
</event>
<event>
 8    1  0.1148488E+005  0.1043930E+01  0.7957747E-01            NaN
         13   -1    0    0    0    0  0.00000000000E+00  0.00000000000E+00  0.74505805969E-08  0.10566000000E+00  0.10566000000E+00 0. -1.
     999900   -1    0    0    0    0 -0.00000000000E+00 -0.00000000000E+00 -0.74505805969E-08  0.93827000000E+00  0.93827000000E+00 0. -1.
     999902    2    1    2    0    0 -0.15181440269E-01  0.81946414287E-02 -0.16896013472E-01  0.10197824629E+01  0.10194965268E+01 0.  0.
     999903    2    3    3    0    0 -0.12940211799E+00  0.31700602483E-02 -0.15640465169E-01  0.13238560352E+00  0.22942677375E-01 0.  0.
         14    1    1    2    0    0  0.15181440269E-01 -0.81946414287E-02  0.16896013472E-01  0.24147537101E-01  0.00000000000E+00 0. -1.
     999901    1    3    3    0    0  0.11422067773E+00  0.50245811804E-02 -0.12555483026E-02  0.88739685938E+00  0.88000000000E+00 0. -1.
        -11    1    4    4    0    0 -0.12915150694E+00  0.46662405622E-02 -0.16915494567E-01  0.13033909860E+00  0.51100000000E-03 0.  1.
         11    1    4    4    0    0 -0.25061105510E-03 -0.14961803139E-02  0.12750293978E-02  0.20465049225E-02  0.51100000000E-03 0. -1.
</event>
<event>
 8    1  0.1148488E+005  0.1043930E+01  0.7957747E-01            NaN
         13   -1    0    0    0    0  0.00000000000E+00  0.00000000000E+00  0.74505805969E-08  0.10566000000E+00  0.10566000000E+00 0.  1.
     999900   -1    0    0    0    0 -0.00000000000E+00 -0.00000000000E+00 -0.74505805969E-08  0.93827000000E+00  0.93827000000E+00 0. -1.
     999902    2    1    2    0    0  0.31330172447E-03  0.13198903126E-01  0.20923325686E-01  0.10191894511E+01  0.10188891218E+01 0.  0.
     999903    2    3    3    0    0 -0.63260916352E-01  0.88725030509E-01 -0.66716411171E-01  0.12934305953E+00  0.20111512963E-01 0.  0.
         14    1    1    2    0    0 -0.31330172447E-03 -0.13198903126E-01 -0.20923325686E-01  0.24740548891E-01  0.00000000000E+00 0. -1.
     999901    1    3    3    0    0  0.63574218076E-01 -0.75526127384E-01  0.87639736856E-01  0.88984639157E+00  0.88000000000E+00 0.  1.
        -11    1    4    4    0    0 -0.97053771744E-02  0.27409631045E-01 -0.13359175879E-01  0.32003295476E-01  0.51100000000E-03 0. -1.
         11    1    4    4    0    0 -0.53555539178E-01  0.61315399464E-01 -0.53357235292E-01  0.97339764059E-01  0.51100000000E-03 0.  1.
</event>
<event>
 8    1  0.1148488E+005  0.1043930E+01  0.7957747E-01            NaN
         13   -1    0    0    0    0  0.00000000000E+00  0.00000000000E+00  0.74505805969E-08  0.10566000000E+00  0.10566000000E+00 0. -1.
     999900   -1    0    0    0    0 -0.00000000000E+00 -0.00000000000E+00 -0.74505805969E-08  0.93827000000E+00  0.93827000000E+00 0. -1.
     999902    2    1    2    0    0 -0.85724465163E-02  0.23545456492E-01  0.28491167035E-02  0.10187111018E+01  0.10183988983E+01 0.  0.
     999903    2    3    3    0    0 -0.11669626766E+00 -0.38491448754E-01 -0.35445068457E-01  0.12910119688E+00  0.17639604421E-01 0.  0.
         14    1    1    2    0    0  0.85724465163E-02 -0.23545456492E-01 -0.28491167035E-02  0.25218898205E-01  0.00000000000E+00 0.  1.
     999901    1    3    3    0    0  0.10812382114E+00  0.62036905246E-01  0.38294185161E-01  0.88960990492E+00  0.88000000000E+00 0.  1.
        -11    1    4    4    0    0 -0.46619883158E-01 -0.22759964424E-01 -0.95486829698E-02  0.52752895216E-01  0.51100000000E-03 0. -1.
         11    1    4    4    0    0 -0.70076384502E-01 -0.15731484329E-01 -0.25896385487E-01  0.76348301661E-01  0.51100000000E-03 0.  1.
</event>
<event>
 8    1  0.1148488E+005  0.1043930E+01  0.7957747E-01            NaN
         13   -1    0    0    0    0  0.00000000000E+00  0.00000000000E+00  0.74505805969E-08  0.10566000000E+00  0.10566000000E+00 0. -1.
     999900   -1    0    0    0    0 -0.00000000000E+00 -0.00000000000E+00 -0.74505805969E-08  0.93827000000E+00  0.93827000000E+00 0.  1.
     999902    2    1    2    0    0  0.25646300039E-02  0.17946435171E-01 -0.87438036766E-02  0.10238027556E+01  0.10236048928E+01 0.  0.
     999903    2    3    3    0    0  0.30622995985E-01  0.13031454421E+00  0.12896267281E-01  0.13595020229E+00  0.19912194172E-01 0.  0.
         14    1    1    2    0    0 -0.25646300039E-02 -0.17946435171E-01  0.87438036766E-02  0.20127244350E-01  0.00000000000E+00 0. -1.
     999901    1    3    3    0    0 -0.28058365981E-01 -0.11236810904E+00 -0.21640070958E-01  0.88785255336E+00  0.88000000000E+00 0.  1.
        -11    1    4    4    0    0  0.20227680709E-01  0.44425297307E-01  0.41933247654E-02  0.48996032505E-01  0.51100000000E-03 0.  1.
         11    1    4    4    0    0  0.10395315276E-01  0.85889246907E-01  0.87029425156E-02  0.86954169787E-01  0.51100000000E-03 0. -1.
</event>
<event>
 8    1  0.1148488E+005  0.1043930E+01  0.7957747E-01            NaN
         13   -1    0    0    0    0  0.00000000000E+00  0.00000000000E+00  0.74505805969E-08  0.10566000000E+00  0.10566000000E+00 0.  1.
     999900   -1    0    0    0    0 -0.00000000000E+00 -0.00000000000E+00 -0.74505805969E-08  0.93827000000E+00  0.93827000000E+00 0.  1.
     999902    2    1    2    0    0  0.65576187856E-02 -0.23936764513E-01 -0.18057201114E-02  0.10190456337E+01  0.10187417592E+01 0.  0.
     999903    2    3    3    0    0 -0.11577993142E+00 -0.28638474850E-01  0.45599744535E-01  0.12930642455E+00  0.20387740638E-01 0.  0.
         14    1    1    2    0    0 -0.65576187856E-02  0.23936764513E-01  0.18057201114E-02  0.24884366269E-01  0.00000000000E+00 0.  1.
     999901    1    3    3    0    0  0.12233755020E+00  0.47017103369E-02 -0.47405464647E-01  0.88973920918E+00  0.88000000000E+00 0.  1.
        -11    1    4    4    0    0 -0.87778789860E-01 -0.14607762637E-01  0.27551336837E-01  0.93154924513E-01  0.51100000000E-03 0.  1.
         11    1    4    4    0    0 -0.28001141558E-01 -0.14030712212E-01  0.18048407698E-01  0.36151500040E-01  0.51100000000E-03 0. -1.
</event>
<event>
 8    1  0.1148488E+005  0.1043930E+01  0.7957747E-01            NaN
         13   -1    0    0    0    0  0.00000000000E+00  0.00000000000E+00  0.74505805969E-08  0.10566000000E+00  0.10566000000E+00 0.  1.
     999900   -1    0    0    0    0 -0.00000000000E+00 -0.00000000000E+00 -0.74505805969E-08  0.93827000000E+00  0.93827000000E+00 0.  1.
     999902    2    1    2    0    0  0.16204781596E-01 -0.19017278299E-01  0.48211317202E-02  0.10184840744E+01  0.10181661527E+01 0.  0.
     999903    2    3    3    0    0  0.90769341726E-01  0.33838939015E-01  0.84330768314E-01  0.13018489298E+00  0.21266891743E-01 0.  0.
         14    1    1    2    0    0 -0.16204781596E-01  0.19017278299E-01 -0.48211317202E-02  0.25445925637E-01  0.00000000000E+00 0.  1.
     999901    1    3    3    0    0 -0.74564560130E-01 -0.52856217314E-01 -0.79509636594E-01  0.88829918138E+00  0.88000000000E+00 0. -1.
        -11    1    4    4    0    0  0.68392062179E-01  0.32038460903E-01  0.72974133598E-01  0.10502105713E+00  0.51100000000E-03 0. -1.
         11    1    4    4    0    0  0.22377279547E-01  0.18004781125E-02  0.11356634716E-01  0.25163835845E-01  0.51100000000E-03 0.  1.
</event>
<event>
 8    1  0.1148488E+005  0.1043930E+01  0.7957747E-01            NaN
         13   -1    0    0    0    0  0.00000000000E+00  0.00000000000E+00  0.74505805969E-08  0.10566000000E+00  0.10566000000E+00 0.  1.
     999900   -1    0    0    0    0 -0.00000000000E+00 -0.00000000000E+00 -0.74505805969E-08  0.93827000000E+00  0.93827000000E+00 0.  1.
     999902    2    1    2    0    0 -0.95851713120E-02  0.19632260572E-02 -0.21590677180E-01  0.10202258420E+01  0.10199504309E+01 0.  0.
     999903    2    3    3    0    0 -0.69111608310E-01 -0.49114802027E-01 -0.10077615741E+00  0.13319557085E+00  0.19913513244E-01 0.  0.
         14    1    1    2    0    0  0.95851713120E-02 -0.19632260572E-02  0.21590677180E-01  0.23704158005E-01  0.00000000000E+00 0.  1.
     999901    1    3    3    0    0  0.59526436998E-01  0.51078028084E-01  0.79185480229E-01  0.88703027115E+00  0.88000000000E+00 0. -1.
        -11    1    4    4    0    0 -0.53829934526E-01 -0.27783599108E-01 -0.65386902373E-01  0.89136403076E-01  0.51100000000E-03 0. -1.
         11    1    4    4    0    0 -0.15281673784E-01 -0.21331202919E-01 -0.35389255036E-01  0.44059167771E-01  0.51100000000E-03 0.  1.
</event>
<event>
 8    1  0.1148488E+005  0.1043930E+01  0.7957747E-01            NaN
         13   -1    0    0    0    0  0.00000000000E+00  0.00000000000E+00  0.74505805969E-08  0.10566000000E+00  0.10566000000E+00 0. -1.
     999900   -1    0    0    0    0 -0.00000000000E+00 -0.00000000000E+00 -0.74505805969E-08  0.93827000000E+00  0.93827000000E+00 0. -1.
     999902    2    1    2    0    0  0.13030658529E-01  0.52465303556E-02  0.19817697132E-01  0.10196387410E+01  0.10193493498E+01 0.  0.
     999903    2    3    3    0    0 -0.78870386704E-01 -0.91378654535E-01 -0.36398299374E-01  0.12781899090E+00  0.21030022199E-01 0.  0.
         14    1    1    2    0    0 -0.13030658529E-01 -0.52465303556E-02 -0.19817697132E-01  0.24291258965E-01  0.00000000000E+00 0.  1.
     999901    1    3    3    0    0  0.91901045233E-01  0.96625184890E-01  0.56215996507E-01  0.89181975014E+00  0.88000000000E+00 0.  1.
        -11    1    4    4    0    0 -0.17939969084E-01 -0.34851825019E-01 -0.15186070729E-01  0.42040100655E-01  0.51100000000E-03 0.  1.
         11    1    4    4    0    0 -0.60930417620E-01 -0.56526829516E-01 -0.21212228645E-01  0.85778890244E-01  0.51100000000E-03 0. -1.
</event>
<event>
 8    1  0.1148488E+005  0.1043930E+01  0.7957747E-01            NaN
         13   -1    0    0    0    0  0.00000000000E+00  0.00000000000E+00  0.74505805969E-08  0.10566000000E+00  0.10566000000E+00 0. -1.
     999900   -1    0    0    0    0 -0.00000000000E+00 -0.00000000000E+00 -0.74505805969E-08  0.93827000000E+00  0.93827000000E+00 0.  1.
     999902    2    1    2    0    0 -0.20795953599E-01  0.22523799393E-02 -0.11122852464E-01  0.10202390155E+01  0.10199639140E+01 0.  0.
     999903    2    3    3    0    0  0.69661055902E-01  0.91892073665E-01 -0.56372208584E-01  0.12992151620E+00  0.20123582169E-01 0.  0.
         14    1    1    2    0    0  0.20795953599E-01 -0.22523799393E-02  0.11122852464E-01  0.23690984539E-01  0.00000000000E+00 0.  1.
     999901    1    3    3    0    0 -0.90457009502E-01 -0.89639693726E-01  0.45249356120E-01  0.89031749926E+00  0.88000000000E+00 0.  1.
        -11    1    4    4    0    0  0.14533190883E-01  0.28721063519E-01 -0.81883050304E-02  0.33217805273E-01  0.51100000000E-03 0.  1.
         11    1    4    4    0    0  0.55127865019E-01  0.63171010147E-01 -0.48183903554E-01  0.96703710928E-01  0.51100000000E-03 0. -1.
</event>
<event>
 8    1  0.1148488E+005  0.1043930E+01  0.7957747E-01            NaN
         13   -1    0    0    0    0  0.00000000000E+00  0.00000000000E+00  0.74505805969E-08  0.10566000000E+00  0.10566000000E+00 0. -1.
     999900   -1    0    0    0    0 -0.00000000000E+00 -0.00000000000E+00 -0.74505805969E-08  0.93827000000E+00  0.93827000000E+00 0.  1.
     999902    2    1    2    0    0  0.24958882111E-01 -0.11907439395E-01  0.24431476372E-01  0.10070297297E+01  0.10063534402E+01 0.  0.
     999903    2    3    3    0    0  0.81759918323E-01  0.75856795782E-01  0.41370941088E-01  0.12067998828E+00  0.20326512071E-01 0.  0.
         14    1    1    2    0    0 -0.24958882111E-01  0.11907439395E-01 -0.24431476372E-01  0.36900270282E-01  0.00000000000E+00 0.  1.
     999901    1    3    3    0    0 -0.56801036212E-01 -0.87764235178E-01 -0.16939464716E-01  0.88634974144E+00  0.88000000000E+00 0. -1.
        -11    1    4    4    0    0  0.59735825869E-01  0.62075156448E-01  0.39059378542E-01  0.94591702138E-01  0.51100000000E-03 0.  1.
         11    1    4    4    0    0  0.22024092454E-01  0.13781639335E-01  0.23115625462E-02  0.26088286137E-01  0.51100000000E-03 0. -1.
</event>
<event>
 8    1  0.1148488E+005  0.1043930E+01  0.7957747E-01            NaN
         13   -1    0    0    0    0  0.00000000000E+00  0.00000000000E+00  0.74505805969E-08  0.10566000000E+00  0.10566000000E+00 0.  1.
     999900   -1    0    0    0    0 -0.00000000000E+00 -0.00000000000E+00 -0.74505805969E-08  0.93827000000E+00  0.93827000000E+00 0.  1.
     999902    2    1    2    0    0  0.15440516075E-01  0.13895866565E-01 -0.10161690531E-01  0.10208050222E+01  0.10205430558E+01 0.  0.
     999903    2    3    3    0    0  0.26519900356E-01  0.20169457823E-01  0.12397797811E+00  0.13054912560E+00  0.23715459014E-01 0.  0.
         14    1    1    2    0    0 -0.15440516075E-01 -0.13895866565E-01  0.10161690531E-01  0.23124977810E-01  0.00000000000E+00 0.  1.
     999901    1    3    3    0    0 -0.11079384281E-01 -0.62735912576E-02 -0.13413966864E+00  0.89025589659E+00  0.88000000000E+00 0.  1.
        -11    1    4    4    0    0  0.29127283864E-01  0.16684130467E-01  0.86017640067E-01  0.92336636274E-01  0.51100000000E-03 0. -1.
         11    1    4    4    0    0 -0.26073835077E-02  0.34853273558E-02  0.37960338042E-01  0.38212489330E-01  0.51100000000E-03 0.  1.
</event>
<event>
 8    1  0.1148488E+005  0.1043930E+01  0.7957747E-01            NaN
         13   -1    0    0    0    0  0.00000000000E+00  0.00000000000E+00  0.74505805969E-08  0.10566000000E+00  0.10566000000E+00 0.  1.
     999900   -1    0    0    0    0 -0.00000000000E+00 -0.00000000000E+00 -0.74505805969E-08  0.93827000000E+00  0.93827000000E+00 0.  1.
     999902    2    1    2    0    0  0.77203168659E-02  0.16127590095E-01  0.14968280794E-01  0.10206115120E+01  0.10203450918E+01 0.  0.
     999903    2    3    3    0    0  0.48802146568E-01 -0.23689256259E-01 -0.11539429267E+00  0.12917026401E+00  0.20646645048E-01 0.  0.
         14    1    1    2    0    0 -0.77203168659E-02 -0.16127590095E-01 -0.14968280794E-01  0.23318488045E-01  0.00000000000E+00 0.  1.
     999901    1    3    3    0    0 -0.41081829702E-01  0.39816846354E-01  0.13036257346E+00  0.89144124795E+00  0.88000000000E+00 0. -1.
        -11    1    4    4    0    0  0.25061711028E-01 -0.22037936551E-01 -0.56123011064E-01  0.65297882806E-01  0.51100000000E-03 0.  1.
         11    1    4    4    0    0  0.23740435540E-01 -0.16513197084E-02 -0.59271281602E-01  0.63872381200E-01  0.51100000000E-03 0. -1.
</event>
<event>
 8    1  0.1148488E+005  0.1043930E+01  0.7957747E-01            NaN
         13   -1    0    0    0    0  0.00000000000E+00  0.00000000000E+00  0.74505805969E-08  0.10566000000E+00  0.10566000000E+00 0. -1.
     999900   -1    0    0    0    0 -0.00000000000E+00 -0.00000000000E+00 -0.74505805969E-08  0.93827000000E+00  0.93827000000E+00 0. -1.
     999902    2    1    2    0    0 -0.57546692241E-02 -0.19303498346E-01 -0.10204938245E-01  0.10213494325E+01  0.10210997900E+01 0.  0.
     999903    2    3    3    0    0 -0.12468513943E+00  0.19968278955E-01  0.30898895616E-01  0.13153133059E+00  0.20015819159E-01 0.  0.
         14    1    1    2    0    0  0.57546692241E-02  0.19303498346E-01  0.10204938245E-01  0.22580567550E-01  0.00000000000E+00 0. -1.
     999901    1    3    3    0    0  0.11893047021E+00 -0.39271777302E-01 -0.41103833861E-01  0.88981810186E+00  0.88000000000E+00 0. -1.
        -11    1    4    4    0    0 -0.67803372575E-01  0.20910030809E-01  0.17549412297E-01  0.73094252264E-01  0.51100000000E-03 0. -1.
         11    1    4    4    0    0 -0.56881766859E-01 -0.94175185427E-03  0.13349483319E-01  0.58437078328E-01  0.51100000000E-03 0.  1.
</event>
<event>
 8    1  0.1148488E+005  0.1043930E+01  0.7957747E-01            NaN
         13   -1    0    0    0    0  0.00000000000E+00  0.00000000000E+00  0.74505805969E-08  0.10566000000E+00  0.10566000000E+00 0. -1.
     999900   -1    0    0    0    0 -0.00000000000E+00 -0.00000000000E+00 -0.74505805969E-08  0.93827000000E+00  0.93827000000E+00 0. -1.
     999902    2    1    2    0    0  0.70063852481E-02  0.18164588657E-01 -0.13009601728E-01  0.10205143759E+01  0.10202457057E+01 0.  0.
     999903    2    3    3    0    0 -0.12053094961E+00  0.46800965838E-01 -0.53766036309E-02  0.13082674726E+00  0.19201294590E-01 0.  0.
         14    1    1    2    0    0 -0.70063852481E-02 -0.18164588657E-01  0.13009601728E-01  0.23415624110E-01  0.00000000000E+00 0. -1.
     999901    1    3    3    0    0  0.12753733486E+00 -0.28636377181E-01 -0.76329980976E-02  0.88968762863E+00  0.88000000000E+00 0. -1.
        -11    1    4    4    0    0 -0.43744941694E-01  0.12728110234E-01 -0.10166969300E-01  0.46682471011E-01  0.51100000000E-03 0.  1.
         11    1    4    4    0    0 -0.76786007917E-01  0.34072855604E-01  0.47903656692E-02  0.84144276247E-01  0.51100000000E-03 0. -1.
</event>
<event>
 8    1  0.1148488E+005  0.1043930E+01  0.7957747E-01            NaN
         13   -1    0    0    0    0  0.00000000000E+00  0.00000000000E+00  0.74505805969E-08  0.10566000000E+00  0.10566000000E+00 0. -1.
     999900   -1    0    0    0    0 -0.00000000000E+00 -0.00000000000E+00 -0.74505805969E-08  0.93827000000E+00  0.93827000000E+00 0.  1.
     999902    2    1    2    0    0  0.12758864028E-01  0.16763651455E-01  0.10967629254E-01  0.10201792629E+01  0.10199027556E+01 0.  0.
     999903    2    3    3    0    0 -0.61857196175E-01  0.86755350089E-01 -0.72260253826E-01  0.13035159709E+00  0.20425256255E-01 0.  0.
         14    1    1    2    0    0 -0.12758864028E-01 -0.16763651455E-01 -0.10967629254E-01  0.23750737101E-01  0.00000000000E+00 0.  1.
     999901    1    3    3    0    0  0.74616060203E-01 -0.69991698635E-01  0.83227883080E-01  0.88982766581E+00  0.88000000000E+00 0. -1.
        -11    1    4    4    0    0 -0.15223562046E-01  0.14216854540E-01 -0.23010949554E-01  0.31042562954E-01  0.51100000000E-03 0.  1.
         11    1    4    4    0    0 -0.46633634129E-01  0.72538495550E-01 -0.49249304272E-01  0.99309034136E-01  0.51100000000E-03 0. -1.
</event>
<event>
 8    1  0.1148488E+005  0.1043930E+01  0.7957747E-01            NaN
         13   -1    0    0    0    0  0.00000000000E+00  0.00000000000E+00  0.74505805969E-08  0.10566000000E+00  0.10566000000E+00 0.  1.
     999900   -1    0    0    0    0 -0.00000000000E+00 -0.00000000000E+00 -0.74505805969E-08  0.93827000000E+00  0.93827000000E+00 0. -1.
     999902    2    1    2    0    0 -0.25869043334E-01  0.18251394956E-01  0.27113547666E-02  0.10121546595E+01  0.10116557628E+01 0.  0.
     999903    2    3    3    0    0 -0.66771386627E-01 -0.94770096047E-01  0.36812218898E-01  0.12332974530E+00  0.20378847850E-01 0.  0.
         14    1    1    2    0    0  0.25869043334E-01 -0.18251394956E-01 -0.27113547666E-02  0.31775340526E-01  0.00000000000E+00 0.  1.
     999901    1    3    3    0    0  0.40902343293E-01  0.11302149100E+00 -0.34100864132E-01  0.88882491417E+00  0.88000000000E+00 0. -1.
        -11    1    4    4    0    0 -0.46150129309E-01 -0.63238295590E-01  0.14750294137E-01  0.79666484562E-01  0.51100000000E-03 0. -1.
         11    1    4    4    0    0 -0.20621257318E-01 -0.31531800457E-01  0.22061924761E-01  0.43663260742E-01  0.51100000000E-03 0.  1.
</event>
<event>
 8    1  0.1148488E+005  0.1043930E+01  0.7957747E-01            NaN
         13   -1    0    0    0    0  0.00000000000E+00  0.00000000000E+00  0.74505805969E-08  0.10566000000E+00  0.10566000000E+00 0.  1.
     999900   -1    0    0    0    0 -0.00000000000E+00 -0.00000000000E+00 -0.74505805969E-08  0.93827000000E+00  0.93827000000E+00 0. -1.
     999902    2    1    2    0    0  0.13990537231E-01  0.18806144469E-01 -0.44300512250E-02  0.10200756177E+01  0.10197966632E+01 0.  0.
     999903    2    3    3    0    0  0.14634576597E-02  0.12841381908E+00 -0.27425397835E-01  0.13288930353E+00  0.20375571364E-01 0.  0.
         14    1    1    2    0    0 -0.13990537231E-01 -0.18806144469E-01  0.44300512250E-02  0.23854382315E-01  0.00000000000E+00 0.  1.
     999901    1    3    3    0    0  0.12527079571E-01 -0.10960767461E+00  0.22995346610E-01  0.88718631415E+00  0.88000000000E+00 0.  1.
        -11    1    4    4    0    0 -0.87376056092E-02  0.83761511181E-01 -0.18340355825E-01  0.86191451315E-01  0.51100000000E-03 0.  1.
         11    1    4    4    0    0  0.10201063269E-01  0.44652307896E-01 -0.90850420104E-02  0.46697852216E-01  0.51100000000E-03 0. -1.
</event>
<event>
 8    1  0.1148488E+005  0.1043930E+01  0.7957747E-01            NaN
         13   -1    0    0    0    0  0.00000000000E+00  0.00000000000E+00  0.74505805969E-08  0.10566000000E+00  0.10566000000E+00 0. -1.
     999900   -1    0    0    0    0 -0.00000000000E+00 -0.00000000000E+00 -0.74505805969E-08  0.93827000000E+00  0.93827000000E+00 0.  1.
     999902    2    1    2    0    0 -0.17901172084E-01  0.10734044558E-01  0.10469834312E-01  0.10205785738E+01  0.10203113918E+01 0.  0.
     999903    2    3    3    0    0 -0.10941797731E+00  0.14041068746E-01 -0.69936609797E-01  0.13218031948E+00  0.20274666371E-01 0.  0.
         14    1    1    2    0    0  0.17901172084E-01 -0.10734044558E-01 -0.10469834312E-01  0.23351426189E-01  0.00000000000E+00 0. -1.
     999901    1    3    3    0    0  0.91516805229E-01 -0.33070241882E-02  0.80406444109E-01  0.88839825433E+00  0.88000000000E+00 0. -1.
        -11    1    4    4    0    0 -0.70704098135E-01  0.17902520408E-01 -0.40820498448E-01  0.83583155866E-01  0.51100000000E-03 0.  1.
         11    1    4    4    0    0 -0.38713879178E-01 -0.38614516618E-02 -0.29116111349E-01  0.48597163611E-01  0.51100000000E-03 0. -1.
</event>
<event>
 8    1  0.1148488E+005  0.1043930E+01  0.7957747E-01            NaN
         13   -1    0    0    0    0  0.00000000000E+00  0.00000000000E+00  0.74505805969E-08  0.10566000000E+00  0.10566000000E+00 0.  1.
     999900   -1    0    0    0    0 -0.00000000000E+00 -0.00000000000E+00 -0.74505805969E-08  0.93827000000E+00  0.93827000000E+00 0.  1.
     999902    2    1    2    0    0  0.16519896391E-01 -0.14207012417E-01  0.69442142711E-02  0.10210615000E+01  0.10208053774E+01 0.  0.
     999903    2    3    3    0    0 -0.97283549632E-01  0.71190797812E-01  0.41637934906E-01  0.12895855499E+00  0.19088545237E-01 0.  0.
         14    1    1    2    0    0 -0.16519896391E-01  0.14207012417E-01 -0.69442142711E-02  0.22868499960E-01  0.00000000000E+00 0. -1.
     999901    1    3    3    0    0  0.11380344602E+00 -0.85397810229E-01 -0.34693720635E-01  0.89210294505E+00  0.88000000000E+00 0. -1.
        -11    1    4    4    0    0 -0.91144305831E-01  0.60710078753E-01  0.34304824226E-01  0.11476096999E+00  0.51100000000E-03 0. -1.
         11    1    4    4    0    0 -0.61392438008E-02  0.10480719058E-01  0.73331106804E-02  0.14197584995E-01  0.51100000000E-03 0.  1.
</event>
<event>
 8    1  0.1148488E+005  0.1043930E+01  0.7957747E-01            NaN
         13   -1    0    0    0    0  0.00000000000E+00  0.00000000000E+00  0.74505805969E-08  0.10566000000E+00  0.10566000000E+00 0. -1.
     999900   -1    0    0    0    0 -0.00000000000E+00 -0.00000000000E+00 -0.74505805969E-08  0.93827000000E+00  0.93827000000E+00 0.  1.
     999902    2    1    2    0    0  0.92843825698E-02  0.10725441141E-01  0.12642025438E-01  0.10249285355E+01  0.10247523833E+01 0.  0.
     999903    2    3    3    0    0  0.66037906651E-01 -0.11446602457E+00  0.11990641045E-01  0.13425783881E+00  0.20442991741E-01 0.  0.
         14    1    1    2    0    0 -0.92843825698E-02 -0.10725441141E-01 -0.12642025438E-01  0.19001464537E-01  0.00000000000E+00 0.  1.
     999901    1    3    3    0    0 -0.56753524081E-01  0.12519146571E+00  0.65138439360E-03  0.89067069666E+00  0.88000000000E+00 0.  1.
        -11    1    4    4    0    0  0.15843869136E-01 -0.46256858812E-01  0.72958381436E-02  0.49439008400E-01  0.51100000000E-03 0.  1.
         11    1    4    4    0    0  0.50194037515E-01 -0.68209165762E-01  0.46948029010E-02  0.84818830405E-01  0.51100000000E-03 0. -1.
</event>
<event>
 8    1  0.1148488E+005  0.1043930E+01  0.7957747E-01            NaN
         13   -1    0    0    0    0  0.00000000000E+00  0.00000000000E+00  0.74505805969E-08  0.10566000000E+00  0.10566000000E+00 0. -1.
     999900   -1    0    0    0    0 -0.00000000000E+00 -0.00000000000E+00 -0.74505805969E-08  0.93827000000E+00  0.93827000000E+00 0. -1.
     999902    2    1    2    0    0 -0.22666240973E-01  0.66258327047E-02  0.43923886601E-02  0.10199101495E+01  0.10196272652E+01 0.  0.
     999903    2    3    3    0    0 -0.16133953400E-01  0.12371828474E+00  0.36591607755E-01  0.13154642738E+00  0.19974943496E-01 0.  0.
         14    1    1    2    0    0  0.22666240973E-01 -0.66258327047E-02 -0.43923886601E-02  0.24019850478E-01  0.00000000000E+00 0.  1.
     999901    1    3    3    0    0 -0.65322875724E-02 -0.11709245203E+00 -0.32199219095E-01  0.88836372214E+00  0.88000000000E+00 0. -1.
        -11    1    4    4    0    0 -0.25530877101E-02  0.80592151597E-01  0.17772012093E-01  0.82569477961E-01  0.51100000000E-03 0. -1.
         11    1    4    4    0    0 -0.13580865690E-01  0.43126133142E-01  0.18819595662E-01  0.48976949421E-01  0.51100000000E-03 0.  1.
</event>
<event>
 8    1  0.1148488E+005  0.1043930E+01  0.7957747E-01            NaN
         13   -1    0    0    0    0  0.00000000000E+00  0.00000000000E+00  0.74505805969E-08  0.10566000000E+00  0.10566000000E+00 0. -1.
     999900   -1    0    0    0    0 -0.00000000000E+00 -0.00000000000E+00 -0.74505805969E-08  0.93827000000E+00  0.93827000000E+00 0. -1.
     999902    2    1    2    0    0  0.18561317744E-01 -0.15497599972E-01 -0.66868207941E-03  0.10197402241E+01  0.10194532748E+01 0.  0.
     999903    2    3    3    0    0  0.54001877354E-02 -0.64345154867E-01  0.11233906978E+00  0.13107265358E+00  0.19761400122E-01 0.  0.
         14    1    1    2    0    0 -0.18561317744E-01  0.15497599972E-01  0.66868207941E-03  0.24189775878E-01  0.00000000000E+00 0. -1.
     999901    1    3    3    0    0  0.13161130009E-01  0.48847554894E-01 -0.11300775186E+00  0.88866757055E+00  0.88000000000E+00 0. -1.
        -11    1    4    4    0    0  0.24799138089E-02 -0.25688061060E-01  0.64646502474E-01  0.69609323058E-01  0.51100000000E-03 0.  1.
         11    1    4    4    0    0  0.29202739265E-02 -0.38657093807E-01  0.47692567302E-01  0.61463330517E-01  0.51100000000E-03 0. -1.
</event>
<event>
 8    1  0.1148488E+005  0.1043930E+01  0.7957747E-01            NaN
         13   -1    0    0    0    0  0.00000000000E+00  0.00000000000E+00  0.74505805969E-08  0.10566000000E+00  0.10566000000E+00 0. -1.
     999900   -1    0    0    0    0 -0.00000000000E+00 -0.00000000000E+00 -0.74505805969E-08  0.93827000000E+00  0.93827000000E+00 0.  1.
     999902    2    1    2    0    0  0.20553663475E-01  0.11496332478E-01  0.50240066390E-02  0.10198497304E+01  0.10195654041E+01 0.  0.
     999903    2    3    3    0    0 -0.11475939873E+00 -0.49614473665E-01  0.14940122783E-01  0.12735744201E+00  0.19115312472E-01 0.  0.
         14    1    1    2    0    0 -0.20553663475E-01 -0.11496332478E-01 -0.50240066390E-02  0.24080269629E-01  0.00000000000E+00 0.  1.
     999901    1    3    3    0    0  0.13531306221E+00  0.61110806143E-01 -0.99161161441E-02  0.89249228837E+00  0.88000000000E+00 0. -1.
        -11    1    4    4    0    0 -0.69143813368E-01 -0.38418064819E-01  0.44424088941E-02  0.79226326113E-01  0.51100000000E-03 0. -1.
         11    1    4    4    0    0 -0.45615585365E-01 -0.11196408846E-01  0.10497713889E-01  0.48131115893E-01  0.51100000000E-03 0.  1.
</event>
<event>
 8    1  0.1148488E+005  0.1043930E+01  0.7957747E-01            NaN
         13   -1    0    0    0    0  0.00000000000E+00  0.00000000000E+00  0.74505805969E-08  0.10566000000E+00  0.10566000000E+00 0.  1.
     999900   -1    0    0    0    0 -0.00000000000E+00 -0.00000000000E+00 -0.74505805969E-08  0.93827000000E+00  0.93827000000E+00 0.  1.
     999902    2    1    2    0    0  0.10824643274E-01 -0.21576744555E-01 -0.21476189026E-02  0.10196948793E+01  0.10194068402E+01 0.  0.
     999903    2    3    3    0    0  0.26029464185E-01 -0.60521617951E-01  0.11285216195E+00  0.13122831307E+00  0.12035798681E-01 0.  0.
         14    1    1    2    0    0 -0.10824643274E-01  0.21576744555E-01  0.21476189026E-02  0.24235120684E-01  0.00000000000E+00 0.  1.
     999901    1    3    3    0    0 -0.15204820911E-01  0.38944873396E-01 -0.11499978085E+00  0.88846656625E+00  0.88000000000E+00 0.  1.
        -11    1    4    4    0    0 -0.60315117632E-03 -0.83269996779E-02  0.13407816503E-01  0.15802954766E-01  0.51100000000E-03 0.  1.
         11    1    4    4    0    0  0.26632615361E-01 -0.52194618273E-01  0.99444345444E-01  0.11542535830E+00  0.51100000000E-03 0. -1.
</event>
<event>
 8    1  0.1148488E+005  0.1043930E+01  0.7957747E-01            NaN
         13   -1    0    0    0    0  0.00000000000E+00  0.00000000000E+00  0.74505805969E-08  0.10566000000E+00  0.10566000000E+00 0. -1.
     999900   -1    0    0    0    0 -0.00000000000E+00 -0.00000000000E+00 -0.74505805969E-08  0.93827000000E+00  0.93827000000E+00 0.  1.
     999902    2    1    2    0    0 -0.19126148567E-01  0.13714737257E-01 -0.34529214960E-02  0.10201428975E+01  0.10198655329E+01 0.  0.
     999903    2    3    3    0    0 -0.55413901855E-02 -0.12694441956E+00  0.11067324563E-01  0.12875051390E+00  0.17567483965E-01 0.  0.
         14    1    1    2    0    0  0.19126148567E-01 -0.13714737257E-01  0.34529214960E-02  0.23787102470E-01  0.00000000000E+00 0. -1.
     999901    1    3    3    0    0 -0.13584758382E-01  0.14065915682E+00 -0.14520246059E-01  0.89139238363E+00  0.88000000000E+00 0.  1.
        -11    1    4    4    0    0 -0.94583667972E-02 -0.41949350763E-01  0.69564072081E-02  0.43564451726E-01  0.51100000000E-03 0. -1.
         11    1    4    4    0    0  0.39169766117E-02 -0.84995068797E-01  0.41109173545E-02  0.85186062170E-01  0.51100000000E-03 0.  1.
</event>
<event>
 8    1  0.1148488E+005  0.1043930E+01  0.7957747E-01            NaN
         13   -1    0    0    0    0  0.00000000000E+00  0.00000000000E+00  0.74505805969E-08  0.10566000000E+00  0.10566000000E+00 0. -1.
     999900   -1    0    0    0    0 -0.00000000000E+00 -0.00000000000E+00 -0.74505805969E-08  0.93827000000E+00  0.93827000000E+00 0. -1.
     999902    2    1    2    0    0  0.22004471236E-01 -0.67424363307E-02 -0.16337722880E-02  0.10208578000E+01  0.10205970416E+01 0.  0.
     999903    2    3    3    0    0  0.35377947721E-01  0.11760638098E+00 -0.41361742675E-01  0.13112762185E+00  0.20019975564E-01 0.  0.
         14    1    1    2    0    0 -0.22004471236E-01  0.67424363307E-02  0.16337722880E-02  0.23072200024E-01  0.00000000000E+00 0. -1.
     999901    1    3    3    0    0 -0.13373476485E-01 -0.12434881731E+00  0.39727970387E-01  0.88973017813E+00  0.88000000000E+00 0. -1.
        -11    1    4    4    0    0  0.94102196352E-02  0.46703883519E-01 -0.69619894680E-02  0.48151172235E-01  0.51100000000E-03 0.  1.
         11    1    4    4    0    0  0.25967728086E-01  0.70902497465E-01 -0.34399753207E-01  0.82976449613E-01  0.51100000000E-03 0. -1.
</event>
<event>
 8    1  0.1148488E+005  0.1043930E+01  0.7957747E-01            NaN
         13   -1    0    0    0    0  0.00000000000E+00  0.00000000000E+00  0.74505805969E-08  0.10566000000E+00  0.10566000000E+00 0.  1.
     999900   -1    0    0    0    0 -0.00000000000E+00 -0.00000000000E+00 -0.74505805969E-08  0.93827000000E+00  0.93827000000E+00 0. -1.
     999902    2    1    2    0    0  0.12380219221E-01  0.19835268995E-01  0.31671282135E-03  0.10205460732E+01  0.10202781383E+01 0.  0.
     999903    2    3    3    0    0  0.93444612151E-01 -0.72906917849E-01 -0.50691993969E-01  0.13050425557E+00  0.20356037402E-01 0.  0.
         14    1    1    2    0    0 -0.12380219221E-01 -0.19835268995E-01 -0.31671282135E-03  0.23383926768E-01  0.00000000000E+00 0. -1.
     999901    1    3    3    0    0 -0.81064392930E-01  0.92742186844E-01  0.51008706790E-01  0.89004181766E+00  0.88000000000E+00 0.  1.
        -11    1    4    4    0    0  0.96286898183E-02 -0.16485836760E-01 -0.10226337172E-01  0.21664107973E-01  0.51100000000E-03 0.  1.
         11    1    4    4    0    0  0.83815922333E-01 -0.56421081089E-01 -0.40465656797E-01  0.10884014760E+00  0.51100000000E-03 0. -1.
</event>
<event>
 8    1  0.1148488E+005  0.1043930E+01  0.7957747E-01            NaN
         13   -1    0    0    0    0  0.00000000000E+00  0.00000000000E+00  0.74505805969E-08  0.10566000000E+00  0.10566000000E+00 0. -1.
     999900   -1    0    0    0    0 -0.00000000000E+00 -0.00000000000E+00 -0.74505805969E-08  0.93827000000E+00  0.93827000000E+00 0.  1.
     999902    2    1    2    0    0 -0.94838198743E-02 -0.21888274231E-01  0.56781143574E-03  0.10200686966E+01  0.10197895783E+01 0.  0.
     999903    2    3    3    0    0  0.11613061537E+00 -0.47014828120E-01 -0.29526938399E-01  0.13028443963E+00  0.20136564522E-01 0.  0.
         14    1    1    2    0    0  0.94838198743E-02  0.21888274231E-01 -0.56781143574E-03  0.23861303360E-01  0.00000000000E+00 0. -1.
     999901    1    3    3    0    0 -0.12561443524E+00  0.25126553888E-01  0.30094749835E-01  0.88978425701E+00  0.88000000000E+00 0.  1.
        -11    1    4    4    0    0  0.37652553112E-01 -0.76480170673E-02 -0.28920199739E-02  0.38533515560E-01  0.51100000000E-03 0.  1.
         11    1    4    4    0    0  0.78478062253E-01 -0.39366811052E-01 -0.26634918425E-01  0.91750924072E-01  0.51100000000E-03 0. -1.
</event>
<event>
 8    1  0.1148488E+005  0.1043930E+01  0.7957747E-01            NaN
         13   -1    0    0    0    0  0.00000000000E+00  0.00000000000E+00  0.74505805969E-08  0.10566000000E+00  0.10566000000E+00 0. -1.
     999900   -1    0    0    0    0 -0.00000000000E+00 -0.00000000000E+00 -0.74505805969E-08  0.93827000000E+00  0.93827000000E+00 0. -1.
     999902    2    1    2    0    0 -0.22931068892E-01 -0.77622231170E-02  0.11991013914E-02  0.10196911083E+01  0.10194029784E+01 0.  0.
     999903    2    3    3    0    0 -0.34692697741E-01  0.19091115523E-01  0.12315217209E+00  0.13079741993E+00  0.19324947685E-01 0.  0.
         14    1    1    2    0    0  0.22931068892E-01  0.77622231170E-02 -0.11991013914E-02  0.24238891732E-01  0.00000000000E+00 0. -1.
     999901    1    3    3    0    0  0.11761628849E-01 -0.26853338640E-01 -0.12195307070E+00  0.88889368833E+00  0.88000000000E+00 0. -1.
        -11    1    4    4    0    0 -0.27798920389E-01  0.62207149767E-02  0.93451937131E-01  0.97698530921E-01  0.51100000000E-03 0. -1.
         11    1    4    4    0    0 -0.68937773513E-02  0.12870400546E-01  0.29700234956E-01  0.33098889012E-01  0.51100000000E-03 0.  1.
</event>
<event>
 8    1  0.1148488E+005  0.1043930E+01  0.7957747E-01            NaN
         13   -1    0    0    0    0  0.00000000000E+00  0.00000000000E+00  0.74505805969E-08  0.10566000000E+00  0.10566000000E+00 0.  1.
     999900   -1    0    0    0    0 -0.00000000000E+00 -0.00000000000E+00 -0.74505805969E-08  0.93827000000E+00  0.93827000000E+00 0. -1.
     999902    2    1    2    0    0  0.57539297980E-02 -0.22040388694E-01 -0.61469861833E-02  0.10203361050E+01  0.10200632800E+01 0.  0.
     999903    2    3    3    0    0 -0.23251637932E-02  0.12073274916E+00  0.37000356180E-01  0.12774933959E+00  0.19211046323E-01 0.  0.
         14    1    1    2    0    0 -0.57539297980E-02  0.22040388694E-01  0.61469861833E-02  0.23593894995E-01  0.00000000000E+00 0.  1.
     999901    1    3    3    0    0  0.80790935912E-02 -0.14277313785E+00 -0.43147342363E-01  0.89258676542E+00  0.88000000000E+00 0. -1.
        -11    1    4    4    0    0 -0.76787016308E-02  0.79542155778E-01  0.17255245283E-01  0.81755254359E-01  0.51100000000E-03 0. -1.
         11    1    4    4    0    0  0.53535378376E-02  0.41190593383E-01  0.19745110897E-01  0.45994085228E-01  0.51100000000E-03 0.  1.
</event>
<event>
 8    1  0.1148488E+005  0.1043930E+01  0.7957747E-01            NaN
         13   -1    0    0    0    0  0.00000000000E+00  0.00000000000E+00  0.74505805969E-08  0.10566000000E+00  0.10566000000E+00 0. -1.
     999900   -1    0    0    0    0 -0.00000000000E+00 -0.00000000000E+00 -0.74505805969E-08  0.93827000000E+00  0.93827000000E+00 0.  1.
     999902    2    1    2    0    0  0.76288487860E-02  0.74564461806E-03  0.22319181678E-01  0.10203312460E+01  0.10200583073E+01 0.  0.
     999903    2    3    3    0    0  0.44536335460E-01 -0.11230086170E+00  0.49386736180E-01  0.13192012063E+00  0.19206764542E-01 0.  0.
         14    1    1    2    0    0 -0.76288487860E-02 -0.74564461806E-03 -0.22319181678E-01  0.23598754002E-01  0.00000000000E+00 0.  1.
     999901    1    3    3    0    0 -0.36907486674E-01  0.11304650631E+00 -0.27067554502E-01  0.88841112536E+00  0.88000000000E+00 0. -1.
        -11    1    4    4    0    0  0.13963419612E-01 -0.60876847116E-01  0.23558499713E-01  0.66755012035E-01  0.51100000000E-03 0.  1.
         11    1    4    4    0    0  0.30572915847E-01 -0.51424014579E-01  0.25828236467E-01  0.65165108599E-01  0.51100000000E-03 0. -1.
</event>
<event>
 8    1  0.1148488E+005  0.1043930E+01  0.7957747E-01            NaN
         13   -1    0    0    0    0  0.00000000000E+00  0.00000000000E+00  0.74505805969E-08  0.10566000000E+00  0.10566000000E+00 0. -1.
     999900   -1    0    0    0    0 -0.00000000000E+00 -0.00000000000E+00 -0.74505805969E-08  0.93827000000E+00  0.93827000000E+00 0.  1.
     999902    2    1    2    0    0  0.20363154959E-02 -0.20483032277E-01 -0.12403171731E-01  0.10198979410E+01  0.10196147656E+01 0.  0.
     999903    2    3    3    0    0 -0.10204487332E+00  0.22200098162E-01  0.72787139615E-01  0.12865603630E+00  0.18665675851E-01 0.  0.
         14    1    1    2    0    0 -0.20363154959E-02  0.20483032277E-01  0.12403171731E-01  0.24032059027E-01  0.00000000000E+00 0. -1.
     999901    1    3    3    0    0  0.10408118882E+00 -0.42683130439E-01 -0.85190311346E-01  0.89124190467E+00  0.88000000000E+00 0.  1.
        -11    1    4    4    0    0 -0.27089478896E-01  0.11404303022E-01  0.28408144775E-01  0.40880090568E-01  0.51100000000E-03 0. -1.
         11    1    4    4    0    0 -0.74955394424E-01  0.10795795140E-01  0.44378994840E-01  0.87775945737E-01  0.51100000000E-03 0.  1.
</event>
<event>
 8    1  0.1148488E+005  0.1043930E+01  0.7957747E-01            NaN
         13   -1    0    0    0    0  0.00000000000E+00  0.00000000000E+00  0.74505805969E-08  0.10566000000E+00  0.10566000000E+00 0. -1.
     999900   -1    0    0    0    0 -0.00000000000E+00 -0.00000000000E+00 -0.74505805969E-08  0.93827000000E+00  0.93827000000E+00 0. -1.
     999902    2    1    2    0    0 -0.92408814627E-02 -0.21220276203E-01 -0.67598426444E-02  0.10198179805E+01  0.10195328949E+01 0.  0.
     999903    2    3    3    0    0 -0.11885205134E+00  0.19488639776E-01 -0.47815660344E-01  0.13113501983E+00  0.20110665426E-01 0.  0.
         14    1    1    2    0    0  0.92408814627E-02  0.21220276203E-01  0.67598426444E-02  0.24112019512E-01  0.00000000000E+00 0. -1.
     999901    1    3    3    0    0  0.10961116987E+00 -0.40708915979E-01  0.41055817699E-01  0.88868296066E+00  0.88000000000E+00 0.  1.
        -11    1    4    4    0    0 -0.72001333702E-01  0.19202586572E-01 -0.36277228386E-01  0.82880816878E-01  0.51100000000E-03 0.  1.
         11    1    4    4    0    0 -0.46850717634E-01  0.28605320345E-03 -0.11538431958E-01  0.48254202950E-01  0.51100000000E-03 0. -1.
</event>
<event>
 8    1  0.1148488E+005  0.1043930E+01  0.7957747E-01            NaN
         13   -1    0    0    0    0  0.00000000000E+00  0.00000000000E+00  0.74505805969E-08  0.10566000000E+00  0.10566000000E+00 0.  1.
     999900   -1    0    0    0    0 -0.00000000000E+00 -0.00000000000E+00 -0.74505805969E-08  0.93827000000E+00  0.93827000000E+00 0.  1.
     999902    2    1    2    0    0 -0.47099541489E-02 -0.23744416096E-02  0.23819069145E-01  0.10195339000E+01  0.10192419750E+01 0.  0.
     999903    2    3    3    0    0 -0.84764345030E-01 -0.15336527181E-01  0.99098648153E-01  0.13260451374E+00  0.18525974878E-01 0.  0.
         14    1    1    2    0    0  0.47099541489E-02  0.23744416096E-02 -0.23819069145E-01  0.24396100016E-01  0.00000000000E+00 0. -1.
     999901    1    3    3    0    0  0.80054390881E-01  0.12962085571E-01 -0.75279579008E-01  0.88692938624E+00  0.88000000000E+00 0.  1.
        -11    1    4    4    0    0 -0.65173351152E-01 -0.11830011253E-01  0.86856348475E-01  0.10923278472E+00  0.51100000000E-03 0. -1.
         11    1    4    4    0    0 -0.19590993878E-01 -0.35065159279E-02  0.12242299678E-01  0.23371729022E-01  0.51100000000E-03 0.  1.
</event>
<event>
 8    1  0.1148488E+005  0.1043930E+01  0.7957747E-01            NaN
         13   -1    0    0    0    0  0.00000000000E+00  0.00000000000E+00  0.74505805969E-08  0.10566000000E+00  0.10566000000E+00 0. -1.
     999900   -1    0    0    0    0 -0.00000000000E+00 -0.00000000000E+00 -0.74505805969E-08  0.93827000000E+00  0.93827000000E+00 0. -1.
     999902    2    1    2    0    0  0.68035117549E-02  0.61187768599E-02 -0.21887620701E-01  0.10202066962E+01  0.10199308348E+01 0.  0.
     999903    2    3    3    0    0 -0.68832527242E-01  0.36910385973E-01  0.99668582603E-01  0.12810533194E+00  0.19412787374E-01 0.  0.
         14    1    1    2    0    0 -0.68035117549E-02 -0.61187768599E-02  0.21887620701E-01  0.23723303783E-01  0.00000000000E+00 0. -1.
     999901    1    3    3    0    0  0.75636038997E-01 -0.30791609113E-01 -0.12155620330E+00  0.89210136428E+00  0.88000000000E+00 0. -1.
        -11    1    4    4    0    0 -0.45583688175E-01  0.29999640023E-01  0.80169414242E-01  0.96980653381E-01  0.51100000000E-03 0.  1.
         11    1    4    4    0    0 -0.23248839066E-01  0.69107459500E-02  0.19499168360E-01  0.31124678557E-01  0.51100000000E-03 0. -1.
</event>
<event>
 8    1  0.1148488E+005  0.1043930E+01  0.7957747E-01            NaN
         13   -1    0    0    0    0  0.00000000000E+00  0.00000000000E+00  0.74505805969E-08  0.10566000000E+00  0.10566000000E+00 0.  1.
     999900   -1    0    0    0    0 -0.00000000000E+00 -0.00000000000E+00 -0.74505805969E-08  0.93827000000E+00  0.93827000000E+00 0. -1.
     999902    2    1    2    0    0  0.73684385147E-02 -0.21843612400E-01 -0.59445912615E-02  0.10201229537E+01  0.10198451182E+01 0.  0.
     999903    2    3    3    0    0 -0.12247258119E+00  0.12714818408E-01  0.35596171436E-01  0.12895596008E+00  0.14189872033E-01 0.  0.
         14    1    1    2    0    0 -0.73684385147E-02  0.21843612400E-01  0.59445912615E-02  0.23807046311E-01  0.00000000000E+00 0.  1.
     999901    1    3    3    0    0  0.12984101970E+00 -0.34558430807E-01 -0.41540762698E-01  0.89116699361E+00  0.88000000000E+00 0.  1.
        -11    1    4    4    0    0 -0.40293650469E-01  0.74992016529E-02  0.17917307958E-01  0.44733738264E-01  0.51100000000E-03 0.  1.
         11    1    4    4    0    0 -0.82178930719E-01  0.52156167547E-02  0.17678863478E-01  0.84222221813E-01  0.51100000000E-03 0. -1.
</event>
<event>
 8    1  0.1148488E+005  0.1043930E+01  0.7957747E-01            NaN
         13   -1    0    0    0    0  0.00000000000E+00  0.00000000000E+00  0.74505805969E-08  0.10566000000E+00  0.10566000000E+00 0. -1.
     999900   -1    0    0    0    0 -0.00000000000E+00 -0.00000000000E+00 -0.74505805969E-08  0.93827000000E+00  0.93827000000E+00 0.  1.
     999902    2    1    2    0    0  0.20723814443E-01 -0.41815918168E-02  0.11826070988E-01  0.10197056703E+01  0.10194178907E+01 0.  0.
     999903    2    3    3    0    0 -0.19786478035E-01  0.56026331015E-01 -0.11197630758E+00  0.12808181085E+00  0.18324910135E-01 0.  0.
         14    1    1    2    0    0 -0.20723814443E-01  0.41815918168E-02 -0.11826070988E-01  0.24224329716E-01  0.00000000000E+00 0.  1.
     999901    1    3    3    0    0  0.40510292478E-01 -0.60207922832E-01  0.12380237857E+00  0.89162385943E+00  0.88000000000E+00 0. -1.
        -11    1    4    4    0    0 -0.18786147161E-02  0.19137826450E-01 -0.51838008520E-01  0.55292186092E-01  0.51100000000E-03 0. -1.
         11    1    4    4    0    0 -0.17907863319E-01  0.36888504565E-01 -0.60138299061E-01  0.72789624760E-01  0.51100000000E-03 0.  1.
</event>
<event>
 8    1  0.1148488E+005  0.1043930E+01  0.7957747E-01            NaN
         13   -1    0    0    0    0  0.00000000000E+00  0.00000000000E+00  0.74505805969E-08  0.10566000000E+00  0.10566000000E+00 0. -1.
     999900   -1    0    0    0    0 -0.00000000000E+00 -0.00000000000E+00 -0.74505805969E-08  0.93827000000E+00  0.93827000000E+00 0.  1.
     999902    2    1    2    0    0  0.16536442957E-01 -0.76690975444E-02 -0.16022235336E-01  0.10196610687E+01  0.10193722156E+01 0.  0.
     999903    2    3    3    0    0 -0.64758290122E-01 -0.10019371846E+00  0.45179337812E-01  0.12897859345E+00  0.19023344749E-01 0.  0.
         14    1    1    2    0    0 -0.16536442957E-01  0.76690975444E-02  0.16022235336E-01  0.24268931332E-01  0.00000000000E+00 0. -1.
     999901    1    3    3    0    0  0.81294733079E-01  0.92524620915E-01 -0.61201573148E-01  0.89068247522E+00  0.88000000000E+00 0.  1.
        -11    1    4    4    0    0 -0.28063523943E-01 -0.56444986046E-01  0.16941193872E-01  0.65275286262E-01  0.51100000000E-03 0. -1.
         11    1    4    4    0    0 -0.36694766179E-01 -0.43748732413E-01  0.28238143940E-01  0.63703307189E-01  0.51100000000E-03 0.  1.
</event>
<event>
 8    1  0.1148488E+005  0.1043930E+01  0.7957747E-01            NaN
         13   -1    0    0    0    0  0.00000000000E+00  0.00000000000E+00  0.74505805969E-08  0.10566000000E+00  0.10566000000E+00 0. -1.
     999900   -1    0    0    0    0 -0.00000000000E+00 -0.00000000000E+00 -0.74505805969E-08  0.93827000000E+00  0.93827000000E+00 0.  1.
     999902    2    1    2    0    0 -0.98470555665E-02 -0.20023623105E-01  0.76136973349E-02  0.10203529270E+01  0.10200804955E+01 0.  0.
     999903    2    3    3    0    0  0.61417028771E-01 -0.10860692745E+00 -0.37432362148E-01  0.13189655832E+00  0.20688263516E-01 0.  0.
         14    1    1    2    0    0  0.98470555665E-02  0.20023623105E-01 -0.76136973349E-02  0.23577073031E-01  0.00000000000E+00 0. -1.
     999901    1    3    3    0    0 -0.71264084337E-01  0.88583304342E-01  0.45046059483E-01  0.88845636865E+00  0.88000000000E+00 0.  1.
        -11    1    4    4    0    0  0.32958686228E-01 -0.51709142055E-01 -0.28610794196E-01  0.67667932106E-01  0.51100000000E-03 0. -1.
         11    1    4    4    0    0  0.28458342543E-01 -0.56897785392E-01 -0.88215679512E-02  0.64228626211E-01  0.51100000000E-03 0.  1.
</event>
<event>
 8    1  0.1148488E+005  0.1043930E+01  0.7957747E-01            NaN
         13   -1    0    0    0    0  0.00000000000E+00  0.00000000000E+00  0.74505805969E-08  0.10566000000E+00  0.10566000000E+00 0.  1.
     999900   -1    0    0    0    0 -0.00000000000E+00 -0.00000000000E+00 -0.74505805969E-08  0.93827000000E+00  0.93827000000E+00 0. -1.
     999902    2    1    2    0    0  0.19251393817E-01  0.33696641137E-02 -0.15802229595E-01  0.10187967300E+01  0.10184866694E+01 0.  0.
     999903    2    3    3    0    0  0.22578035483E-02  0.20628905639E-02 -0.12970942520E+00  0.13129160947E+00  0.20089762011E-01 0.  0.
         14    1    1    2    0    0 -0.19251393817E-01 -0.33696641137E-02  0.15802229595E-01  0.25133269989E-01  0.00000000000E+00 0.  1.
     999901    1    3    3    0    0  0.16993590269E-01  0.13067735498E-02  0.11390719561E+00  0.88750512054E+00  0.88000000000E+00 0.  1.
        -11    1    4    4    0    0 -0.77280504913E-02  0.16965850996E-02 -0.28296559761E-01  0.29386350245E-01  0.51100000000E-03 0. -1.
         11    1    4    4    0    0  0.99858540396E-02  0.36630546431E-03 -0.10141286544E+00  0.10190525923E+00  0.51100000000E-03 0.  1.
</event>
<event>
 8    1  0.1148488E+005  0.1043930E+01  0.7957747E-01            NaN
         13   -1    0    0    0    0  0.00000000000E+00  0.00000000000E+00  0.74505805969E-08  0.10566000000E+00  0.10566000000E+00 0. -1.
     999900   -1    0    0    0    0 -0.00000000000E+00 -0.00000000000E+00 -0.74505805969E-08  0.93827000000E+00  0.93827000000E+00 0.  1.
     999902    2    1    2    0    0 -0.22137739928E-01  0.85301464954E-03 -0.96166730883E-02  0.10197786529E+01  0.10194926255E+01 0.  0.
     999903    2    3    3    0    0  0.28407301779E-01 -0.11018658658E-01  0.12284987800E+00  0.12835107595E+00  0.21296021700E-01 0.  0.
         14    1    1    2    0    0  0.22137739928E-01 -0.85301464954E-03  0.96166730883E-02  0.24151347052E-01  0.00000000000E+00 0.  1.
     999901    1    3    3    0    0 -0.50545041707E-01  0.11871673307E-01 -0.13246655109E+00  0.89142757699E+00  0.88000000000E+00 0.  1.
        -11    1    4    4    0    0  0.10713705240E-01  0.61106630818E-02  0.47464642953E-01  0.49043624814E-01  0.51100000000E-03 0. -1.
         11    1    4    4    0    0  0.17693596539E-01 -0.17129321740E-01  0.75385235050E-01  0.79307451139E-01  0.51100000000E-03 0.  1.
</event>
<event>
 8    1  0.1148488E+005  0.1043930E+01  0.7957747E-01            NaN
         13   -1    0    0    0    0  0.00000000000E+00  0.00000000000E+00  0.74505805969E-08  0.10566000000E+00  0.10566000000E+00 0. -1.
     999900   -1    0    0    0    0 -0.00000000000E+00 -0.00000000000E+00 -0.74505805969E-08  0.93827000000E+00  0.93827000000E+00 0. -1.
     999902    2    1    2    0    0  0.19512349684E-01  0.88457364424E-02 -0.95992770203E-02  0.10204539492E+01  0.10201838743E+01 0.  0.
     999903    2    3    3    0    0  0.97299621471E-01 -0.58216010113E-01 -0.65965100418E-01  0.13268976677E+00  0.19971468648E-01 0.  0.
         14    1    1    2    0    0 -0.19512349684E-01 -0.88457364424E-02  0.95992770203E-02  0.23476050833E-01  0.00000000000E+00 0. -1.
     999901    1    3    3    0    0 -0.77787271787E-01  0.67061746555E-01  0.56365823398E-01  0.88776418240E+00  0.88000000000E+00 0.  1.
        -11    1    4    4    0    0  0.90315508044E-01 -0.46872499586E-01 -0.57120767086E-01  0.11669175363E+00  0.51100000000E-03 0.  1.
         11    1    4    4    0    0  0.69841134273E-02 -0.11343510527E-01 -0.88443333316E-02  0.15998013143E-01  0.51100000000E-03 0. -1.
</event>
<event>
 8    1  0.1148488E+005  0.1043930E+01  0.7957747E-01            NaN
         13   -1    0    0    0    0  0.00000000000E+00  0.00000000000E+00  0.74505805969E-08  0.10566000000E+00  0.10566000000E+00 0.  1.
     999900   -1    0    0    0    0 -0.00000000000E+00 -0.00000000000E+00 -0.74505805969E-08  0.93827000000E+00  0.93827000000E+00 0. -1.
     999902    2    1    2    0    0  0.89862797722E-02 -0.16485199581E-01  0.12577780498E-01  0.10213309825E+01  0.10210809274E+01 0.  0.
     999903    2    3    3    0    0  0.10091381897E+00 -0.56752123293E-01  0.64691698004E-01  0.13409484821E+00  0.19799246669E-01 0.  0.
         14    1    1    2    0    0 -0.89862797722E-02  0.16485199581E-01 -0.12577780498E-01  0.22599017492E-01  0.00000000000E+00 0. -1.
     999901    1    3    3    0    0 -0.91927539195E-01  0.40266923712E-01 -0.52113917506E-01  0.88723613430E+00  0.88000000000E+00 0. -1.
        -11    1    4    4    0    0  0.44786759783E-02 -0.80819422140E-02  0.31701087746E-02  0.97819752153E-02  0.51100000000E-03 0.  1.
         11    1    4    4    0    0  0.96435142989E-01 -0.48670181079E-01  0.61521589229E-01  0.12431287299E+00  0.51100000000E-03 0. -1.
</event>
<event>
 8    1  0.1148488E+005  0.1043930E+01  0.7957747E-01            NaN
         13   -1    0    0    0    0  0.00000000000E+00  0.00000000000E+00  0.74505805969E-08  0.10566000000E+00  0.10566000000E+00 0.  1.
     999900   -1    0    0    0    0 -0.00000000000E+00 -0.00000000000E+00 -0.74505805969E-08  0.93827000000E+00  0.93827000000E+00 0.  1.
     999902    2    1    2    0    0  0.11880114953E-01 -0.26747335831E-02  0.20979489794E-01  0.10196724172E+01  0.10193838375E+01 0.  0.
     999903    2    3    3    0    0 -0.97392259187E-01  0.74635144074E-01  0.34747799798E-01  0.12944388739E+00  0.22195799414E-01 0.  0.
         14    1    1    2    0    0 -0.11880114953E-01  0.26747335831E-02 -0.20979489794E-01  0.24257582795E-01  0.00000000000E+00 0. -1.
     999901    1    3    3    0    0  0.10927237414E+00 -0.77309877657E-01 -0.13768310004E-01  0.89022852981E+00  0.88000000000E+00 0. -1.
        -11    1    4    4    0    0 -0.69031594555E-01  0.64769054316E-01  0.26411862945E-01  0.98276340332E-01  0.51100000000E-03 0.  1.
         11    1    4    4    0    0 -0.28360664632E-01  0.98660897581E-02  0.83359368532E-02  0.31167547059E-01  0.51100000000E-03 0. -1.
</event>
<event>
 8    1  0.1148488E+005  0.1043930E+01  0.7957747E-01            NaN
         13   -1    0    0    0    0  0.00000000000E+00  0.00000000000E+00  0.74505805969E-08  0.10566000000E+00  0.10566000000E+00 0. -1.
     999900   -1    0    0    0    0 -0.00000000000E+00 -0.00000000000E+00 -0.74505805969E-08  0.93827000000E+00  0.93827000000E+00 0. -1.
     999902    2    1    2    0    0  0.11946017255E-01 -0.24058139253E-04  0.19296799378E-01  0.10212347500E+01  0.10209825367E+01 0.  0.
     999903    2    3    3    0    0 -0.17031061975E-02 -0.60218600283E-01 -0.11263238506E+00  0.12926222172E+00  0.19836517062E-01 0.  0.
         14    1    1    2    0    0 -0.11946017255E-01  0.24058139253E-04 -0.19296799378E-01  0.22695250016E-01  0.00000000000E+00 0.  1.
     999901    1    3    3    0    0  0.13649123453E-01  0.60194542144E-01  0.13192918444E+00  0.89197252827E+00  0.88000000000E+00 0.  1.
        -11    1    4    4    0    0  0.30574232958E-02 -0.10179284137E-01 -0.36598053831E-01  0.38113571441E-01  0.51100000000E-03 0. -1.
         11    1    4    4    0    0 -0.47605294933E-02 -0.50039316146E-01 -0.76034331226E-01  0.91148650277E-01  0.51100000000E-03 0.  1.
</event>
<event>
 8    1  0.1148488E+005  0.1043930E+01  0.7957747E-01            NaN
         13   -1    0    0    0    0  0.00000000000E+00  0.00000000000E+00  0.74505805969E-08  0.10566000000E+00  0.10566000000E+00 0.  1.
     999900   -1    0    0    0    0 -0.00000000000E+00 -0.00000000000E+00 -0.74505805969E-08  0.93827000000E+00  0.93827000000E+00 0.  1.
     999902    2    1    2    0    0 -0.16843761832E-01  0.16191149192E-01 -0.46095452210E-02  0.10201158544E+01  0.10198378512E+01 0.  0.
     999903    2    3    3    0    0 -0.31654132053E-01  0.12111228709E+00 -0.40422409758E-01  0.13303617728E+00  0.19861598479E-01 0.  0.
         14    1    1    2    0    0  0.16843761832E-01 -0.16191149192E-01  0.46095452210E-02  0.23814145627E-01  0.00000000000E+00 0.  1.
     999901    1    3    3    0    0  0.14810370221E-01 -0.10492113790E+00  0.35812864537E-01  0.88707967709E+00  0.88000000000E+00 0. -1.
        -11    1    4    4    0    0 -0.81431252739E-02  0.88955672621E-02 -0.31392490962E-02  0.12472273731E-01  0.51100000000E-03 0. -1.
         11    1    4    4    0    0 -0.23511006780E-01  0.11221671983E+00 -0.37283160661E-01  0.12056390355E+00  0.51100000000E-03 0.  1.
</event>
<event>
 8    1  0.1148488E+005  0.1043930E+01  0.7957747E-01            NaN
         13   -1    0    0    0    0  0.00000000000E+00  0.00000000000E+00  0.74505805969E-08  0.10566000000E+00  0.10566000000E+00 0.  1.
     999900   -1    0    0    0    0 -0.00000000000E+00 -0.00000000000E+00 -0.74505805969E-08  0.93827000000E+00  0.93827000000E+00 0. -1.
     999902    2    1    2    0    0 -0.20939787996E-01  0.61078786120E-02  0.11565446489E-01  0.10192411269E+01  0.10189420662E+01 0.  0.
     999903    2    3    3    0    0  0.90682442288E-01 -0.83974461078E-02 -0.85825680778E-01  0.12674185048E+00  0.20090463953E-01 0.  0.
         14    1    1    2    0    0  0.20939787996E-01 -0.61078786120E-02 -0.11565446489E-01  0.24688873100E-01  0.00000000000E+00 0. -1.
     999901    1    3    3    0    0 -0.11162223028E+00  0.14505324720E-01  0.97391127267E-01  0.89249927642E+00  0.88000000000E+00 0.  1.
        -11    1    4    4    0    0  0.19075662478E-01 -0.22881398217E-02 -0.80274166478E-02  0.20828274577E-01  0.51100000000E-03 0.  1.
         11    1    4    4    0    0  0.71606779810E-01 -0.61093062861E-02 -0.77798264131E-01  0.10591357590E+00  0.51100000000E-03 0. -1.
</event>
<event>
 8    1  0.1148488E+005  0.1043930E+01  0.7957747E-01            NaN
         13   -1    0    0    0    0  0.00000000000E+00  0.00000000000E+00  0.74505805969E-08  0.10566000000E+00  0.10566000000E+00 0. -1.
     999900   -1    0    0    0    0 -0.00000000000E+00 -0.00000000000E+00 -0.74505805969E-08  0.93827000000E+00  0.93827000000E+00 0. -1.
     999902    2    1    2    0    0 -0.16355067690E-01 -0.82894197766E-02  0.14835945327E-01  0.10203438177E+01  0.10200711732E+01 0.  0.
     999903    2    3    3    0    0 -0.99219718088E-01 -0.53315809514E-01 -0.65221710809E-01  0.13169138042E+00  0.20040461956E-01 0.  0.
         14    1    1    2    0    0  0.16355067690E-01  0.82894197766E-02 -0.14835945327E-01  0.23586182250E-01  0.00000000000E+00 0.  1.
     999901    1    3    3    0    0  0.82864650398E-01  0.45026389738E-01  0.80057656137E-01  0.88865243733E+00  0.88000000000E+00 0. -1.
        -11    1    4    4    0    0 -0.84269706245E-01 -0.48695917154E-01 -0.48357070356E-01  0.10868000328E+00  0.51100000000E-03 0.  1.
         11    1    4    4    0    0 -0.14950011843E-01 -0.46198923604E-02 -0.16864640453E-01  0.23011377146E-01  0.51100000000E-03 0. -1.
</event>
<event>
 8    1  0.1148488E+005  0.1043930E+01  0.7957747E-01            NaN
         13   -1    0    0    0    0  0.00000000000E+00  0.00000000000E+00  0.74505805969E-08  0.10566000000E+00  0.10566000000E+00 0.  1.
     999900   -1    0    0    0    0 -0.00000000000E+00 -0.00000000000E+00 -0.74505805969E-08  0.93827000000E+00  0.93827000000E+00 0.  1.
     999902    2    1    2    0    0  0.21488221583E-01  0.97749706647E-02  0.12320682428E-02  0.10202908014E+01  0.10200169154E+01 0.  0.
     999903    2    3    3    0    0  0.45479178876E-01 -0.10495919034E+00 -0.59696682610E-01  0.13043024692E+00  0.19067460518E-01 0.  0.
         14    1    1    2    0    0 -0.21488221583E-01 -0.97749706647E-02 -0.12320682428E-02  0.23639198600E-01  0.00000000000E+00 0. -1.
     999901    1    3    3    0    0 -0.23990957293E-01  0.11473416100E+00  0.60928750852E-01  0.88986055448E+00  0.88000000000E+00 0. -1.
        -11    1    4    4    0    0  0.40578503210E-01 -0.76579670046E-01 -0.39461362980E-01  0.95228782815E-01  0.51100000000E-03 0. -1.
         11    1    4    4    0    0  0.49006756662E-02 -0.28379520290E-01 -0.20235319629E-01  0.35201464109E-01  0.51100000000E-03 0.  1.
</event>
<event>
 8    1  0.1148488E+005  0.1043930E+01  0.7957747E-01            NaN
         13   -1    0    0    0    0  0.00000000000E+00  0.00000000000E+00  0.74505805969E-08  0.10566000000E+00  0.10566000000E+00 0. -1.
     999900   -1    0    0    0    0 -0.00000000000E+00 -0.00000000000E+00 -0.74505805969E-08  0.93827000000E+00  0.93827000000E+00 0. -1.
     999902    2    1    2    0    0  0.48130934123E-02  0.21874640676E-01 -0.96274235084E-02  0.10195506428E+01  0.10192591232E+01 0.  0.
     999903    2    3    3    0    0 -0.31027282428E-01  0.60482237959E-01  0.10917872860E+00  0.13000582614E+00  0.18992806217E-01 0.  0.
         14    1    1    2    0    0 -0.48130934123E-02 -0.21874640676E-01  0.96274235084E-02  0.24379357176E-01  0.00000000000E+00 0. -1.
     999901    1    3    3    0    0  0.35840375841E-01 -0.38607597282E-01 -0.11880615211E+00  0.88954481668E+00  0.88000000000E+00 0. -1.
        -11    1    4    4    0    0  0.27764439099E-03  0.57151674011E-02  0.29513290475E-02  0.64584587153E-02  0.51100000000E-03 0. -1.
         11    1    4    4    0    0 -0.31304926819E-01  0.54767070557E-01  0.10622739955E+00  0.12354736743E+00  0.51100000000E-03 0.  1.
</event>
<event>
 8    1  0.1148488E+005  0.1043930E+01  0.7957747E-01            NaN
         13   -1    0    0    0    0  0.00000000000E+00  0.00000000000E+00  0.74505805969E-08  0.10566000000E+00  0.10566000000E+00 0. -1.
     999900   -1    0    0    0    0 -0.00000000000E+00 -0.00000000000E+00 -0.74505805969E-08  0.93827000000E+00  0.93827000000E+00 0.  1.
     999902    2    1    2    0    0  0.24158545114E-01  0.54457599842E-02 -0.24341525974E-02  0.10190459348E+01  0.10187420677E+01 0.  0.
     999903    2    3    3    0    0  0.12631927596E+00 -0.25668400666E-01 -0.22453513869E-01  0.13236353348E+00  0.20012956766E-01 0.  0.
         14    1    1    2    0    0 -0.24158545114E-01 -0.54457599842E-02  0.24341525974E-02  0.24884065236E-01  0.00000000000E+00 0.  1.
     999901    1    3    3    0    0 -0.10216073085E+00  0.31114160650E-01  0.20019361272E-01  0.88668240128E+00  0.88000000000E+00 0. -1.
        -11    1    4    4    0    0  0.98846924754E-01 -0.27021893638E-01 -0.22198405781E-01  0.10485193183E+00  0.51100000000E-03 0.  1.
         11    1    4    4    0    0  0.27472351206E-01  0.13534929723E-02 -0.25510808854E-03  0.27511601647E-01  0.51100000000E-03 0. -1.
</event>
<event>
 8    1  0.1148488E+005  0.1043930E+01  0.7957747E-01            NaN
         13   -1    0    0    0    0  0.00000000000E+00  0.00000000000E+00  0.74505805969E-08  0.10566000000E+00  0.10566000000E+00 0.  1.
     999900   -1    0    0    0    0 -0.00000000000E+00 -0.00000000000E+00 -0.74505805969E-08  0.93827000000E+00  0.93827000000E+00 0. -1.
     999902    2    1    2    0    0 -0.12024306209E-01  0.17984687055E-01 -0.70261134777E-02  0.10211835898E+01  0.10209302252E+01 0.  0.
     999903    2    3    3    0    0  0.12265530513E+00 -0.36050574215E-01  0.34745103473E-02  0.12923702730E+00  0.18605623510E-01 0.  0.
         14    1    1    2    0    0  0.12024306209E-01 -0.17984687055E-01  0.70261134777E-02  0.22746410242E-01  0.00000000000E+00 0. -1.
     999901    1    3    3    0    0 -0.13467961134E+00  0.54035261270E-01 -0.10500623825E-01  0.89194656245E+00  0.88000000000E+00 0. -1.
        -11    1    4    4    0    0  0.81575008713E-01 -0.23197312376E-01  0.11052744003E-01  0.85527899653E-01  0.51100000000E-03 0. -1.
         11    1    4    4    0    0  0.41080296419E-01 -0.12853261839E-01 -0.75782336557E-02  0.43709127652E-01  0.51100000000E-03 0.  1.
</event>
<event>
 8    1  0.1148488E+005  0.1043930E+01  0.7957747E-01            NaN
         13   -1    0    0    0    0  0.00000000000E+00  0.00000000000E+00  0.74505805969E-08  0.10566000000E+00  0.10566000000E+00 0. -1.
     999900   -1    0    0    0    0 -0.00000000000E+00 -0.00000000000E+00 -0.74505805969E-08  0.93827000000E+00  0.93827000000E+00 0.  1.
     999902    2    1    2    0    0  0.19669194055E-01  0.92755264482E-02 -0.11312201451E-01  0.10194171771E+01  0.10191224178E+01 0.  0.
     999903    2    3    3    0    0  0.90806349687E-01  0.11368146878E-01  0.91015374051E-01  0.13063384765E+00  0.20158768095E-01 0.  0.
         14    1    1    2    0    0 -0.19669194055E-01 -0.92755264482E-02  0.11312201451E-01  0.24512822916E-01  0.00000000000E+00 0.  1.
     999901    1    3    3    0    0 -0.71137155632E-01 -0.20926204293E-02 -0.10232757550E+00  0.88878332943E+00  0.88000000000E+00 0. -1.
        -11    1    4    4    0    0  0.52557319732E-01 -0.17261622066E-02  0.43526015224E-01  0.68264387609E-01  0.51100000000E-03 0. -1.
         11    1    4    4    0    0  0.38249029955E-01  0.13094309084E-01  0.47489358827E-01  0.62369460040E-01  0.51100000000E-03 0.  1.
</event>
<event>
 8    1  0.1148488E+005  0.1043930E+01  0.7957747E-01            NaN
         13   -1    0    0    0    0  0.00000000000E+00  0.00000000000E+00  0.74505805969E-08  0.10566000000E+00  0.10566000000E+00 0. -1.
     999900   -1    0    0    0    0 -0.00000000000E+00 -0.00000000000E+00 -0.74505805969E-08  0.93827000000E+00  0.93827000000E+00 0.  1.
     999902    2    1    2    0    0  0.60612051299E-02  0.50282611370E-02  0.23038218588E-01  0.10195829030E+01  0.10192921637E+01 0.  0.
     999903    2    3    3    0    0  0.82026725157E-01 -0.15557776609E-01  0.10090983379E+00  0.13264517482E+00  0.21012372372E-01 0.  0.
         14    1    1    2    0    0 -0.60612051299E-02 -0.50282611370E-02 -0.23038218588E-01  0.24347097022E-01  0.00000000000E+00 0.  1.
     999901    1    3    3    0    0 -0.75965520027E-01  0.20586037746E-01 -0.77871615206E-01  0.88693772816E+00  0.88000000000E+00 0.  1.
        -11    1    4    4    0    0  0.76431677551E-02 -0.38074503567E-02  0.28750005635E-02  0.90244911652E-02  0.51100000000E-03 0. -1.
         11    1    4    4    0    0  0.74383557402E-01 -0.11750326252E-01  0.98034833230E-01  0.12362068365E+00  0.51100000000E-03 0.  1.
</event>
<event>
 8    1  0.1148488E+005  0.1043930E+01  0.7957747E-01            NaN
         13   -1    0    0    0    0  0.00000000000E+00  0.00000000000E+00  0.74505805969E-08  0.10566000000E+00  0.10566000000E+00 0. -1.
     999900   -1    0    0    0    0 -0.00000000000E+00 -0.00000000000E+00 -0.74505805969E-08  0.93827000000E+00  0.93827000000E+00 0.  1.
     999902    2    1    2    0    0  0.18500657288E-01  0.14625851652E-01  0.46493099513E-02  0.10198924057E+01  0.10196090983E+01 0.  0.
     999903    2    3    3    0    0  0.82198670500E-01 -0.93199868183E-01 -0.33566351956E-01  0.13020467421E+00  0.19588781029E-01 0.  0.
         14    1    1    2    0    0 -0.18500657288E-01 -0.14625851652E-01 -0.46493099513E-02  0.24037594298E-01  0.00000000000E+00 0. -1.
     999901    1    3    3    0    0 -0.63698013212E-01  0.10782571983E+00  0.38215661907E-01  0.88968773149E+00  0.88000000000E+00 0. -1.
        -11    1    4    4    0    0  0.79873064729E-01 -0.82792525228E-01 -0.32039102362E-01  0.11941973834E+00  0.51100000000E-03 0.  1.
         11    1    4    4    0    0  0.23256057704E-02 -0.10407342955E-01 -0.15272495942E-02  0.10784935879E-01  0.51100000000E-03 0. -1.
</event>
<event>
 8    1  0.1148488E+005  0.1043930E+01  0.7957747E-01            NaN
         13   -1    0    0    0    0  0.00000000000E+00  0.00000000000E+00  0.74505805969E-08  0.10566000000E+00  0.10566000000E+00 0.  1.
     999900   -1    0    0    0    0 -0.00000000000E+00 -0.00000000000E+00 -0.74505805969E-08  0.93827000000E+00  0.93827000000E+00 0.  1.
     999902    2    1    2    0    0  0.16716228669E-01  0.13114022963E-01  0.10744249545E-01  0.10201214134E+01  0.10198435415E+01 0.  0.
     999903    2    3    3    0    0 -0.61575286870E-01  0.26741283191E-01  0.11052465391E+00  0.13092436393E+00  0.20466503579E-01 0.  0.
         14    1    1    2    0    0 -0.16716228669E-01 -0.13114022963E-01 -0.10744249545E-01  0.23808586633E-01  0.00000000000E+00 0. -1.
     999901    1    3    3    0    0  0.78291515539E-01 -0.13627260227E-01 -0.99780404368E-01  0.88919704943E+00  0.88000000000E+00 0.  1.
        -11    1    4    4    0    0 -0.37747403524E-01  0.21907803114E-01  0.54312259145E-01  0.69677119089E-01  0.51100000000E-03 0. -1.
         11    1    4    4    0    0 -0.23827883346E-01  0.48334800767E-02  0.56212394768E-01  0.61247244844E-01  0.51100000000E-03 0.  1.
</event>
<event>
 8    1  0.1148488E+005  0.1043930E+01  0.7957747E-01            NaN
         13   -1    0    0    0    0  0.00000000000E+00  0.00000000000E+00  0.74505805969E-08  0.10566000000E+00  0.10566000000E+00 0. -1.
     999900   -1    0    0    0    0 -0.00000000000E+00 -0.00000000000E+00 -0.74505805969E-08  0.93827000000E+00  0.93827000000E+00 0. -1.
     999902    2    1    2    0    0  0.26910632999E-03 -0.57929718114E-02 -0.16073829715E-01  0.10268420235E+01  0.10266998306E+01 0.  0.
     999903    2    3    3    0    0  0.20070573262E-01 -0.20503708806E-01 -0.13420596541E+00  0.13860573431E+00  0.19418507806E-01 0.  0.
         14    1    1    2    0    0 -0.26910632999E-03  0.57929718114E-02  0.16073829715E-01  0.17087976543E-01  0.00000000000E+00 0. -1.
     999901    1    3    3    0    0 -0.19801466932E-01  0.14710736994E-01  0.11813213570E+00  0.88823628915E+00  0.88000000000E+00 0.  1.
        -11    1    4    4    0    0  0.13555236888E-01 -0.24544235650E-02 -0.78087675196E-01  0.79295111960E-01  0.51100000000E-03 0. -1.
         11    1    4    4    0    0  0.65153363741E-02 -0.18049285241E-01 -0.56118290215E-01  0.59310622349E-01  0.51100000000E-03 0.  1.
</event>
<event>
 8    1  0.1148488E+005  0.1043930E+01  0.7957747E-01            NaN
         13   -1    0    0    0    0  0.00000000000E+00  0.00000000000E+00  0.74505805969E-08  0.10566000000E+00  0.10566000000E+00 0. -1.
     999900   -1    0    0    0    0 -0.00000000000E+00 -0.00000000000E+00 -0.74505805969E-08  0.93827000000E+00  0.93827000000E+00 0.  1.
     999902    2    1    2    0    0  0.12214261605E-01  0.15251440750E-01 -0.14009908225E-01  0.10198868688E+01  0.10196034292E+01 0.  0.
     999903    2    3    3    0    0  0.10695043804E+00  0.43485990631E-01 -0.60634882597E-01  0.13312533307E+00  0.26764486566E-01 0.  0.
         14    1    1    2    0    0 -0.12214261605E-01 -0.15251440750E-01  0.14009908225E-01  0.24043131244E-01  0.00000000000E+00 0. -1.
     999901    1    3    3    0    0 -0.94736176430E-01 -0.28234549881E-01  0.46624974372E-01  0.88676153568E+00  0.88000000000E+00 0. -1.
        -11    1    4    4    0    0  0.57506171783E-01  0.20619082269E-01 -0.17248131613E-01  0.63481221726E-01  0.51100000000E-03 0.  1.
         11    1    4    4    0    0  0.49444266253E-01  0.22866908363E-01 -0.43386750985E-01  0.69644111347E-01  0.51100000000E-03 0. -1.
</event>
<event>
 8    1  0.1148488E+005  0.1043930E+01  0.7957747E-01            NaN
         13   -1    0    0    0    0  0.00000000000E+00  0.00000000000E+00  0.74505805969E-08  0.10566000000E+00  0.10566000000E+00 0.  1.
     999900   -1    0    0    0    0 -0.00000000000E+00 -0.00000000000E+00 -0.74505805969E-08  0.93827000000E+00  0.93827000000E+00 0.  1.
     999902    2    1    2    0    0 -0.50289819526E-03 -0.15054649000E-01 -0.18338769023E-01  0.10201980424E+01  0.10199219773E+01 0.  0.
     999903    2    3    3    0    0  0.37721891898E-01  0.54342125428E-01 -0.11161155837E+00  0.13172921338E+00  0.22791181860E-01 0.  0.
         14    1    1    2    0    0  0.50289819526E-03  0.15054649000E-01  0.18338769023E-01  0.23731957618E-01  0.00000000000E+00 0.  1.
     999901    1    3    3    0    0 -0.38224790094E-01 -0.69396774427E-01  0.93272789350E-01  0.88846882900E+00  0.88000000000E+00 0.  1.
        -11    1    4    4    0    0  0.14402416712E-01  0.33347590336E-01 -0.43070904095E-01  0.56345854230E-01  0.51100000000E-03 0.  1.
         11    1    4    4    0    0  0.23319475186E-01  0.20994535092E-01 -0.68540654278E-01  0.75383359148E-01  0.51100000000E-03 0. -1.
</event>
<event>
 8    1  0.1148488E+005  0.1043930E+01  0.7957747E-01            NaN
         13   -1    0    0    0    0  0.00000000000E+00  0.00000000000E+00  0.74505805969E-08  0.10566000000E+00  0.10566000000E+00 0. -1.
     999900   -1    0    0    0    0 -0.00000000000E+00 -0.00000000000E+00 -0.74505805969E-08  0.93827000000E+00  0.93827000000E+00 0. -1.
     999902    2    1    2    0    0 -0.15116046253E-01  0.15353820559E-01 -0.88647528575E-02  0.10206315343E+01  0.10203655768E+01 0.  0.
     999903    2    3    3    0    0  0.30348792969E-01 -0.14717118405E-01  0.12320110923E+00  0.12910884537E+00  0.18786639640E-01 0.  0.
         14    1    1    2    0    0  0.15116046253E-01 -0.15353820559E-01  0.88647528575E-02  0.23298465686E-01  0.00000000000E+00 0. -1.
     999901    1    3    3    0    0 -0.45464839222E-01  0.30070938964E-01 -0.13206586208E+00  0.89152268895E+00  0.88000000000E+00 0. -1.
        -11    1    4    4    0    0  0.19949013832E-01 -0.23274442448E-02  0.89445358669E-01  0.91673951905E-01  0.51100000000E-03 0. -1.
         11    1    4    4    0    0  0.10399779137E-01 -0.12389674160E-01  0.33755750558E-01  0.37434893464E-01  0.51100000000E-03 0.  1.
</event>
<event>
 8    1  0.1148488E+005  0.1043930E+01  0.7957747E-01            NaN
         13   -1    0    0    0    0  0.00000000000E+00  0.00000000000E+00  0.74505805969E-08  0.10566000000E+00  0.10566000000E+00 0.  1.
     999900   -1    0    0    0    0 -0.00000000000E+00 -0.00000000000E+00 -0.74505805969E-08  0.93827000000E+00  0.93827000000E+00 0. -1.
     999902    2    1    2    0    0  0.13492941172E-01  0.16131092016E-01 -0.10054486404E-01  0.10206198244E+01  0.10203535964E+01 0.  0.
     999903    2    3    3    0    0  0.46076947039E-01  0.12265337543E+00  0.14038237583E-01  0.13327030267E+00  0.19924003272E-01 0.  0.
         14    1    1    2    0    0 -0.13492941172E-01 -0.16131092016E-01  0.10054486404E-01  0.23310175631E-01  0.00000000000E+00 0.  1.
     999901    1    3    3    0    0 -0.32584005867E-01 -0.10652228342E+00 -0.24092723987E-01  0.88734952169E+00  0.88000000000E+00 0.  1.
        -11    1    4    4    0    0  0.33456221155E-01  0.64255695252E-01  0.12403936094E-01  0.73499876584E-01  0.51100000000E-03 0. -1.
         11    1    4    4    0    0  0.12620725884E-01  0.58397680183E-01  0.16343014891E-02  0.59770426090E-01  0.51100000000E-03 0.  1.
</event>
<event>
 8    1  0.1148488E+005  0.1043930E+01  0.7957747E-01            NaN
         13   -1    0    0    0    0  0.00000000000E+00  0.00000000000E+00  0.74505805969E-08  0.10566000000E+00  0.10566000000E+00 0.  1.
     999900   -1    0    0    0    0 -0.00000000000E+00 -0.00000000000E+00 -0.74505805969E-08  0.93827000000E+00  0.93827000000E+00 0. -1.
     999902    2    1    2    0    0 -0.15180421836E-01 -0.71462374586E-02 -0.16606829885E-01  0.10203227825E+01  0.10200496458E+01 0.  0.
     999903    2    3    3    0    0 -0.41003427662E-01  0.12182096635E+00 -0.19198096074E-02  0.13042667858E+00  0.22040959474E-01 0.  0.
         14    1    1    2    0    0  0.15180421836E-01  0.71462374586E-02  0.16606829885E-01  0.23607217451E-01  0.00000000000E+00 0.  1.
     999901    1    3    3    0    0  0.25823005826E-01 -0.12896720381E+00 -0.14687020278E-01  0.88989610397E+00  0.88000000000E+00 0.  1.
        -11    1    4    4    0    0 -0.65451796363E-02  0.35993564147E-01  0.78638213665E-02  0.37422945420E-01  0.51100000000E-03 0.  1.
         11    1    4    4    0    0 -0.34458248026E-01  0.85827402205E-01 -0.97836309738E-02  0.93003733163E-01  0.51100000000E-03 0. -1.
</event>
<event>
 8    1  0.1148488E+005  0.1043930E+01  0.7957747E-01            NaN
         13   -1    0    0    0    0  0.00000000000E+00  0.00000000000E+00  0.74505805969E-08  0.10566000000E+00  0.10566000000E+00 0. -1.
     999900   -1    0    0    0    0 -0.00000000000E+00 -0.00000000000E+00 -0.74505805969E-08  0.93827000000E+00  0.93827000000E+00 0. -1.
     999902    2    1    2    0    0 -0.54605811871E-02 -0.15415265562E-01 -0.17953082337E-01  0.10196449938E+01  0.10193557534E+01 0.  0.
     999903    2    3    3    0    0 -0.19445940456E-01  0.12498903370E+00  0.16202011801E-02  0.12818996358E+00  0.20727724605E-01 0.  0.
         14    1    1    2    0    0  0.54605811871E-02  0.15415265562E-01  0.17953082337E-01  0.24285006169E-01  0.00000000000E+00 0. -1.
     999901    1    3    3    0    0  0.13985359269E-01 -0.14040429926E+00 -0.19573283517E-01  0.89145503025E+00  0.88000000000E+00 0.  1.
        -11    1    4    4    0    0 -0.15063430170E-01  0.64506459422E-01  0.99158351310E-02  0.66981901608E-01  0.51100000000E-03 0. -1.
         11    1    4    4    0    0 -0.43825102860E-02  0.60482574275E-01 -0.82956339510E-02  0.61208061977E-01  0.51100000000E-03 0.  1.
</event>
<event>
 8    1  0.1148488E+005  0.1043930E+01  0.7957747E-01            NaN
         13   -1    0    0    0    0  0.00000000000E+00  0.00000000000E+00  0.74505805969E-08  0.10566000000E+00  0.10566000000E+00 0.  1.
     999900   -1    0    0    0    0 -0.00000000000E+00 -0.00000000000E+00 -0.74505805969E-08  0.93827000000E+00  0.93827000000E+00 0. -1.
     999902    2    1    2    0    0  0.21521259301E-01 -0.74567800624E-02  0.25561615042E-02  0.10210105294E+01  0.10207532508E+01 0.  0.
     999903    2    3    3    0    0 -0.57184498688E-01 -0.10484767208E+00  0.49641837353E-01  0.13090006263E+00  0.20184477958E-01 0.  0.
         14    1    1    2    0    0 -0.21521259301E-01  0.74567800624E-02 -0.25561615042E-02  0.22919470596E-01  0.00000000000E+00 0. -1.
     999901    1    3    3    0    0  0.78705757988E-01  0.97390892017E-01 -0.47085675848E-01  0.89011046677E+00  0.88000000000E+00 0.  1.
        -11    1    4    4    0    0 -0.24465141720E-01 -0.44492118605E-01  0.31979999958E-01  0.60008943464E-01  0.51100000000E-03 0.  1.
         11    1    4    4    0    0 -0.32719356968E-01 -0.60355553474E-01  0.17661837394E-01  0.70891119167E-01  0.51100000000E-03 0. -1.
</event>
<event>
 8    1  0.1148488E+005  0.1043930E+01  0.7957747E-01            NaN
         13   -1    0    0    0    0  0.00000000000E+00  0.00000000000E+00  0.74505805969E-08  0.10566000000E+00  0.10566000000E+00 0. -1.
     999900   -1    0    0    0    0 -0.00000000000E+00 -0.00000000000E+00 -0.74505805969E-08  0.93827000000E+00  0.93827000000E+00 0. -1.
     999902    2    1    2    0    0  0.70766448561E-02 -0.21247001270E-01  0.82368773763E-02  0.10200687319E+01  0.10197896144E+01 0.  0.
     999903    2    3    3    0    0  0.48345863612E-01 -0.14850653602E-01 -0.11802673187E+00  0.13007628212E+00  0.20776556351E-01 0.  0.
         14    1    1    2    0    0 -0.70766448561E-02  0.21247001270E-01 -0.82368773763E-02  0.23861268078E-01  0.00000000000E+00 0. -1.
     999901    1    3    3    0    0 -0.41269218756E-01 -0.63963476680E-02  0.12626360925E+00  0.88999244980E+00  0.88000000000E+00 0.  1.
        -11    1    4    4    0    0  0.43549761944E-01 -0.51945665494E-02 -0.93238999783E-01  0.10304046530E+00  0.51100000000E-03 0.  1.
         11    1    4    4    0    0  0.47961016690E-02 -0.96560870524E-02 -0.24787732088E-01  0.27035816826E-01  0.51100000000E-03 0. -1.
</event>
<event>
 8    1  0.1148488E+005  0.1043930E+01  0.7957747E-01            NaN
         13   -1    0    0    0    0  0.00000000000E+00  0.00000000000E+00  0.74505805969E-08  0.10566000000E+00  0.10566000000E+00 0.  1.
     999900   -1    0    0    0    0 -0.00000000000E+00 -0.00000000000E+00 -0.74505805969E-08  0.93827000000E+00  0.93827000000E+00 0. -1.
     999902    2    1    2    0    0 -0.59172601285E-02  0.21369224652E-01 -0.88566876877E-02  0.10200532614E+01  0.10197737776E+01 0.  0.
     999903    2    3    3    0    0 -0.71247651995E-01 -0.15511304781E-01  0.10548237390E+00  0.12949071190E+00  0.18013460917E-01 0.  0.
         14    1    1    2    0    0  0.59172601285E-02 -0.21369224652E-01  0.88566876877E-02  0.23876738606E-01  0.00000000000E+00 0. -1.
     999901    1    3    3    0    0  0.65330391867E-01  0.36880529433E-01 -0.11433906159E+00  0.89056254949E+00  0.88000000000E+00 0. -1.
        -11    1    4    4    0    0 -0.70350658845E-02 -0.69426762340E-02  0.97093329642E-02  0.13864529307E-01  0.51100000000E-03 0.  1.
         11    1    4    4    0    0 -0.64212586111E-01 -0.85686285471E-02  0.95773040937E-01  0.11562618260E+00  0.51100000000E-03 0. -1.
</event>
<event>
 8    1  0.1148488E+005  0.1043930E+01  0.7957747E-01            NaN
         13   -1    0    0    0    0  0.00000000000E+00  0.00000000000E+00  0.74505805969E-08  0.10566000000E+00  0.10566000000E+00 0.  1.
     999900   -1    0    0    0    0 -0.00000000000E+00 -0.00000000000E+00 -0.74505805969E-08  0.93827000000E+00  0.93827000000E+00 0. -1.
     999902    2    1    2    0    0 -0.21921228086E-01 -0.52665237326E-02  0.70779944372E-02  0.10203000504E+01  0.10200263812E+01 0.  0.
     999903    2    3    3    0    0 -0.50363977798E-01  0.61536951922E-01 -0.10117604569E+00  0.13069866125E+00  0.22852157864E-01 0.  0.
         14    1    1    2    0    0  0.21921228086E-01  0.52665237326E-02 -0.70779944372E-02  0.23629949604E-01  0.00000000000E+00 0. -1.
     999901    1    3    3    0    0  0.28442749712E-01 -0.66803475655E-01  0.10825404013E+00  0.88960138915E+00  0.88000000000E+00 0.  1.
        -11    1    4    4    0    0 -0.28329568304E-01  0.50820085983E-01 -0.69199297585E-01  0.90410450098E-01  0.51100000000E-03 0.  1.
         11    1    4    4    0    0 -0.22034409495E-01  0.10716865939E-01 -0.31976748104E-01  0.40288211150E-01  0.51100000000E-03 0. -1.
</event>
<event>
 8    1  0.1148488E+005  0.1043930E+01  0.7957747E-01            NaN
         13   -1    0    0    0    0  0.00000000000E+00  0.00000000000E+00  0.74505805969E-08  0.10566000000E+00  0.10566000000E+00 0. -1.
     999900   -1    0    0    0    0 -0.00000000000E+00 -0.00000000000E+00 -0.74505805969E-08  0.93827000000E+00  0.93827000000E+00 0. -1.
     999902    2    1    2    0    0 -0.13332525659E-01 -0.16044242778E-01 -0.11851598034E-01  0.10199376191E+01  0.10196553891E+01 0.  0.
     999903    2    3    3    0    0 -0.19189873272E-02  0.12242797570E+00 -0.35099570393E-01  0.12873321358E+00  0.18653918863E-01 0.  0.
         14    1    1    2    0    0  0.13332525659E-01  0.16044242778E-01  0.11851598034E-01  0.23992380931E-01  0.00000000000E+00 0. -1.
     999901    1    3    3    0    0 -0.11413538332E-01 -0.13847221848E+00  0.23247972359E-01  0.89120440549E+00  0.88000000000E+00 0.  1.
        -11    1    4    4    0    0  0.45676986386E-02  0.60195408865E-01 -0.94388011685E-02  0.61104035937E-01  0.51100000000E-03 0.  1.
         11    1    4    4    0    0 -0.64866859658E-02  0.62232566839E-01 -0.25660769224E-01  0.67629177640E-01  0.51100000000E-03 0. -1.
</event>
<event>
 8    1  0.1148488E+005  0.1043930E+01  0.7957747E-01            NaN
         13   -1    0    0    0    0  0.00000000000E+00  0.00000000000E+00  0.74505805969E-08  0.10566000000E+00  0.10566000000E+00 0.  1.
     999900   -1    0    0    0    0 -0.00000000000E+00 -0.00000000000E+00 -0.74505805969E-08  0.93827000000E+00  0.93827000000E+00 0.  1.
     999902    2    1    2    0    0 -0.19921822561E-01 -0.10596440755E-01 -0.69328542245E-02  0.10203243219E+01  0.10200512212E+01 0.  0.
     999903    2    3    3    0    0  0.18660069773E-02 -0.11429120790E+00 -0.63045444380E-01  0.13219373633E+00  0.20844512050E-01 0.  0.
         14    1    1    2    0    0  0.19921822561E-01  0.10596440755E-01  0.69328542245E-02  0.23605678099E-01  0.00000000000E+00 0. -1.
     999901    1    3    3    0    0 -0.21787829539E-01  0.10369476715E+00  0.56112590155E-01  0.88813058557E+00  0.88000000000E+00 0. -1.
        -11    1    4    4    0    0  0.14003293127E-02 -0.29361052746E-01 -0.63517215562E-02  0.30077197813E-01  0.51100000000E-03 0. -1.
         11    1    4    4    0    0  0.46567766455E-03 -0.84930155155E-01 -0.56693722824E-01  0.10211653852E+00  0.51100000000E-03 0.  1.
</event>
<event>
 8    1  0.1148488E+005  0.1043930E+01  0.7957747E-01            NaN
         13   -1    0    0    0    0  0.00000000000E+00  0.00000000000E+00  0.74505805969E-08  0.10566000000E+00  0.10566000000E+00 0. -1.
     999900   -1    0    0    0    0 -0.00000000000E+00 -0.00000000000E+00 -0.74505805969E-08  0.93827000000E+00  0.93827000000E+00 0. -1.
     999902    2    1    2    0    0  0.17086426949E-01 -0.15314234454E-01  0.70343964306E-02  0.10199309480E+01  0.10196485592E+01 0.  0.
     999903    2    3    3    0    0 -0.11666501158E+00 -0.47733649064E-01  0.17068044947E-01  0.12917781732E+00  0.22502536506E-01 0.  0.
         14    1    1    2    0    0 -0.17086426949E-01  0.15314234454E-01 -0.70343964306E-02  0.23999051981E-01  0.00000000000E+00 0.  1.
     999901    1    3    3    0    0  0.13375143853E+00  0.32419414609E-01 -0.10033648517E-01  0.89075313070E+00  0.88000000000E+00 0. -1.
        -11    1    4    4    0    0 -0.59416265505E-01 -0.30375008302E-01 -0.81553778734E-03  0.66737245664E-01  0.51100000000E-03 0.  1.
         11    1    4    4    0    0 -0.57248746074E-01 -0.17358640762E-01  0.17883582735E-01  0.62440571654E-01  0.51100000000E-03 0. -1.
</event>
<event>
 8    1  0.1148488E+005  0.1043930E+01  0.7957747E-01            NaN
         13   -1    0    0    0    0  0.00000000000E+00  0.00000000000E+00  0.74505805969E-08  0.10566000000E+00  0.10566000000E+00 0.  1.
     999900   -1    0    0    0    0 -0.00000000000E+00 -0.00000000000E+00 -0.74505805969E-08  0.93827000000E+00  0.93827000000E+00 0. -1.
     999902    2    1    2    0    0 -0.22930352643E-01 -0.45276647720E-03  0.84944679995E-02  0.10194726482E+01  0.10191792376E+01 0.  0.
     999903    2    3    3    0    0 -0.13709487776E-01 -0.11963957839E+00  0.46200948755E-01  0.13059003551E+00  0.20436509888E-01 0.  0.
         14    1    1    2    0    0  0.22930352643E-01  0.45276647720E-03 -0.84944679995E-02  0.24457351786E-01  0.00000000000E+00 0. -1.
     999901    1    3    3    0    0 -0.92208648669E-02  0.11918681191E+00 -0.37706480755E-01  0.88888261271E+00  0.88000000000E+00 0. -1.
        -11    1    4    4    0    0 -0.33507465242E-02 -0.93174635165E-01  0.30390237495E-01  0.98064100446E-01  0.51100000000E-03 0. -1.
         11    1    4    4    0    0 -0.10358741252E-01 -0.26464943221E-01  0.15810711260E-01  0.32525935060E-01  0.51100000000E-03 0.  1.
</event>
<event>
 8    1  0.1148488E+005  0.1043930E+01  0.7957747E-01            NaN
         13   -1    0    0    0    0  0.00000000000E+00  0.00000000000E+00  0.74505805969E-08  0.10566000000E+00  0.10566000000E+00 0. -1.
     999900   -1    0    0    0    0 -0.00000000000E+00 -0.00000000000E+00 -0.74505805969E-08  0.93827000000E+00  0.93827000000E+00 0.  1.
     999902    2    1    2    0    0  0.10785127107E-01 -0.19824240501E-01 -0.70630808401E-02  0.10202824507E+01  0.10200083689E+01 0.  0.
     999903    2    3    3    0    0 -0.12024291597E-01 -0.69165131462E-01  0.10890532650E+00  0.13101113965E+00  0.19368778355E-01 0.  0.
         14    1    1    2    0    0 -0.10785127107E-01  0.19824240501E-01  0.70630808401E-02  0.23647549325E-01  0.00000000000E+00 0. -1.
     999901    1    3    3    0    0  0.22809418704E-01  0.49340890962E-01 -0.11596840734E+00  0.88927131102E+00  0.88000000000E+00 0.  1.
        -11    1    4    4    0    0 -0.78406547086E-02 -0.11996496722E-01  0.32230652421E-01  0.35277016262E-01  0.51100000000E-03 0. -1.
         11    1    4    4    0    0 -0.41836368884E-02 -0.57168634740E-01  0.76674674079E-01  0.95734123393E-01  0.51100000000E-03 0.  1.
</event>
<event>
 8    1  0.1148488E+005  0.1043930E+01  0.7957747E-01            NaN
         13   -1    0    0    0    0  0.00000000000E+00  0.00000000000E+00  0.74505805969E-08  0.10566000000E+00  0.10566000000E+00 0. -1.
     999900   -1    0    0    0    0 -0.00000000000E+00 -0.00000000000E+00 -0.74505805969E-08  0.93827000000E+00  0.93827000000E+00 0. -1.
     999902    2    1    2    0    0  0.90397924714E-02  0.17856432728E-02  0.23477917737E-01  0.10187086005E+01  0.10183963343E+01 0.  0.
     999903    2    3    3    0    0  0.25474856586E-03 -0.11420352189E+00  0.59472104510E-01  0.13032453668E+00  0.20125713290E-01 0.  0.
         14    1    1    2    0    0 -0.90397924714E-02 -0.17856432728E-02 -0.23477917737E-01  0.25221399467E-01  0.00000000000E+00 0.  1.
     999901    1    3    3    0    0  0.87850439056E-02  0.11598916517E+00 -0.35994186773E-01  0.88838406386E+00  0.88000000000E+00 0.  1.
        -11    1    4    4    0    0 -0.79794222427E-02 -0.44110530307E-01  0.16943458296E-01  0.47924440146E-01  0.51100000000E-03 0. -1.
         11    1    4    4    0    0  0.82341708085E-02 -0.70092991586E-01  0.42528646214E-01  0.82400096530E-01  0.51100000000E-03 0.  1.
</event>
<event>
 8    1  0.1148488E+005  0.1043930E+01  0.7957747E-01            NaN
         13   -1    0    0    0    0  0.00000000000E+00  0.00000000000E+00  0.74505805969E-08  0.10566000000E+00  0.10566000000E+00 0. -1.
     999900   -1    0    0    0    0 -0.00000000000E+00 -0.00000000000E+00 -0.74505805969E-08  0.93827000000E+00  0.93827000000E+00 0. -1.
     999902    2    1    2    0    0  0.14518735374E-01 -0.18368266700E-01  0.48389273236E-02  0.10200217981E+01  0.10197415685E+01 0.  0.
     999903    2    3    3    0    0 -0.78787017380E-01 -0.88450814942E-01 -0.51495325084E-01  0.13053257670E+00  0.18869136258E-01 0.  0.
         14    1    1    2    0    0 -0.14518735374E-01  0.18368266700E-01 -0.48389273236E-02  0.23908201858E-01  0.00000000000E+00 0.  1.
     999901    1    3    3    0    0  0.93305752755E-01  0.70082548243E-01  0.56334252408E-01  0.88948922144E+00  0.88000000000E+00 0.  1.
        -11    1    4    4    0    0 -0.43112576671E-01 -0.54952632868E-01 -0.21282258639E-01  0.73018366046E-01  0.51100000000E-03 0.  1.
         11    1    4    4    0    0 -0.35674440710E-01 -0.33498182075E-01 -0.30213066446E-01  0.57514210655E-01  0.51100000000E-03 0. -1.
</event>
<event>
 8    1  0.1148488E+005  0.1043930E+01  0.7957747E-01            NaN
         13   -1    0    0    0    0  0.00000000000E+00  0.00000000000E+00  0.74505805969E-08  0.10566000000E+00  0.10566000000E+00 0.  1.
     999900   -1    0    0    0    0 -0.00000000000E+00 -0.00000000000E+00 -0.74505805969E-08  0.93827000000E+00  0.93827000000E+00 0.  1.
     999902    2    1    2    0    0  0.96142810741E-02 -0.21326128523E-01  0.24318403187E-02  0.10204108162E+01  0.10201397364E+01 0.  0.
     999903    2    3    3    0    0 -0.25178052762E-02 -0.12104418223E+00 -0.51592893320E-01  0.13304981325E+00  0.19554865561E-01 0.  0.
         14    1    1    2    0    0 -0.96142810741E-02  0.21326128523E-01 -0.24318403187E-02  0.23519183780E-01  0.00000000000E+00 0.  1.
     999901    1    3    3    0    0  0.12132086350E-01  0.99718053712E-01  0.54024733639E-01  0.88736100297E+00  0.88000000000E+00 0. -1.
        -11    1    4    4    0    0  0.25231017054E-02 -0.92547597936E-01 -0.46703574676E-01  0.10369623395E+00  0.51100000000E-03 0. -1.
         11    1    4    4    0    0 -0.50409069816E-02 -0.28496584299E-01 -0.48893186440E-02  0.29353579300E-01  0.51100000000E-03 0.  1.
</event>
<event>
 8    1  0.1148488E+005  0.1043930E+01  0.7957747E-01            NaN
         13   -1    0    0    0    0  0.00000000000E+00  0.00000000000E+00  0.74505805969E-08  0.10566000000E+00  0.10566000000E+00 0.  1.
     999900   -1    0    0    0    0 -0.00000000000E+00 -0.00000000000E+00 -0.74505805969E-08  0.93827000000E+00  0.93827000000E+00 0.  1.
     999902    2    1    2    0    0  0.75725978935E-02  0.17536335884E-01 -0.22748457557E-01  0.10142254610E+01  0.10137903758E+01 0.  0.
     999903    2    3    3    0    0  0.12146891556E+00  0.29337251870E-01 -0.10771743085E-02  0.12654236592E+00  0.19910757768E-01 0.  0.
         14    1    1    2    0    0 -0.75725978935E-02 -0.17536335884E-01  0.22748457557E-01  0.29704538985E-01  0.00000000000E+00 0.  1.
     999901    1    3    3    0    0 -0.11389631766E+00 -0.11800915986E-01 -0.21671283248E-01  0.88768309509E+00  0.88000000000E+00 0.  1.
        -11    1    4    4    0    0  0.34580935694E-01  0.13926653421E-01  0.69749856627E-02  0.37930256194E-01  0.51100000000E-03 0.  1.
         11    1    4    4    0    0  0.86887979863E-01  0.15410598449E-01 -0.80521599712E-02  0.88612109728E-01  0.51100000000E-03 0. -1.
</event>
<event>
 8    1  0.1148488E+005  0.1043930E+01  0.7957747E-01            NaN
         13   -1    0    0    0    0  0.00000000000E+00  0.00000000000E+00  0.74505805969E-08  0.10566000000E+00  0.10566000000E+00 0.  1.
     999900   -1    0    0    0    0 -0.00000000000E+00 -0.00000000000E+00 -0.74505805969E-08  0.93827000000E+00  0.93827000000E+00 0.  1.
     999902    2    1    2    0    0 -0.20456940407E-01 -0.11563103366E-01  0.17040213356E-02  0.10203695361E+01  0.10200974928E+01 0.  0.
     999903    2    3    3    0    0 -0.28725294605E-01  0.99595957529E-01  0.76045924446E-01  0.13022829953E+00  0.20782927275E-01 0.  0.
         14    1    1    2    0    0  0.20456940407E-01  0.11563103366E-01 -0.17040213356E-02  0.23560463896E-01  0.00000000000E+00 0. -1.
     999901    1    3    3    0    0  0.82683541983E-02 -0.11115906090E+00 -0.74341903110E-01  0.89014123658E+00  0.88000000000E+00 0.  1.
        -11    1    4    4    0    0 -0.11230194110E-01  0.31243298127E-01  0.36501468665E-01  0.49344495876E-01  0.51100000000E-03 0.  1.
         11    1    4    4    0    0 -0.17495100495E-01  0.68352659403E-01  0.39544455781E-01  0.80883803649E-01  0.51100000000E-03 0. -1.
</event>
<event>
 8    1  0.1148488E+005  0.1043930E+01  0.7957747E-01            NaN
         13   -1    0    0    0    0  0.00000000000E+00  0.00000000000E+00  0.74505805969E-08  0.10566000000E+00  0.10566000000E+00 0. -1.
     999900   -1    0    0    0    0 -0.00000000000E+00 -0.00000000000E+00 -0.74505805969E-08  0.93827000000E+00  0.93827000000E+00 0. -1.
     999902    2    1    2    0    0 -0.11190094410E-01  0.19616173847E-01 -0.20548228866E-02  0.10212532545E+01  0.10210014569E+01 0.  0.
     999903    2    3    3    0    0  0.29531841661E-01 -0.10866583047E+00  0.59608879818E-01  0.12888732007E+00  0.19450715592E-01 0.  0.
         14    1    1    2    0    0  0.11190094410E-01 -0.19616173847E-01  0.20548228866E-02  0.22676745498E-01  0.00000000000E+00 0. -1.
     999901    1    3    3    0    0 -0.40721936071E-01  0.12828200432E+00 -0.61663702705E-01  0.89236593444E+00  0.88000000000E+00 0. -1.
        -11    1    4    4    0    0  0.37704775183E-02 -0.11319506838E-01  0.13826786911E-01  0.18269890340E-01  0.51100000000E-03 0. -1.
         11    1    4    4    0    0  0.25761364143E-01 -0.97346323633E-01  0.45782092908E-01  0.11061742973E+00  0.51100000000E-03 0.  1.
</event>
<event>
 8    1  0.1148488E+005  0.1043930E+01  0.7957747E-01            NaN
         13   -1    0    0    0    0  0.00000000000E+00  0.00000000000E+00  0.74505805969E-08  0.10566000000E+00  0.10566000000E+00 0. -1.
     999900   -1    0    0    0    0 -0.00000000000E+00 -0.00000000000E+00 -0.74505805969E-08  0.93827000000E+00  0.93827000000E+00 0.  1.
     999902    2    1    2    0    0  0.21995653337E-01 -0.79042723408E-02 -0.53209074704E-02  0.10199592190E+01  0.10196775029E+01 0.  0.
     999903    2    3    3    0    0 -0.37230145819E-01  0.32829112358E-01  0.11708991092E+00  0.12858314100E+00  0.18966879947E-01 0.  0.
         14    1    1    2    0    0 -0.21995653337E-01  0.79042723408E-02  0.53209074704E-02  0.23970781031E-01  0.00000000000E+00 0. -1.
     999901    1    3    3    0    0  0.59225799156E-01 -0.40733384699E-01 -0.12241081839E+00  0.89137607797E+00  0.88000000000E+00 0.  1.
        -11    1    4    4    0    0 -0.27339468713E-01  0.26559658734E-01  0.10517108851E+00  0.11186635331E+00  0.51100000000E-03 0.  1.
         11    1    4    4    0    0 -0.98906771065E-02  0.62694536240E-02  0.11918822404E-01  0.16716787696E-01  0.51100000000E-03 0. -1.
</event>
<event>
 8    1  0.1148488E+005  0.1043930E+01  0.7957747E-01            NaN
         13   -1    0    0    0    0  0.00000000000E+00  0.00000000000E+00  0.74505805969E-08  0.10566000000E+00  0.10566000000E+00 0.  1.
     999900   -1    0    0    0    0 -0.00000000000E+00 -0.00000000000E+00 -0.74505805969E-08  0.93827000000E+00  0.93827000000E+00 0.  1.
     999902    2    1    2    0    0  0.34797524837E-02 -0.21325349562E-01 -0.94551458894E-02  0.10203444325E+01  0.10200718023E+01 0.  0.
     999903    2    3    3    0    0 -0.11272107820E+00  0.45817136057E-01 -0.41085307703E-01  0.12960810025E+00  0.17464412787E-01 0.  0.
         14    1    1    2    0    0 -0.34797524837E-02  0.21325349562E-01  0.94551458894E-02  0.23585567516E-01  0.00000000000E+00 0.  1.
     999901    1    3    3    0    0  0.11620083068E+00 -0.67142485618E-01  0.31630161814E-01  0.89073633223E+00  0.88000000000E+00 0. -1.
        -11    1    4    4    0    0 -0.94290823018E-01  0.31623881186E-01 -0.36169281918E-01  0.10582677942E+00  0.51100000000E-03 0. -1.
         11    1    4    4    0    0 -0.18430255183E-01  0.14193254870E-01 -0.49160257852E-02  0.23781320830E-01  0.51100000000E-03 0.  1.
</event>
<event>
 8    1  0.1148488E+005  0.1043930E+01  0.7957747E-01            NaN
         13   -1    0    0    0    0  0.00000000000E+00  0.00000000000E+00  0.74505805969E-08  0.10566000000E+00  0.10566000000E+00 0.  1.
     999900   -1    0    0    0    0 -0.00000000000E+00 -0.00000000000E+00 -0.74505805969E-08  0.93827000000E+00  0.93827000000E+00 0. -1.
     999902    2    1    2    0    0 -0.61020319300E-02 -0.27621757296E-01  0.76107235358E-02  0.10146363252E+01  0.10142133666E+01 0.  0.
     999903    2    3    3    0    0  0.92806358014E-01  0.35213060871E-01  0.72478169930E-01  0.12450213894E+00  0.19867504618E-01 0.  0.
         14    1    1    2    0    0  0.61020319300E-02  0.27621757296E-01 -0.76107235358E-02  0.29293674788E-01  0.00000000000E+00 0. -1.
     999901    1    3    3    0    0 -0.98908389944E-01 -0.62834818167E-01 -0.64867446394E-01  0.89013418628E+00  0.88000000000E+00 0. -1.
        -11    1    4    4    0    0  0.53179496719E-01  0.11449779563E-01  0.32287687540E-01  0.63260668753E-01  0.51100000000E-03 0. -1.
         11    1    4    4    0    0  0.39626861295E-01  0.23763281308E-01  0.40190482390E-01  0.61241470184E-01  0.51100000000E-03 0.  1.
</event>
<event>
 8    1  0.1148488E+005  0.1043930E+01  0.7957747E-01            NaN
         13   -1    0    0    0    0  0.00000000000E+00  0.00000000000E+00  0.74505805969E-08  0.10566000000E+00  0.10566000000E+00 0.  1.
     999900   -1    0    0    0    0 -0.00000000000E+00 -0.00000000000E+00 -0.74505805969E-08  0.93827000000E+00  0.93827000000E+00 0. -1.
     999902    2    1    2    0    0  0.21265490913E-01  0.50398683266E-02 -0.20551374143E-02  0.10219790327E+01  0.10217432644E+01 0.  0.
     999903    2    3    3    0    0  0.39594506321E-01  0.12284022180E+00 -0.27139916829E-01  0.13358603280E+00  0.21241658346E-01 0.  0.
         14    1    1    2    0    0 -0.21265490913E-01 -0.50398683266E-02  0.20551374143E-02  0.21950967321E-01  0.00000000000E+00 0. -1.
     999901    1    3    3    0    0 -0.18329015408E-01 -0.11780035348E+00  0.25084779415E-01  0.88839299988E+00  0.88000000000E+00 0. -1.
        -11    1    4    4    0    0  0.24946037416E-01  0.60021324320E-01 -0.42529338995E-02  0.65139947218E-01  0.51100000000E-03 0. -1.
         11    1    4    4    0    0  0.14648468905E-01  0.62818897482E-01 -0.22886982930E-01  0.68446085577E-01  0.51100000000E-03 0.  1.
</event>
<event>
 8    1  0.1148488E+005  0.1043930E+01  0.7957747E-01            NaN
         13   -1    0    0    0    0  0.00000000000E+00  0.00000000000E+00  0.74505805969E-08  0.10566000000E+00  0.10566000000E+00 0.  1.
     999900   -1    0    0    0    0 -0.00000000000E+00 -0.00000000000E+00 -0.74505805969E-08  0.93827000000E+00  0.93827000000E+00 0. -1.
     999902    2    1    2    0    0 -0.81012738808E-02  0.20601682485E-01  0.13778209490E-01  0.10178551267E+01  0.10175210858E+01 0.  0.
     999903    2    3    3    0    0 -0.98626367586E-01 -0.62528908932E-01 -0.46347347309E-01  0.12728195713E+00  0.20386151489E-01 0.  0.
         14    1    1    2    0    0  0.81012738808E-02 -0.20601682485E-01 -0.13778209490E-01  0.26074873278E-01  0.00000000000E+00 0. -1.
     999901    1    3    3    0    0  0.90525093705E-01  0.83130591417E-01  0.60125556799E-01  0.89057316959E+00  0.88000000000E+00 0. -1.
        -11    1    4    4    0    0 -0.51038278503E-01 -0.37407639878E-01 -0.15115128463E-01  0.65061245171E-01  0.51100000000E-03 0.  1.
         11    1    4    4    0    0 -0.47588089083E-01 -0.25121269054E-01 -0.31232218846E-01  0.62220711958E-01  0.51100000000E-03 0. -1.
</event>
<event>
 8    1  0.1148488E+005  0.1043930E+01  0.7957747E-01            NaN
         13   -1    0    0    0    0  0.00000000000E+00  0.00000000000E+00  0.74505805969E-08  0.10566000000E+00  0.10566000000E+00 0.  1.
     999900   -1    0    0    0    0 -0.00000000000E+00 -0.00000000000E+00 -0.74505805969E-08  0.93827000000E+00  0.93827000000E+00 0.  1.
     999902    2    1    2    0    0  0.18587086665E-01  0.11981103977E-01  0.12794529931E-01  0.10183814846E+01  0.10180609616E+01 0.  0.
     999903    2    3    3    0    0 -0.93472868039E-01 -0.76361078132E-01  0.32906245960E-01  0.12666053289E+00  0.19795915136E-01 0.  0.
         14    1    1    2    0    0 -0.18587086665E-01 -0.11981103977E-01 -0.12794529931E-01  0.25548515404E-01  0.00000000000E+00 0. -1.
     999901    1    3    3    0    0  0.11205995470E+00  0.88342182109E-01 -0.20111716029E-01  0.89172095171E+00  0.88000000000E+00 0.  1.
        -11    1    4    4    0    0 -0.30023656761E-01 -0.36115593405E-01  0.16235071297E-01  0.49695016986E-01  0.51100000000E-03 0.  1.
         11    1    4    4    0    0 -0.63449211279E-01 -0.40245484727E-01  0.16671174663E-01  0.76965515905E-01  0.51100000000E-03 0. -1.
</event>
<event>
 8    1  0.1148488E+005  0.1043930E+01  0.7957747E-01            NaN
         13   -1    0    0    0    0  0.00000000000E+00  0.00000000000E+00  0.74505805969E-08  0.10566000000E+00  0.10566000000E+00 0.  1.
     999900   -1    0    0    0    0 -0.00000000000E+00 -0.00000000000E+00 -0.74505805969E-08  0.93827000000E+00  0.93827000000E+00 0.  1.
     999902    2    1    2    0    0 -0.62241698739E-02 -0.72176469049E-02 -0.21096901892E-01  0.10207801839E+01  0.10205176480E+01 0.  0.
     999903    2    3    3    0    0 -0.63652480597E-01 -0.38067002811E-01 -0.10937762218E+00  0.13396386737E+00  0.21957197841E-01 0.  0.
         14    1    1    2    0    0  0.62241698739E-02  0.72176469049E-02  0.21096901892E-01  0.23149816131E-01  0.00000000000E+00 0.  1.
     999901    1    3    3    0    0  0.57428310723E-01  0.30849355906E-01  0.88280720293E-01  0.88681631650E+00  0.88000000000E+00 0. -1.
        -11    1    4    4    0    0 -0.43632630047E-01 -0.30455929021E-01 -0.60349401511E-01  0.80459190905E-01  0.51100000000E-03 0.  1.
         11    1    4    4    0    0 -0.20019850549E-01 -0.76110737894E-02 -0.49028220674E-01  0.53504676465E-01  0.51100000000E-03 0. -1.
</event>
<event>
 8    1  0.1148488E+005  0.1043930E+01  0.7957747E-01            NaN
         13   -1    0    0    0    0  0.00000000000E+00  0.00000000000E+00  0.74505805969E-08  0.10566000000E+00  0.10566000000E+00 0. -1.
     999900   -1    0    0    0    0 -0.00000000000E+00 -0.00000000000E+00 -0.74505805969E-08  0.93827000000E+00  0.93827000000E+00 0.  1.
     999902    2    1    2    0    0  0.20504900253E-02  0.13080573215E-01  0.19579676040E-01  0.10202938070E+01  0.10200199915E+01 0.  0.
     999903    2    3    3    0    0  0.20669627089E-01  0.78362418268E-02  0.12984701263E+00  0.13320133112E+00  0.19842070267E-01 0.  0.
         14    1    1    2    0    0 -0.20504900253E-02 -0.13080573215E-01 -0.19579676040E-01  0.23636192985E-01  0.00000000000E+00 0.  1.
     999901    1    3    3    0    0 -0.18619137064E-01  0.52443313885E-02 -0.11026733659E+00  0.88709247590E+00  0.88000000000E+00 0.  1.
        -11    1    4    4    0    0  0.97369686520E-02 -0.39767960991E-02  0.82965681058E-01  0.83631267001E-01  0.51100000000E-03 0.  1.
         11    1    4    4    0    0  0.10932658437E-01  0.11813037926E-01  0.46881331572E-01  0.49570064116E-01  0.51100000000E-03 0. -1.
</event>
<event>
 8    1  0.1148488E+005  0.1043930E+01  0.7957747E-01            NaN
         13   -1    0    0    0    0  0.00000000000E+00  0.00000000000E+00  0.74505805969E-08  0.10566000000E+00  0.10566000000E+00 0.  1.
     999900   -1    0    0    0    0 -0.00000000000E+00 -0.00000000000E+00 -0.74505805969E-08  0.93827000000E+00  0.93827000000E+00 0. -1.
     999902    2    1    2    0    0 -0.21561471757E-01  0.94919041656E-02 -0.33436610908E-02  0.10201356020E+01  0.10198580651E+01 0.  0.
     999903    2    3    3    0    0 -0.26112223549E-01  0.25372563628E-01 -0.12484793828E+00  0.13163338245E+00  0.20364785259E-01 0.  0.
         14    1    1    2    0    0  0.21561471757E-01 -0.94919041656E-02  0.33436610908E-02  0.23794398049E-01  0.00000000000E+00 0.  1.
     999901    1    3    3    0    0  0.45507517910E-02 -0.15880659462E-01  0.12150427719E+00  0.88850221950E+00  0.88000000000E+00 0.  1.
        -11    1    4    4    0    0 -0.17325275860E-02  0.15124600591E-01 -0.43077659841E-01  0.45691367820E-01  0.51100000000E-03 0. -1.
         11    1    4    4    0    0 -0.24379695963E-01  0.10247963037E-01 -0.81770278437E-01  0.85942014628E-01  0.51100000000E-03 0.  1.
</event>
<event>
 8    1  0.1148488E+005  0.1043930E+01  0.7957747E-01            NaN
         13   -1    0    0    0    0  0.00000000000E+00  0.00000000000E+00  0.74505805969E-08  0.10566000000E+00  0.10566000000E+00 0. -1.
     999900   -1    0    0    0    0 -0.00000000000E+00 -0.00000000000E+00 -0.74505805969E-08  0.93827000000E+00  0.93827000000E+00 0.  1.
     999902    2    1    2    0    0  0.23071428887E-01 -0.87531130573E-03 -0.70477738342E-03  0.10208312184E+01  0.10205698520E+01 0.  0.
     999903    2    3    3    0    0  0.99885050239E-01 -0.85068192578E-01 -0.14337696143E-01  0.13337720259E+00  0.19242868563E-01 0.  0.
         14    1    1    2    0    0 -0.23071428887E-01  0.87531130573E-03  0.70477738342E-03  0.23098781611E-01  0.00000000000E+00 0. -1.
     999901    1    3    3    0    0 -0.76813621352E-01  0.84192881272E-01  0.13632918760E-01  0.88745401580E+00  0.88000000000E+00 0.  1.
        -11    1    4    4    0    0  0.42223710754E-01 -0.48564198404E-01 -0.73542856506E-02  0.64773989802E-01  0.51100000000E-03 0.  1.
         11    1    4    4    0    0  0.57661339484E-01 -0.36503994175E-01 -0.69834104929E-02  0.68603212789E-01  0.51100000000E-03 0. -1.
</event>
<event>
 8    1  0.1148488E+005  0.1043930E+01  0.7957747E-01            NaN
         13   -1    0    0    0    0  0.00000000000E+00  0.00000000000E+00  0.74505805969E-08  0.10566000000E+00  0.10566000000E+00 0.  1.
     999900   -1    0    0    0    0 -0.00000000000E+00 -0.00000000000E+00 -0.74505805969E-08  0.93827000000E+00  0.93827000000E+00 0.  1.
     999902    2    1    2    0    0 -0.12596871761E-01  0.16584803722E-01  0.12138279647E-01  0.10198245084E+01  0.10195395790E+01 0.  0.
     999903    2    3    3    0    0 -0.96018958473E-02 -0.11012060936E+00  0.63913232531E-01  0.12923825354E+00  0.19971977279E-01 0.  0.
         14    1    1    2    0    0  0.12596871761E-01 -0.16584803722E-01 -0.12138279647E-01  0.24105491603E-01  0.00000000000E+00 0. -1.
     999901    1    3    3    0    0 -0.29949759138E-02  0.12670541308E+00 -0.51774952884E-01  0.89058625485E+00  0.88000000000E+00 0.  1.
        -11    1    4    4    0    0 -0.10734045161E-01 -0.54368936376E-01  0.41050076651E-01  0.68967897476E-01  0.51100000000E-03 0.  1.
         11    1    4    4    0    0  0.11321493135E-02 -0.55751672986E-01  0.22863155880E-01  0.60270356068E-01  0.51100000000E-03 0. -1.
</event>
<event>
 8    1  0.1148488E+005  0.1043930E+01  0.7957747E-01            NaN
         13   -1    0    0    0    0  0.00000000000E+00  0.00000000000E+00  0.74505805969E-08  0.10566000000E+00  0.10566000000E+00 0. -1.
     999900   -1    0    0    0    0 -0.00000000000E+00 -0.00000000000E+00 -0.74505805969E-08  0.93827000000E+00  0.93827000000E+00 0.  1.
     999902    2    1    2    0    0  0.98173225253E-02  0.17306473079E-01 -0.11979944550E-01  0.10207047357E+01  0.10204404659E+01 0.  0.
     999903    2    3    3    0    0 -0.59532455529E-01  0.77271434275E-01  0.84981396744E-01  0.13064479949E+00  0.18199945706E-01 0.  0.
         14    1    1    2    0    0 -0.98173225253E-02 -0.17306473079E-01  0.11979944550E-01  0.23225264335E-01  0.00000000000E+00 0. -1.
     999901    1    3    3    0    0  0.69349778054E-01 -0.59964961196E-01 -0.96961341295E-01  0.89005993618E+00  0.88000000000E+00 0.  1.
        -11    1    4    4    0    0 -0.15581763527E-01  0.27667868524E-01  0.37362994269E-01  0.49036280090E-01  0.51100000000E-03 0.  1.
         11    1    4    4    0    0 -0.43950692002E-01  0.49603565750E-01  0.47618402475E-01  0.81608519396E-01  0.51100000000E-03 0. -1.
</event>
<event>
 7    1  0.1148488E+005  0.1043930E+01  0.7957747E-01            NaN
         13   -1    0    0    0    0  0.00000000000E+00  0.00000000000E+00  0.74505805969E-08  0.10566000000E+00  0.10566000000E+00 0.  1.
     999900   -1    0    0    0    0 -0.00000000000E+00 -0.00000000000E+00 -0.74505805969E-08  0.93827000000E+00  0.93827000000E+00 0.  1.
     999903    2    1    2    0    0 -0.42333994613E-01 -0.99179953444E-01 -0.39222805105E-01  0.11648063467E+00  0.20011985128E-01 0.  0.
         14    1    1    2    0    0  0.16949603864E-01  0.26693637920E-01 -0.27063605246E-01  0.41620645183E-01  0.00000000000E+00 0. -1.
     999901    1    1    2    0    0  0.25384390749E-01  0.72486315524E-01  0.66286410352E-01  0.88582872014E+00  0.88000000000E+00 0. -1.
        -11    1    3    3    0    0 -0.35031067334E-01 -0.62036097382E-01 -0.31219960829E-01  0.77785603630E-01  0.51100000000E-03 0. -1.
         11    1    3    3    0    0 -0.73029272792E-02 -0.37143856062E-01 -0.80028442763E-02  0.38695031044E-01  0.51100000000E-03 0.  1.
</event>
<event>
 8    1  0.1148488E+005  0.1043930E+01  0.7957747E-01            NaN
         13   -1    0    0    0    0  0.00000000000E+00  0.00000000000E+00  0.74505805969E-08  0.10566000000E+00  0.10566000000E+00 0.  1.
     999900   -1    0    0    0    0 -0.00000000000E+00 -0.00000000000E+00 -0.74505805969E-08  0.93827000000E+00  0.93827000000E+00 0.  1.
     999902    2    1    2    0    0  0.11954931296E-01  0.11648345692E-01  0.17241999881E-01  0.10199322730E+01  0.10196499157E+01 0.  0.
     999903    2    3    3    0    0  0.80364223421E-01  0.10988728319E-01  0.10359811870E+00  0.13306269660E+00  0.19848185631E-01 0.  0.
         14    1    1    2    0    0 -0.11954931296E-01 -0.11648345692E-01 -0.17241999881E-01  0.23997726966E-01  0.00000000000E+00 0. -1.
     999901    1    3    3    0    0 -0.68409292125E-01  0.65961737313E-03 -0.86356118818E-01  0.88686957643E+00  0.88000000000E+00 0.  1.
        -11    1    4    4    0    0  0.22390331200E-01  0.10702963323E-01  0.39330914185E-01  0.46508733446E-01  0.51100000000E-03 0. -1.
         11    1    4    4    0    0  0.57973892221E-01  0.28576499571E-03  0.64267204514E-01  0.86553963155E-01  0.51100000000E-03 0.  1.
</event>
<event>
 8    1  0.1148488E+005  0.1043930E+01  0.7957747E-01            NaN
         13   -1    0    0    0    0  0.00000000000E+00  0.00000000000E+00  0.74505805969E-08  0.10566000000E+00  0.10566000000E+00 0.  1.
     999900   -1    0    0    0    0 -0.00000000000E+00 -0.00000000000E+00 -0.74505805969E-08  0.93827000000E+00  0.93827000000E+00 0. -1.
     999902    2    1    2    0    0 -0.15793244788E-01  0.14439694905E-01  0.10194143264E-01  0.10202265841E+01  0.10199511905E+01 0.  0.
     999903    2    3    3    0    0  0.10198620019E+00 -0.56007211597E-01  0.51204883280E-01  0.12864560340E+00  0.19742300305E-01 0.  0.
         14    1    1    2    0    0  0.15793244788E-01 -0.14439694905E-01 -0.10194143264E-01  0.23703415930E-01  0.00000000000E+00 0. -1.
     999901    1    3    3    0    0 -0.11777944498E+00  0.70446906502E-01 -0.41010740017E-01  0.89158098067E+00  0.88000000000E+00 0. -1.
        -11    1    4    4    0    0  0.50344485040E-01 -0.32430058942E-01  0.35992280783E-01  0.69871176417E-01  0.51100000000E-03 0. -1.
         11    1    4    4    0    0  0.51641715154E-01 -0.23577152654E-01  0.15212602497E-01  0.58774426982E-01  0.51100000000E-03 0.  1.
</event>
<event>
 8    1  0.1148488E+005  0.1043930E+01  0.7957747E-01            NaN
         13   -1    0    0    0    0  0.00000000000E+00  0.00000000000E+00  0.74505805969E-08  0.10566000000E+00  0.10566000000E+00 0.  1.
     999900   -1    0    0    0    0 -0.00000000000E+00 -0.00000000000E+00 -0.74505805969E-08  0.93827000000E+00  0.93827000000E+00 0.  1.
     999902    2    1    2    0    0  0.38085971031E-02 -0.70014602970E-02 -0.22761160741E-01  0.10198136923E+01  0.10195285041E+01 0.  0.
     999903    2    3    3    0    0 -0.85876846337E-01 -0.56277800355E-01  0.74551008695E-01  0.12855542740E+00  0.20654817046E-01 0.  0.
         14    1    1    2    0    0 -0.38085971031E-02  0.70014602970E-02  0.22761160741E-01  0.24116307687E-01  0.00000000000E+00 0.  1.
     999901    1    3    3    0    0  0.89685443440E-01  0.49276340058E-01 -0.97312169436E-01  0.89125826491E+00  0.88000000000E+00 0. -1.
        -11    1    4    4    0    0 -0.64943647903E-01 -0.36976556461E-01  0.63286400644E-01  0.97930448575E-01  0.51100000000E-03 0. -1.
         11    1    4    4    0    0 -0.20933198433E-01 -0.19301243894E-01  0.11264608051E-01  0.30624978825E-01  0.51100000000E-03 0.  1.
</event>
<event>
 8    1  0.1148488E+005  0.1043930E+01  0.7957747E-01            NaN
         13   -1    0    0    0    0  0.00000000000E+00  0.00000000000E+00  0.74505805969E-08  0.10566000000E+00  0.10566000000E+00 0.  1.
     999900   -1    0    0    0    0 -0.00000000000E+00 -0.00000000000E+00 -0.74505805969E-08  0.93827000000E+00  0.93827000000E+00 0. -1.
     999902    2    1    2    0    0 -0.19206513300E-01  0.32156758130E-02 -0.12968196335E-01  0.10205333156E+01  0.10202650849E+01 0.  0.
     999903    2    3    3    0    0 -0.30161493862E-01  0.19404606366E-01 -0.12643693831E+00  0.13303275309E+00  0.20619397776E-01 0.  0.
         14    1    1    2    0    0  0.19206513300E-01 -0.32156758130E-02  0.12968196335E-01  0.23396684386E-01  0.00000000000E+00 0.  1.
     999901    1    3    3    0    0  0.10954980562E-01 -0.16188930553E-01  0.11346874198E+00  0.88750056252E+00  0.88000000000E+00 0.  1.
        -11    1    4    4    0    0 -0.21306654001E-01  0.23269035562E-01 -0.10117987835E+00  0.10598608600E+00  0.51100000000E-03 0. -1.
         11    1    4    4    0    0 -0.88548398610E-02 -0.38644291960E-02 -0.25257059960E-01  0.27046667092E-01  0.51100000000E-03 0.  1.
</event>
<event>
 8    1  0.1148488E+005  0.1043930E+01  0.7957747E-01            NaN
         13   -1    0    0    0    0  0.00000000000E+00  0.00000000000E+00  0.74505805969E-08  0.10566000000E+00  0.10566000000E+00 0. -1.
     999900   -1    0    0    0    0 -0.00000000000E+00 -0.00000000000E+00 -0.74505805969E-08  0.93827000000E+00  0.93827000000E+00 0. -1.
     999902    2    1    2    0    0 -0.96579115008E-02  0.38784356768E-03  0.21302313304E-01  0.10205373894E+01  0.10202692532E+01 0.  0.
     999903    2    3    3    0    0 -0.51492493544E-01  0.15361196310E-01  0.12110490984E+00  0.13378212904E+00  0.18542265812E-01 0.  0.
         14    1    1    2    0    0  0.96579115008E-02 -0.38784356768E-03 -0.21302313304E-01  0.23392610570E-01  0.00000000000E+00 0.  1.
     999901    1    3    3    0    0  0.41834582043E-01 -0.14973352742E-01 -0.99802596534E-01  0.88675526039E+00  0.88000000000E+00 0. -1.
        -11    1    4    4    0    0 -0.32664787000E-01  0.18646260019E-01  0.76291910752E-01  0.85061084461E-01  0.51100000000E-03 0.  1.
         11    1    4    4    0    0 -0.18827706544E-01 -0.32850637089E-02  0.44812999085E-01  0.48721044584E-01  0.51100000000E-03 0. -1.
</event>
<event>
 8    1  0.1148488E+005  0.1043930E+01  0.7957747E-01            NaN
         13   -1    0    0    0    0  0.00000000000E+00  0.00000000000E+00  0.74505805969E-08  0.10566000000E+00  0.10566000000E+00 0.  1.
     999900   -1    0    0    0    0 -0.00000000000E+00 -0.00000000000E+00 -0.74505805969E-08  0.93827000000E+00  0.93827000000E+00 0.  1.
     999902    2    1    2    0    0  0.16152653484E-01 -0.16671308691E-01 -0.29211505222E-02  0.10205339775E+01  0.10202657621E+01 0.  0.
     999903    2    3    3    0    0 -0.35850688764E-01 -0.10908459475E+00 -0.62189555395E-01  0.13218871419E+00  0.20532770457E-01 0.  0.
         14    1    1    2    0    0 -0.16152653484E-01  0.16671308691E-01  0.29211505222E-02  0.23396022492E-01  0.00000000000E+00 0. -1.
     999901    1    3    3    0    0  0.52003342248E-01  0.92413286057E-01  0.59268404873E-01  0.88834526332E+00  0.88000000000E+00 0.  1.
        -11    1    4    4    0    0 -0.27929983589E-01 -0.10190089392E+00 -0.53686882725E-01  0.11851758799E+00  0.51100000000E-03 0.  1.
         11    1    4    4    0    0 -0.79207051747E-02 -0.71837008275E-02 -0.85026726704E-02  0.13671126200E-01  0.51100000000E-03 0. -1.
</event>
<event>
 8    1  0.1148488E+005  0.1043930E+01  0.7957747E-01            NaN
         13   -1    0    0    0    0  0.00000000000E+00  0.00000000000E+00  0.74505805969E-08  0.10566000000E+00  0.10566000000E+00 0. -1.
     999900   -1    0    0    0    0 -0.00000000000E+00 -0.00000000000E+00 -0.74505805969E-08  0.93827000000E+00  0.93827000000E+00 0.  1.
     999902    2    1    2    0    0  0.10278142427E-02 -0.17753721031E-01 -0.15218358676E-01  0.10205238159E+01  0.10202553648E+01 0.  0.
     999903    2    3    3    0    0  0.14648576674E-01  0.74898426444E-01 -0.10399670526E+00  0.13111303319E+00  0.23472487870E-01 0.  0.
         14    1    1    2    0    0 -0.10278142427E-02  0.17753721031E-01  0.15218358676E-01  0.23406184083E-01  0.00000000000E+00 0. -1.
     999901    1    3    3    0    0 -0.13620762431E-01 -0.92652147474E-01  0.88778346581E-01  0.88941078272E+00  0.88000000000E+00 0. -1.
        -11    1    4    4    0    0  0.20335131256E-01  0.59251472473E-01 -0.75502570472E-01  0.98107868300E-01  0.51100000000E-03 0.  1.
         11    1    4    4    0    0 -0.56865545822E-02  0.15646953970E-01 -0.28494134785E-01  0.33005164895E-01  0.51100000000E-03 0. -1.
</event>
<event>
 8    1  0.1148488E+005  0.1043930E+01  0.7957747E-01            NaN
         13   -1    0    0    0    0  0.00000000000E+00  0.00000000000E+00  0.74505805969E-08  0.10566000000E+00  0.10566000000E+00 0. -1.
     999900   -1    0    0    0    0 -0.00000000000E+00 -0.00000000000E+00 -0.74505805969E-08  0.93827000000E+00  0.93827000000E+00 0.  1.
     999902    2    1    2    0    0 -0.13563872718E-01  0.78611823433E-02  0.23108911213E-01  0.10160051256E+01  0.10156212959E+01 0.  0.
     999903    2    3    3    0    0  0.68284477764E-01 -0.99899296883E-01 -0.22068751167E-01  0.12451620560E+00  0.19355006026E-01 0.  0.
         14    1    1    2    0    0  0.13563872718E-01 -0.78611823433E-02 -0.23108911213E-01  0.27924874366E-01  0.00000000000E+00 0.  1.
     999901    1    3    3    0    0 -0.81848350482E-01  0.10776047923E+00  0.45177662380E-01  0.89148892003E+00  0.88000000000E+00 0. -1.
        -11    1    4    4    0    0  0.12511585775E-01 -0.10874860536E-01  0.21028367458E-02  0.16717817252E-01  0.51100000000E-03 0.  1.
         11    1    4    4    0    0  0.55772891989E-01 -0.89024436347E-01 -0.24171587913E-01  0.10779838835E+00  0.51100000000E-03 0. -1.
</event>
<event>
 8    1  0.1148488E+005  0.1043930E+01  0.7957747E-01            NaN
         13   -1    0    0    0    0  0.00000000000E+00  0.00000000000E+00  0.74505805969E-08  0.10566000000E+00  0.10566000000E+00 0.  1.
     999900   -1    0    0    0    0 -0.00000000000E+00 -0.00000000000E+00 -0.74505805969E-08  0.93827000000E+00  0.93827000000E+00 0.  1.
     999902    2    1    2    0    0  0.15231906760E-01 -0.11160433611E-01  0.14561273650E-01  0.10200847289E+01  0.10198059900E+01 0.  0.
     999903    2    3    3    0    0  0.68472334786E-01  0.49763373420E-01  0.99734136558E-01  0.13227806641E+00  0.19640134768E-01 0.  0.
         14    1    1    2    0    0 -0.15231906760E-01  0.11160433611E-01 -0.14561273650E-01  0.23845271067E-01  0.00000000000E+00 0.  1.
     999901    1    3    3    0    0 -0.53240428026E-01 -0.60923807031E-01 -0.85172862908E-01  0.88780666252E+00  0.88000000000E+00 0.  1.
        -11    1    4    4    0    0  0.43607444453E-01  0.41962198221E-01  0.64454543040E-01  0.88414277867E-01  0.51100000000E-03 0. -1.
         11    1    4    4    0    0  0.24864890333E-01  0.78011751985E-02  0.35279593519E-01  0.43863788546E-01  0.51100000000E-03 0.  1.
</event>
<event>
 8    1  0.1148488E+005  0.1043930E+01  0.7957747E-01            NaN
         13   -1    0    0    0    0  0.00000000000E+00  0.00000000000E+00  0.74505805969E-08  0.10566000000E+00  0.10566000000E+00 0. -1.
     999900   -1    0    0    0    0 -0.00000000000E+00 -0.00000000000E+00 -0.74505805969E-08  0.93827000000E+00  0.93827000000E+00 0. -1.
     999902    2    1    2    0    0  0.38722031914E-02  0.18869822310E-01  0.14063161766E-01  0.10200797029E+01  0.10198008451E+01 0.  0.
     999903    2    3    3    0    0  0.88880582496E-01 -0.83490603279E-01  0.39498980592E-01  0.12971401280E+00  0.19877546828E-01 0.  0.
         14    1    1    2    0    0 -0.38722031914E-02 -0.18869822310E-01 -0.14063161766E-01  0.23850297072E-01  0.00000000000E+00 0.  1.
     999901    1    3    3    0    0 -0.85008379304E-01  0.10236042559E+00 -0.25435818826E-01  0.89036569013E+00  0.88000000000E+00 0.  1.
        -11    1    4    4    0    0  0.46822876463E-01 -0.57105832003E-01  0.21751385875E-01  0.76985983902E-01  0.51100000000E-03 0. -1.
         11    1    4    4    0    0  0.42057706033E-01 -0.26384771277E-01  0.17747594717E-01  0.52728028897E-01  0.51100000000E-03 0.  1.
</event>
<event>
 8    1  0.1148488E+005  0.1043930E+01  0.7957747E-01            NaN
         13   -1    0    0    0    0  0.00000000000E+00  0.00000000000E+00  0.74505805969E-08  0.10566000000E+00  0.10566000000E+00 0. -1.
     999900   -1    0    0    0    0 -0.00000000000E+00 -0.00000000000E+00 -0.74505805969E-08  0.93827000000E+00  0.93827000000E+00 0. -1.
     999902    2    1    2    0    0 -0.95245106619E-02  0.19123846167E-01 -0.73924865128E-02  0.10213227743E+01  0.10210725355E+01 0.  0.
     999903    2    3    3    0    0 -0.57236034101E-01 -0.11324724273E+00  0.19299048617E-01  0.12974499719E+00  0.18984452426E-01 0.  0.
         14    1    1    2    0    0  0.95245106619E-02 -0.19123846167E-01  0.73924865128E-02  0.22607225668E-01  0.00000000000E+00 0. -1.
     999901    1    3    3    0    0  0.47711523439E-01  0.13237108889E+00 -0.26691535130E-01  0.89157777714E+00  0.88000000000E+00 0. -1.
        -11    1    4    4    0    0 -0.40312455024E-01 -0.61773065760E-01  0.63893682657E-02  0.74041142828E-01  0.51100000000E-03 0.  1.
         11    1    4    4    0    0 -0.16923579077E-01 -0.51474176966E-01  0.12909680351E-01  0.55703854363E-01  0.51100000000E-03 0. -1.
</event>
<event>
 8    1  0.1148488E+005  0.1043930E+01  0.7957747E-01            NaN
         13   -1    0    0    0    0  0.00000000000E+00  0.00000000000E+00  0.74505805969E-08  0.10566000000E+00  0.10566000000E+00 0. -1.
     999900   -1    0    0    0    0 -0.00000000000E+00 -0.00000000000E+00 -0.74505805969E-08  0.93827000000E+00  0.93827000000E+00 0.  1.
     999902    2    1    2    0    0  0.12936486307E-01  0.17112516982E-01 -0.91207527794E-02  0.10206195078E+01  0.10203532725E+01 0.  0.
     999903    2    3    3    0    0  0.10668160611E+00 -0.25644672437E-01  0.69029468537E-01  0.13116811406E+00  0.20034777549E-01 0.  0.
         14    1    1    2    0    0 -0.12936486307E-01 -0.17112516982E-01  0.91207527794E-02  0.23310492202E-01  0.00000000000E+00 0. -1.
     999901    1    3    3    0    0 -0.93745119807E-01  0.42757189419E-01 -0.78150221316E-01  0.88945139374E+00  0.88000000000E+00 0. -1.
        -11    1    4    4    0    0  0.65269300718E-01 -0.15902317779E-01  0.30542935041E-01  0.73797678343E-01  0.51100000000E-03 0.  1.
         11    1    4    4    0    0  0.41412305396E-01 -0.97423546581E-02  0.38486533496E-01  0.57370435714E-01  0.51100000000E-03 0. -1.
</event>
<event>
 8    1  0.1148488E+005  0.1043930E+01  0.7957747E-01            NaN
         13   -1    0    0    0    0  0.00000000000E+00  0.00000000000E+00  0.74505805969E-08  0.10566000000E+00  0.10566000000E+00 0. -1.
     999900   -1    0    0    0    0 -0.00000000000E+00 -0.00000000000E+00 -0.74505805969E-08  0.93827000000E+00  0.93827000000E+00 0.  1.
     999902    2    1    2    0    0  0.11955427898E-01  0.24570510297E-01 -0.47486200163E-02  0.10161956959E+01  0.10158171591E+01 0.  0.
     999903    2    3    3    0    0  0.28389317769E-01  0.51059639152E-01 -0.11324146428E+00  0.12898521131E+00  0.20012880664E-01 0.  0.
         14    1    1    2    0    0 -0.11955427898E-01 -0.24570510297E-01  0.47486200163E-02  0.27734304111E-01  0.00000000000E+00 0. -1.
     999901    1    3    3    0    0 -0.16433889871E-01 -0.26489128855E-01  0.10849284426E+00  0.88721048457E+00  0.88000000000E+00 0. -1.
        -11    1    4    4    0    0  0.22897963725E-01  0.21146117725E-01 -0.52619656767E-01  0.61160153996E-01  0.51100000000E-03 0.  1.
         11    1    4    4    0    0  0.54913540442E-02  0.29913521427E-01 -0.60621807510E-01  0.67825057318E-01  0.51100000000E-03 0. -1.
</event>
<event>
 8    1  0.1148488E+005  0.1043930E+01  0.7957747E-01            NaN
         13   -1    0    0    0    0  0.00000000000E+00  0.00000000000E+00  0.74505805969E-08  0.10566000000E+00  0.10566000000E+00 0. -1.
     999900   -1    0    0    0    0 -0.00000000000E+00 -0.00000000000E+00 -0.74505805969E-08  0.93827000000E+00  0.93827000000E+00 0.  1.
     999902    2    1    2    0    0 -0.20090209846E-01  0.91116739075E-02 -0.90254901161E-02  0.10200951808E+01  0.10198166891E+01 0.  0.
     999903    2    3    3    0    0  0.78166383072E-01 -0.23905071105E-01  0.96281718540E-01  0.12777569113E+00  0.19365486095E-01 0.  0.
         14    1    1    2    0    0  0.20090209846E-01 -0.91116739075E-02  0.90254901161E-02  0.23834819170E-01  0.00000000000E+00 0. -1.
     999901    1    3    3    0    0 -0.98256592918E-01  0.33016745012E-01 -0.10530720866E+00  0.89231948970E+00  0.88000000000E+00 0.  1.
        -11    1    4    4    0    0  0.48434642277E-01 -0.23815315185E-01  0.56896241516E-01  0.78425297127E-01  0.51100000000E-03 0.  1.
         11    1    4    4    0    0  0.29731740796E-01 -0.89755919767E-04  0.39385477024E-01  0.49350394003E-01  0.51100000000E-03 0. -1.
</event>
<event>
 8    1  0.1148488E+005  0.1043930E+01  0.7957747E-01            NaN
         13   -1    0    0    0    0  0.00000000000E+00  0.00000000000E+00  0.74505805969E-08  0.10566000000E+00  0.10566000000E+00 0. -1.
     999900   -1    0    0    0    0 -0.00000000000E+00 -0.00000000000E+00 -0.74505805969E-08  0.93827000000E+00  0.93827000000E+00 0. -1.
     999902    2    1    2    0    0 -0.22619121420E-02  0.21342149402E-01 -0.90009961763E-02  0.10206572365E+01  0.10203918722E+01 0.  0.
     999903    2    3    3    0    0 -0.94228319107E-01  0.78983765454E-01  0.44898146004E-01  0.13235239389E+00  0.19593400117E-01 0.  0.
         14    1    1    2    0    0  0.22619121420E-02 -0.21342149402E-01  0.90009961763E-02  0.23272763476E-01  0.00000000000E+00 0. -1.
     999901    1    3    3    0    0  0.91966406965E-01 -0.57641616052E-01 -0.53899142180E-01  0.88830484263E+00  0.88000000000E+00 0. -1.
        -11    1    4    4    0    0 -0.55709837573E-01  0.55694362293E-01  0.21693810126E-01  0.81708815390E-01  0.51100000000E-03 0. -1.
         11    1    4    4    0    0 -0.38518481534E-01  0.23289403161E-01  0.23204335878E-01  0.50643578505E-01  0.51100000000E-03 0.  1.
</event>
<event>
 8    1  0.1148488E+005  0.1043930E+01  0.7957747E-01            NaN
         13   -1    0    0    0    0  0.00000000000E+00  0.00000000000E+00  0.74505805969E-08  0.10566000000E+00  0.10566000000E+00 0. -1.
     999900   -1    0    0    0    0 -0.00000000000E+00 -0.00000000000E+00 -0.74505805969E-08  0.93827000000E+00  0.93827000000E+00 0.  1.
     999902    2    1    2    0    0  0.94462358130E-02 -0.19942569477E-01 -0.78475975970E-02  0.10205094484E+01  0.10202406638E+01 0.  0.
     999903    2    3    3    0    0 -0.85880862806E-01 -0.75193211710E-01  0.61203004325E-01  0.13095457387E+00  0.19332640700E-01 0.  0.
         14    1    1    2    0    0 -0.94462358130E-02  0.19942569477E-01  0.78475975970E-02  0.23420551583E-01  0.00000000000E+00 0. -1.
     999901    1    3    3    0    0  0.95327098619E-01  0.55250642233E-01 -0.69050601922E-01  0.88955487454E+00  0.88000000000E+00 0.  1.
        -11    1    4    4    0    0 -0.77680936801E-01 -0.72702685903E-01  0.60366234101E-01  0.12232886749E+00  0.51100000000E-03 0.  1.
         11    1    4    4    0    0 -0.81999260048E-02 -0.24905258069E-02  0.83677022412E-03  0.86257063877E-02  0.51100000000E-03 0. -1.
</event>
<event>
 8    1  0.1148488E+005  0.1043930E+01  0.7957747E-01            NaN
         13   -1    0    0    0    0  0.00000000000E+00  0.00000000000E+00  0.74505805969E-08  0.10566000000E+00  0.10566000000E+00 0.  1.
     999900   -1    0    0    0    0 -0.00000000000E+00 -0.00000000000E+00 -0.74505805969E-08  0.93827000000E+00  0.93827000000E+00 0.  1.
     999902    2    1    2    0    0  0.12730312507E-01 -0.22544554152E-01 -0.23545053425E-02  0.10179326641E+01  0.10176006325E+01 0.  0.
     999903    2    3    3    0    0  0.25218934369E-01 -0.74984026737E-01  0.10139047554E+00  0.13020022411E+00  0.20333984131E-01 0.  0.
         14    1    1    2    0    0 -0.12730312507E-01  0.22544554152E-01  0.23545053425E-02  0.25997335899E-01  0.00000000000E+00 0.  1.
     999901    1    3    3    0    0 -0.12488621862E-01  0.52439472585E-01 -0.10374498088E+00  0.88773243999E+00  0.88000000000E+00 0.  1.
        -11    1    4    4    0    0  0.28339919497E-01 -0.61649960224E-01  0.81555459107E-01  0.10609157678E+00  0.51100000000E-03 0. -1.
         11    1    4    4    0    0 -0.31209851286E-02 -0.13334066513E-01  0.19835016433E-01  0.24108647325E-01  0.51100000000E-03 0.  1.
</event>
<event>
 8    1  0.1148488E+005  0.1043930E+01  0.7957747E-01            NaN
         13   -1    0    0    0    0  0.00000000000E+00  0.00000000000E+00  0.74505805969E-08  0.10566000000E+00  0.10566000000E+00 0.  1.
     999900   -1    0    0    0    0 -0.00000000000E+00 -0.00000000000E+00 -0.74505805969E-08  0.93827000000E+00  0.93827000000E+00 0. -1.
     999902    2    1    2    0    0  0.10710730894E-01  0.15866474526E-01  0.11216893858E-01  0.10217425378E+01  0.10215016055E+01 0.  0.
     999903    2    3    3    0    0 -0.99107732227E-01  0.51788891866E-01  0.68026346040E-01  0.13237319454E+00  0.19764791149E-01 0.  0.
         14    1    1    2    0    0 -0.10710730894E-01 -0.15866474526E-01 -0.11216893858E-01  0.22187462180E-01  0.00000000000E+00 0. -1.
     999901    1    3    3    0    0  0.10981846312E+00 -0.35922417340E-01 -0.56809452182E-01  0.88936934328E+00  0.88000000000E+00 0. -1.
        -11    1    4    4    0    0 -0.58697976942E-01  0.32178265777E-01  0.29333086848E-01  0.73086143629E-01  0.51100000000E-03 0.  1.
         11    1    4    4    0    0 -0.40409755285E-01  0.19610626089E-01  0.38693259192E-01  0.59287050911E-01  0.51100000000E-03 0. -1.
</event>
<event>
 8    1  0.1148488E+005  0.1043930E+01  0.7957747E-01            NaN
         13   -1    0    0    0    0  0.00000000000E+00  0.00000000000E+00  0.74505805969E-08  0.10566000000E+00  0.10566000000E+00 0. -1.
     999900   -1    0    0    0    0 -0.00000000000E+00 -0.00000000000E+00 -0.74505805969E-08  0.93827000000E+00  0.93827000000E+00 0.  1.
     999902    2    1    2    0    0  0.16236472280E-01 -0.17511904175E-01  0.13582721122E-02  0.10200106622E+01  0.10197301683E+01 0.  0.
     999903    2    3    3    0    0  0.10703826476E+00 -0.75560504231E-01 -0.14787909899E-01  0.13328900082E+00  0.19511420712E-01 0.  0.
         14    1    1    2    0    0 -0.16236472280E-01  0.17511904175E-01 -0.13582721122E-02  0.23919337848E-01  0.00000000000E+00 0.  1.
     999901    1    3    3    0    0 -0.90801792476E-01  0.58048600055E-01  0.16146182011E-01  0.88672166133E+00  0.88000000000E+00 0. -1.
        -11    1    4    4    0    0  0.32074755536E-01 -0.24281873640E-01  0.43562881388E-02  0.40467736501E-01  0.51100000000E-03 0. -1.
         11    1    4    4    0    0  0.74963509221E-01 -0.51278630591E-01 -0.19144198038E-01  0.92821264318E-01  0.51100000000E-03 0.  1.
</event>
<event>
 8    1  0.1148488E+005  0.1043930E+01  0.7957747E-01            NaN
         13   -1    0    0    0    0  0.00000000000E+00  0.00000000000E+00  0.74505805969E-08  0.10566000000E+00  0.10566000000E+00 0.  1.
     999900   -1    0    0    0    0 -0.00000000000E+00 -0.00000000000E+00 -0.74505805969E-08  0.93827000000E+00  0.93827000000E+00 0.  1.
     999902    2    1    2    0    0 -0.98068592112E-02  0.17896032048E-01  0.12590613152E-01  0.10199515515E+01  0.10196696531E+01 0.  0.
     999903    2    3    3    0    0  0.65171523619E-01 -0.99128874284E-01 -0.41081327383E-01  0.12742857493E+00  0.21828995415E-01 0.  0.
         14    1    1    2    0    0  0.98068592112E-02 -0.17896032048E-01 -0.12590613152E-01  0.23978448452E-01  0.00000000000E+00 0.  1.
     999901    1    3    3    0    0 -0.74978382830E-01  0.11702490633E+00  0.53671940534E-01  0.89252297662E+00  0.88000000000E+00 0. -1.
        -11    1    4    4    0    0  0.14600632679E-01 -0.87757039781E-02 -0.69324909160E-02  0.18398695776E-01  0.51100000000E-03 0.  1.
         11    1    4    4    0    0  0.50570890940E-01 -0.90353170306E-01 -0.34148836467E-01  0.10902987915E+00  0.51100000000E-03 0. -1.
</event>
<event>
 8    1  0.1148488E+005  0.1043930E+01  0.7957747E-01            NaN
         13   -1    0    0    0    0  0.00000000000E+00  0.00000000000E+00  0.74505805969E-08  0.10566000000E+00  0.10566000000E+00 0. -1.
     999900   -1    0    0    0    0 -0.00000000000E+00 -0.00000000000E+00 -0.74505805969E-08  0.93827000000E+00  0.93827000000E+00 0.  1.
     999902    2    1    2    0    0  0.23728145456E-01  0.36115100986E-02 -0.12012393860E-01  0.10170903745E+01  0.10167361823E+01 0.  0.
     999903    2    3    3    0    0  0.11624971450E+00 -0.16968149802E-01  0.51281516654E-01  0.12974045351E+00  0.20021915381E-01 0.  0.
         14    1    1    2    0    0 -0.23728145456E-01 -0.36115100986E-02  0.12012393860E-01  0.26839625523E-01  0.00000000000E+00 0.  1.
     999901    1    3    3    0    0 -0.92521569048E-01  0.20579659901E-01 -0.63293910514E-01  0.88734992097E+00  0.88000000000E+00 0.  1.
        -11    1    4    4    0    0  0.50009826548E-01 -0.45801809791E-02  0.32359478041E-01  0.59744102213E-01  0.51100000000E-03 0. -1.
         11    1    4    4    0    0  0.66239887955E-01 -0.12387968823E-01  0.18922038613E-01  0.69996351292E-01  0.51100000000E-03 0.  1.
</event>
<event>
 8    1  0.1148488E+005  0.1043930E+01  0.7957747E-01            NaN
         13   -1    0    0    0    0  0.00000000000E+00  0.00000000000E+00  0.74505805969E-08  0.10566000000E+00  0.10566000000E+00 0. -1.
     999900   -1    0    0    0    0 -0.00000000000E+00 -0.00000000000E+00 -0.74505805969E-08  0.93827000000E+00  0.93827000000E+00 0. -1.
     999902    2    1    2    0    0  0.18547810577E-01  0.15514772735E-01  0.30899160566E-02  0.10195522021E+01  0.10192607202E+01 0.  0.
     999903    2    3    3    0    0 -0.12322959252E+00  0.65731222387E-02 -0.26148464603E-01  0.12768020003E+00  0.19742159707E-01 0.  0.
         14    1    1    2    0    0 -0.18547810577E-01 -0.15514772735E-01 -0.30899160566E-02  0.24377797921E-01  0.00000000000E+00 0.  1.
     999901    1    3    3    0    0  0.14177740309E+00  0.89416504965E-02  0.29238380660E-01  0.89187200205E+00  0.88000000000E+00 0. -1.
        -11    1    4    4    0    0 -0.16865040846E-01 -0.57111887258E-02 -0.20661824751E-02  0.17932582369E-01  0.51100000000E-03 0.  1.
         11    1    4    4    0    0 -0.10636455167E+00  0.12284310964E-01 -0.24082282128E-01  0.10974761766E+00  0.51100000000E-03 0. -1.
</event>
<event>
 8    1  0.1604434E+005  0.1043930E+01  0.7957747E-01            NaN
         13   -1    0    0    0    0  0.00000000000E+00  0.00000000000E+00  0.74505805969E-08  0.10566000000E+00  0.10566000000E+00 0. -1.
     999900   -1    0    0    0    0 -0.00000000000E+00 -0.00000000000E+00 -0.74505805969E-08  0.93827000000E+00  0.93827000000E+00 0. -1.
     999902    2    1    2    0    0 -0.18176062761E-01  0.16411854057E-01  0.12621608826E-02  0.10194083512E+01  0.10191133770E+01 0.  0.
     999903    2    3    3    0    0 -0.12361392379E+00  0.47584400549E-02  0.41846569322E-01  0.13210905623E+00  0.19965531982E-01 0.  0.
         14    1    1    2    0    0  0.18176062761E-01 -0.16411854057E-01 -0.12621608826E-02  0.24521648827E-01  0.00000000000E+00 0. -1.
     999901    1    3    3    0    0  0.10543786103E+00  0.11653414002E-01 -0.40584408439E-01  0.88729929494E+00  0.88000000000E+00 0.  1.
        -11    1    4    4    0    0 -0.75705406742E-01 -0.30332919412E-02  0.33553672683E-01  0.82865068283E-01  0.51100000000E-03 0.  1.
         11    1    4    4    0    0 -0.47908517050E-01  0.77917319961E-02  0.82928966390E-02  0.49243987948E-01  0.51100000000E-03 0. -1.
</event>
<event>
 8    1  0.1148488E+005  0.1043930E+01  0.7957747E-01            NaN
         13   -1    0    0    0    0  0.00000000000E+00  0.00000000000E+00  0.74505805969E-08  0.10566000000E+00  0.10566000000E+00 0.  1.
     999900   -1    0    0    0    0 -0.00000000000E+00 -0.00000000000E+00 -0.74505805969E-08  0.93827000000E+00  0.93827000000E+00 0.  1.
     999902    2    1    2    0    0 -0.92776169330E-02  0.21518534133E-01 -0.39935464802E-03  0.10204932560E+01  0.10202240952E+01 0.  0.
     999903    2    3    3    0    0 -0.28610253340E-01  0.51239848048E-01  0.11663240572E+00  0.13203755066E+00  0.19665403542E-01 0.  0.
         14    1    1    2    0    0  0.92776169330E-02 -0.21518534133E-01  0.39935464802E-03  0.23436744042E-01  0.00000000000E+00 0.  1.
     999901    1    3    3    0    0  0.19332636407E-01 -0.29721313915E-01 -0.11703176037E+00  0.88845570529E+00  0.88000000000E+00 0.  1.
        -11    1    4    4    0    0 -0.27312542394E-01  0.45563069910E-01  0.87819816345E-01  0.10263795387E+00  0.51100000000E-03 0. -1.
         11    1    4    4    0    0 -0.12977109460E-02  0.56767781383E-02  0.28812589379E-01  0.29399596791E-01  0.51100000000E-03 0.  1.
</event>
<event>
 8    1  0.1148488E+005  0.1043930E+01  0.7957747E-01            NaN
         13   -1    0    0    0    0  0.00000000000E+00  0.00000000000E+00  0.74505805969E-08  0.10566000000E+00  0.10566000000E+00 0. -1.
     999900   -1    0    0    0    0 -0.00000000000E+00 -0.00000000000E+00 -0.74505805969E-08  0.93827000000E+00  0.93827000000E+00 0.  1.
     999902    2    1    2    0    0  0.39081619064E-02 -0.23325322910E-01  0.86218536890E-03  0.10202638262E+01  0.10199893074E+01 0.  0.
     999903    2    3    3    0    0  0.12205170135E-01 -0.11581671401E+00  0.61926864047E-01  0.13327318773E+00  0.19087395145E-01 0.  0.
         14    1    1    2    0    0 -0.39081619064E-02  0.23325322910E-01 -0.86218536890E-03  0.23666173792E-01  0.00000000000E+00 0.  1.
     999901    1    3    3    0    0 -0.82970082282E-02  0.92491391102E-01 -0.61064678678E-01  0.88699063848E+00  0.88000000000E+00 0.  1.
        -11    1    4    4    0    0  0.15276662996E-01 -0.57205577419E-01  0.33918306817E-01  0.68239044384E-01  0.51100000000E-03 0. -1.
         11    1    4    4    0    0 -0.30714928610E-02 -0.58611136593E-01  0.28008557230E-01  0.65034143342E-01  0.51100000000E-03 0.  1.
</event>
<event>
 8    1  0.1148488E+005  0.1043930E+01  0.7957747E-01            NaN
         13   -1    0    0    0    0  0.00000000000E+00  0.00000000000E+00  0.74505805969E-08  0.10566000000E+00  0.10566000000E+00 0.  1.
     999900   -1    0    0    0    0 -0.00000000000E+00 -0.00000000000E+00 -0.74505805969E-08  0.93827000000E+00  0.93827000000E+00 0.  1.
     999902    2    1    2    0    0  0.22859783328E-01 -0.70587920880E-03  0.94292829895E-02  0.10191917839E+01  0.10188915119E+01 0.  0.
     999903    2    3    3    0    0  0.12473345261E+00 -0.51760984381E-02 -0.38580353470E-01  0.13200344280E+00  0.18741372478E-01 0.  0.
         14    1    1    2    0    0 -0.22859783328E-01  0.70587920880E-03 -0.94292829895E-02  0.24738216123E-01  0.00000000000E+00 0.  1.
     999901    1    3    3    0    0 -0.10187366928E+00  0.44702192293E-02  0.48009636459E-01  0.88718834108E+00  0.88000000000E+00 0. -1.
        -11    1    4    4    0    0  0.64690032898E-01 -0.70454615048E-02 -0.28697175398E-01  0.71121219625E-01  0.51100000000E-03 0. -1.
         11    1    4    4    0    0  0.60043419710E-01  0.18693630667E-02 -0.98831780713E-02  0.60882223173E-01  0.51100000000E-03 0.  1.
</event>
<event>
 8    1  0.1148488E+005  0.1043930E+01  0.7957747E-01            NaN
         13   -1    0    0    0    0  0.00000000000E+00  0.00000000000E+00  0.74505805969E-08  0.10566000000E+00  0.10566000000E+00 0.  1.
     999900   -1    0    0    0    0 -0.00000000000E+00 -0.00000000000E+00 -0.74505805969E-08  0.93827000000E+00  0.93827000000E+00 0. -1.
     999902    2    1    2    0    0  0.73503851535E-02 -0.56044891542E-03 -0.22398992818E-01  0.10203491361E+01  0.10200766159E+01 0.  0.
     999903    2    3    3    0    0 -0.17662980982E-01  0.31633271162E-01  0.12096174121E+00  0.12781655730E+00  0.19816274667E-01 0.  0.
         14    1    1    2    0    0 -0.73503851535E-02  0.56044891542E-03  0.22398992818E-01  0.23580863939E-01  0.00000000000E+00 0.  1.
     999901    1    3    3    0    0  0.25013366136E-01 -0.32193720078E-01 -0.14336073402E+00  0.89253257877E+00  0.88000000000E+00 0. -1.
        -11    1    4    4    0    0 -0.69119653896E-02  0.95916616849E-02  0.15285587898E-01  0.19330948187E-01  0.51100000000E-03 0.  1.
         11    1    4    4    0    0 -0.10751015593E-01  0.22041609477E-01  0.10567615331E+00  0.10848560911E+00  0.51100000000E-03 0. -1.
</event>
<event>
 8    1  0.1148488E+005  0.1043930E+01  0.7957747E-01            NaN
         13   -1    0    0    0    0  0.00000000000E+00  0.00000000000E+00  0.74505805969E-08  0.10566000000E+00  0.10566000000E+00 0.  1.
     999900   -1    0    0    0    0 -0.00000000000E+00 -0.00000000000E+00 -0.74505805969E-08  0.93827000000E+00  0.93827000000E+00 0. -1.
     999902    2    1    2    0    0  0.22497841410E-01 -0.44467286098E-02  0.40350664139E-02  0.10206446393E+01  0.10203789843E+01 0.  0.
     999903    2    3    3    0    0 -0.61533476744E-02 -0.36562687048E-02 -0.12849542580E+00  0.13025941543E+00  0.20129800497E-01 0.  0.
         14    1    1    2    0    0 -0.22497841410E-01  0.44467286098E-02 -0.40350664139E-02  0.23285360732E-01  0.00000000000E+00 0. -1.
     999901    1    3    3    0    0  0.28651189085E-01 -0.79045990497E-03  0.13253049221E+00  0.89038522384E+00  0.88000000000E+00 0.  1.
        -11    1    4    4    0    0 -0.98704033259E-02 -0.95332916028E-02 -0.99183415592E-01  0.10012951393E+00  0.51100000000E-03 0.  1.
         11    1    4    4    0    0  0.37170556515E-02  0.58770228980E-02 -0.29312010209E-01  0.30129901499E-01  0.51100000000E-03 0. -1.
</event>
<event>
 8    1  0.1148488E+005  0.1043930E+01  0.7957747E-01            NaN
         13   -1    0    0    0    0  0.00000000000E+00  0.00000000000E+00  0.74505805969E-08  0.10566000000E+00  0.10566000000E+00 0. -1.
     999900   -1    0    0    0    0 -0.00000000000E+00 -0.00000000000E+00 -0.74505805969E-08  0.93827000000E+00  0.93827000000E+00 0.  1.
     999902    2    1    2    0    0 -0.15896119091E-01  0.12026170407E-01 -0.15095083087E-01  0.10189264620E+01  0.10186196337E+01 0.  0.
     999903    2    3    3    0    0 -0.70297809293E-01  0.10023288716E+00  0.42254651643E-01  0.13099123870E+00  0.19617221320E-01 0.  0.
         14    1    1    2    0    0  0.15896119091E-01 -0.12026170407E-01  0.15095083087E-01  0.25003537954E-01  0.00000000000E+00 0. -1.
     999901    1    3    3    0    0  0.54401690202E-01 -0.88206716752E-01 -0.57349734729E-01  0.88793522334E+00  0.88000000000E+00 0. -1.
        -11    1    4    4    0    0 -0.29760357261E-01  0.26853929965E-01  0.11658256111E-01  0.41749113468E-01  0.51100000000E-03 0. -1.
         11    1    4    4    0    0 -0.40537452033E-01  0.73378957194E-01  0.30596395532E-01  0.89242125236E-01  0.51100000000E-03 0.  1.
</event>
<event>
 8    1  0.1148488E+005  0.1043930E+01  0.7957747E-01            NaN
         13   -1    0    0    0    0  0.00000000000E+00  0.00000000000E+00  0.74505805969E-08  0.10566000000E+00  0.10566000000E+00 0.  1.
     999900   -1    0    0    0    0 -0.00000000000E+00 -0.00000000000E+00 -0.74505805969E-08  0.93827000000E+00  0.93827000000E+00 0. -1.
     999902    2    1    2    0    0 -0.10048342915E-01  0.86281521050E-02 -0.18822999684E-01  0.10209143636E+01  0.10206548967E+01 0.  0.
     999903    2    3    3    0    0  0.55314302308E-01  0.71947266013E-01  0.90298890765E-01  0.12951704891E+00  0.19613647240E-01 0.  0.
         14    1    1    2    0    0  0.10048342915E-01 -0.86281521050E-02  0.18822999684E-01  0.23015636449E-01  0.00000000000E+00 0.  1.
     999901    1    3    3    0    0 -0.65362645222E-01 -0.63319113908E-01 -0.10912189045E+00  0.89139731464E+00  0.88000000000E+00 0. -1.
        -11    1    4    4    0    0  0.44812168879E-01  0.48704570779E-01  0.73825790195E-01  0.99150260279E-01  0.51100000000E-03 0.  1.
         11    1    4    4    0    0  0.10502133428E-01  0.23242695234E-01  0.16473100569E-01  0.30366788629E-01  0.51100000000E-03 0. -1.
</event>
<event>
 8    1  0.1148488E+005  0.1043930E+01  0.7957747E-01            NaN
         13   -1    0    0    0    0  0.00000000000E+00  0.00000000000E+00  0.74505805969E-08  0.10566000000E+00  0.10566000000E+00 0.  1.
     999900   -1    0    0    0    0 -0.00000000000E+00 -0.00000000000E+00 -0.74505805969E-08  0.93827000000E+00  0.93827000000E+00 0. -1.
     999902    2    1    2    0    0  0.10969902007E-01 -0.15041757977E-01  0.14403829619E-01  0.10203914457E+01  0.10201199139E+01 0.  0.
     999903    2    3    3    0    0 -0.11160067898E+00  0.45516269764E-01 -0.39183892974E-01  0.12822415974E+00  0.19483719080E-01 0.  0.
         14    1    1    2    0    0 -0.10969902007E-01  0.15041757977E-01 -0.14403829619E-01  0.23538554347E-01  0.00000000000E+00 0. -1.
     999901    1    3    3    0    0  0.12257058099E+00 -0.60558027740E-01  0.53587722593E-01  0.89216728592E+00  0.88000000000E+00 0. -1.
        -11    1    4    4    0    0 -0.62617387844E-01  0.17520448949E-01 -0.27527637655E-01  0.70611155972E-01  0.51100000000E-03 0. -1.
         11    1    4    4    0    0 -0.48983291136E-01  0.27995820815E-01 -0.11656255319E-01  0.57613003764E-01  0.51100000000E-03 0.  1.
</event>
<event>
 8    1  0.1148488E+005  0.1043930E+01  0.7957747E-01            NaN
         13   -1    0    0    0    0  0.00000000000E+00  0.00000000000E+00  0.74505805969E-08  0.10566000000E+00  0.10566000000E+00 0.  1.
     999900   -1    0    0    0    0 -0.00000000000E+00 -0.00000000000E+00 -0.74505805969E-08  0.93827000000E+00  0.93827000000E+00 0. -1.
     999902    2    1    2    0    0 -0.77407539108E-02 -0.18812280958E-01 -0.12860783675E-01  0.10198629906E+01  0.10195789811E+01 0.  0.
     999903    2    3    3    0    0  0.48486126346E-01  0.11635389375E+00 -0.47792776920E-02  0.12773258106E+00  0.20090737373E-01 0.  0.
         14    1    1    2    0    0  0.77407539108E-02  0.18812280958E-01  0.12860783675E-01  0.24067009425E-01  0.00000000000E+00 0.  1.
     999901    1    3    3    0    0 -0.56226880256E-01 -0.13516617471E+00 -0.80815059826E-02  0.89213040952E+00  0.88000000000E+00 0.  1.
        -11    1    4    4    0    0  0.30149446409E-01  0.51971454030E-01 -0.85035135575E-02  0.60684363856E-01  0.51100000000E-03 0.  1.
         11    1    4    4    0    0  0.18336679937E-01  0.64382439723E-01  0.37242358654E-02  0.67048217199E-01  0.51100000000E-03 0. -1.
</event>
<event>
 8    1  0.1148488E+005  0.1043930E+01  0.7957747E-01            NaN
         13   -1    0    0    0    0  0.00000000000E+00  0.00000000000E+00  0.74505805969E-08  0.10566000000E+00  0.10566000000E+00 0.  1.
     999900   -1    0    0    0    0 -0.00000000000E+00 -0.00000000000E+00 -0.74505805969E-08  0.93827000000E+00  0.93827000000E+00 0.  1.
     999902    2    1    2    0    0 -0.20618657829E-01  0.10487010705E-01 -0.18320821263E-02  0.10207251951E+01  0.10204613961E+01 0.  0.
     999903    2    3    3    0    0 -0.95005794769E-02  0.63493395404E-01  0.11313997447E+00  0.13159536081E+00  0.19874931229E-01 0.  0.
         14    1    1    2    0    0  0.20618657829E-01 -0.10487010705E-01  0.18320821263E-02  0.23204804871E-01  0.00000000000E+00 0.  1.
     999901    1    3    3    0    0 -0.11118078352E-01 -0.53006384699E-01 -0.11497205660E+00  0.88912983432E+00  0.88000000000E+00 0.  1.
        -11    1    4    4    0    0 -0.40393624840E-02  0.98228820712E-02  0.76143597779E-02  0.13078419526E-01  0.51100000000E-03 0.  1.
         11    1    4    4    0    0 -0.54612169930E-02  0.53670513333E-01  0.10552561470E+00  0.11851694128E+00  0.51100000000E-03 0. -1.
</event>
<event>
 8    1  0.1148488E+005  0.1043930E+01  0.7957747E-01            NaN
         13   -1    0    0    0    0  0.00000000000E+00  0.00000000000E+00  0.74505805969E-08  0.10566000000E+00  0.10566000000E+00 0. -1.
     999900   -1    0    0    0    0 -0.00000000000E+00 -0.00000000000E+00 -0.74505805969E-08  0.93827000000E+00  0.93827000000E+00 0.  1.
     999902    2    1    2    0    0  0.96925527821E-03  0.13465021434E-01 -0.20089817515E-01  0.10197257230E+01  0.10194384254E+01 0.  0.
     999903    2    3    3    0    0 -0.29371996248E-01  0.12606203877E+00  0.11301221474E-01  0.13147796634E+00  0.20109357131E-01 0.  0.
         14    1    1    2    0    0 -0.96925527821E-03 -0.13465021434E-01  0.20089817515E-01  0.24204277015E-01  0.00000000000E+00 0. -1.
     999901    1    3    3    0    0  0.30341251526E-01 -0.11259701733E+00 -0.31391038990E-01  0.88824775665E+00  0.88000000000E+00 0.  1.
        -11    1    4    4    0    0 -0.19320132046E-01  0.10008695270E+00  0.16134511444E-01  0.10320488934E+00  0.51100000000E-03 0. -1.
         11    1    4    4    0    0 -0.10051864202E-01  0.25975086070E-01 -0.48332899693E-02  0.28273077003E-01  0.51100000000E-03 0.  1.
</event>
<event>
 8    1  0.1148488E+005  0.1043930E+01  0.7957747E-01            NaN
         13   -1    0    0    0    0  0.00000000000E+00  0.00000000000E+00  0.74505805969E-08  0.10566000000E+00  0.10566000000E+00 0. -1.
     999900   -1    0    0    0    0 -0.00000000000E+00 -0.00000000000E+00 -0.74505805969E-08  0.93827000000E+00  0.93827000000E+00 0. -1.
     999902    2    1    2    0    0  0.12951627256E-01 -0.17340942241E-01 -0.10010739566E-01  0.10200832427E+01  0.10198044686E+01 0.  0.
     999903    2    3    3    0    0 -0.75150840180E-02 -0.46011018079E-01  0.11954036013E+00  0.12990104398E+00  0.20270502071E-01 0.  0.
         14    1    1    2    0    0 -0.12951627256E-01  0.17340942241E-01  0.10010739566E-01  0.23846757286E-01  0.00000000000E+00 0. -1.
     999901    1    3    3    0    0  0.20466711274E-01  0.28670075837E-01 -0.12955109969E+00  0.89018219874E+00  0.88000000000E+00 0. -1.
        -11    1    4    4    0    0 -0.12450249259E-01 -0.30990741859E-01  0.64541623757E-01  0.72672670969E-01  0.51100000000E-03 0. -1.
         11    1    4    4    0    0  0.49351652414E-02 -0.15020276220E-01  0.54998736370E-01  0.57228373007E-01  0.51100000000E-03 0.  1.
</event>
<event>
 8    1  0.1148488E+005  0.1043930E+01  0.7957747E-01            NaN
         13   -1    0    0    0    0  0.00000000000E+00  0.00000000000E+00  0.74505805969E-08  0.10566000000E+00  0.10566000000E+00 0.  1.
     999900   -1    0    0    0    0 -0.00000000000E+00 -0.00000000000E+00 -0.74505805969E-08  0.93827000000E+00  0.93827000000E+00 0.  1.
     999902    2    1    2    0    0 -0.83610407435E-02  0.11682651153E-01  0.19191602771E-02  0.10294360524E+01  0.10293340136E+01 0.  0.
     999903    2    3    3    0    0  0.10675503257E+00 -0.51110332017E-01 -0.66343125558E-01  0.13710516719E+00  0.19685363648E-01 0.  0.
         14    1    1    2    0    0  0.83610407435E-02 -0.11682651153E-01 -0.19191602771E-02  0.14493947580E-01  0.00000000000E+00 0.  1.
     999901    1    3    3    0    0 -0.11511607332E+00  0.62792983170E-01  0.68262285835E-01  0.89233088523E+00  0.88000000000E+00 0. -1.
        -11    1    4    4    0    0  0.38550126613E-01 -0.27898780979E-01 -0.31535544348E-01  0.57089455421E-01  0.51100000000E-03 0.  1.
         11    1    4    4    0    0  0.68204905962E-01 -0.23211551038E-01 -0.34807581211E-01  0.80015711767E-01  0.51100000000E-03 0. -1.
</event>
<event>
 8    1  0.1148488E+005  0.1043930E+01  0.7957747E-01            NaN
         13   -1    0    0    0    0  0.00000000000E+00  0.00000000000E+00  0.74505805969E-08  0.10566000000E+00  0.10566000000E+00 0.  1.
     999900   -1    0    0    0    0 -0.00000000000E+00 -0.00000000000E+00 -0.74505805969E-08  0.93827000000E+00  0.93827000000E+00 0. -1.
     999902    2    1    2    0    0 -0.74143477702E-02  0.16374735033E-01 -0.14792826861E-01  0.10206505621E+01  0.10203850439E+01 0.  0.
     999903    2    3    3    0    0 -0.11726297401E+00  0.34537023658E-01 -0.48381412749E-01  0.13299928911E+00  0.20115633930E-01 0.  0.
         14    1    1    2    0    0  0.74143477702E-02 -0.16374735033E-01  0.14792826861E-01  0.23279437854E-01  0.00000000000E+00 0.  1.
     999901    1    3    3    0    0  0.10984862624E+00 -0.18162288624E-01  0.33588585888E-01  0.88765127303E+00  0.88000000000E+00 0. -1.
        -11    1    4    4    0    0 -0.98145863497E-01  0.24092815352E-01 -0.32944354231E-01  0.10629518272E+00  0.51100000000E-03 0.  1.
         11    1    4    4    0    0 -0.19117110512E-01  0.10444208305E-01 -0.15437058518E-01  0.26704106391E-01  0.51100000000E-03 0. -1.
</event>
<event>
 8    1  0.1148488E+005  0.1043930E+01  0.7957747E-01            NaN
         13   -1    0    0    0    0  0.00000000000E+00  0.00000000000E+00  0.74505805969E-08  0.10566000000E+00  0.10566000000E+00 0.  1.
     999900   -1    0    0    0    0 -0.00000000000E+00 -0.00000000000E+00 -0.74505805969E-08  0.93827000000E+00  0.93827000000E+00 0.  1.
     999902    2    1    2    0    0  0.12245042735E-01 -0.17024022079E-01 -0.10360561324E-01  0.10205398390E+01  0.10202717596E+01 0.  0.
     999903    2    3    3    0    0 -0.39931874613E-01  0.96851490815E-01  0.70829198545E-01  0.12796948312E+00  0.19612428717E-01 0.  0.
         14    1    1    2    0    0 -0.12245042735E-01  0.17024022079E-01  0.10360561324E-01  0.23390160972E-01  0.00000000000E+00 0.  1.
     999901    1    3    3    0    0  0.52176917348E-01 -0.11387551289E+00 -0.81189759868E-01  0.89257035591E+00  0.88000000000E+00 0.  1.
        -11    1    4    4    0    0 -0.28466530322E-01  0.46334339523E-01  0.30776899092E-01  0.62487542809E-01  0.51100000000E-03 0. -1.
         11    1    4    4    0    0 -0.11465344291E-01  0.50517151292E-01  0.40052299453E-01  0.65481940310E-01  0.51100000000E-03 0.  1.
</event>
<event>
 8    1  0.1148488E+005  0.1043930E+01  0.7957747E-01            NaN
         13   -1    0    0    0    0  0.00000000000E+00  0.00000000000E+00  0.74505805969E-08  0.10566000000E+00  0.10566000000E+00 0.  1.
     999900   -1    0    0    0    0 -0.00000000000E+00 -0.00000000000E+00 -0.74505805969E-08  0.93827000000E+00  0.93827000000E+00 0. -1.
     999902    2    1    2    0    0  0.17242456927E-01  0.10607289593E-01 -0.74829264756E-02  0.10223473426E+01  0.10221195027E+01 0.  0.
     999903    2    3    3    0    0 -0.82659250633E-01  0.44932027864E-02 -0.10067251892E+00  0.13178458039E+00  0.19480220135E-01 0.  0.
         14    1    1    2    0    0 -0.17242456927E-01 -0.10607289593E-01  0.74829264756E-02  0.21582657437E-01  0.00000000000E+00 0.  1.
     999901    1    3    3    0    0  0.99901707560E-01  0.61140868066E-02  0.93189592443E-01  0.89056276217E+00  0.88000000000E+00 0.  1.
        -11    1    4    4    0    0 -0.37224494338E-01  0.91757489411E-02 -0.35899165287E-01  0.52524932524E-01  0.51100000000E-03 0.  1.
         11    1    4    4    0    0 -0.45434756295E-01 -0.46825461547E-02 -0.64773353631E-01  0.79259647865E-01  0.51100000000E-03 0. -1.
</event>
<event>
 8    1  0.1148488E+005  0.1043930E+01  0.7957747E-01            NaN
         13   -1    0    0    0    0  0.00000000000E+00  0.00000000000E+00  0.74505805969E-08  0.10566000000E+00  0.10566000000E+00 0.  1.
     999900   -1    0    0    0    0 -0.00000000000E+00 -0.00000000000E+00 -0.74505805969E-08  0.93827000000E+00  0.93827000000E+00 0. -1.
     999902    2    1    2    0    0 -0.17451234298E-01  0.63975675522E-02 -0.15138237278E-01  0.10199583360E+01  0.10196765989E+01 0.  0.
     999903    2    3    3    0    0 -0.12352824878E+00 -0.31446506188E-01  0.26534921803E-01  0.13180229161E+00  0.20484896927E-01 0.  0.
         14    1    1    2    0    0  0.17451234298E-01 -0.63975675522E-02  0.15138237278E-01  0.23971664043E-01  0.00000000000E+00 0.  1.
     999901    1    3    3    0    0  0.10607701448E+00  0.37844073740E-01 -0.41673159081E-01  0.88815604434E+00  0.88000000000E+00 0. -1.
        -11    1    4    4    0    0 -0.20525073207E-01 -0.11590906936E-01 -0.81967015761E-04  0.23577438227E-01  0.51100000000E-03 0. -1.
         11    1    4    4    0    0 -0.10300317557E+00 -0.19855599252E-01  0.26616888818E-01  0.10822485339E+00  0.51100000000E-03 0.  1.
</event>
<event>
 8    1  0.1148488E+005  0.1043930E+01  0.7957747E-01            NaN
         13   -1    0    0    0    0  0.00000000000E+00  0.00000000000E+00  0.74505805969E-08  0.10566000000E+00  0.10566000000E+00 0. -1.
     999900   -1    0    0    0    0 -0.00000000000E+00 -0.00000000000E+00 -0.74505805969E-08  0.93827000000E+00  0.93827000000E+00 0.  1.
     999902    2    1    2    0    0  0.15215371826E-01 -0.18045486781E-01 -0.33480580592E-02  0.10200897688E+01  0.10198111490E+01 0.  0.
     999903    2    3    3    0    0 -0.14813272239E-01 -0.12976079892E+00  0.84537641820E-02  0.13244044980E+00  0.20290604812E-01 0.  0.
         14    1    1    2    0    0 -0.15215371826E-01  0.18045486781E-01  0.33480580592E-02  0.23840231244E-01  0.00000000000E+00 0. -1.
     999901    1    3    3    0    0  0.30028644065E-01  0.11171531214E+00 -0.11801822241E-01  0.88764931895E+00  0.88000000000E+00 0.  1.
        -11    1    4    4    0    0 -0.73973868406E-02 -0.10745391710E+00  0.13003227437E-01  0.10849152353E+00  0.51100000000E-03 0.  1.
         11    1    4    4    0    0 -0.74158853981E-02 -0.22306881819E-01 -0.45494632552E-02  0.23948926273E-01  0.51100000000E-03 0. -1.
</event>
<event>
 8    1  0.1148488E+005  0.1043930E+01  0.7957747E-01            NaN
         13   -1    0    0    0    0  0.00000000000E+00  0.00000000000E+00  0.74505805969E-08  0.10566000000E+00  0.10566000000E+00 0.  1.
     999900   -1    0    0    0    0 -0.00000000000E+00 -0.00000000000E+00 -0.74505805969E-08  0.93827000000E+00  0.93827000000E+00 0. -1.
     999902    2    1    2    0    0 -0.19054761898E-01  0.11946941335E-01 -0.91236447746E-03  0.10214212069E+01  0.10211731666E+01 0.  0.
     999903    2    3    3    0    0  0.39237965652E-01 -0.10436515318E+00 -0.63266021448E-01  0.12967319094E+00  0.19515220520E-01 0.  0.
         14    1    1    2    0    0  0.19054761898E-01 -0.11946941335E-01  0.91236447746E-03  0.22508793108E-01  0.00000000000E+00 0. -1.
     999901    1    3    3    0    0 -0.58292727550E-01  0.11631209451E+00  0.62353656971E-01  0.89174801595E+00  0.88000000000E+00 0.  1.
        -11    1    4    4    0    0  0.29029899671E-01 -0.54840589972E-01 -0.28349930846E-01  0.68221734684E-01  0.51100000000E-03 0.  1.
         11    1    4    4    0    0  0.10208065981E-01 -0.49524563208E-01 -0.34916090603E-01  0.61451456256E-01  0.51100000000E-03 0. -1.
</event>
<event>
 8    1  0.1148488E+005  0.1043930E+01  0.7957747E-01            NaN
         13   -1    0    0    0    0  0.00000000000E+00  0.00000000000E+00  0.74505805969E-08  0.10566000000E+00  0.10566000000E+00 0.  1.
     999900   -1    0    0    0    0 -0.00000000000E+00 -0.00000000000E+00 -0.74505805969E-08  0.93827000000E+00  0.93827000000E+00 0.  1.
     999902    2    1    2    0    0  0.12501922668E-01 -0.35623918823E-02 -0.20192671208E-01  0.10199147408E+01  0.10196319658E+01 0.  0.
     999903    2    3    3    0    0 -0.25940345378E-01  0.12068176180E+00  0.31742487266E-01  0.12884141134E+00  0.18855625916E-01 0.  0.
         14    1    1    2    0    0 -0.12501922668E-01  0.35623918823E-02  0.20192671208E-01  0.24015259250E-01  0.00000000000E+00 0.  1.
     999901    1    3    3    0    0  0.38442268046E-01 -0.12424415368E+00 -0.51935158475E-01  0.89107332941E+00  0.88000000000E+00 0. -1.
        -11    1    4    4    0    0 -0.98474915254E-02  0.50924451851E-01  0.38661324338E-02  0.52014238308E-01  0.51100000000E-03 0. -1.
         11    1    4    4    0    0 -0.16092853853E-01  0.69757309951E-01  0.27876354833E-01  0.76827173034E-01  0.51100000000E-03 0.  1.
</event>
<event>
 8    1  0.1148488E+005  0.1043930E+01  0.7957747E-01            NaN
         13   -1    0    0    0    0  0.00000000000E+00  0.00000000000E+00  0.74505805969E-08  0.10566000000E+00  0.10566000000E+00 0. -1.
     999900   -1    0    0    0    0 -0.00000000000E+00 -0.00000000000E+00 -0.74505805969E-08  0.93827000000E+00  0.93827000000E+00 0.  1.
     999902    2    1    2    0    0  0.96394205495E-02 -0.28848352673E-04 -0.22522086000E-01  0.10194317629E+01  0.10191373586E+01 0.  0.
     999903    2    3    3    0    0  0.35366970652E-01  0.10813491162E+00 -0.62813588623E-01  0.13152145724E+00  0.20208044815E-01 0.  0.
         14    1    1    2    0    0 -0.96394205495E-02  0.28848352673E-04  0.22522086000E-01  0.24498237050E-01  0.00000000000E+00 0. -1.
     999901    1    3    3    0    0 -0.25727550102E-01 -0.10816375997E+00  0.40291502623E-01  0.88791030571E+00  0.88000000000E+00 0. -1.
        -11    1    4    4    0    0  0.19424852144E-01  0.82493785199E-01 -0.52074251041E-01  0.99471293446E-01  0.51100000000E-03 0. -1.
         11    1    4    4    0    0  0.15942118508E-01  0.25641126416E-01 -0.10739337581E-01  0.32050163793E-01  0.51100000000E-03 0.  1.
</event>
<event>
 8    1  0.1148488E+005  0.1043930E+01  0.7957747E-01            NaN
         13   -1    0    0    0    0  0.00000000000E+00  0.00000000000E+00  0.74505805969E-08  0.10566000000E+00  0.10566000000E+00 0. -1.
     999900   -1    0    0    0    0 -0.00000000000E+00 -0.00000000000E+00 -0.74505805969E-08  0.93827000000E+00  0.93827000000E+00 0. -1.
     999902    2    1    2    0    0  0.10537282551E-01 -0.12023121028E-02 -0.14706770470E-01  0.10257980124E+01  0.10256377495E+01 0.  0.
     999903    2    3    3    0    0  0.51148025521E-01  0.17469253616E-01 -0.12546744768E+00  0.13772944101E+00  0.17493517553E-01 0.  0.
         14    1    1    2    0    0 -0.10537282551E-01  0.12023121028E-02  0.14706770470E-01  0.18131987636E-01  0.00000000000E+00 0. -1.
     999901    1    3    3    0    0 -0.40610742971E-01 -0.18671565718E-01  0.11076067721E+00  0.88806857135E+00  0.88000000000E+00 0.  1.
        -11    1    4    4    0    0  0.47944730822E-01  0.20692975613E-01 -0.11617253026E+00  0.12737038259E+00  0.51100000000E-03 0. -1.
         11    1    4    4    0    0  0.32032946997E-02 -0.32237219969E-02 -0.92949174181E-02  0.10359058416E-01  0.51100000000E-03 0.  1.
</event>
<event>
 8    1  0.1148488E+005  0.1043930E+01  0.7957747E-01            NaN
         13   -1    0    0    0    0  0.00000000000E+00  0.00000000000E+00  0.74505805969E-08  0.10566000000E+00  0.10566000000E+00 0. -1.
     999900   -1    0    0    0    0 -0.00000000000E+00 -0.00000000000E+00 -0.74505805969E-08  0.93827000000E+00  0.93827000000E+00 0. -1.
     999902    2    1    2    0    0  0.45087308307E-02  0.19707455698E-01 -0.12858466236E-01  0.10199706048E+01  0.10196891595E+01 0.  0.
     999903    2    3    3    0    0  0.70183203495E-01 -0.16153012681E-01  0.10509423438E+00  0.12895323734E+00  0.19938341181E-01 0.  0.
         14    1    1    2    0    0 -0.45087308307E-02 -0.19707455698E-01  0.12858466236E-01  0.23959395187E-01  0.00000000000E+00 0.  1.
     999901    1    3    3    0    0 -0.65674472664E-01  0.35860468379E-01 -0.11795270062E+00  0.89101736747E+00  0.88000000000E+00 0. -1.
        -11    1    4    4    0    0  0.35983630810E-01  0.19276096093E-02  0.50692799622E-01  0.62197736450E-01  0.51100000000E-03 0. -1.
         11    1    4    4    0    0  0.34199572685E-01 -0.18080622290E-01  0.54401434761E-01  0.66755500891E-01  0.51100000000E-03 0.  1.
</event>
<event>
 8    1  0.1148488E+005  0.1043930E+01  0.7957747E-01            NaN
         13   -1    0    0    0    0  0.00000000000E+00  0.00000000000E+00  0.74505805969E-08  0.10566000000E+00  0.10566000000E+00 0. -1.
     999900   -1    0    0    0    0 -0.00000000000E+00 -0.00000000000E+00 -0.74505805969E-08  0.93827000000E+00  0.93827000000E+00 0.  1.
     999902    2    1    2    0    0  0.23883536789E-01 -0.80080435600E-02  0.82980538797E-02  0.10174081262E+01  0.10170623803E+01 0.  0.
     999903    2    3    3    0    0 -0.35235179481E-01  0.11784524550E+00 -0.18811897806E-01  0.12607820836E+00  0.20317661347E-01 0.  0.
         14    1    1    2    0    0 -0.23883536789E-01  0.80080435600E-02 -0.82980538797E-02  0.26521873791E-01  0.00000000000E+00 0.  1.
     999901    1    3    3    0    0  0.59118716270E-01 -0.12585328906E+00  0.27109951686E-01  0.89132991785E+00  0.88000000000E+00 0. -1.
        -11    1    4    4    0    0 -0.28307048680E-01  0.10111522845E+00 -0.87788300414E-02  0.10537033457E+00  0.51100000000E-03 0. -1.
         11    1    4    4    0    0 -0.69281308018E-02  0.16730017051E-01 -0.10033067764E-01  0.20707873785E-01  0.51100000000E-03 0.  1.
</event>
<event>
 8    1  0.1148488E+005  0.1043930E+01  0.7957747E-01            NaN
         13   -1    0    0    0    0  0.00000000000E+00  0.00000000000E+00  0.74505805969E-08  0.10566000000E+00  0.10566000000E+00 0. -1.
     999900   -1    0    0    0    0 -0.00000000000E+00 -0.00000000000E+00 -0.74505805969E-08  0.93827000000E+00  0.93827000000E+00 0.  1.
     999902    2    1    2    0    0 -0.20093304993E-01 -0.72533539232E-02  0.96839812984E-02  0.10204751169E+01  0.10202055345E+01 0.  0.
     999903    2    3    3    0    0 -0.12249632266E+00 -0.36059090285E-01 -0.32690560264E-01  0.13305652892E+00  0.18159297882E-01 0.  0.
         14    1    1    2    0    0  0.20093304993E-01  0.72533539232E-02 -0.96839812984E-02  0.23454883126E-01  0.00000000000E+00 0.  1.
     999901    1    3    3    0    0  0.10240301767E+00  0.28805736361E-01  0.42374541563E-01  0.88741858795E+00  0.88000000000E+00 0. -1.
        -11    1    4    4    0    0 -0.50463389460E-01 -0.70809898947E-02 -0.17919294023E-01  0.54019036579E-01  0.51100000000E-03 0. -1.
         11    1    4    4    0    0 -0.72032933202E-01 -0.28978100390E-01 -0.14771266241E-01  0.79037492339E-01  0.51100000000E-03 0.  1.
</event>
<event>
 8    1  0.1148488E+005  0.1043930E+01  0.7957747E-01            NaN
         13   -1    0    0    0    0  0.00000000000E+00  0.00000000000E+00  0.74505805969E-08  0.10566000000E+00  0.10566000000E+00 0.  1.
     999900   -1    0    0    0    0 -0.00000000000E+00 -0.00000000000E+00 -0.74505805969E-08  0.93827000000E+00  0.93827000000E+00 0.  1.
     999902    2    1    2    0    0  0.42173520969E-02  0.17967661667E-01  0.14890834874E-01  0.10202158716E+01  0.10199402260E+01 0.  0.
     999903    2    3    3    0    0  0.10745490742E+00  0.20064421623E-01 -0.68128440103E-01  0.13029756674E+00  0.19668080854E-01 0.  0.
         14    1    1    2    0    0 -0.42173520969E-02 -0.17967661667E-01 -0.14890834874E-01  0.23714128441E-01  0.00000000000E+00 0. -1.
     999901    1    3    3    0    0 -0.10323755532E+00 -0.20967599559E-02  0.83019274976E-01  0.88991830482E+00  0.88000000000E+00 0. -1.
        -11    1    4    4    0    0  0.50660358509E-01  0.47053382614E-02 -0.21554792401E-01  0.55258323616E-01  0.51100000000E-03 0.  1.
         11    1    4    4    0    0  0.56794548910E-01  0.15359083362E-01 -0.46573647702E-01  0.75039243126E-01  0.51100000000E-03 0. -1.
</event>
<event>
 8    1  0.1148488E+005  0.1043930E+01  0.7957747E-01            NaN
         13   -1    0    0    0    0  0.00000000000E+00  0.00000000000E+00  0.74505805969E-08  0.10566000000E+00  0.10566000000E+00 0.  1.
     999900   -1    0    0    0    0 -0.00000000000E+00 -0.00000000000E+00 -0.74505805969E-08  0.93827000000E+00  0.93827000000E+00 0. -1.
     999902    2    1    2    0    0 -0.12831454904E-01  0.61398587548E-02  0.54098295751E-02  0.10287112498E+01  0.10285986706E+01 0.  0.
     999903    2    3    3    0    0 -0.92845229227E-01 -0.81292263821E-02  0.10212289750E+00  0.13968974932E+00  0.19945399487E-01 0.  0.
         14    1    1    2    0    0  0.12831454904E-01 -0.61398587548E-02 -0.54098295751E-02  0.15218750163E-01  0.00000000000E+00 0. -1.
     999901    1    3    3    0    0  0.80013774323E-01  0.14269085137E-01 -0.96713067922E-01  0.88902150052E+00  0.88000000000E+00 0. -1.
        -11    1    4    4    0    0 -0.40098925513E-01 -0.24425560236E-02  0.58691191261E-01  0.71125290579E-01  0.51100000000E-03 0.  1.
         11    1    4    4    0    0 -0.52746303713E-01 -0.56866703584E-02  0.43431706236E-01  0.68564458743E-01  0.51100000000E-03 0. -1.
</event>
<event>
 8    1  0.1148488E+005  0.1043930E+01  0.7957747E-01            NaN
         13   -1    0    0    0    0  0.00000000000E+00  0.00000000000E+00  0.74505805969E-08  0.10566000000E+00  0.10566000000E+00 0. -1.
     999900   -1    0    0    0    0 -0.00000000000E+00 -0.00000000000E+00 -0.74505805969E-08  0.93827000000E+00  0.93827000000E+00 0.  1.
     999902    2    1    2    0    0 -0.24783398286E-02 -0.22475896756E-01 -0.13525282121E-01  0.10175815397E+01  0.10172403593E+01 0.  0.
     999903    2    3    3    0    0  0.10328540871E-01  0.11052611938E+00 -0.57074655896E-01  0.12643054215E+00  0.20111285906E-01 0.  0.
         14    1    1    2    0    0  0.24783398286E-02  0.22475896756E-01  0.13525282121E-01  0.26348460291E-01  0.00000000000E+00 0. -1.
     999901    1    3    3    0    0 -0.12806880700E-01 -0.13300201614E+00  0.43549373776E-01  0.89115099756E+00  0.88000000000E+00 0. -1.
        -11    1    4    4    0    0  0.15290564123E-01  0.84491005673E-01 -0.38744058260E-01  0.94201351170E-01  0.51100000000E-03 0. -1.
         11    1    4    4    0    0 -0.49620232516E-02  0.26035113710E-01 -0.18330597636E-01  0.32229190982E-01  0.51100000000E-03 0.  1.
</event>
<event>
 8    1  0.1839734E+005  0.1043930E+01  0.7957747E-01            NaN
         13   -1    0    0    0    0  0.00000000000E+00  0.00000000000E+00  0.74505805969E-08  0.10566000000E+00  0.10566000000E+00 0.  1.
     999900   -1    0    0    0    0 -0.00000000000E+00 -0.00000000000E+00 -0.74505805969E-08  0.93827000000E+00  0.93827000000E+00 0.  1.
     999902    2    1    2    0    0 -0.19499524751E-01 -0.10467612309E-01  0.70059317595E-02  0.10207160935E+01  0.10204520852E+01 0.  0.
     999903    2    3    3    0    0 -0.12059225983E+00  0.25445996332E-01  0.46442840677E-01  0.13332396030E+00  0.20696595837E-01 0.  0.
         14    1    1    2    0    0  0.19499524751E-01  0.10467612309E-01 -0.70059317595E-02  0.23213906453E-01  0.00000000000E+00 0.  1.
     999901    1    3    3    0    0  0.10109273508E+00 -0.35913608642E-01 -0.39436908917E-01  0.88739213325E+00  0.88000000000E+00 0. -1.
        -11    1    4    4    0    0 -0.55779295100E-01  0.86635845019E-02  0.31792290776E-01  0.64787331570E-01  0.51100000000E-03 0. -1.
         11    1    4    4    0    0 -0.64812964728E-01  0.16782411831E-01  0.14650549900E-01  0.68536628726E-01  0.51100000000E-03 0.  1.
</event>
<event>
 8    1  0.1148488E+005  0.1043930E+01  0.7957747E-01            NaN
         13   -1    0    0    0    0  0.00000000000E+00  0.00000000000E+00  0.74505805969E-08  0.10566000000E+00  0.10566000000E+00 0.  1.
     999900   -1    0    0    0    0 -0.00000000000E+00 -0.00000000000E+00 -0.74505805969E-08  0.93827000000E+00  0.93827000000E+00 0. -1.
     999902    2    1    2    0    0 -0.15773159264E-01 -0.66314032939E-02 -0.17802372820E-01  0.10192380470E+01  0.10189389108E+01 0.  0.
     999903    2    3    3    0    0 -0.10362760431E+00 -0.23371215303E-01 -0.76814556735E-01  0.13273871672E+00  0.20837387310E-01 0.  0.
         14    1    1    2    0    0  0.15773159264E-01  0.66314032939E-02  0.17802372820E-01  0.24691952957E-01  0.00000000000E+00 0.  1.
     999901    1    3    3    0    0  0.87854445042E-01  0.16739812010E-01  0.59012183915E-01  0.88649933033E+00  0.88000000000E+00 0.  1.
        -11    1    4    4    0    0 -0.85058873174E-02 -0.78070817978E-02 -0.11513931793E-01  0.16313564650E-01  0.51100000000E-03 0. -1.
         11    1    4    4    0    0 -0.95121716989E-01 -0.15564133506E-01 -0.65300624942E-01  0.11642515207E+00  0.51100000000E-03 0.  1.
</event>
<event>
 8    1  0.1148488E+005  0.1043930E+01  0.7957747E-01            NaN
         13   -1    0    0    0    0  0.00000000000E+00  0.00000000000E+00  0.74505805969E-08  0.10566000000E+00  0.10566000000E+00 0.  1.
     999900   -1    0    0    0    0 -0.00000000000E+00 -0.00000000000E+00 -0.74505805969E-08  0.93827000000E+00  0.93827000000E+00 0. -1.
     999902    2    1    2    0    0 -0.42635613567E-02  0.70890448921E-02 -0.22529789649E-01  0.10199295014E+01  0.10196470781E+01 0.  0.
     999903    2    3    3    0    0 -0.76265988975E-01 -0.83899513213E-01 -0.63752903154E-01  0.13135614346E+00  0.18285906419E-01 0.  0.
         14    1    1    2    0    0  0.42635613567E-02 -0.70890448921E-02  0.22529789649E-01  0.24000498632E-01  0.00000000000E+00 0.  1.
     999901    1    3    3    0    0  0.72002427618E-01  0.90988558106E-01  0.41223113505E-01  0.88857335790E+00  0.88000000000E+00 0. -1.
        -11    1    4    4    0    0 -0.68502671735E-02 -0.17166933926E-02 -0.58580515339E-02  0.91897271628E-02  0.51100000000E-03 0. -1.
         11    1    4    4    0    0 -0.69415721802E-01 -0.82182819821E-01 -0.57894851620E-01  0.12216641630E+00  0.51100000000E-03 0.  1.
</event>
<event>
 8    1  0.1148488E+005  0.1043930E+01  0.7957747E-01            NaN
         13   -1    0    0    0    0  0.00000000000E+00  0.00000000000E+00  0.74505805969E-08  0.10566000000E+00  0.10566000000E+00 0. -1.
     999900   -1    0    0    0    0 -0.00000000000E+00 -0.00000000000E+00 -0.74505805969E-08  0.93827000000E+00  0.93827000000E+00 0. -1.
     999902    2    1    2    0    0 -0.17394018970E-01 -0.50312730017E-02  0.15961911509E-01  0.10197918927E+01  0.10195061825E+01 0.  0.
     999903    2    3    3    0    0  0.49775231337E-01  0.97496926026E-01 -0.62677524872E-01  0.12782333905E+00  0.20666631149E-01 0.  0.
         14    1    1    2    0    0  0.17394018970E-01  0.50312730017E-02 -0.15961911509E-01  0.24138107278E-01  0.00000000000E+00 0.  1.
     999901    1    3    3    0    0 -0.67169250307E-01 -0.10252819903E+00  0.78639436381E-01  0.89196855367E+00  0.88000000000E+00 0. -1.
        -11    1    4    4    0    0  0.35381170973E-01  0.52194414942E-01 -0.28072339638E-01  0.69024644760E-01  0.51100000000E-03 0. -1.
         11    1    4    4    0    0  0.14394060364E-01  0.45302511084E-01 -0.34605185234E-01  0.58798694291E-01  0.51100000000E-03 0.  1.
</event>
<event>
 8    1  0.1148488E+005  0.1043930E+01  0.7957747E-01            NaN
         13   -1    0    0    0    0  0.00000000000E+00  0.00000000000E+00  0.74505805969E-08  0.10566000000E+00  0.10566000000E+00 0. -1.
     999900   -1    0    0    0    0 -0.00000000000E+00 -0.00000000000E+00 -0.74505805969E-08  0.93827000000E+00  0.93827000000E+00 0.  1.
     999902    2    1    2    0    0  0.11096026311E-01 -0.19284103152E-01 -0.30609776406E-02  0.10214718608E+01  0.10212249479E+01 0.  0.
     999903    2    3    3    0    0  0.66949829833E-01 -0.66319216295E-01 -0.92998461924E-01  0.13387921752E+00  0.19859828806E-01 0.  0.
         14    1    1    2    0    0 -0.11096026311E-01  0.19284103152E-01  0.30609776406E-02  0.22458139246E-01  0.00000000000E+00 0. -1.
     999901    1    3    3    0    0 -0.55853803521E-01  0.47035113143E-01  0.89937484283E-01  0.88759264323E+00  0.88000000000E+00 0. -1.
        -11    1    4    4    0    0  0.80130836608E-02 -0.11762684712E-01 -0.24423949064E-01  0.28272967129E-01  0.51100000000E-03 0.  1.
         11    1    4    4    0    0  0.58936746172E-01 -0.54556531583E-01 -0.68574512860E-01  0.10560625040E+00  0.51100000000E-03 0. -1.
</event>
<event>
 8    1  0.1148488E+005  0.1043930E+01  0.7957747E-01            NaN
         13   -1    0    0    0    0  0.00000000000E+00  0.00000000000E+00  0.74505805969E-08  0.10566000000E+00  0.10566000000E+00 0. -1.
     999900   -1    0    0    0    0 -0.00000000000E+00 -0.00000000000E+00 -0.74505805969E-08  0.93827000000E+00  0.93827000000E+00 0.  1.
     999902    2    1    2    0    0 -0.18539293655E-01 -0.11511545088E-01  0.82816421519E-02  0.10205889058E+01  0.10203219629E+01 0.  0.
     999903    2    3    3    0    0 -0.29410057448E-01 -0.77833368531E-01 -0.99577831569E-01  0.13145988043E+00  0.21046873547E-01 0.  0.
         14    1    1    2    0    0  0.18539293655E-01  0.11511545088E-01 -0.82816421519E-02  0.23341094153E-01  0.00000000000E+00 0.  1.
     999901    1    3    3    0    0  0.10870763793E-01  0.66321823444E-01  0.10785947372E+00  0.88912902542E+00  0.88000000000E+00 0. -1.
        -11    1    4    4    0    0 -0.27039841739E-01 -0.52330983325E-01 -0.79318464775E-01  0.98799619596E-01  0.51100000000E-03 0. -1.
         11    1    4    4    0    0 -0.23702157087E-02 -0.25502385206E-01 -0.20259366794E-01  0.32660260832E-01  0.51100000000E-03 0.  1.
</event>
<event>
 8    1  0.1148488E+005  0.1043930E+01  0.7957747E-01            NaN
         13   -1    0    0    0    0  0.00000000000E+00  0.00000000000E+00  0.74505805969E-08  0.10566000000E+00  0.10566000000E+00 0.  1.
     999900   -1    0    0    0    0 -0.00000000000E+00 -0.00000000000E+00 -0.74505805969E-08  0.93827000000E+00  0.93827000000E+00 0.  1.
     999902    2    1    2    0    0  0.10188631087E-01  0.19547848226E-01  0.88378340477E-02  0.10201806024E+01  0.10199041267E+01 0.  0.
     999903    2    3    3    0    0 -0.11505538442E+00 -0.93886074462E-02  0.54531663208E-01  0.12966877888E+00  0.22680442912E-01 0.  0.
         14    1    1    2    0    0 -0.10188631087E-01 -0.19547848226E-01 -0.88378340477E-02  0.23749397557E-01  0.00000000000E+00 0. -1.
     999901    1    3    3    0    0  0.12524401550E+00  0.28936455672E-01 -0.45693829160E-01  0.89051182357E+00  0.88000000000E+00 0.  1.
        -11    1    4    4    0    0 -0.77177617843E-01 -0.10751835545E-02  0.25734647900E-01  0.81363836802E-01  0.51100000000E-03 0. -1.
         11    1    4    4    0    0 -0.37877766572E-01 -0.83134238917E-02  0.28797015307E-01  0.48304942075E-01  0.51100000000E-03 0.  1.
</event>
<event>
 8    1  0.1148488E+005  0.1043930E+01  0.7957747E-01            NaN
         13   -1    0    0    0    0  0.00000000000E+00  0.00000000000E+00  0.74505805969E-08  0.10566000000E+00  0.10566000000E+00 0. -1.
     999900   -1    0    0    0    0 -0.00000000000E+00 -0.00000000000E+00 -0.74505805969E-08  0.93827000000E+00  0.93827000000E+00 0.  1.
     999902    2    1    2    0    0  0.23223899942E-01  0.40285941117E-02 -0.14513321577E-02  0.10203146350E+01  0.10200413075E+01 0.  0.
     999903    2    3    3    0    0 -0.95353563336E-01 -0.63732794267E-01  0.53265590270E-01  0.12810044426E+00  0.20453107528E-01 0.  0.
         14    1    1    2    0    0 -0.23223899942E-01 -0.40285941117E-02  0.14513321577E-02  0.23615365000E-01  0.00000000000E+00 0. -1.
     999901    1    3    3    0    0  0.11857746328E+00  0.67761388379E-01 -0.54716922428E-01  0.89221419074E+00  0.88000000000E+00 0. -1.
        -11    1    4    4    0    0 -0.40177127673E-01 -0.20384004006E-01  0.30185632097E-01  0.54232303229E-01  0.51100000000E-03 0. -1.
         11    1    4    4    0    0 -0.55176435663E-01 -0.43348790261E-01  0.23079958172E-01  0.73868141034E-01  0.51100000000E-03 0.  1.
</event>
<event>
 8    1  0.1148488E+005  0.1043930E+01  0.7957747E-01            NaN
         13   -1    0    0    0    0  0.00000000000E+00  0.00000000000E+00  0.74505805969E-08  0.10566000000E+00  0.10566000000E+00 0.  1.
     999900   -1    0    0    0    0 -0.00000000000E+00 -0.00000000000E+00 -0.74505805969E-08  0.93827000000E+00  0.93827000000E+00 0. -1.
     999902    2    1    2    0    0  0.71399928146E-02  0.21489814531E-01 -0.89172871391E-02  0.10195925877E+01  0.10193020825E+01 0.  0.
     999903    2    3    3    0    0 -0.95331808951E-01  0.71999192100E-01 -0.50205663904E-01  0.13124783628E+00  0.20817021370E-01 0.  0.
         14    1    1    2    0    0 -0.71399928146E-02 -0.21489814531E-01  0.89172871391E-02  0.24337412268E-01  0.00000000000E+00 0.  1.
     999901    1    3    3    0    0  0.10247180177E+00 -0.50509377569E-01  0.41288376765E-01  0.88834475145E+00  0.88000000000E+00 0. -1.
        -11    1    4    4    0    0 -0.16881330416E-01  0.22852108655E-01 -0.15597588497E-01  0.32415182778E-01  0.51100000000E-03 0.  1.
         11    1    4    4    0    0 -0.78450478536E-01  0.49147083445E-01 -0.34608075407E-01  0.98832653500E-01  0.51100000000E-03 0. -1.
</event>
<event>
 8    1  0.1148488E+005  0.1043930E+01  0.7957747E-01            NaN
         13   -1    0    0    0    0  0.00000000000E+00  0.00000000000E+00  0.74505805969E-08  0.10566000000E+00  0.10566000000E+00 0. -1.
     999900   -1    0    0    0    0 -0.00000000000E+00 -0.00000000000E+00 -0.74505805969E-08  0.93827000000E+00  0.93827000000E+00 0. -1.
     999902    2    1    2    0    0 -0.99166966236E-02 -0.16876240121E-01  0.11758693573E-01  0.10210954817E+01  0.10208401283E+01 0.  0.
     999903    2    3    3    0    0 -0.19791445162E-02  0.50372141087E-01 -0.11718341364E+00  0.12912495721E+00  0.20000813244E-01 0.  0.
         14    1    1    2    0    0  0.99166966236E-02  0.16876240121E-01 -0.11758693573E-01  0.22834518324E-01  0.00000000000E+00 0.  1.
     999901    1    3    3    0    0 -0.79375521074E-02 -0.67248381208E-01  0.12894210721E+00  0.89197052447E+00  0.88000000000E+00 0.  1.
        -11    1    4    4    0    0 -0.76529155893E-02  0.46280304756E-01 -0.10610605794E+00  0.11601375082E+00  0.51100000000E-03 0.  1.
         11    1    4    4    0    0  0.56737710730E-02  0.40918363314E-02 -0.11077355696E-01  0.13111206389E-01  0.51100000000E-03 0. -1.
</event>
<event>
 8    1  0.1148488E+005  0.1043930E+01  0.7957747E-01            NaN
         13   -1    0    0    0    0  0.00000000000E+00  0.00000000000E+00  0.74505805969E-08  0.10566000000E+00  0.10566000000E+00 0.  1.
     999900   -1    0    0    0    0 -0.00000000000E+00 -0.00000000000E+00 -0.74505805969E-08  0.93827000000E+00  0.93827000000E+00 0. -1.
     999902    2    1    2    0    0  0.35704435038E-04  0.12470710399E-01 -0.20670540715E-01  0.10197889324E+01  0.10195031513E+01 0.  0.
     999903    2    3    3    0    0 -0.91763433165E-01  0.54715689566E-01  0.70191228485E-01  0.12935781149E+00  0.19806576872E-01 0.  0.
         14    1    1    2    0    0 -0.35704435038E-04 -0.12470710399E-01  0.20670540715E-01  0.24141067626E-01  0.00000000000E+00 0.  1.
     999901    1    3    3    0    0  0.91799137600E-01 -0.42244979167E-01 -0.90861769201E-01  0.89043112088E+00  0.88000000000E+00 0. -1.
        -11    1    4    4    0    0 -0.80992278723E-01  0.49269849061E-01  0.53827535890E-01  0.10901803511E+00  0.51100000000E-03 0. -1.
         11    1    4    4    0    0 -0.10771154441E-01  0.54458405050E-02  0.16363692595E-01  0.20339776379E-01  0.51100000000E-03 0.  1.
</event>
<event>
 8    1  0.1148488E+005  0.1043930E+01  0.7957747E-01            NaN
         13   -1    0    0    0    0  0.00000000000E+00  0.00000000000E+00  0.74505805969E-08  0.10566000000E+00  0.10566000000E+00 0. -1.
     999900   -1    0    0    0    0 -0.00000000000E+00 -0.00000000000E+00 -0.74505805969E-08  0.93827000000E+00  0.93827000000E+00 0. -1.
     999902    2    1    2    0    0  0.12438506839E-01 -0.53855245754E-02 -0.22876367753E-01  0.10173396159E+01  0.10169920577E+01 0.  0.
     999903    2    3    3    0    0 -0.35286435651E-01  0.82797305340E-01 -0.90405615384E-01  0.12907497009E+00  0.19663323699E-01 0.  0.
         14    1    1    2    0    0 -0.12438506839E-01  0.53855245754E-02  0.22876367753E-01  0.26590384144E-01  0.00000000000E+00 0. -1.
     999901    1    3    3    0    0  0.47724942490E-01 -0.88182829915E-01  0.67529247631E-01  0.88826464576E+00  0.88000000000E+00 0. -1.
        -11    1    4    4    0    0 -0.25441595521E-01  0.49812320328E-01 -0.43334580300E-01  0.70757960753E-01  0.51100000000E-03 0.  1.
         11    1    4    4    0    0 -0.98448401298E-02  0.32984985012E-01 -0.47071035085E-01  0.58317009340E-01  0.51100000000E-03 0. -1.
</event>
<event>
 8    1  0.1148488E+005  0.1043930E+01  0.7957747E-01            NaN
         13   -1    0    0    0    0  0.00000000000E+00  0.00000000000E+00  0.74505805969E-08  0.10566000000E+00  0.10566000000E+00 0. -1.
     999900   -1    0    0    0    0 -0.00000000000E+00 -0.00000000000E+00 -0.74505805969E-08  0.93827000000E+00  0.93827000000E+00 0.  1.
     999902    2    1    2    0    0 -0.12056421945E-01  0.15433601589E-01  0.13397898604E-01  0.10202011767E+01  0.10199251854E+01 0.  0.
     999903    2    3    3    0    0 -0.12848544679E+00  0.23908090592E-01 -0.43045009563E-02  0.13231553669E+00  0.20217954590E-01 0.  0.
         14    1    1    2    0    0  0.12056421945E-01 -0.15433601589E-01 -0.13397898604E-01  0.23728823299E-01  0.00000000000E+00 0.  1.
     999901    1    3    3    0    0  0.11642902485E+00 -0.84744890030E-02  0.17702399560E-01  0.88788564001E+00  0.88000000000E+00 0.  1.
        -11    1    4    4    0    0 -0.54694574987E-01  0.79253058549E-02 -0.11559677449E-01  0.56464097173E-01  0.51100000000E-03 0. -1.
         11    1    4    4    0    0 -0.73790871805E-01  0.15982784737E-01  0.72551764923E-02  0.75851439516E-01  0.51100000000E-03 0.  1.
</event>
<event>
 8    1  0.1148488E+005  0.1043930E+01  0.7957747E-01            NaN
         13   -1    0    0    0    0  0.00000000000E+00  0.00000000000E+00  0.74505805969E-08  0.10566000000E+00  0.10566000000E+00 0.  1.
     999900   -1    0    0    0    0 -0.00000000000E+00 -0.00000000000E+00 -0.74505805969E-08  0.93827000000E+00  0.93827000000E+00 0.  1.
     999902    2    1    2    0    0  0.22419492517E-01 -0.59851851133E-02  0.28285970953E-03  0.10207236195E+01  0.10204597843E+01 0.  0.
     999903    2    3    3    0    0  0.11674573227E+00  0.36854384280E-01  0.48948033793E-01  0.13331110699E+00  0.19701004829E-01 0.  0.
         14    1    1    2    0    0 -0.22419492517E-01  0.59851851133E-02 -0.28285970953E-03  0.23206380484E-01  0.00000000000E+00 0. -1.
     999901    1    3    3    0    0 -0.94326239755E-01 -0.42839569393E-01 -0.48665174084E-01  0.88741251252E+00  0.88000000000E+00 0. -1.
        -11    1    4    4    0    0  0.73824615992E-01  0.18784189652E-01  0.39420491606E-01  0.85773865406E-01  0.51100000000E-03 0. -1.
         11    1    4    4    0    0  0.42921116280E-01  0.18070194628E-01  0.95275421869E-02  0.47537241587E-01  0.51100000000E-03 0.  1.
</event>
<event>
 8    1  0.1148488E+005  0.1043930E+01  0.7957747E-01            NaN
         13   -1    0    0    0    0  0.00000000000E+00  0.00000000000E+00  0.74505805969E-08  0.10566000000E+00  0.10566000000E+00 0.  1.
     999900   -1    0    0    0    0 -0.00000000000E+00 -0.00000000000E+00 -0.74505805969E-08  0.93827000000E+00  0.93827000000E+00 0.  1.
     999902    2    1    2    0    0 -0.19564894521E-01 -0.95490527724E-02  0.94982524481E-02  0.10201773937E+01  0.10199008424E+01 0.  0.
     999903    2    3    3    0    0  0.64542316276E-01 -0.10853523129E+00 -0.23175171473E-01  0.13004266284E+00  0.20697791308E-01 0.  0.
         14    1    1    2    0    0  0.19564894521E-01  0.95490527724E-02 -0.94982524481E-02  0.23752606300E-01  0.00000000000E+00 0.  1.
     999901    1    3    3    0    0 -0.84107210797E-01  0.98986178519E-01  0.32673423921E-01  0.89013473086E+00  0.88000000000E+00 0.  1.
        -11    1    4    4    0    0  0.42520751236E-01 -0.87820743462E-01 -0.20347238698E-01  0.99673308922E-01  0.51100000000E-03 0. -1.
         11    1    4    4    0    0  0.22021565040E-01 -0.20714487829E-01 -0.28279327742E-02  0.30369353921E-01  0.51100000000E-03 0.  1.
</event>
<event>
 8    1  0.1148488E+005  0.1043930E+01  0.7957747E-01            NaN
         13   -1    0    0    0    0  0.00000000000E+00  0.00000000000E+00  0.74505805969E-08  0.10566000000E+00  0.10566000000E+00 0. -1.
     999900   -1    0    0    0    0 -0.00000000000E+00 -0.00000000000E+00 -0.74505805969E-08  0.93827000000E+00  0.93827000000E+00 0. -1.
     999902    2    1    2    0    0  0.15586527610E-01 -0.15101712471E-01 -0.10783211371E-01  0.10196961557E+01  0.10194081473E+01 0.  0.
     999903    2    3    3    0    0  0.76536613138E-03  0.10366235011E+00  0.68237441255E-01  0.12808590848E+00  0.31673063421E-01 0.  0.
         14    1    1    2    0    0 -0.15586527610E-01  0.15101712471E-01  0.10783211371E-01  0.24233844309E-01  0.00000000000E+00 0. -1.
     999901    1    3    3    0    0  0.14821161479E-01 -0.11876406258E+00 -0.79020652626E-01  0.89161024721E+00  0.88000000000E+00 0. -1.
        -11    1    4    4    0    0  0.51313181870E-02  0.51415102563E-01  0.16048978532E-01  0.54107984908E-01  0.51100000000E-03 0.  1.
         11    1    4    4    0    0 -0.43659520557E-02  0.52247247548E-01  0.52188462724E-01  0.73977923573E-01  0.51100000000E-03 0. -1.
</event>
<event>
 8    1  0.1148488E+005  0.1043930E+01  0.7957747E-01            NaN
         13   -1    0    0    0    0  0.00000000000E+00  0.00000000000E+00  0.74505805969E-08  0.10566000000E+00  0.10566000000E+00 0.  1.
     999900   -1    0    0    0    0 -0.00000000000E+00 -0.00000000000E+00 -0.74505805969E-08  0.93827000000E+00  0.93827000000E+00 0. -1.
     999902    2    1    2    0    0 -0.17699433171E-01  0.10999056367E-01 -0.10553656264E-01  0.10205713006E+01  0.10203039502E+01 0.  0.
     999903    2    3    3    0    0 -0.31903185433E-01 -0.10566890114E+00  0.64471267628E-01  0.12959324361E+00  0.21310432437E-01 0.  0.
         14    1    1    2    0    0  0.17699433171E-01 -0.10999056367E-01  0.10553656264E-01  0.23358699366E-01  0.00000000000E+00 0.  1.
     999901    1    3    3    0    0  0.14203752262E-01  0.11666795751E+00 -0.75024923892E-01  0.89097805702E+00  0.88000000000E+00 0. -1.
        -11    1    4    4    0    0 -0.84304626702E-02 -0.63690780525E-01  0.39161273373E-01  0.75242638696E-01  0.51100000000E-03 0. -1.
         11    1    4    4    0    0 -0.23472722762E-01 -0.41978120620E-01  0.25309994255E-01  0.54350604916E-01  0.51100000000E-03 0.  1.
</event>
<event>
 8    1  0.1148488E+005  0.1043930E+01  0.7957747E-01            NaN
         13   -1    0    0    0    0  0.00000000000E+00  0.00000000000E+00  0.74505805969E-08  0.10566000000E+00  0.10566000000E+00 0. -1.
     999900   -1    0    0    0    0 -0.00000000000E+00 -0.00000000000E+00 -0.74505805969E-08  0.93827000000E+00  0.93827000000E+00 0.  1.
     999902    2    1    2    0    0  0.23899347075E-01  0.32672463526E-02  0.88401622963E-02  0.10182394928E+01  0.10179153514E+01 0.  0.
     999903    2    3    3    0    0 -0.48027472554E-01 -0.68369176002E-01  0.95217712337E-01  0.12820223207E+00  0.19708303259E-01 0.  0.
         14    1    1    2    0    0 -0.23899347075E-01 -0.32672463526E-02 -0.88401622963E-02  0.25690507172E-01  0.00000000000E+00 0.  1.
     999901    1    3    3    0    0  0.71926819629E-01  0.71636422355E-01 -0.86377550041E-01  0.89003726076E+00  0.88000000000E+00 0.  1.
        -11    1    4    4    0    0 -0.33172855344E-01 -0.44063253199E-01  0.48319300983E-01  0.73328197732E-01  0.51100000000E-03 0. -1.
         11    1    4    4    0    0 -0.14854617211E-01 -0.24305922804E-01  0.46898411354E-01  0.54874034337E-01  0.51100000000E-03 0.  1.
</event>
<event>
 8    1  0.1148488E+005  0.1043930E+01  0.7957747E-01            NaN
         13   -1    0    0    0    0  0.00000000000E+00  0.00000000000E+00  0.74505805969E-08  0.10566000000E+00  0.10566000000E+00 0. -1.
     999900   -1    0    0    0    0 -0.00000000000E+00 -0.00000000000E+00 -0.74505805969E-08  0.93827000000E+00  0.93827000000E+00 0.  1.
     999902    2    1    2    0    0  0.15464742903E-01 -0.11329391438E-01  0.14376277082E-01  0.10199677229E+01  0.10196862091E+01 0.  0.
     999903    2    3    3    0    0  0.95143381060E-01  0.45289141480E-01 -0.73644010274E-01  0.13019139442E+00  0.20566711858E-01 0.  0.
         14    1    1    2    0    0 -0.15464742903E-01  0.11329391438E-01 -0.14376277082E-01  0.23962277149E-01  0.00000000000E+00 0.  1.
     999901    1    3    3    0    0 -0.79678638157E-01 -0.56618532919E-01  0.88020287356E-01  0.88977632843E+00  0.88000000000E+00 0.  1.
        -11    1    4    4    0    0  0.12447129119E-01  0.46924701203E-02 -0.18605995506E-01  0.22877816524E-01  0.51100000000E-03 0. -1.
         11    1    4    4    0    0  0.82696251941E-01  0.40596671360E-01 -0.55038014768E-01  0.10731357790E+00  0.51100000000E-03 0.  1.
</event>
<event>
 8    1  0.1148488E+005  0.1043930E+01  0.7957747E-01            NaN
         13   -1    0    0    0    0  0.00000000000E+00  0.00000000000E+00  0.74505805969E-08  0.10566000000E+00  0.10566000000E+00 0. -1.
     999900   -1    0    0    0    0 -0.00000000000E+00 -0.00000000000E+00 -0.74505805969E-08  0.93827000000E+00  0.93827000000E+00 0.  1.
     999902    2    1    2    0    0 -0.10349617949E-01 -0.15247507133E-01 -0.17085549908E-01  0.10187999964E+01  0.10184900174E+01 0.  0.
     999903    2    3    3    0    0 -0.32128247162E-01  0.11829995928E+00  0.28000255627E-01  0.12731698235E+00  0.19962340734E-01 0.  0.
         14    1    1    2    0    0  0.10349617949E-01  0.15247507133E-01  0.17085549908E-01  0.25130003604E-01  0.00000000000E+00 0. -1.
     999901    1    3    3    0    0  0.21778629213E-01 -0.13354746641E+00 -0.45085805535E-01  0.89148301405E+00  0.88000000000E+00 0. -1.
        -11    1    4    4    0    0 -0.22056338910E-01  0.51627451395E-01  0.63821786597E-02  0.56505478930E-01  0.51100000000E-03 0.  1.
         11    1    4    4    0    0 -0.10071908251E-01  0.66672507886E-01  0.21618076967E-01  0.70811503418E-01  0.51100000000E-03 0. -1.
</event>
<event>
 8    1  0.1148488E+005  0.1043930E+01  0.7957747E-01            NaN
         13   -1    0    0    0    0  0.00000000000E+00  0.00000000000E+00  0.74505805969E-08  0.10566000000E+00  0.10566000000E+00 0. -1.
     999900   -1    0    0    0    0 -0.00000000000E+00 -0.00000000000E+00 -0.74505805969E-08  0.93827000000E+00  0.93827000000E+00 0.  1.
     999902    2    1    2    0    0 -0.17684586109E-01  0.82986385648E-02  0.38096300364E-02  0.10240271040E+01  0.10238336703E+01 0.  0.
     999903    2    3    3    0    0  0.11335131055E+00 -0.48912124180E-01 -0.40489084777E-01  0.13138728094E+00  0.19553416923E-01 0.  0.
         14    1    1    2    0    0  0.17684586109E-01 -0.82986385648E-02 -0.38096300364E-02  0.19902895992E-01  0.00000000000E+00 0.  1.
     999901    1    3    3    0    0 -0.13103589665E+00  0.57210762745E-01  0.44298714813E-01  0.89263982306E+00  0.88000000000E+00 0.  1.
        -11    1    4    4    0    0  0.10122994304E-02  0.14524601317E-02 -0.22190764328E-03  0.18560050035E-02  0.51100000000E-03 0.  1.
         11    1    4    4    0    0  0.11233901112E+00 -0.50364584312E-01 -0.40267177134E-01  0.12953127594E+00  0.51100000000E-03 0. -1.
</event>
<event>
 8    1  0.1148488E+005  0.1043930E+01  0.7957747E-01            NaN
         13   -1    0    0    0    0  0.00000000000E+00  0.00000000000E+00  0.74505805969E-08  0.10566000000E+00  0.10566000000E+00 0. -1.
     999900   -1    0    0    0    0 -0.00000000000E+00 -0.00000000000E+00 -0.74505805969E-08  0.93827000000E+00  0.93827000000E+00 0.  1.
     999902    2    1    2    0    0  0.14721371369E-01  0.16602804511E-02  0.19441421150E-01  0.10194873291E+01  0.10191942749E+01 0.  0.
     999903    2    3    3    0    0 -0.42601777482E-01  0.11480542159E+00  0.39047690328E-01  0.13017738751E+00  0.20645431145E-01 0.  0.
         14    1    1    2    0    0 -0.14721371369E-01 -0.16602804511E-02 -0.19441421150E-01  0.24442670936E-01  0.00000000000E+00 0.  1.
     999901    1    3    3    0    0  0.57323148851E-01 -0.11314514114E+00 -0.19606269178E-01  0.88930994156E+00  0.88000000000E+00 0.  1.
        -11    1    4    4    0    0 -0.26830111887E-01  0.87948548430E-01  0.36475305426E-01  0.98921742311E-01  0.51100000000E-03 0.  1.
         11    1    4    4    0    0 -0.15771665595E-01  0.26856873162E-01  0.25723849013E-02  0.31255645198E-01  0.51100000000E-03 0. -1.
</event>
<event>
 8    1  0.1148488E+005  0.1043930E+01  0.7957747E-01            NaN
         13   -1    0    0    0    0  0.00000000000E+00  0.00000000000E+00  0.74505805969E-08  0.10566000000E+00  0.10566000000E+00 0.  1.
     999900   -1    0    0    0    0 -0.00000000000E+00 -0.00000000000E+00 -0.74505805969E-08  0.93827000000E+00  0.93827000000E+00 0.  1.
     999902    2    1    2    0    0 -0.13148273967E-01 -0.16574650066E-01  0.93718090925E-02  0.10207907057E+01  0.10205284112E+01 0.  0.
     999903    2    3    3    0    0  0.42684499229E-01 -0.11341189661E+00 -0.48248509917E-01  0.13185040851E+00  0.19297324907E-01 0.  0.
         14    1    1    2    0    0  0.13148273967E-01  0.16574650066E-01 -0.93718090925E-02  0.23139294258E-01  0.00000000000E+00 0. -1.
     999901    1    3    3    0    0 -0.55832773196E-01  0.96837246541E-01  0.57620319010E-01  0.88894029723E+00  0.88000000000E+00 0. -1.
        -11    1    4    4    0    0  0.30517142787E-01 -0.53774280114E-01 -0.24896902862E-01  0.66656478296E-01  0.51100000000E-03 0. -1.
         11    1    4    4    0    0  0.12167356443E-01 -0.59637616492E-01 -0.23351607055E-01  0.65193930214E-01  0.51100000000E-03 0.  1.
</event>
<event>
 8    1  0.1148488E+005  0.1043930E+01  0.7957747E-01            NaN
         13   -1    0    0    0    0  0.00000000000E+00  0.00000000000E+00  0.74505805969E-08  0.10566000000E+00  0.10566000000E+00 0.  1.
     999900   -1    0    0    0    0 -0.00000000000E+00 -0.00000000000E+00 -0.74505805969E-08  0.93827000000E+00  0.93827000000E+00 0.  1.
     999902    2    1    2    0    0 -0.23065687333E-01  0.33274530287E-02 -0.48030988845E-02  0.10201357226E+01  0.10198581887E+01 0.  0.
     999903    2    3    3    0    0  0.24781242295E-01 -0.10433121275E+00  0.69313433531E-01  0.12919634347E+00  0.19703582771E-01 0.  0.
         14    1    1    2    0    0  0.23065687333E-01 -0.33274530287E-02  0.48030988845E-02  0.23794277352E-01  0.00000000000E+00 0. -1.
     999901    1    3    3    0    0 -0.47846929628E-01  0.10765866578E+00 -0.74116532416E-01  0.89093937918E+00  0.88000000000E+00 0. -1.
        -11    1    4    4    0    0  0.12315600534E-01 -0.84831877611E-01  0.57359228391E-01  0.10314292840E+00  0.51100000000E-03 0. -1.
         11    1    4    4    0    0  0.12465641761E-01 -0.19499335142E-01  0.11954205141E-01  0.26053415074E-01  0.51100000000E-03 0.  1.
</event>
<event>
 8    1  0.1148488E+005  0.1043930E+01  0.7957747E-01            NaN
         13   -1    0    0    0    0  0.00000000000E+00  0.00000000000E+00  0.74505805969E-08  0.10566000000E+00  0.10566000000E+00 0.  1.
     999900   -1    0    0    0    0 -0.00000000000E+00 -0.00000000000E+00 -0.74505805969E-08  0.93827000000E+00  0.93827000000E+00 0.  1.
     999902    2    1    2    0    0  0.37687213006E-02 -0.10213705871E-01  0.20930607196E-01  0.10203373451E+01  0.10200645491E+01 0.  0.
     999903    2    3    3    0    0  0.88187284835E-02 -0.71856786391E-01 -0.10521777761E+00  0.12919269526E+00  0.19462889290E-01 0.  0.
         14    1    1    2    0    0 -0.37687213006E-02  0.10213705871E-01 -0.20930607196E-01  0.23592654904E-01  0.00000000000E+00 0. -1.
     999901    1    3    3    0    0 -0.50500071829E-02  0.61643080520E-01  0.12614838481E+00  0.89114464984E+00  0.88000000000E+00 0. -1.
        -11    1    4    4    0    0 -0.58702873316E-02 -0.30772681692E-01 -0.44238890970E-01  0.54210320117E-01  0.51100000000E-03 0.  1.
         11    1    4    4    0    0  0.14689015815E-01 -0.41084104699E-01 -0.60978886641E-01  0.74982375139E-01  0.51100000000E-03 0. -1.
</event>
<event>
 8    1  0.1148488E+005  0.1043930E+01  0.7957747E-01            NaN
         13   -1    0    0    0    0  0.00000000000E+00  0.00000000000E+00  0.74505805969E-08  0.10566000000E+00  0.10566000000E+00 0. -1.
     999900   -1    0    0    0    0 -0.00000000000E+00 -0.00000000000E+00 -0.74505805969E-08  0.93827000000E+00  0.93827000000E+00 0.  1.
     999902    2    1    2    0    0  0.52289252163E-02 -0.24339424233E-01  0.52351564531E-03  0.10190297329E+01  0.10187254651E+01 0.  0.
     999903    2    3    3    0    0 -0.12569954009E+00  0.10023899241E-01  0.15912170592E-01  0.12854676751E+00  0.19241136381E-01 0.  0.
         14    1    1    2    0    0 -0.52289252163E-02  0.24339424233E-01 -0.52351564531E-03  0.24900267058E-01  0.00000000000E+00 0.  1.
     999901    1    3    3    0    0  0.13092846531E+00 -0.34363323474E-01 -0.15388654947E-01  0.89048296543E+00  0.88000000000E+00 0. -1.
        -11    1    4    4    0    0 -0.98857281413E-01  0.11194006706E-01  0.19659535453E-01  0.10141413279E+00  0.51100000000E-03 0. -1.
         11    1    4    4    0    0 -0.26842258676E-01 -0.11701074644E-02 -0.37473648602E-02  0.27132634717E-01  0.51100000000E-03 0.  1.
</event>
<event>
 8    1  0.1148488E+005  0.1043930E+01  0.7957747E-01            NaN
         13   -1    0    0    0    0  0.00000000000E+00  0.00000000000E+00  0.74505805969E-08  0.10566000000E+00  0.10566000000E+00 0. -1.
     999900   -1    0    0    0    0 -0.00000000000E+00 -0.00000000000E+00 -0.74505805969E-08  0.93827000000E+00  0.93827000000E+00 0.  1.
     999902    2    1    2    0    0  0.40718374366E-03  0.13594194813E-01  0.18874511516E-01  0.10206659695E+01  0.10204008066E+01 0.  0.
     999903    2    3    3    0    0 -0.54377641440E-01 -0.25349993361E-01 -0.11156098473E+00  0.12851606865E+00  0.21701993789E-01 0.  0.
         14    1    1    2    0    0 -0.40718374366E-03 -0.13594194813E-01 -0.18874511516E-01  0.23264030523E-01  0.00000000000E+00 0.  1.
     999901    1    3    3    0    0  0.54784825184E-01  0.38944188174E-01  0.13043549625E+00  0.89214990083E+00  0.88000000000E+00 0. -1.
        -11    1    4    4    0    0 -0.20099112169E-01 -0.13175685743E-01 -0.25306833125E-01  0.34903723707E-01  0.51100000000E-03 0.  1.
         11    1    4    4    0    0 -0.34278529271E-01 -0.12174307618E-01 -0.86254151610E-01  0.93612344944E-01  0.51100000000E-03 0. -1.
</event>
<event>
 8    1  0.1148488E+005  0.1043930E+01  0.7957747E-01            NaN
         13   -1    0    0    0    0  0.00000000000E+00  0.00000000000E+00  0.74505805969E-08  0.10566000000E+00  0.10566000000E+00 0.  1.
     999900   -1    0    0    0    0 -0.00000000000E+00 -0.00000000000E+00 -0.74505805969E-08  0.93827000000E+00  0.93827000000E+00 0.  1.
     999902    2    1    2    0    0  0.19301918267E-01  0.72534997982E-02  0.11844324222E-01  0.10201504852E+01  0.10198732995E+01 0.  0.
     999903    2    3    3    0    0  0.11732244427E+00  0.32431542953E-01  0.50851086822E-01  0.13349187846E+00  0.20442301124E-01 0.  0.
         14    1    1    2    0    0 -0.19301918267E-01 -0.72534997982E-02 -0.11844324222E-01  0.23779514806E-01  0.00000000000E+00 0. -1.
     999901    1    3    3    0    0 -0.98020526002E-01 -0.25178043155E-01 -0.39006762600E-01  0.88665860674E+00  0.88000000000E+00 0.  1.
        -11    1    4    4    0    0  0.52488452916E-01  0.24889598704E-01  0.21853148366E-01  0.62067310459E-01  0.51100000000E-03 0.  1.
         11    1    4    4    0    0  0.64833991353E-01  0.75419442484E-02  0.28997938456E-01  0.71424567997E-01  0.51100000000E-03 0. -1.
</event>
<event>
 8    1  0.1148488E+005  0.1043930E+01  0.7957747E-01            NaN
         13   -1    0    0    0    0  0.00000000000E+00  0.00000000000E+00  0.74505805969E-08  0.10566000000E+00  0.10566000000E+00 0.  1.
     999900   -1    0    0    0    0 -0.00000000000E+00 -0.00000000000E+00 -0.74505805969E-08  0.93827000000E+00  0.93827000000E+00 0.  1.
     999902    2    1    2    0    0  0.55646640938E-02  0.77173473598E-02  0.20469471343E-01  0.10213574017E+01  0.10211079374E+01 0.  0.
     999903    2    3    3    0    0  0.10769186660E+00 -0.62130854897E-01 -0.36355461687E-01  0.13088684640E+00  0.18758083676E-01 0.  0.
         14    1    1    2    0    0 -0.55646640938E-02 -0.77173473598E-02 -0.20469471343E-01  0.22572598295E-01  0.00000000000E+00 0. -1.
     999901    1    3    3    0    0 -0.10212720251E+00  0.69848202257E-01  0.56824933030E-01  0.89047055530E+00  0.88000000000E+00 0. -1.
        -11    1    4    4    0    0  0.89043324473E-01 -0.52980999302E-01 -0.22847729226E-01  0.10610362752E+00  0.51100000000E-03 0. -1.
         11    1    4    4    0    0  0.18648542131E-01 -0.91498555953E-02 -0.13507732461E-01  0.24783218884E-01  0.51100000000E-03 0.  1.
</event>
<event>
 8    1  0.1148488E+005  0.1043930E+01  0.7957747E-01            NaN
         13   -1    0    0    0    0  0.00000000000E+00  0.00000000000E+00  0.74505805969E-08  0.10566000000E+00  0.10566000000E+00 0.  1.
     999900   -1    0    0    0    0 -0.00000000000E+00 -0.00000000000E+00 -0.74505805969E-08  0.93827000000E+00  0.93827000000E+00 0. -1.
     999902    2    1    2    0    0  0.16288220702E-01 -0.16338017360E-01 -0.46120604995E-02  0.10204032483E+01  0.10201319920E+01 0.  0.
     999903    2    3    3    0    0  0.10845988962E-01 -0.10846450782E+00  0.71907384594E-01  0.13227480395E+00  0.21065774800E-01 0.  0.
         14    1    1    2    0    0 -0.16288220702E-01  0.16338017360E-01  0.46120604995E-02  0.23526751730E-01  0.00000000000E+00 0. -1.
     999901    1    3    3    0    0  0.54422317404E-02  0.92126490460E-01 -0.76519445094E-01  0.88812844432E+00  0.88000000000E+00 0. -1.
        -11    1    4    4    0    0  0.94579244057E-02 -0.79645349247E-01  0.63255316327E-01  0.10214856903E+00  0.51100000000E-03 0. -1.
         11    1    4    4    0    0  0.13880645563E-02 -0.28819158573E-01  0.86520682667E-02  0.30126234918E-01  0.51100000000E-03 0.  1.
</event>
<event>
 8    1  0.1148488E+005  0.1043930E+01  0.7957747E-01            NaN
         13   -1    0    0    0    0  0.00000000000E+00  0.00000000000E+00  0.74505805969E-08  0.10566000000E+00  0.10566000000E+00 0.  1.
     999900   -1    0    0    0    0 -0.00000000000E+00 -0.00000000000E+00 -0.74505805969E-08  0.93827000000E+00  0.93827000000E+00 0.  1.
     999902    2    1    2    0    0 -0.19737560409E-01 -0.45973500669E-02  0.10836478943E-01  0.10209487861E+01  0.10206901036E+01 0.  0.
     999903    2    3    3    0    0 -0.14866236221E-01 -0.80892682260E-01  0.10221301553E+00  0.13292041998E+00  0.21347282767E-01 0.  0.
         14    1    1    2    0    0  0.19737560409E-01  0.45973500669E-02 -0.10836478943E-01  0.22981213945E-01  0.00000000000E+00 0. -1.
     999901    1    3    3    0    0 -0.48713241877E-02  0.76295332193E-01 -0.91376536587E-01  0.88802836607E+00  0.88000000000E+00 0.  1.
        -11    1    4    4    0    0  0.30696170961E-02 -0.27726094806E-01  0.43724753649E-01  0.51867852133E-01  0.51100000000E-03 0. -1.
         11    1    4    4    0    0 -0.17935853317E-01 -0.53166587454E-01  0.58488261881E-01  0.81052567847E-01  0.51100000000E-03 0.  1.
</event>
<event>
 8    1  0.1148488E+005  0.1043930E+01  0.7957747E-01            NaN
         13   -1    0    0    0    0  0.00000000000E+00  0.00000000000E+00  0.74505805969E-08  0.10566000000E+00  0.10566000000E+00 0. -1.
     999900   -1    0    0    0    0 -0.00000000000E+00 -0.00000000000E+00 -0.74505805969E-08  0.93827000000E+00  0.93827000000E+00 0. -1.
     999902    2    1    2    0    0  0.13756524488E-01  0.13960466404E-01  0.13681258662E-01  0.10200278364E+01  0.10197477499E+01 0.  0.
     999903    2    3    3    0    0  0.76056868782E-01 -0.97472990827E-02 -0.10285126945E+00  0.12984626996E+00  0.20050263537E-01 0.  0.
         14    1    1    2    0    0 -0.13756524488E-01 -0.13960466404E-01 -0.13681258662E-01  0.23902163642E-01  0.00000000000E+00 0.  1.
     999901    1    3    3    0    0 -0.62300344294E-01  0.23707765486E-01  0.11653252811E+00  0.89018156640E+00  0.88000000000E+00 0.  1.
        -11    1    4    4    0    0  0.20166958162E-01  0.13647888728E-02 -0.15186617130E-01  0.25287611810E-01  0.51100000000E-03 0.  1.
         11    1    4    4    0    0  0.55889910620E-01 -0.11112087956E-01 -0.87664652317E-01  0.10455865815E+00  0.51100000000E-03 0. -1.
</event>
<event>
 8    1  0.1148488E+005  0.1043930E+01  0.7957747E-01            NaN
         13   -1    0    0    0    0  0.00000000000E+00  0.00000000000E+00  0.74505805969E-08  0.10566000000E+00  0.10566000000E+00 0.  1.
     999900   -1    0    0    0    0 -0.00000000000E+00 -0.00000000000E+00 -0.74505805969E-08  0.93827000000E+00  0.93827000000E+00 0.  1.
     999902    2    1    2    0    0 -0.21633548966E-01  0.96779856006E-02  0.34071727167E-02  0.10199866779E+01  0.10197056146E+01 0.  0.
     999903    2    3    3    0    0  0.14973806224E-01 -0.49650390789E-01  0.11738284385E+00  0.12990218288E+00  0.20161074143E-01 0.  0.
         14    1    1    2    0    0  0.21633548966E-01 -0.96779856006E-02 -0.34071727167E-02  0.23943322076E-01  0.00000000000E+00 0. -1.
     999901    1    3    3    0    0 -0.36607355190E-01  0.59328376390E-01 -0.11397567113E+00  0.89008449504E+00  0.88000000000E+00 0.  1.
        -11    1    4    4    0    0  0.15798730272E-01 -0.37448696324E-01  0.69828367532E-01  0.80797690361E-01  0.51100000000E-03 0.  1.
         11    1    4    4    0    0 -0.82492404782E-03 -0.12201694465E-01  0.47554476314E-01  0.49104492523E-01  0.51100000000E-03 0. -1.
</event>
<event>
 8    1  0.1148488E+005  0.1043930E+01  0.7957747E-01            NaN
         13   -1    0    0    0    0  0.00000000000E+00  0.00000000000E+00  0.74505805969E-08  0.10566000000E+00  0.10566000000E+00 0.  1.
     999900   -1    0    0    0    0 -0.00000000000E+00 -0.00000000000E+00 -0.74505805969E-08  0.93827000000E+00  0.93827000000E+00 0. -1.
     999902    2    1    2    0    0  0.23199752668E-01 -0.46495184309E-02  0.20673212413E-02  0.10201787819E+01  0.10199022633E+01 0.  0.
     999903    2    3    3    0    0  0.42349724439E-01  0.10399855100E+00  0.64086079501E-01  0.13112453674E+00  0.21849960616E-01 0.  0.
         14    1    1    2    0    0 -0.23199752668E-01  0.46495184309E-02 -0.20673212413E-02  0.23751218129E-01  0.00000000000E+00 0.  1.
     999901    1    3    3    0    0 -0.19149971770E-01 -0.10864806943E+00 -0.62018758260E-01  0.88905424513E+00  0.88000000000E+00 0. -1.
        -11    1    4    4    0    0  0.13641145947E-01  0.12542217134E-01  0.10611569036E-01  0.21360116849E-01  0.51100000000E-03 0.  1.
         11    1    4    4    0    0  0.28708578491E-01  0.91456333867E-01  0.53474510465E-01  0.10976441989E+00  0.51100000000E-03 0. -1.
</event>
<event>
 8    1  0.1148488E+005  0.1043930E+01  0.7957747E-01            NaN
         13   -1    0    0    0    0  0.00000000000E+00  0.00000000000E+00  0.74505805969E-08  0.10566000000E+00  0.10566000000E+00 0. -1.
     999900   -1    0    0    0    0 -0.00000000000E+00 -0.00000000000E+00 -0.74505805969E-08  0.93827000000E+00  0.93827000000E+00 0.  1.
     999902    2    1    2    0    0 -0.25129923958E-02 -0.75403284682E-02  0.21551019765E-01  0.10209600601E+01  0.10207016343E+01 0.  0.
     999903    2    3    3    0    0 -0.99208777474E-01 -0.83106800820E-01 -0.14164738121E-01  0.13172669260E+00  0.20053923948E-01 0.  0.
         14    1    1    2    0    0  0.25129923958E-02  0.75403284682E-02 -0.21551019765E-01  0.22969939858E-01  0.00000000000E+00 0.  1.
     999901    1    3    3    0    0  0.96695785079E-01  0.75566472352E-01  0.35715757886E-01  0.88923336755E+00  0.88000000000E+00 0.  1.
        -11    1    4    4    0    0 -0.18076001676E-01 -0.26292002513E-01 -0.30385146106E-02  0.32054717668E-01  0.51100000000E-03 0. -1.
         11    1    4    4    0    0 -0.81132775798E-01 -0.56814798307E-01 -0.11126223510E-01  0.99671974928E-01  0.51100000000E-03 0.  1.
</event>
<event>
 8    1  0.1148488E+005  0.1043930E+01  0.7957747E-01            NaN
         13   -1    0    0    0    0  0.00000000000E+00  0.00000000000E+00  0.74505805969E-08  0.10566000000E+00  0.10566000000E+00 0.  1.
     999900   -1    0    0    0    0 -0.00000000000E+00 -0.00000000000E+00 -0.74505805969E-08  0.93827000000E+00  0.93827000000E+00 0. -1.
     999902    2    1    2    0    0  0.29508226299E-02 -0.19919085474E-01  0.11909534204E-01  0.10205352500E+01  0.10202670642E+01 0.  0.
     999903    2    3    3    0    0 -0.54143624721E-01  0.53364015265E-01 -0.10169668480E+00  0.12838248187E+00  0.18989358293E-01 0.  0.
         14    1    1    2    0    0 -0.29508226299E-02  0.19919085474E-01 -0.11909534204E-01  0.23394749951E-01  0.00000000000E+00 0. -1.
     999901    1    3    3    0    0  0.57094447351E-01 -0.73283100739E-01  0.11360621901E+00  0.89215276818E+00  0.88000000000E+00 0.  1.
        -11    1    4    4    0    0 -0.31814023212E-01  0.38794659904E-01 -0.77794856723E-01  0.92571370107E-01  0.51100000000E-03 0. -1.
         11    1    4    4    0    0 -0.22329601509E-01  0.14569355361E-01 -0.23901828078E-01  0.35811111763E-01  0.51100000000E-03 0.  1.
</event>
<event>
 8    1  0.1148488E+005  0.1043930E+01  0.7957747E-01            NaN
         13   -1    0    0    0    0  0.00000000000E+00  0.00000000000E+00  0.74505805969E-08  0.10566000000E+00  0.10566000000E+00 0.  1.
     999900   -1    0    0    0    0 -0.00000000000E+00 -0.00000000000E+00 -0.74505805969E-08  0.93827000000E+00  0.93827000000E+00 0.  1.
     999902    2    1    2    0    0 -0.95774334084E-02  0.22050179250E-01 -0.39707076145E-03  0.10198863875E+01  0.10196029365E+01 0.  0.
     999903    2    3    3    0    0 -0.12697509629E+00 -0.18054116763E-01  0.18323395151E-01  0.13098761846E+00  0.19323125229E-01 0.  0.
         14    1    1    2    0    0  0.95774334084E-02 -0.22050179250E-01  0.39707076145E-03  0.24043612475E-01  0.00000000000E+00 0. -1.
     999901    1    3    3    0    0  0.11739766288E+00  0.40104296012E-01 -0.18720465913E-01  0.88889876907E+00  0.88000000000E+00 0. -1.
        -11    1    4    4    0    0 -0.38818301368E-01 -0.13655785622E-01  0.98364523761E-02  0.42312621266E-01  0.51100000000E-03 0. -1.
         11    1    4    4    0    0 -0.88156794923E-01 -0.43983311409E-02  0.84869427751E-02  0.88674997190E-01  0.51100000000E-03 0.  1.
</event>
<event>
 8    1  0.1148488E+005  0.1043930E+01  0.7957747E-01            NaN
         13   -1    0    0    0    0  0.00000000000E+00  0.00000000000E+00  0.74505805969E-08  0.10566000000E+00  0.10566000000E+00 0.  1.
     999900   -1    0    0    0    0 -0.00000000000E+00 -0.00000000000E+00 -0.74505805969E-08  0.93827000000E+00  0.93827000000E+00 0.  1.
     999902    2    1    2    0    0 -0.12583567858E-01  0.14774195094E-01 -0.16802934139E-01  0.10182597523E+01  0.10179361284E+01 0.  0.
     999903    2    3    3    0    0 -0.10063145365E+00  0.63168418346E-01  0.48943942241E-01  0.13010600279E+00  0.20374590511E-01 0.  0.
         14    1    1    2    0    0  0.12583567858E-01 -0.14774195094E-01  0.16802934139E-01  0.25670247689E-01  0.00000000000E+00 0.  1.
     999901    1    3    3    0    0  0.88047885797E-01 -0.48394223252E-01 -0.65746876380E-01  0.88815374952E+00  0.88000000000E+00 0.  1.
        -11    1    4    4    0    0 -0.28480294165E-01  0.13177876481E-01  0.44653657328E-02  0.31701485713E-01  0.51100000000E-03 0. -1.
         11    1    4    4    0    0 -0.72151159490E-01  0.49990541865E-01  0.44478576508E-01  0.98404517075E-01  0.51100000000E-03 0.  1.
</event>
<event>
 8    1  0.1148488E+005  0.1043930E+01  0.7957747E-01            NaN
         13   -1    0    0    0    0  0.00000000000E+00  0.00000000000E+00  0.74505805969E-08  0.10566000000E+00  0.10566000000E+00 0.  1.
     999900   -1    0    0    0    0 -0.00000000000E+00 -0.00000000000E+00 -0.74505805969E-08  0.93827000000E+00  0.93827000000E+00 0.  1.
     999902    2    1    2    0    0 -0.17615930636E-01  0.16397331044E-01  0.73985239163E-02  0.10187520010E+01  0.10184408220E+01 0.  0.
     999903    2    3    3    0    0  0.29175489231E-01 -0.69208845084E-01  0.10207465889E+00  0.12831310647E+00  0.20098355503E-01 0.  0.
         14    1    1    2    0    0  0.17615930636E-01 -0.16397331044E-01 -0.73985239163E-02  0.25177999001E-01  0.00000000000E+00 0. -1.
     999901    1    3    3    0    0 -0.46791419867E-01  0.85606176128E-01 -0.94676134973E-01  0.89043889453E+00  0.88000000000E+00 0. -1.
        -11    1    4    4    0    0  0.72635129521E-02 -0.21861797458E-01  0.47597101524E-01  0.52881395622E-01  0.51100000000E-03 0. -1.
         11    1    4    4    0    0  0.21911976279E-01 -0.47347047625E-01  0.54477557366E-01  0.75431710844E-01  0.51100000000E-03 0.  1.
</event>
<event>
 8    1  0.1148488E+005  0.1043930E+01  0.7957747E-01            NaN
         13   -1    0    0    0    0  0.00000000000E+00  0.00000000000E+00  0.74505805969E-08  0.10566000000E+00  0.10566000000E+00 0.  1.
     999900   -1    0    0    0    0 -0.00000000000E+00 -0.00000000000E+00 -0.74505805969E-08  0.93827000000E+00  0.93827000000E+00 0.  1.
     999902    2    1    2    0    0 -0.51358969765E-02  0.21641729825E-01  0.38783606655E-02  0.10213516123E+01  0.10211020186E+01 0.  0.
     999903    2    3    3    0    0  0.11755246799E+00 -0.37919154895E-01  0.36361752855E-01  0.13025391588E+00  0.19684016168E-01 0.  0.
         14    1    1    2    0    0  0.51358969765E-02 -0.21641729825E-01 -0.38783606655E-02  0.22578387654E-01  0.00000000000E+00 0. -1.
     999901    1    3    3    0    0 -0.12268836496E+00  0.59560884721E-01 -0.32483392189E-01  0.89109769647E+00  0.88000000000E+00 0. -1.
        -11    1    4    4    0    0  0.78733341093E-01 -0.33659418812E-01  0.20147091851E-01  0.87966254356E-01  0.51100000000E-03 0.  1.
         11    1    4    4    0    0  0.38819126895E-01 -0.42597360832E-02  0.16214661004E-01  0.42287661520E-01  0.51100000000E-03 0. -1.
</event>
<event>
 8    1  0.1148488E+005  0.1043930E+01  0.7957747E-01            NaN
         13   -1    0    0    0    0  0.00000000000E+00  0.00000000000E+00  0.74505805969E-08  0.10566000000E+00  0.10566000000E+00 0. -1.
     999900   -1    0    0    0    0 -0.00000000000E+00 -0.00000000000E+00 -0.74505805969E-08  0.93827000000E+00  0.93827000000E+00 0.  1.
     999902    2    1    2    0    0 -0.13584221983E-01  0.19314100568E-01 -0.11756861734E-01  0.10175521804E+01  0.10172102293E+01 0.  0.
     999903    2    3    3    0    0 -0.27009827906E-01  0.74428600468E-01 -0.10253101039E+00  0.13106597012E+00  0.19913137942E-01 0.  0.
         14    1    1    2    0    0  0.13584221983E-01 -0.19314100568E-01  0.11756861734E-01  0.26377819573E-01  0.00000000000E+00 0. -1.
     999901    1    3    3    0    0  0.13425605923E-01 -0.55114499901E-01  0.90774148651E-01  0.88648621030E+00  0.88000000000E+00 0. -1.
        -11    1    4    4    0    0 -0.94709159067E-02  0.24881033236E-01 -0.20351081852E-01  0.33514052523E-01  0.51100000000E-03 0. -1.
         11    1    4    4    0    0 -0.17538911999E-01  0.49547567232E-01 -0.82179928533E-01  0.97551917600E-01  0.51100000000E-03 0.  1.
</event>
<event>
 8    1  0.1148488E+005  0.1043930E+01  0.7957747E-01            NaN
         13   -1    0    0    0    0  0.00000000000E+00  0.00000000000E+00  0.74505805969E-08  0.10566000000E+00  0.10566000000E+00 0. -1.
     999900   -1    0    0    0    0 -0.00000000000E+00 -0.00000000000E+00 -0.74505805969E-08  0.93827000000E+00  0.93827000000E+00 0.  1.
     999902    2    1    2    0    0  0.99921434781E-02 -0.22711575306E-01  0.57779488599E-02  0.10184536722E+01  0.10181349808E+01 0.  0.
     999903    2    3    3    0    0 -0.55179136133E-01  0.58851890392E-01  0.96942158718E-01  0.12760530814E+00  0.19417787249E-01 0.  0.
         14    1    1    2    0    0 -0.99921434781E-02  0.22711575306E-01 -0.57779488599E-02  0.25476327781E-01  0.00000000000E+00 0.  1.
     999901    1    3    3    0    0  0.65171279611E-01 -0.81563465697E-01 -0.91164209858E-01  0.89084836408E+00  0.88000000000E+00 0.  1.
        -11    1    4    4    0    0 -0.27380343794E-01  0.29074876765E-01  0.33109072502E-01  0.51879702082E-01  0.51100000000E-03 0. -1.
         11    1    4    4    0    0 -0.27798792339E-01  0.29777013626E-01  0.63833086216E-01  0.75725606058E-01  0.51100000000E-03 0.  1.
</event>
<event>
 8    1  0.1148488E+005  0.1043930E+01  0.7957747E-01            NaN
         13   -1    0    0    0    0  0.00000000000E+00  0.00000000000E+00  0.74505805969E-08  0.10566000000E+00  0.10566000000E+00 0. -1.
     999900   -1    0    0    0    0 -0.00000000000E+00 -0.00000000000E+00 -0.74505805969E-08  0.93827000000E+00  0.93827000000E+00 0.  1.
     999902    2    1    2    0    0 -0.10021189416E-01  0.15558477753E-01  0.17869980804E-01  0.10182040077E+01  0.10178789587E+01 0.  0.
     999903    2    3    3    0    0  0.66973819373E-01 -0.16679205510E-01 -0.10348989847E+00  0.12596204503E+00  0.19813866979E-01 0.  0.
         14    1    1    2    0    0  0.10021189416E-01 -0.15558477753E-01 -0.17869980804E-01  0.25725992328E-01  0.00000000000E+00 0.  1.
     999901    1    3    3    0    0 -0.76995008789E-01  0.32237683263E-01  0.12135987928E+00  0.89224196264E+00  0.88000000000E+00 0. -1.
        -11    1    4    4    0    0  0.48017810919E-01 -0.20251950132E-01 -0.81128150917E-01  0.96425565292E-01  0.51100000000E-03 0.  1.
         11    1    4    4    0    0  0.18956008454E-01  0.35727446223E-02 -0.22361747555E-01  0.29536479739E-01  0.51100000000E-03 0. -1.
</event>
<event>
 8    1  0.1148488E+005  0.1043930E+01  0.7957747E-01            NaN
         13   -1    0    0    0    0  0.00000000000E+00  0.00000000000E+00  0.74505805969E-08  0.10566000000E+00  0.10566000000E+00 0.  1.
     999900   -1    0    0    0    0 -0.00000000000E+00 -0.00000000000E+00 -0.74505805969E-08  0.93827000000E+00  0.93827000000E+00 0. -1.
     999902    2    1    2    0    0  0.24157474953E-01  0.40822980430E-02 -0.96111398982E-03  0.10194111808E+01  0.10191162756E+01 0.  0.
     999903    2    3    3    0    0 -0.90627254256E-01 -0.20794586481E-01 -0.85428576951E-01  0.12759889916E+00  0.18377248578E-01 0.  0.
         14    1    1    2    0    0 -0.24157474953E-01 -0.40822980430E-02  0.96111398982E-03  0.24518819170E-01  0.00000000000E+00 0.  1.
     999901    1    3    3    0    0  0.11478472921E+00  0.24876884524E-01  0.84467462961E-01  0.89181228167E+00  0.88000000000E+00 0.  1.
        -11    1    4    4    0    0 -0.22641224660E-03  0.15511449074E-02 -0.12618889402E-02  0.20762460660E-02  0.51100000000E-03 0.  1.
         11    1    4    4    0    0 -0.90400842009E-01 -0.22345731388E-01 -0.84166688011E-01  0.12552265309E+00  0.51100000000E-03 0. -1.
</event>
<event>
 8    1  0.1148488E+005  0.1043930E+01  0.7957747E-01            NaN
         13   -1    0    0    0    0  0.00000000000E+00  0.00000000000E+00  0.74505805969E-08  0.10566000000E+00  0.10566000000E+00 0. -1.
     999900   -1    0    0    0    0 -0.00000000000E+00 -0.00000000000E+00 -0.74505805969E-08  0.93827000000E+00  0.93827000000E+00 0.  1.
     999902    2    1    2    0    0  0.20777215583E-01  0.19609638371E-02  0.97622822001E-02  0.10208900299E+01  0.10206300079E+01 0.  0.
     999903    2    3    3    0    0 -0.10055613662E+00  0.53795583668E-01 -0.55973281603E-01  0.12862898377E+00  0.20171905658E-01 0.  0.
         14    1    1    2    0    0 -0.20777215583E-01 -0.19609638371E-02 -0.97622822001E-02  0.23039970059E-01  0.00000000000E+00 0.  1.
     999901    1    3    3    0    0  0.12133335220E+00 -0.51834619831E-01  0.65735563803E-01  0.89226104617E+00  0.88000000000E+00 0. -1.
        -11    1    4    4    0    0 -0.34713077096E-01  0.81836429775E-02 -0.18882096886E-01  0.40357953834E-01  0.51100000000E-03 0.  1.
         11    1    4    4    0    0 -0.65843059523E-01  0.45611940691E-01 -0.37091184716E-01  0.88271029934E-01  0.51100000000E-03 0. -1.
</event>
<event>
 8    1  0.1148488E+005  0.1043930E+01  0.7957747E-01            NaN
         13   -1    0    0    0    0  0.00000000000E+00  0.00000000000E+00  0.74505805969E-08  0.10566000000E+00  0.10566000000E+00 0.  1.
     999900   -1    0    0    0    0 -0.00000000000E+00 -0.00000000000E+00 -0.74505805969E-08  0.93827000000E+00  0.93827000000E+00 0.  1.
     999902    2    1    2    0    0 -0.18615106230E-01  0.11883510431E-02 -0.15907545317E-01  0.10194150177E+01  0.10191202059E+01 0.  0.
     999903    2    3    3    0    0  0.33876626719E-01 -0.12260356478E+00 -0.10652188271E-01  0.12918614870E+00  0.19908087966E-01 0.  0.
         14    1    1    2    0    0  0.18615106230E-01 -0.11883510431E-02  0.15907545317E-01  0.24514982279E-01  0.00000000000E+00 0.  1.
     999901    1    3    3    0    0 -0.52491732949E-01  0.12379191583E+00 -0.52553570456E-02  0.89022886902E+00  0.88000000000E+00 0. -1.
        -11    1    4    4    0    0  0.22614192865E-01 -0.49203304537E-01 -0.90715103689E-02  0.54908290063E-01  0.51100000000E-03 0.  1.
         11    1    4    4    0    0  0.11262433854E-01 -0.73400260248E-01 -0.15806779021E-02  0.74277858641E-01  0.51100000000E-03 0. -1.
</event>
<event>
 8    1  0.1148488E+005  0.1043930E+01  0.7957747E-01            NaN
         13   -1    0    0    0    0  0.00000000000E+00  0.00000000000E+00  0.74505805969E-08  0.10566000000E+00  0.10566000000E+00 0. -1.
     999900   -1    0    0    0    0 -0.00000000000E+00 -0.00000000000E+00 -0.74505805969E-08  0.93827000000E+00  0.93827000000E+00 0.  1.
     999902    2    1    2    0    0 -0.12181785676E-01  0.16808462462E-01 -0.10517462116E-01  0.10206590455E+01  0.10203937230E+01 0.  0.
     999903    2    3    3    0    0  0.19865208633E-01 -0.46722000040E-01  0.11594719585E+00  0.12877539884E+00  0.23701884306E-01 0.  0.
         14    1    1    2    0    0  0.12181785676E-01 -0.16808462462E-01  0.10517462116E-01  0.23270954470E-01  0.00000000000E+00 0. -1.
     999901    1    3    3    0    0 -0.32046994308E-01  0.63530462502E-01 -0.12646465797E+00  0.89188364669E+00  0.88000000000E+00 0.  1.
        -11    1    4    4    0    0  0.72332351367E-02 -0.41638270567E-01  0.91425433977E-01  0.10072207487E+00  0.51100000000E-03 0.  1.
         11    1    4    4    0    0  0.12631973496E-01 -0.50837294724E-02  0.24521761876E-01  0.28053323979E-01  0.51100000000E-03 0. -1.
</event>
<event>
 8    1  0.1148488E+005  0.1043930E+01  0.7957747E-01            NaN
         13   -1    0    0    0    0  0.00000000000E+00  0.00000000000E+00  0.74505805969E-08  0.10566000000E+00  0.10566000000E+00 0.  1.
     999900   -1    0    0    0    0 -0.00000000000E+00 -0.00000000000E+00 -0.74505805969E-08  0.93827000000E+00  0.93827000000E+00 0.  1.
     999902    2    1    2    0    0  0.21672148834E-01  0.45413039324E-02  0.55067675906E-02  0.10211126828E+01  0.10208577183E+01 0.  0.
     999903    2    3    3    0    0 -0.30079303210E-01  0.52519850820E-01  0.11507568889E+00  0.13151417655E+00  0.19760193521E-01 0.  0.
         14    1    1    2    0    0 -0.21672148834E-01 -0.45413039324E-02 -0.55067675906E-02  0.22817317235E-01  0.00000000000E+00 0. -1.
     999901    1    3    3    0    0  0.51751452044E-01 -0.47978546888E-01 -0.10956892130E+00  0.88959850622E+00  0.88000000000E+00 0.  1.
        -11    1    4    4    0    0 -0.12905121403E-01  0.32936787506E-01  0.48578642920E-01  0.60095921646E-01  0.51100000000E-03 0. -1.
         11    1    4    4    0    0 -0.17174181807E-01  0.19583063315E-01  0.66497045969E-01  0.71418254901E-01  0.51100000000E-03 0.  1.
</event>
<event>
 8    1  0.1148488E+005  0.1043930E+01  0.7957747E-01            NaN
         13   -1    0    0    0    0  0.00000000000E+00  0.00000000000E+00  0.74505805969E-08  0.10566000000E+00  0.10566000000E+00 0.  1.
     999900   -1    0    0    0    0 -0.00000000000E+00 -0.00000000000E+00 -0.74505805969E-08  0.93827000000E+00  0.93827000000E+00 0.  1.
     999902    2    1    2    0    0  0.22655863900E-01 -0.49602874190E-02  0.40916746318E-02  0.10203793223E+01  0.10201075075E+01 0.  0.
     999903    2    3    3    0    0 -0.75634446118E-01 -0.22437033699E-01 -0.99401347045E-01  0.12870829143E+00  0.21475720415E-01 0.  0.
         14    1    1    2    0    0 -0.22655863900E-01  0.49602874190E-02 -0.40916746318E-02  0.23550677731E-01  0.00000000000E+00 0. -1.
     999901    1    3    3    0    0  0.98290310017E-01  0.17476746280E-01  0.10349302168E+00  0.89167103084E+00  0.88000000000E+00 0. -1.
        -11    1    4    4    0    0 -0.26451950823E-01 -0.17018324455E-01 -0.47735632714E-01  0.57168879832E-01  0.51100000000E-03 0.  1.
         11    1    4    4    0    0 -0.49182495295E-01 -0.54187092441E-02 -0.51665714330E-01  0.71539411596E-01  0.51100000000E-03 0. -1.
</event>
<event>
 8    1  0.1148488E+005  0.1043930E+01  0.7957747E-01            NaN
         13   -1    0    0    0    0  0.00000000000E+00  0.00000000000E+00  0.74505805969E-08  0.10566000000E+00  0.10566000000E+00 0.  1.
     999900   -1    0    0    0    0 -0.00000000000E+00 -0.00000000000E+00 -0.74505805969E-08  0.93827000000E+00  0.93827000000E+00 0. -1.
     999902    2    1    2    0    0 -0.12432247848E-02  0.27236537777E-02  0.23459293506E-01  0.10202804260E+01  0.10200062967E+01 0.  0.
     999903    2    3    3    0    0  0.33111909632E-01  0.10587001407E+00  0.70116406191E-01  0.13236357571E+00  0.17290093018E-01 0.  0.
         14    1    1    2    0    0  0.12432247848E-02 -0.27236537777E-02 -0.23459293506E-01  0.23649573983E-01  0.00000000000E+00 0. -1.
     999901    1    3    3    0    0 -0.34355134417E-01 -0.10314636030E+00 -0.46657112685E-01  0.88791685031E+00  0.88000000000E+00 0. -1.
        -11    1    4    4    0    0  0.25493222710E-01  0.80046243382E-01  0.61412782867E-01  0.10406294491E+00  0.51100000000E-03 0. -1.
         11    1    4    4    0    0  0.76186869225E-02  0.25823770692E-01  0.87036233246E-02  0.28300630791E-01  0.51100000000E-03 0.  1.
</event>
<event>
 8    1  0.1148488E+005  0.1043930E+01  0.7957747E-01            NaN
         13   -1    0    0    0    0  0.00000000000E+00  0.00000000000E+00  0.74505805969E-08  0.10566000000E+00  0.10566000000E+00 0. -1.
     999900   -1    0    0    0    0 -0.00000000000E+00 -0.00000000000E+00 -0.74505805969E-08  0.93827000000E+00  0.93827000000E+00 0.  1.
     999902    2    1    2    0    0  0.17215696341E-01  0.16245564914E-01  0.51707046172E-02  0.10197011997E+01  0.10194133126E+01 0.  0.
     999903    2    3    3    0    0 -0.32484071519E-01  0.10459189609E+00  0.70021988555E-01  0.13151156327E+00  0.19938223670E-01 0.  0.
         14    1    1    2    0    0 -0.17215696341E-01 -0.16245564914E-01 -0.51707046172E-02  0.24228800344E-01  0.00000000000E+00 0.  1.
     999901    1    3    3    0    0  0.49699767860E-01 -0.88346331172E-01 -0.64851283938E-01  0.88818963639E+00  0.88000000000E+00 0.  1.
        -11    1    4    4    0    0 -0.25888485334E-01  0.51832973148E-01  0.40517329236E-01  0.70702092385E-01  0.51100000000E-03 0.  1.
         11    1    4    4    0    0 -0.65955861852E-02  0.52758922938E-01  0.29504659319E-01  0.60809470884E-01  0.51100000000E-03 0. -1.
</event>
<event>
 8    1  0.1148488E+005  0.1043930E+01  0.7957747E-01            NaN
         13   -1    0    0    0    0  0.00000000000E+00  0.00000000000E+00  0.74505805969E-08  0.10566000000E+00  0.10566000000E+00 0. -1.
     999900   -1    0    0    0    0 -0.00000000000E+00 -0.00000000000E+00 -0.74505805969E-08  0.93827000000E+00  0.93827000000E+00 0.  1.
     999902    2    1    2    0    0  0.18752672655E-01  0.10556247165E-01  0.97336437138E-02  0.10203113441E+01  0.10200379395E+01 0.  0.
     999903    2    3    3    0    0  0.13000401407E+00  0.19442963148E-01  0.76434891627E-03  0.13321705209E+00  0.21613103632E-01 0.  0.
         14    1    1    2    0    0 -0.18752672655E-01 -0.10556247165E-01 -0.97336437138E-02  0.23618655886E-01  0.00000000000E+00 0. -1.
     999901    1    3    3    0    0 -0.11125134141E+00 -0.88867159835E-02  0.89692947975E-02  0.88709429202E+00  0.88000000000E+00 0. -1.
        -11    1    4    4    0    0  0.98166381880E-01  0.22051089095E-01 -0.50647688046E-02  0.10074126297E+00  0.51100000000E-03 0. -1.
         11    1    4    4    0    0  0.31837632191E-01 -0.26081259462E-02  0.58291177209E-02  0.32475789118E-01  0.51100000000E-03 0.  1.
</event>
<event>
 8    1  0.1148488E+005  0.1043930E+01  0.7957747E-01            NaN
         13   -1    0    0    0    0  0.00000000000E+00  0.00000000000E+00  0.74505805969E-08  0.10566000000E+00  0.10566000000E+00 0. -1.
     999900   -1    0    0    0    0 -0.00000000000E+00 -0.00000000000E+00 -0.74505805969E-08  0.93827000000E+00  0.93827000000E+00 0. -1.
     999902    2    1    2    0    0 -0.90650059504E-02  0.13547644113E-01  0.21571582859E-01  0.10168921343E+01  0.10165326196E+01 0.  0.
     999903    2    3    3    0    0  0.76322471947E-01  0.94690188134E-01 -0.31705626666E-01  0.12744646712E+00  0.21118801250E-01 0.  0.
         14    1    1    2    0    0  0.90650059504E-02 -0.13547644113E-01 -0.21571582859E-01  0.27037865687E-01  0.00000000000E+00 0.  1.
     999901    1    3    3    0    0 -0.85387477898E-01 -0.81142544021E-01  0.53277209525E-01  0.88944566719E+00  0.88000000000E+00 0.  1.
        -11    1    4    4    0    0  0.37164644002E-01  0.61953934182E-01 -0.15478839628E-01  0.73887457134E-01  0.51100000000E-03 0.  1.
         11    1    4    4    0    0  0.39157827946E-01  0.32736253952E-01 -0.16226787038E-01  0.53559009987E-01  0.51100000000E-03 0. -1.
</event>
<event>
 8    1  0.1148488E+005  0.1043930E+01  0.7957747E-01            NaN
         13   -1    0    0    0    0  0.00000000000E+00  0.00000000000E+00  0.74505805969E-08  0.10566000000E+00  0.10566000000E+00 0. -1.
     999900   -1    0    0    0    0 -0.00000000000E+00 -0.00000000000E+00 -0.74505805969E-08  0.93827000000E+00  0.93827000000E+00 0. -1.
     999902    2    1    2    0    0 -0.18802183502E-01  0.16916049388E-01 -0.13247851174E-01  0.10153786359E+01  0.10149771396E+01 0.  0.
     999903    2    3    3    0    0 -0.10420753187E+00 -0.68395132480E-01 -0.14110898739E-01  0.12713721819E+00  0.20679722942E-01 0.  0.
         14    1    1    2    0    0  0.18802183502E-01 -0.16916049388E-01  0.13247851174E-01  0.28551364102E-01  0.00000000000E+00 0. -1.
     999901    1    3    3    0    0  0.85405348366E-01  0.85311181868E-01  0.86304756504E-03  0.88824141771E+00  0.88000000000E+00 0. -1.
        -11    1    4    4    0    0 -0.44356156135E-01 -0.27242234211E-01 -0.16052155366E-01  0.54475138594E-01  0.51100000000E-03 0.  1.
         11    1    4    4    0    0 -0.59851375732E-01 -0.41152898269E-01  0.19412566262E-02  0.72662079597E-01  0.51100000000E-03 0. -1.
</event>
<event>
 8    1  0.1148488E+005  0.1043930E+01  0.7957747E-01            NaN
         13   -1    0    0    0    0  0.00000000000E+00  0.00000000000E+00  0.74505805969E-08  0.10566000000E+00  0.10566000000E+00 0.  1.
     999900   -1    0    0    0    0 -0.00000000000E+00 -0.00000000000E+00 -0.74505805969E-08  0.93827000000E+00  0.93827000000E+00 0. -1.
     999902    2    1    2    0    0  0.46362268694E-02  0.59023310639E-02  0.22427609440E-01  0.10202798462E+01  0.10200057033E+01 0.  0.
     999903    2    3    3    0    0  0.77843422578E-02  0.96344249215E-01 -0.83477032047E-01  0.12932224656E+00  0.20322850072E-01 0.  0.
         14    1    1    2    0    0 -0.46362268694E-02 -0.59023310639E-02 -0.22427609440E-01  0.23650153842E-01  0.00000000000E+00 0. -1.
     999901    1    3    3    0    0 -0.31481153884E-02 -0.90441918151E-01  0.10590464149E+00  0.89095759960E+00  0.88000000000E+00 0.  1.
        -11    1    4    4    0    0 -0.39817781808E-02  0.23181436897E-01 -0.12196437198E-01  0.26499958027E-01  0.51100000000E-03 0. -1.
         11    1    4    4    0    0  0.11766120439E-01  0.73162812319E-01 -0.71280594849E-01  0.10282228854E+00  0.51100000000E-03 0.  1.
</event>
<event>
 8    1  0.1148488E+005  0.1043930E+01  0.7957747E-01            NaN
         13   -1    0    0    0    0  0.00000000000E+00  0.00000000000E+00  0.74505805969E-08  0.10566000000E+00  0.10566000000E+00 0. -1.
     999900   -1    0    0    0    0 -0.00000000000E+00 -0.00000000000E+00 -0.74505805969E-08  0.93827000000E+00  0.93827000000E+00 0. -1.
     999902    2    1    2    0    0 -0.15045436960E-01  0.65032158652E-02 -0.17315569962E-01  0.10200870565E+01  0.10198083727E+01 0.  0.
     999903    2    3    3    0    0  0.62242500512E-01  0.24458878852E-01 -0.11120806049E+00  0.13154238637E+00  0.21536041166E-01 0.  0.
         14    1    1    2    0    0  0.15045436960E-01 -0.65032158652E-02  0.17315569962E-01  0.23842943464E-01  0.00000000000E+00 0. -1.
     999901    1    3    3    0    0 -0.77287937472E-01 -0.17955662987E-01  0.93892490523E-01  0.88854467017E+00  0.88000000000E+00 0.  1.
        -11    1    4    4    0    0  0.30618742702E-01  0.23214961815E-01 -0.65604993643E-01  0.76031034247E-01  0.51100000000E-03 0. -1.
         11    1    4    4    0    0  0.31623757809E-01  0.12439170366E-02 -0.45603066842E-01  0.55511352118E-01  0.51100000000E-03 0.  1.
</event>
<event>
 8    1  0.1148488E+005  0.1043930E+01  0.7957747E-01            NaN
         13   -1    0    0    0    0  0.00000000000E+00  0.00000000000E+00  0.74505805969E-08  0.10566000000E+00  0.10566000000E+00 0. -1.
     999900   -1    0    0    0    0 -0.00000000000E+00 -0.00000000000E+00 -0.74505805969E-08  0.93827000000E+00  0.93827000000E+00 0. -1.
     999902    2    1    2    0    0 -0.67353753000E-02  0.17414012853E-01 -0.15813216324E-01  0.10194622470E+01  0.10191685838E+01 0.  0.
     999903    2    3    3    0    0  0.55191924102E-01 -0.85064837916E-01 -0.77534523600E-01  0.12921148179E+00  0.20045686346E-01 0.  0.
         14    1    1    2    0    0  0.67353753000E-02 -0.17414012853E-01  0.15813216324E-01  0.24467752953E-01  0.00000000000E+00 0. -1.
     999901    1    3    3    0    0 -0.61927299402E-01  0.10247885077E+00  0.61721307276E-01  0.89025076526E+00  0.88000000000E+00 0. -1.
        -11    1    4    4    0    0  0.40291871542E-01 -0.61769109443E-01 -0.66921469682E-01  0.99587157902E-01  0.51100000000E-03 0.  1.
         11    1    4    4    0    0  0.14900052560E-01 -0.23295728474E-01 -0.10613053918E-01  0.29624323889E-01  0.51100000000E-03 0. -1.
</event>
<event>
 8    1  0.1148488E+005  0.1043930E+01  0.7957747E-01            NaN
         13   -1    0    0    0    0  0.00000000000E+00  0.00000000000E+00  0.74505805969E-08  0.10566000000E+00  0.10566000000E+00 0.  1.
     999900   -1    0    0    0    0 -0.00000000000E+00 -0.00000000000E+00 -0.74505805969E-08  0.93827000000E+00  0.93827000000E+00 0.  1.
     999902    2    1    2    0    0 -0.89433134304E-02  0.44703980057E-02 -0.22071333666E-01  0.10196996248E+01  0.10194116998E+01 0.  0.
     999903    2    3    3    0    0  0.25899087692E-01  0.97728263187E-01 -0.80273954853E-01  0.13217578429E+00  0.28371710472E-01 0.  0.
         14    1    1    2    0    0  0.89433134304E-02 -0.44703980057E-02  0.22071333666E-01  0.24230375219E-01  0.00000000000E+00 0.  1.
     999901    1    3    3    0    0 -0.34842401122E-01 -0.93257865181E-01  0.58202621187E-01  0.88752384050E+00  0.88000000000E+00 0.  1.
        -11    1    4    4    0    0  0.25735078085E-01  0.56186619583E-01 -0.59242645463E-01  0.85610645522E-01  0.51100000000E-03 0. -1.
         11    1    4    4    0    0  0.16400960663E-03  0.41541643604E-01 -0.21031309390E-01  0.46565138765E-01  0.51100000000E-03 0.  1.
</event>
<event>
 8    1  0.1148488E+005  0.1043930E+01  0.7957747E-01            NaN
         13   -1    0    0    0    0  0.00000000000E+00  0.00000000000E+00  0.74505805969E-08  0.10566000000E+00  0.10566000000E+00 0.  1.
     999900   -1    0    0    0    0 -0.00000000000E+00 -0.00000000000E+00 -0.74505805969E-08  0.93827000000E+00  0.93827000000E+00 0.  1.
     999902    2    1    2    0    0 -0.11998030005E-01  0.19939684096E-01 -0.12760084217E-01  0.10173901531E+01  0.10170439322E+01 0.  0.
     999903    2    3    3    0    0  0.69024731134E-01  0.10819476737E+00  0.67186740355E-03  0.12917054910E+00  0.14630726377E-01 0.  0.
         14    1    1    2    0    0  0.11998030005E-01 -0.19939684096E-01  0.12760084217E-01  0.26539846930E-01  0.00000000000E+00 0.  1.
     999901    1    3    3    0    0 -0.81022761140E-01 -0.88255083279E-01 -0.13431951620E-01  0.88821960397E+00  0.88000000000E+00 0. -1.
        -11    1    4    4    0    0  0.17568291462E-01  0.36506522003E-01 -0.45450608456E-02  0.40771187287E-01  0.51100000000E-03 0. -1.
         11    1    4    4    0    0  0.51456439672E-01  0.71688245371E-01  0.52169282491E-02  0.88399361816E-01  0.51100000000E-03 0.  1.
</event>
<event>
 8    1  0.1148488E+005  0.1043930E+01  0.7957747E-01            NaN
         13   -1    0    0    0    0  0.00000000000E+00  0.00000000000E+00  0.74505805969E-08  0.10566000000E+00  0.10566000000E+00 0. -1.
     999900   -1    0    0    0    0 -0.00000000000E+00 -0.00000000000E+00 -0.74505805969E-08  0.93827000000E+00  0.93827000000E+00 0.  1.
     999902    2    1    2    0    0  0.30158612660E-02 -0.15451024466E-01 -0.19061662320E-01  0.10192080149E+01  0.10189081416E+01 0.  0.
     999903    2    3    3    0    0 -0.12055586557E-01  0.93874597812E-01  0.82340006154E-01  0.12653700127E+00  0.16551700693E-01 0.  0.
         14    1    1    2    0    0 -0.30158612660E-02  0.15451024466E-01  0.19061662320E-01  0.24721985086E-01  0.00000000000E+00 0. -1.
     999901    1    3    3    0    0  0.15071447823E-01 -0.10932562228E+00 -0.10140166847E+00  0.89267101364E+00  0.88000000000E+00 0.  1.
        -11    1    4    4    0    0  0.37707529924E-02  0.31363202009E-01  0.26606543742E-01  0.41304216604E-01  0.51100000000E-03 0. -1.
         11    1    4    4    0    0 -0.15826339549E-01  0.62511395803E-01  0.55733462412E-01  0.85232784668E-01  0.51100000000E-03 0.  1.
</event>
<event>
 8    1  0.1190582E+005  0.1043930E+01  0.7957747E-01            NaN
         13   -1    0    0    0    0  0.00000000000E+00  0.00000000000E+00  0.74505805969E-08  0.10566000000E+00  0.10566000000E+00 0. -1.
     999900   -1    0    0    0    0 -0.00000000000E+00 -0.00000000000E+00 -0.74505805969E-08  0.93827000000E+00  0.93827000000E+00 0. -1.
     999902    2    1    2    0    0 -0.12279657712E-01 -0.88831163160E-02 -0.16471135989E-01  0.10215470138E+01  0.10213017690E+01 0.  0.
     999903    2    3    3    0    0 -0.10845456799E+00  0.56691251555E-01 -0.48580663988E-01  0.13330119601E+00  0.20804725964E-01 0.  0.
         14    1    1    2    0    0  0.12279657712E-01  0.88831163160E-02  0.16471135989E-01  0.22382986168E-01  0.00000000000E+00 0. -1.
     999901    1    3    3    0    0  0.96174910282E-01 -0.65574367871E-01  0.32109527999E-01  0.88824581782E+00  0.88000000000E+00 0.  1.
        -11    1    4    4    0    0 -0.29982162615E-01  0.26007842290E-01 -0.18933699754E-01  0.43978222373E-01  0.51100000000E-03 0.  1.
         11    1    4    4    0    0 -0.78472405379E-01  0.30683409265E-01 -0.29646964234E-01  0.89322973637E-01  0.51100000000E-03 0. -1.
</event>
<event>
 8    1  0.1148488E+005  0.1043930E+01  0.7957747E-01            NaN
         13   -1    0    0    0    0  0.00000000000E+00  0.00000000000E+00  0.74505805969E-08  0.10566000000E+00  0.10566000000E+00 0.  1.
     999900   -1    0    0    0    0 -0.00000000000E+00 -0.00000000000E+00 -0.74505805969E-08  0.93827000000E+00  0.93827000000E+00 0. -1.
     999902    2    1    2    0    0 -0.88258870317E-02  0.10293435632E-01 -0.15138204873E-02  0.10302865858E+01  0.10301962464E+01 0.  0.
     999903    2    3    3    0    0  0.11476921892E+00  0.48909009754E-01 -0.57390716168E-01  0.13905758028E+00  0.21891813196E-01 0.  0.
         14    1    1    2    0    0  0.88258870317E-02 -0.10293435632E-01  0.15138204873E-02  0.13643414216E-01  0.00000000000E+00 0. -1.
     999901    1    3    3    0    0 -0.12359510595E+00 -0.38615574122E-01  0.55876895681E-01  0.89122900550E+00  0.88000000000E+00 0. -1.
        -11    1    4    4    0    0  0.72050521018E-01  0.21891030272E-01 -0.26570729197E-01  0.79854615122E-01  0.51100000000E-03 0. -1.
         11    1    4    4    0    0  0.42718697900E-01  0.27017979482E-01 -0.30819986971E-01  0.59202965158E-01  0.51100000000E-03 0.  1.
</event>
<event>
 8    1  0.1148488E+005  0.1043930E+01  0.7957747E-01            NaN
         13   -1    0    0    0    0  0.00000000000E+00  0.00000000000E+00  0.74505805969E-08  0.10566000000E+00  0.10566000000E+00 0. -1.
     999900   -1    0    0    0    0 -0.00000000000E+00 -0.00000000000E+00 -0.74505805969E-08  0.93827000000E+00  0.93827000000E+00 0. -1.
     999902    2    1    2    0    0 -0.30110281055E-02 -0.23399812274E-01  0.65045529205E-02  0.10194570207E+01  0.10191632305E+01 0.  0.
     999903    2    3    3    0    0 -0.29666732091E-01  0.92784581093E-02 -0.12349096163E+00  0.12890818452E+00  0.20027422548E-01 0.  0.
         14    1    1    2    0    0  0.30110281055E-02  0.23399812274E-01 -0.65045529205E-02  0.24472979250E-01  0.00000000000E+00 0.  1.
     999901    1    3    3    0    0  0.26655703985E-01 -0.32678270383E-01  0.12999551455E+00  0.89054883623E+00  0.88000000000E+00 0.  1.
        -11    1    4    4    0    0 -0.64686483756E-02  0.11874585138E-01 -0.40904210681E-01  0.43084391100E-01  0.51100000000E-03 0.  1.
         11    1    4    4    0    0 -0.23198083715E-01 -0.25961270286E-02 -0.82586750947E-01  0.85823793418E-01  0.51100000000E-03 0. -1.
</event>
<event>
 8    1  0.1148488E+005  0.1043930E+01  0.7957747E-01            NaN
         13   -1    0    0    0    0  0.00000000000E+00  0.00000000000E+00  0.74505805969E-08  0.10566000000E+00  0.10566000000E+00 0.  1.
     999900   -1    0    0    0    0 -0.00000000000E+00 -0.00000000000E+00 -0.74505805969E-08  0.93827000000E+00  0.93827000000E+00 0.  1.
     999902    2    1    2    0    0  0.13691915468E-01 -0.36537888964E-02 -0.16821141859E-01  0.10219352384E+01  0.10216985182E+01 0.  0.
     999903    2    3    3    0    0 -0.49524513146E-01  0.11264737933E+00 -0.41794331559E-01  0.13168474629E+00  0.21260215938E-01 0.  0.
         14    1    1    2    0    0 -0.13691915468E-01  0.36537888964E-02  0.16821141859E-01  0.21994761556E-01  0.00000000000E+00 0.  1.
     999901    1    3    3    0    0  0.63216428613E-01 -0.11630116823E+00  0.24973189699E-01  0.89025049215E+00  0.88000000000E+00 0.  1.
        -11    1    4    4    0    0  0.30832255022E-03  0.62493758407E-02 -0.64312876221E-02  0.89873434713E-02  0.51100000000E-03 0. -1.
         11    1    4    4    0    0 -0.49832835696E-01  0.10639800349E+00 -0.35363043936E-01  0.12269740282E+00  0.51100000000E-03 0.  1.
</event>
<event>
 8    1  0.1148488E+005  0.1043930E+01  0.7957747E-01            NaN
         13   -1    0    0    0    0  0.00000000000E+00  0.00000000000E+00  0.74505805969E-08  0.10566000000E+00  0.10566000000E+00 0. -1.
     999900   -1    0    0    0    0 -0.00000000000E+00 -0.00000000000E+00 -0.74505805969E-08  0.93827000000E+00  0.93827000000E+00 0.  1.
     999902    2    1    2    0    0 -0.61673325660E-03  0.23875604764E-01 -0.57024677304E-02  0.10193751023E+01  0.10190793179E+01 0.  0.
     999903    2    3    3    0    0  0.78727696803E-01 -0.89547400303E-01  0.40112409199E-01  0.12737772584E+00  0.19982305281E-01 0.  0.
         14    1    1    2    0    0  0.61673325660E-03 -0.23875604764E-01  0.57024677304E-02  0.24554897698E-01  0.00000000000E+00 0. -1.
     999901    1    3    3    0    0 -0.79344430060E-01  0.11342300507E+00 -0.45814876929E-01  0.89199737646E+00  0.88000000000E+00 0.  1.
        -11    1    4    4    0    0  0.23258961691E-01 -0.22599521907E-01  0.20113074820E-01  0.38164310410E-01  0.51100000000E-03 0. -1.
         11    1    4    4    0    0  0.55468735112E-01 -0.66947878397E-01  0.19999334379E-01  0.89213415434E-01  0.51100000000E-03 0.  1.
</event>
<event>
 8    1  0.1148488E+005  0.1043930E+01  0.7957747E-01            NaN
         13   -1    0    0    0    0  0.00000000000E+00  0.00000000000E+00  0.74505805969E-08  0.10566000000E+00  0.10566000000E+00 0.  1.
     999900   -1    0    0    0    0 -0.00000000000E+00 -0.00000000000E+00 -0.74505805969E-08  0.93827000000E+00  0.93827000000E+00 0.  1.
     999902    2    1    2    0    0  0.22614013033E-01 -0.35442780255E-03 -0.51658882376E-02  0.10207307413E+01  0.10204670698E+01 0.  0.
     999903    2    3    3    0    0 -0.13216351007E-01 -0.12766295034E+00  0.12643212709E-01  0.13066982258E+00  0.21029761806E-01 0.  0.
         14    1    1    2    0    0 -0.22614013033E-01  0.35442780255E-03  0.51658882376E-02  0.23199258734E-01  0.00000000000E+00 0. -1.
     999901    1    3    3    0    0  0.35830364040E-01  0.12730852254E+00 -0.17809100947E-01  0.89006091869E+00  0.88000000000E+00 0.  1.
        -11    1    4    4    0    0 -0.16137808939E-01 -0.86972319413E-01  0.15355429377E-01  0.89781198220E-01  0.51100000000E-03 0. -1.
         11    1    4    4    0    0  0.29214579320E-02 -0.40690630928E-01 -0.27122166681E-02  0.40888624359E-01  0.51100000000E-03 0.  1.
</event>
<event>
 8    1  0.1148488E+005  0.1043930E+01  0.7957747E-01            NaN
         13   -1    0    0    0    0  0.00000000000E+00  0.00000000000E+00  0.74505805969E-08  0.10566000000E+00  0.10566000000E+00 0.  1.
     999900   -1    0    0    0    0 -0.00000000000E+00 -0.00000000000E+00 -0.74505805969E-08  0.93827000000E+00  0.93827000000E+00 0.  1.
     999902    2    1    2    0    0  0.16884491116E-01 -0.60587924334E-02 -0.18923638353E-01  0.10178551252E+01  0.10175210842E+01 0.  0.
     999903    2    3    3    0    0 -0.51259074418E-01  0.38918551354E-01  0.10554916068E+00  0.12535303297E+00  0.20751173604E-01 0.  0.
         14    1    1    2    0    0 -0.16884491116E-01  0.60587924334E-02  0.18923638353E-01  0.26074874775E-01  0.00000000000E+00 0.  1.
     999901    1    3    3    0    0  0.68143565535E-01 -0.44977343787E-01 -0.12447279903E+00  0.89250209225E+00  0.88000000000E+00 0.  1.
        -11    1    4    4    0    0 -0.30387442424E-01  0.23346279552E-01  0.43010153011E-01  0.57607115958E-01  0.51100000000E-03 0.  1.
         11    1    4    4    0    0 -0.20871631994E-01  0.15572271802E-01  0.62539007666E-01  0.67745917014E-01  0.51100000000E-03 0. -1.
</event>
<event>
 8    1  0.1148488E+005  0.1043930E+01  0.7957747E-01            NaN
         13   -1    0    0    0    0  0.00000000000E+00  0.00000000000E+00  0.74505805969E-08  0.10566000000E+00  0.10566000000E+00 0. -1.
     999900   -1    0    0    0    0 -0.00000000000E+00 -0.00000000000E+00 -0.74505805969E-08  0.93827000000E+00  0.93827000000E+00 0. -1.
     999902    2    1    2    0    0  0.39063358624E-03 -0.14104628034E-01 -0.18851771526E-01  0.10203825497E+01  0.10201108103E+01 0.  0.
     999903    2    3    3    0    0 -0.94034322725E-02  0.12118726493E+00 -0.40720141992E-01  0.12972097218E+00  0.19865118658E-01 0.  0.
         14    1    1    2    0    0 -0.39063358624E-03  0.14104628034E-01  0.18851771526E-01  0.23547450313E-01  0.00000000000E+00 0. -1.
     999901    1    3    3    0    0  0.97940658587E-02 -0.13529189296E+00  0.21868370466E-01  0.89066157751E+00  0.88000000000E+00 0.  1.
        -11    1    4    4    0    0  0.61049816627E-03  0.16585433015E-01 -0.12879524939E-01  0.21014104310E-01  0.51100000000E-03 0. -1.
         11    1    4    4    0    0 -0.10013930439E-01  0.10460183191E+00 -0.27840617053E-01  0.10870686787E+00  0.51100000000E-03 0.  1.
</event>
<event>
 8    1  0.1148488E+005  0.1043930E+01  0.7957747E-01            NaN
         13   -1    0    0    0    0  0.00000000000E+00  0.00000000000E+00  0.74505805969E-08  0.10566000000E+00  0.10566000000E+00 0. -1.
     999900   -1    0    0    0    0 -0.00000000000E+00 -0.00000000000E+00 -0.74505805969E-08  0.93827000000E+00  0.93827000000E+00 0. -1.
     999902    2    1    2    0    0 -0.37647928996E-02 -0.23825065642E-01 -0.53648865536E-03  0.10198033500E+01  0.10195179143E+01 0.  0.
     999903    2    3    3    0    0  0.44895898296E-01  0.74013879151E-01 -0.92774346113E-01  0.12826078553E+00  0.18709725176E-01 0.  0.
         14    1    1    2    0    0  0.37647928996E-02  0.23825065642E-01  0.53648865536E-03  0.24126649964E-01  0.00000000000E+00 0.  1.
     999901    1    3    3    0    0 -0.48660691195E-01 -0.97838944793E-01  0.92237857458E-01  0.89154256451E+00  0.88000000000E+00 0.  1.
        -11    1    4    4    0    0  0.22397123323E-01  0.21804525313E-01 -0.26873262367E-01  0.41225014355E-01  0.51100000000E-03 0.  1.
         11    1    4    4    0    0  0.22498774973E-01  0.52209353837E-01 -0.65901083746E-01  0.87035771171E-01  0.51100000000E-03 0. -1.
</event>
<event>
 8    1  0.1148488E+005  0.1043930E+01  0.7957747E-01            NaN
         13   -1    0    0    0    0  0.00000000000E+00  0.00000000000E+00  0.74505805969E-08  0.10566000000E+00  0.10566000000E+00 0. -1.
     999900   -1    0    0    0    0 -0.00000000000E+00 -0.00000000000E+00 -0.74505805969E-08  0.93827000000E+00  0.93827000000E+00 0. -1.
     999902    2    1    2    0    0 -0.17131054239E-01 -0.68989936926E-02 -0.15078661314E-01  0.10200881217E+01  0.10198094630E+01 0.  0.
     999903    2    3    3    0    0 -0.26161564417E-01  0.12443595136E+00  0.16247876469E-01  0.12974449711E+00  0.20022677054E-01 0.  0.
         14    1    1    2    0    0  0.17131054239E-01  0.68989936926E-02  0.15078661314E-01  0.23841878289E-01  0.00000000000E+00 0.  1.
     999901    1    3    3    0    0  0.90305101775E-02 -0.13133494505E+00 -0.31326537783E-01  0.89034362461E+00  0.88000000000E+00 0. -1.
        -11    1    4    4    0    0 -0.20584848634E-01  0.62879273589E-01  0.15373182768E-01  0.67927423842E-01  0.51100000000E-03 0.  1.
         11    1    4    4    0    0 -0.55767157826E-02  0.61556677769E-01  0.87469370162E-03  0.61817073264E-01  0.51100000000E-03 0. -1.
</event>
<event>
 8    1  0.1148488E+005  0.1043930E+01  0.7957747E-01            NaN
         13   -1    0    0    0    0  0.00000000000E+00  0.00000000000E+00  0.74505805969E-08  0.10566000000E+00  0.10566000000E+00 0. -1.
     999900   -1    0    0    0    0 -0.00000000000E+00 -0.00000000000E+00 -0.74505805969E-08  0.93827000000E+00  0.93827000000E+00 0.  1.
     999902    2    1    2    0    0 -0.12724566957E-01  0.18261272846E-01 -0.75678653858E-02  0.10204212511E+01  0.10201504146E+01 0.  0.
     999903    2    3    3    0    0  0.33042230246E-01 -0.10222455877E+00 -0.68587934163E-01  0.12894220804E+00  0.19497151248E-01 0.  0.
         14    1    1    2    0    0  0.12724566957E-01 -0.18261272846E-01  0.75678653858E-02  0.23508748939E-01  0.00000000000E+00 0. -1.
     999901    1    3    3    0    0 -0.45766797202E-01  0.12048583162E+00  0.61020068777E-01  0.89147904302E+00  0.88000000000E+00 0.  1.
        -11    1    4    4    0    0  0.17797813825E-01 -0.50237409887E-01 -0.22660292680E-01  0.57916401083E-01  0.51100000000E-03 0.  1.
         11    1    4    4    0    0  0.15244416420E-01 -0.51987148884E-01 -0.45927641483E-01  0.71025806959E-01  0.51100000000E-03 0. -1.
</event>
<event>
 8    1  0.1148488E+005  0.1043930E+01  0.7957747E-01            NaN
         13   -1    0    0    0    0  0.00000000000E+00  0.00000000000E+00  0.74505805969E-08  0.10566000000E+00  0.10566000000E+00 0.  1.
     999900   -1    0    0    0    0 -0.00000000000E+00 -0.00000000000E+00 -0.74505805969E-08  0.93827000000E+00  0.93827000000E+00 0. -1.
     999902    2    1    2    0    0  0.17439874436E-01 -0.72842001675E-02  0.74671044613E-02  0.10236084242E+01  0.10234066834E+01 0.  0.
     999903    2    3    3    0    0 -0.59303224680E-01 -0.11028263960E+00 -0.39907567714E-01  0.13302291944E+00  0.20575472786E-01 0.  0.
         14    1    1    2    0    0 -0.17439874436E-01  0.72842001675E-02 -0.74671044613E-02  0.20321575763E-01  0.00000000000E+00 0. -1.
     999901    1    3    3    0    0  0.76743099117E-01  0.10299843944E+00  0.47374672176E-01  0.89058550480E+00  0.88000000000E+00 0. -1.
        -11    1    4    4    0    0 -0.17569152249E-01 -0.25921488424E-01 -0.18920644561E-01  0.36590307248E-01  0.51100000000E-03 0.  1.
         11    1    4    4    0    0 -0.41734072431E-01 -0.84361151180E-01 -0.20986923153E-01  0.96432612194E-01  0.51100000000E-03 0. -1.
</event>
<event>
 8    1  0.1148488E+005  0.1043930E+01  0.7957747E-01            NaN
         13   -1    0    0    0    0  0.00000000000E+00  0.00000000000E+00  0.74505805969E-08  0.10566000000E+00  0.10566000000E+00 0. -1.
     999900   -1    0    0    0    0 -0.00000000000E+00 -0.00000000000E+00 -0.74505805969E-08  0.93827000000E+00  0.93827000000E+00 0.  1.
     999902    2    1    2    0    0 -0.19527911078E-01  0.67560450519E-03  0.10543851722E-01  0.10217271047E+01  0.10214858334E+01 0.  0.
     999903    2    3    3    0    0 -0.76994873662E-01  0.10151302573E+00 -0.32718851450E-01  0.13305264300E+00  0.19984434122E-01 0.  0.
         14    1    1    2    0    0  0.19527911078E-01 -0.67560450519E-03 -0.10543851722E-01  0.22202895344E-01  0.00000000000E+00 0.  1.
     999901    1    3    3    0    0  0.57466962584E-01 -0.10083742122E+00  0.43262703172E-01  0.88867446165E+00  0.88000000000E+00 0. -1.
        -11    1    4    4    0    0 -0.31976677882E-01  0.55074854837E-01 -0.22648720501E-01  0.67594180407E-01  0.51100000000E-03 0. -1.
         11    1    4    4    0    0 -0.45018195780E-01  0.46438170893E-01 -0.10070130949E-01  0.65458462596E-01  0.51100000000E-03 0.  1.
</event>
<event>
 8    1  0.1148488E+005  0.1043930E+01  0.7957747E-01            NaN
         13   -1    0    0    0    0  0.00000000000E+00  0.00000000000E+00  0.74505805969E-08  0.10566000000E+00  0.10566000000E+00 0.  1.
     999900   -1    0    0    0    0 -0.00000000000E+00 -0.00000000000E+00 -0.74505805969E-08  0.93827000000E+00  0.93827000000E+00 0.  1.
     999902    2    1    2    0    0  0.19017916202E-01  0.48820477051E-02 -0.26041557381E-01  0.10113159196E+01  0.10107898946E+01 0.  0.
     999903    2    3    3    0    0  0.11138550233E+00  0.50686796712E-01 -0.25187286666E-01  0.12529640757E+00  0.94291489372E-02 0.  0.
         14    1    1    2    0    0 -0.19017916202E-01 -0.48820477051E-02  0.26041557381E-01  0.32614080353E-01  0.00000000000E+00 0.  1.
     999901    1    3    3    0    0 -0.92367586132E-01 -0.45804749007E-01 -0.85427071509E-03  0.88601951208E+00  0.88000000000E+00 0.  1.
        -11    1    4    4    0    0  0.38903350401E-01  0.19845946115E-01 -0.13127990890E-01  0.45606331966E-01  0.51100000000E-03 0. -1.
         11    1    4    4    0    0  0.72482151933E-01  0.30840850597E-01 -0.12059295776E-01  0.79690075606E-01  0.51100000000E-03 0.  1.
</event>
<event>
 8    1  0.1148488E+005  0.1043930E+01  0.7957747E-01            NaN
         13   -1    0    0    0    0  0.00000000000E+00  0.00000000000E+00  0.74505805969E-08  0.10566000000E+00  0.10566000000E+00 0.  1.
     999900   -1    0    0    0    0 -0.00000000000E+00 -0.00000000000E+00 -0.74505805969E-08  0.93827000000E+00  0.93827000000E+00 0.  1.
     999902    2    1    2    0    0 -0.45857044409E-02  0.23060846294E-01 -0.36850705213E-02  0.10201306080E+01  0.10198529532E+01 0.  0.
     999903    2    3    3    0    0  0.10254715708E+00  0.78056287022E-01 -0.11334565584E-01  0.13189614381E+00  0.25679116167E-01 0.  0.
         14    1    1    2    0    0  0.45857044409E-02 -0.23060846294E-01  0.36850705213E-02  0.23799392046E-01  0.00000000000E+00 0.  1.
     999901    1    3    3    0    0 -0.10713286152E+00 -0.54995440728E-01  0.76494950628E-02  0.88823446414E+00  0.88000000000E+00 0. -1.
        -11    1    4    4    0    0  0.14414578869E-01  0.18001022416E-01  0.60292379120E-02  0.23841764254E-01  0.51100000000E-03 0. -1.
         11    1    4    4    0    0  0.88132578207E-01  0.60055264607E-01 -0.17363803496E-01  0.10805437956E+00  0.51100000000E-03 0.  1.
</event>
<event>
 8    1  0.1148488E+005  0.1043930E+01  0.7957747E-01            NaN
         13   -1    0    0    0    0  0.00000000000E+00  0.00000000000E+00  0.74505805969E-08  0.10566000000E+00  0.10566000000E+00 0.  1.
     999900   -1    0    0    0    0 -0.00000000000E+00 -0.00000000000E+00 -0.74505805969E-08  0.93827000000E+00  0.93827000000E+00 0. -1.
     999902    2    1    2    0    0 -0.76491227541E-02  0.13161901077E-01  0.18918958583E-01  0.10196468430E+01  0.10193576471E+01 0.  0.
     999903    2    3    3    0    0  0.88492524627E-01 -0.54879477935E-01 -0.70540853739E-01  0.12730391363E+00  0.19687314846E-01 0.  0.
         14    1    1    2    0    0  0.76491227541E-02 -0.13161901077E-01 -0.18918958583E-01  0.24283156977E-01  0.00000000000E+00 0. -1.
     999901    1    3    3    0    0 -0.96141647381E-01  0.68041379012E-01  0.89459812323E-01  0.89234292939E+00  0.88000000000E+00 0.  1.
        -11    1    4    4    0    0  0.60384172642E-01 -0.46022093200E-01 -0.56588236369E-01  0.94693035565E-01  0.51100000000E-03 0.  1.
         11    1    4    4    0    0  0.28108351985E-01 -0.88573847352E-02 -0.13952617370E-01  0.32610878064E-01  0.51100000000E-03 0. -1.
</event>
<event>
 8    1  0.1148488E+005  0.1043930E+01  0.7957747E-01            NaN
         13   -1    0    0    0    0  0.00000000000E+00  0.00000000000E+00  0.74505805969E-08  0.10566000000E+00  0.10566000000E+00 0. -1.
     999900   -1    0    0    0    0 -0.00000000000E+00 -0.00000000000E+00 -0.74505805969E-08  0.93827000000E+00  0.93827000000E+00 0.  1.
     999902    2    1    2    0    0  0.23182640357E-01  0.40743962784E-02 -0.29451234405E-03  0.10203901985E+01  0.10201186376E+01 0.  0.
     999903    2    3    3    0    0  0.79646171214E-01 -0.69999087379E-01  0.76237533498E-01  0.13217166379E+00  0.20342132913E-01 0.  0.
         14    1    1    2    0    0 -0.23182640357E-01 -0.40743962784E-02  0.29451234405E-03  0.23539801538E-01  0.00000000000E+00 0. -1.
     999901    1    3    3    0    0 -0.56463530858E-01  0.74073483658E-01 -0.76532045842E-01  0.88821853467E+00  0.88000000000E+00 0.  1.
        -11    1    4    4    0    0  0.56790251557E-01 -0.39552210946E-01  0.56161670984E-01  0.89128583918E-01  0.51100000000E-03 0.  1.
         11    1    4    4    0    0  0.22855919657E-01 -0.30446876433E-01  0.20075862515E-01  0.43043079869E-01  0.51100000000E-03 0. -1.
</event>
<event>
 8    1  0.1148488E+005  0.1043930E+01  0.7957747E-01            NaN
         13   -1    0    0    0    0  0.00000000000E+00  0.00000000000E+00  0.74505805969E-08  0.10566000000E+00  0.10566000000E+00 0. -1.
     999900   -1    0    0    0    0 -0.00000000000E+00 -0.00000000000E+00 -0.74505805969E-08  0.93827000000E+00  0.93827000000E+00 0. -1.
     999902    2    1    2    0    0  0.15290306969E-01  0.28810265133E-02  0.17165916357E-01  0.10207618649E+01  0.10204989085E+01 0.  0.
     999903    2    3    3    0    0  0.10926977060E+00  0.63232221378E-01  0.38788482444E-01  0.13343895765E+00  0.19058133744E-01 0.  0.
         14    1    1    2    0    0 -0.15290306969E-01 -0.28810265133E-02 -0.17165916357E-01  0.23168135129E-01  0.00000000000E+00 0.  1.
     999901    1    3    3    0    0 -0.93979463634E-01 -0.60351194865E-01 -0.21622566087E-01  0.88732290722E+00  0.88000000000E+00 0.  1.
        -11    1    4    4    0    0  0.72091428753E-01  0.51728553506E-01  0.28168068331E-01  0.93095212240E-01  0.51100000000E-03 0. -1.
         11    1    4    4    0    0  0.37178341850E-01  0.11503667872E-01  0.10620414113E-01  0.40343745415E-01  0.51100000000E-03 0.  1.
</event>
<event>
 8    1  0.1148488E+005  0.1043930E+01  0.7957747E-01            NaN
         13   -1    0    0    0    0  0.00000000000E+00  0.00000000000E+00  0.74505805969E-08  0.10566000000E+00  0.10566000000E+00 0.  1.
     999900   -1    0    0    0    0 -0.00000000000E+00 -0.00000000000E+00 -0.74505805969E-08  0.93827000000E+00  0.93827000000E+00 0.  1.
     999902    2    1    2    0    0 -0.18113648749E-01 -0.68865337861E-02  0.13017152235E-01  0.10205853032E+01  0.10203182769E+01 0.  0.
     999903    2    3    3    0    0 -0.44634997417E-01 -0.72563068913E-01 -0.97547486131E-01  0.13084302111E+00  0.18619939784E-01 0.  0.
         14    1    1    2    0    0  0.18113648749E-01  0.68865337861E-02 -0.13017152235E-01  0.23344696848E-01  0.00000000000E+00 0. -1.
     999901    1    3    3    0    0  0.26521348667E-01  0.65676535126E-01  0.11056463837E+00  0.88974228204E+00  0.88000000000E+00 0. -1.
        -11    1    4    4    0    0 -0.18758893409E-01 -0.17021265846E-01 -0.21874909400E-01  0.33472262475E-01  0.51100000000E-03 0. -1.
         11    1    4    4    0    0 -0.25876104008E-01 -0.55541803066E-01 -0.75672576731E-01  0.97370758633E-01  0.51100000000E-03 0.  1.
</event>
<event>
 8    1  0.1148488E+005  0.1043930E+01  0.7957747E-01            NaN
         13   -1    0    0    0    0  0.00000000000E+00  0.00000000000E+00  0.74505805969E-08  0.10566000000E+00  0.10566000000E+00 0. -1.
     999900   -1    0    0    0    0 -0.00000000000E+00 -0.00000000000E+00 -0.74505805969E-08  0.93827000000E+00  0.93827000000E+00 0. -1.
     999902    2    1    2    0    0  0.17845212821E-01 -0.13525555270E-01  0.45398349343E-02  0.10210826289E+01  0.10208269847E+01 0.  0.
     999903    2    3    3    0    0  0.56930326835E-01 -0.95518294498E-02 -0.11685991589E+00  0.13187998823E+00  0.20094571299E-01 0.  0.
         14    1    1    2    0    0 -0.17845212821E-01  0.13525555270E-01 -0.45398349343E-02  0.22847371122E-01  0.00000000000E+00 0.  1.
     999901    1    3    3    0    0 -0.39085114014E-01 -0.39737258197E-02  0.12139975082E+00  0.88920264065E+00  0.88000000000E+00 0.  1.
        -11    1    4    4    0    0  0.52733601687E-01 -0.10923265518E-01 -0.91820163042E-01  0.10644883249E+00  0.51100000000E-03 0.  1.
         11    1    4    4    0    0  0.41967251484E-02  0.13714360685E-02 -0.25039752844E-01  0.25431155741E-01  0.51100000000E-03 0. -1.
</event>
<event>
 8    1  0.1148488E+005  0.1043930E+01  0.7957747E-01            NaN
         13   -1    0    0    0    0  0.00000000000E+00  0.00000000000E+00  0.74505805969E-08  0.10566000000E+00  0.10566000000E+00 0.  1.
     999900   -1    0    0    0    0 -0.00000000000E+00 -0.00000000000E+00 -0.74505805969E-08  0.93827000000E+00  0.93827000000E+00 0. -1.
     999902    2    1    2    0    0  0.76357625115E-02  0.20903067652E-01  0.98508410660E-02  0.10195931519E+01  0.10193026603E+01 0.  0.
     999903    2    3    3    0    0  0.17176777393E-01 -0.47599740489E-01 -0.11576370486E+00  0.12798635523E+00  0.20457145124E-01 0.  0.
         14    1    1    2    0    0 -0.76357625115E-02 -0.20903067652E-01 -0.98508410660E-02  0.24336848114E-01  0.00000000000E+00 0. -1.
     999901    1    3    3    0    0 -0.95410148816E-02  0.68502808141E-01  0.12561454593E+00  0.89160679665E+00  0.88000000000E+00 0.  1.
        -11    1    4    4    0    0  0.13493755278E-01 -0.34950133677E-01 -0.10313173047E+00  0.10972697128E+00  0.51100000000E-03 0. -1.
         11    1    4    4    0    0  0.36830221153E-02 -0.12649606812E-01 -0.12631974396E-01  0.18259383958E-01  0.51100000000E-03 0.  1.
</event>
<event>
 8    1  0.1148488E+005  0.1043930E+01  0.7957747E-01            NaN
         13   -1    0    0    0    0  0.00000000000E+00  0.00000000000E+00  0.74505805969E-08  0.10566000000E+00  0.10566000000E+00 0. -1.
     999900   -1    0    0    0    0 -0.00000000000E+00 -0.00000000000E+00 -0.74505805969E-08  0.93827000000E+00  0.93827000000E+00 0.  1.
     999902    2    1    2    0    0  0.19958596133E-02 -0.16648440011E-01  0.14309136523E-01  0.10218867380E+01  0.10216489612E+01 0.  0.
     999903    2    3    3    0    0  0.78907989780E-01  0.83422195580E-02  0.10543539892E+00  0.13349267877E+00  0.20189315496E-01 0.  0.
         14    1    1    2    0    0 -0.19958596133E-02  0.16648440011E-01 -0.14309136523E-01  0.22043261974E-01  0.00000000000E+00 0.  1.
     999901    1    3    3    0    0 -0.76912130167E-01 -0.24990659569E-01 -0.91126262397E-01  0.88839405926E+00  0.88000000000E+00 0.  1.
        -11    1    4    4    0    0  0.57759253578E-01  0.85181029259E-02  0.61913000759E-01  0.85100941448E-01  0.51100000000E-03 0.  1.
         11    1    4    4    0    0  0.21148736202E-01 -0.17588336790E-03  0.43522398161E-01  0.48391737317E-01  0.51100000000E-03 0. -1.
</event>
<event>
 8    1  0.1148488E+005  0.1043930E+01  0.7957747E-01            NaN
         13   -1    0    0    0    0  0.00000000000E+00  0.00000000000E+00  0.74505805969E-08  0.10566000000E+00  0.10566000000E+00 0. -1.
     999900   -1    0    0    0    0 -0.00000000000E+00 -0.00000000000E+00 -0.74505805969E-08  0.93827000000E+00  0.93827000000E+00 0. -1.
     999902    2    1    2    0    0  0.67429914602E-02  0.13360557001E-01  0.19775562992E-01  0.10191298930E+01  0.10188280981E+01 0.  0.
     999903    2    3    3    0    0  0.85151649573E-01 -0.53173884584E-01 -0.76551368777E-01  0.12792081123E+00  0.20624171690E-01 0.  0.
         14    1    1    2    0    0 -0.67429914602E-02 -0.13360557001E-01 -0.19775562992E-01  0.24800107033E-01  0.00000000000E+00 0.  1.
     999901    1    3    3    0    0 -0.78408658113E-01  0.66534441585E-01  0.96326931768E-01  0.89120908174E+00  0.88000000000E+00 0.  1.
        -11    1    4    4    0    0  0.25633772027E-01 -0.65133584679E-02 -0.24961704695E-01  0.36371168928E-01  0.51100000000E-03 0. -1.
         11    1    4    4    0    0  0.59517877545E-01 -0.46660526116E-01 -0.51589664081E-01  0.91549642304E-01  0.51100000000E-03 0.  1.
</event>
<event>
 8    1  0.1148488E+005  0.1043930E+01  0.7957747E-01            NaN
         13   -1    0    0    0    0  0.00000000000E+00  0.00000000000E+00  0.74505805969E-08  0.10566000000E+00  0.10566000000E+00 0.  1.
     999900   -1    0    0    0    0 -0.00000000000E+00 -0.00000000000E+00 -0.74505805969E-08  0.93827000000E+00  0.93827000000E+00 0.  1.
     999902    2    1    2    0    0 -0.27030715324E-01  0.15440929798E-03  0.38265838391E-02  0.10166293378E+01  0.10162627044E+01 0.  0.
     999903    2    3    3    0    0 -0.48346216746E-01 -0.58353407080E-01 -0.10144112142E+00  0.12817066968E+00  0.19873164284E-01 0.  0.
         14    1    1    2    0    0  0.27030715324E-01 -0.15440929798E-03 -0.38265838391E-02  0.27300662208E-01  0.00000000000E+00 0. -1.
     999901    1    3    3    0    0  0.21315501422E-01  0.58507816378E-01  0.10526770526E+00  0.88845866812E+00  0.88000000000E+00 0. -1.
        -11    1    4    4    0    0 -0.77704480479E-02 -0.18046637053E-01 -0.15955478551E-01  0.25315990768E-01  0.51100000000E-03 0. -1.
         11    1    4    4    0    0 -0.40575768698E-01 -0.40306770028E-01 -0.85485642870E-01  0.10285467891E+00  0.51100000000E-03 0.  1.
</event>
<event>
 8    1  0.1148488E+005  0.1043930E+01  0.7957747E-01            NaN
         13   -1    0    0    0    0  0.00000000000E+00  0.00000000000E+00  0.74505805969E-08  0.10566000000E+00  0.10566000000E+00 0.  1.
     999900   -1    0    0    0    0 -0.00000000000E+00 -0.00000000000E+00 -0.74505805969E-08  0.93827000000E+00  0.93827000000E+00 0.  1.
     999902    2    1    2    0    0  0.52652842700E-02  0.82349375066E-02 -0.23203312119E-01  0.10187520114E+01  0.10184408327E+01 0.  0.
     999903    2    3    3    0    0 -0.34246792648E-01  0.10303323316E+00 -0.72016384200E-01  0.13143547431E+00  0.17327272482E-01 0.  0.
         14    1    1    2    0    0 -0.52652842700E-02 -0.82349375066E-02  0.23203312119E-01  0.25177988551E-01  0.00000000000E+00 0.  1.
     999901    1    3    3    0    0  0.39512076918E-01 -0.94798295650E-01  0.48813072081E-01  0.88731653714E+00  0.88000000000E+00 0. -1.
        -11    1    4    4    0    0 -0.13555578778E-01  0.28238503672E-01 -0.29078680461E-01  0.42743392284E-01  0.51100000000E-03 0. -1.
         11    1    4    4    0    0 -0.20691213869E-01  0.74794729484E-01 -0.42937703739E-01  0.88692082022E-01  0.51100000000E-03 0.  1.
</event>
<event>
 8    1  0.1148488E+005  0.1043930E+01  0.7957747E-01            NaN
         13   -1    0    0    0    0  0.00000000000E+00  0.00000000000E+00  0.74505805969E-08  0.10566000000E+00  0.10566000000E+00 0.  1.
     999900   -1    0    0    0    0 -0.00000000000E+00 -0.00000000000E+00 -0.74505805969E-08  0.93827000000E+00  0.93827000000E+00 0.  1.
     999902    2    1    2    0    0  0.32441725266E-03 -0.93987835038E-02 -0.23667658503E-01  0.10184623649E+01  0.10181438937E+01 0.  0.
     999903    2    3    3    0    0  0.90275779117E-02 -0.11675579495E+00  0.49663309559E-01  0.12886767980E+00  0.20664504885E-01 0.  0.
         14    1    1    2    0    0 -0.32441725266E-03  0.93987835038E-02  0.23667658503E-01  0.25467635087E-01  0.00000000000E+00 0.  1.
     999901    1    3    3    0    0 -0.87031606591E-02  0.10735701145E+00 -0.73330968062E-01  0.88959468512E+00  0.88000000000E+00 0.  1.
        -11    1    4    4    0    0  0.15667492770E-01 -0.75674724449E-01  0.31303978287E-01  0.83380659794E-01  0.51100000000E-03 0. -1.
         11    1    4    4    0    0 -0.66399148585E-02 -0.41081070502E-01  0.18359331272E-01  0.45487020002E-01  0.51100000000E-03 0.  1.
</event>
<event>
 8    1  0.1148488E+005  0.1043930E+01  0.7957747E-01            NaN
         13   -1    0    0    0    0  0.00000000000E+00  0.00000000000E+00  0.74505805969E-08  0.10566000000E+00  0.10566000000E+00 0. -1.
     999900   -1    0    0    0    0 -0.00000000000E+00 -0.00000000000E+00 -0.74505805969E-08  0.93827000000E+00  0.93827000000E+00 0. -1.
     999902    2    1    2    0    0  0.12392271987E-01 -0.20253581840E-01  0.22097845687E-02  0.10200834252E+01  0.10198046554E+01 0.  0.
     999903    2    3    3    0    0  0.90104491587E-01  0.88843795865E-01  0.20656193736E-01  0.12975668915E+00  0.19951956585E-01 0.  0.
         14    1    1    2    0    0 -0.12392271987E-01  0.20253581840E-01 -0.22097845687E-02  0.23846574810E-01  0.00000000000E+00 0.  1.
     999901    1    3    3    0    0 -0.77712219600E-01 -0.10909737770E+00 -0.18446409168E-01  0.89032673604E+00  0.88000000000E+00 0. -1.
        -11    1    4    4    0    0  0.45611447437E-01  0.43891647227E-01  0.27084990557E-03  0.63302569571E-01  0.51100000000E-03 0.  1.
         11    1    4    4    0    0  0.44493044151E-01  0.44952148637E-01  0.20385343831E-01  0.66454119579E-01  0.51100000000E-03 0. -1.
</event>
<event>
 8    1  0.1148488E+005  0.1043930E+01  0.7957747E-01            NaN
         13   -1    0    0    0    0  0.00000000000E+00  0.00000000000E+00  0.74505805969E-08  0.10566000000E+00  0.10566000000E+00 0. -1.
     999900   -1    0    0    0    0 -0.00000000000E+00 -0.00000000000E+00 -0.74505805969E-08  0.93827000000E+00  0.93827000000E+00 0.  1.
     999902    2    1    2    0    0  0.19887844088E-01  0.10873818174E-01 -0.15254599916E-02  0.10212123132E+01  0.10209595954E+01 0.  0.
     999903    2    3    3    0    0 -0.61635366159E-01 -0.11034681799E+00  0.15685428669E-01  0.12900343010E+00  0.20506430788E-01 0.  0.
         14    1    1    2    0    0 -0.19887844088E-01 -0.10873818174E-01  0.15254599916E-02  0.22717686773E-01  0.00000000000E+00 0.  1.
     999901    1    3    3    0    0  0.81523210246E-01  0.12122063616E+00 -0.17210888661E-01  0.89220888313E+00  0.88000000000E+00 0.  1.
        -11    1    4    4    0    0 -0.21410051355E-01 -0.34097133068E-01  0.14462954191E-01  0.42783676179E-01  0.51100000000E-03 0.  1.
         11    1    4    4    0    0 -0.40225314804E-01 -0.76249684920E-01  0.12224744779E-02  0.86219753922E-01  0.51100000000E-03 0. -1.
</event>
<event>
 8    1  0.1148488E+005  0.1043930E+01  0.7957747E-01            NaN
         13   -1    0    0    0    0  0.00000000000E+00  0.00000000000E+00  0.74505805969E-08  0.10566000000E+00  0.10566000000E+00 0.  1.
     999900   -1    0    0    0    0 -0.00000000000E+00 -0.00000000000E+00 -0.74505805969E-08  0.93827000000E+00  0.93827000000E+00 0.  1.
     999902    2    1    2    0    0  0.84932931354E-02 -0.10391231704E-01 -0.21813664500E-01  0.10183184853E+01  0.10179963595E+01 0.  0.
     999903    2    3    3    0    0 -0.71199118737E-01  0.87578576926E-01 -0.58304163864E-01  0.12855417921E+00  0.19684507164E-01 0.  0.
         14    1    1    2    0    0 -0.84932931354E-02  0.10391231704E-01  0.21813664500E-01  0.25611514667E-01  0.00000000000E+00 0. -1.
     999901    1    3    3    0    0  0.79692411872E-01 -0.97969808630E-01  0.36490499364E-01  0.88976430613E+00  0.88000000000E+00 0. -1.
        -11    1    4    4    0    0 -0.64202334063E-01  0.69927664928E-01 -0.53470085982E-01  0.10895471186E+00  0.51100000000E-03 0. -1.
         11    1    4    4    0    0 -0.69967846734E-02  0.17650911999E-01 -0.48340778820E-02  0.19599467343E-01  0.51100000000E-03 0.  1.
</event>
<event>
 8    1  0.1148488E+005  0.1043930E+01  0.7957747E-01            NaN
         13   -1    0    0    0    0  0.00000000000E+00  0.00000000000E+00  0.74505805969E-08  0.10566000000E+00  0.10566000000E+00 0. -1.
     999900   -1    0    0    0    0 -0.00000000000E+00 -0.00000000000E+00 -0.74505805969E-08  0.93827000000E+00  0.93827000000E+00 0.  1.
     999902    2    1    2    0    0 -0.79410621582E-02 -0.20824762380E-01  0.68347206022E-02  0.10206181017E+01  0.10203518339E+01 0.  0.
     999903    2    3    3    0    0 -0.69027316335E-01  0.10440021887E+00  0.26273696409E-01  0.12944432507E+00  0.20033723286E-01 0.  0.
         14    1    1    2    0    0  0.79410621582E-02  0.20824762380E-01 -0.68347206022E-02  0.23311898295E-01  0.00000000000E+00 0.  1.
     999901    1    3    3    0    0  0.61086254177E-01 -0.12522498125E+00 -0.19438975807E-01  0.89117377663E+00  0.88000000000E+00 0. -1.
        -11    1    4    4    0    0 -0.37963369905E-01  0.39930015198E-01  0.90762517173E-02  0.55841409675E-01  0.51100000000E-03 0. -1.
         11    1    4    4    0    0 -0.31063946430E-01  0.64470203677E-01  0.17197444691E-01  0.73602915396E-01  0.51100000000E-03 0.  1.
</event>
<event>
 8    1  0.1148488E+005  0.1043930E+01  0.7957747E-01            NaN
         13   -1    0    0    0    0  0.00000000000E+00  0.00000000000E+00  0.74505805969E-08  0.10566000000E+00  0.10566000000E+00 0. -1.
     999900   -1    0    0    0    0 -0.00000000000E+00 -0.00000000000E+00 -0.74505805969E-08  0.93827000000E+00  0.93827000000E+00 0. -1.
     999902    2    1    2    0    0  0.66225010421E-02 -0.22049665769E-01 -0.97583103695E-02  0.10189246025E+01  0.10186177280E+01 0.  0.
     999903    2    3    3    0    0 -0.18553331029E-01  0.10328158195E-01 -0.12697944179E+00  0.13020477062E+00  0.19457818735E-01 0.  0.
         14    1    1    2    0    0 -0.66225010421E-02  0.22049665769E-01  0.97583103695E-02  0.25005397454E-01  0.00000000000E+00 0. -1.
     999901    1    3    3    0    0  0.25175832071E-01 -0.32377823965E-01  0.11722113142E+00  0.88871983193E+00  0.88000000000E+00 0.  1.
        -11    1    4    4    0    0 -0.40026601250E-02  0.46448358169E-02 -0.87909662011E-01  0.88124716078E-01  0.51100000000E-03 0.  1.
         11    1    4    4    0    0 -0.14550670904E-01  0.56833223786E-02 -0.39069779783E-01  0.42080054542E-01  0.51100000000E-03 0. -1.
</event>
<event>
 8    1  0.1148488E+005  0.1043930E+01  0.7957747E-01            NaN
         13   -1    0    0    0    0  0.00000000000E+00  0.00000000000E+00  0.74505805969E-08  0.10566000000E+00  0.10566000000E+00 0. -1.
     999900   -1    0    0    0    0 -0.00000000000E+00 -0.00000000000E+00 -0.74505805969E-08  0.93827000000E+00  0.93827000000E+00 0.  1.
     999902    2    1    2    0    0 -0.78659881735E-02 -0.19684852984E-01 -0.96799279453E-02  0.10206261760E+01  0.10203600948E+01 0.  0.
     999903    2    3    3    0    0  0.10188916804E+00  0.81102990689E-02  0.75964454986E-01  0.12924874467E+00  0.22078497753E-01 0.  0.
         14    1    1    2    0    0  0.78659881735E-02  0.19684852984E-01  0.96799279453E-02  0.23303823977E-01  0.00000000000E+00 0. -1.
     999901    1    3    3    0    0 -0.10975515621E+00 -0.27795152053E-01 -0.85644382931E-01  0.89137743135E+00  0.88000000000E+00 0.  1.
        -11    1    4    4    0    0  0.43283278519E-01  0.66995891378E-02  0.19826325027E-01  0.48079839632E-01  0.51100000000E-03 0.  1.
         11    1    4    4    0    0  0.58605889522E-01  0.14107099311E-02  0.56138129959E-01  0.81168905040E-01  0.51100000000E-03 0. -1.
</event>
<event>
 8    1  0.1148488E+005  0.1043930E+01  0.7957747E-01            NaN
         13   -1    0    0    0    0  0.00000000000E+00  0.00000000000E+00  0.74505805969E-08  0.10566000000E+00  0.10566000000E+00 0. -1.
     999900   -1    0    0    0    0 -0.00000000000E+00 -0.00000000000E+00 -0.74505805969E-08  0.93827000000E+00  0.93827000000E+00 0. -1.
     999902    2    1    2    0    0  0.20454930874E-01  0.61368326623E-02  0.68881718973E-02  0.10214909309E+01  0.10212444418E+01 0.  0.
     999903    2    3    3    0    0  0.18786387282E-01 -0.11177113672E+00 -0.62310805036E-01  0.13093291944E+00  0.20373453774E-01 0.  0.
         14    1    1    2    0    0 -0.20454930874E-01 -0.61368326623E-02 -0.68881718973E-02  0.22439069149E-01  0.00000000000E+00 0.  1.
     999901    1    3    3    0    0  0.16685435926E-02  0.11790796938E+00  0.69198976933E-01  0.89055801141E+00  0.88000000000E+00 0.  1.
        -11    1    4    4    0    0  0.99753533458E-02 -0.63090046641E-01 -0.46445659533E-01  0.78976718532E-01  0.51100000000E-03 0.  1.
         11    1    4    4    0    0  0.88110339359E-02 -0.48681090075E-01 -0.15865145503E-01  0.51956200908E-01  0.51100000000E-03 0. -1.
</event>
<event>
 8    1  0.1148488E+005  0.1043930E+01  0.7957747E-01            NaN
         13   -1    0    0    0    0  0.00000000000E+00  0.00000000000E+00  0.74505805969E-08  0.10566000000E+00  0.10566000000E+00 0.  1.
     999900   -1    0    0    0    0 -0.00000000000E+00 -0.00000000000E+00 -0.74505805969E-08  0.93827000000E+00  0.93827000000E+00 0.  1.
     999902    2    1    2    0    0 -0.46565510231E-02 -0.23501979405E-01 -0.38606429625E-02  0.10196620980E+01  0.10193732697E+01 0.  0.
     999903    2    3    3    0    0 -0.41256146934E-01  0.11852285575E+00  0.13339535221E-01  0.12735809692E+00  0.17099843682E-01 0.  0.
         14    1    1    2    0    0  0.46565510231E-02  0.23501979405E-01  0.38606429625E-02  0.24267902000E-01  0.00000000000E+00 0.  1.
     999901    1    3    3    0    0  0.36599595911E-01 -0.14202483516E+00 -0.17200178183E-01  0.89230400109E+00  0.88000000000E+00 0. -1.
        -11    1    4    4    0    0 -0.18351856370E-01  0.65992246638E-01 -0.81632539050E-04  0.68498430883E-01  0.51100000000E-03 0. -1.
         11    1    4    4    0    0 -0.22904290564E-01  0.52530609116E-01  0.13421167760E-01  0.58859666032E-01  0.51100000000E-03 0.  1.
</event>
<event>
 8    1  0.1148488E+005  0.1043930E+01  0.7957747E-01            NaN
         13   -1    0    0    0    0  0.00000000000E+00  0.00000000000E+00  0.74505805969E-08  0.10566000000E+00  0.10566000000E+00 0. -1.
     999900   -1    0    0    0    0 -0.00000000000E+00 -0.00000000000E+00 -0.74505805969E-08  0.93827000000E+00  0.93827000000E+00 0.  1.
     999902    2    1    2    0    0  0.13242777794E-01  0.10047125763E-01  0.16249364536E-01  0.10206844037E+01  0.10204196657E+01 0.  0.
     999903    2    3    3    0    0 -0.60253822783E-01  0.27331878873E-01  0.11284408407E+00  0.13218507740E+00  0.19014536901E-01 0.  0.
         14    1    1    2    0    0 -0.13242777794E-01 -0.10047125763E-01 -0.16249364536E-01  0.23245596306E-01  0.00000000000E+00 0.  1.
     999901    1    3    3    0    0  0.73496600578E-01 -0.17284753110E-01 -0.96594719537E-01  0.88849932630E+00  0.88000000000E+00 0.  1.
        -11    1    4    4    0    0 -0.36083120692E-01  0.24989335467E-01  0.81071862175E-01  0.92192008567E-01  0.51100000000E-03 0. -1.
         11    1    4    4    0    0 -0.24170702091E-01  0.23425434058E-02  0.31772221898E-01  0.39993068831E-01  0.51100000000E-03 0.  1.
</event>
<event>
 8    1  0.1148488E+005  0.1043930E+01  0.7957747E-01            NaN
         13   -1    0    0    0    0  0.00000000000E+00  0.00000000000E+00  0.74505805969E-08  0.10566000000E+00  0.10566000000E+00 0. -1.
     999900   -1    0    0    0    0 -0.00000000000E+00 -0.00000000000E+00 -0.74505805969E-08  0.93827000000E+00  0.93827000000E+00 0. -1.
     999902    2    1    2    0    0 -0.15789280860E-01 -0.16000697498E-01  0.17550914634E-02  0.10213821829E+01  0.10211332721E+01 0.  0.
     999903    2    3    3    0    0  0.60212552761E-01  0.10545851057E+00 -0.38407782040E-01  0.12889034856E+00  0.19761459141E-01 0.  0.
         14    1    1    2    0    0  0.15789280860E-01  0.16000697498E-01 -0.17550914634E-02  0.22547817113E-01  0.00000000000E+00 0. -1.
     999901    1    3    3    0    0 -0.76001833621E-01 -0.12145920807E+00  0.40162873503E-01  0.89249183433E+00  0.88000000000E+00 0. -1.
        -11    1    4    4    0    0  0.27968451307E-01  0.35640794662E-01 -0.71177190367E-02  0.45863095817E-01  0.51100000000E-03 0.  1.
         11    1    4    4    0    0  0.32244101454E-01  0.69817715912E-01 -0.31290063003E-01  0.83027252739E-01  0.51100000000E-03 0. -1.
</event>
<event>
 8    1  0.1148488E+005  0.1043930E+01  0.7957747E-01            NaN
         13   -1    0    0    0    0  0.00000000000E+00  0.00000000000E+00  0.74505805969E-08  0.10566000000E+00  0.10566000000E+00 0.  1.
     999900   -1    0    0    0    0 -0.00000000000E+00 -0.00000000000E+00 -0.74505805969E-08  0.93827000000E+00  0.93827000000E+00 0. -1.
     999902    2    1    2    0    0 -0.20549361962E-01  0.12528325094E-01 -0.76964780731E-03  0.10198503911E+01  0.10195660806E+01 0.  0.
     999903    2    3    3    0    0  0.63597232650E-01  0.85241306423E-01  0.72036397661E-01  0.12986806134E+00  0.19125439787E-01 0.  0.
         14    1    1    2    0    0  0.20549361962E-01 -0.12528325094E-01  0.76964780731E-03  0.24079608893E-01  0.00000000000E+00 0.  1.
     999901    1    3    3    0    0 -0.84146594611E-01 -0.72712981329E-01 -0.72806045468E-01  0.88998232977E+00  0.88000000000E+00 0. -1.
        -11    1    4    4    0    0  0.47918807148E-01  0.51061241924E-01  0.41304571536E-01  0.81300622729E-01  0.51100000000E-03 0. -1.
         11    1    4    4    0    0  0.15678425502E-01  0.34180064499E-01  0.30731826125E-01  0.48567438612E-01  0.51100000000E-03 0.  1.
</event>
<event>
 8    1  0.1148488E+005  0.1043930E+01  0.7957747E-01            NaN
         13   -1    0    0    0    0  0.00000000000E+00  0.00000000000E+00  0.74505805969E-08  0.10566000000E+00  0.10566000000E+00 0. -1.
     999900   -1    0    0    0    0 -0.00000000000E+00 -0.00000000000E+00 -0.74505805969E-08  0.93827000000E+00  0.93827000000E+00 0. -1.
     999902    2    1    2    0    0 -0.16859960363E-01  0.87809785597E-02  0.15041785208E-01  0.10196891430E+01  0.10194009658E+01 0.  0.
     999903    2    3    3    0    0 -0.11637746459E+00  0.91986484762E-02  0.60100773304E-01  0.13293426110E+00  0.20762596750E-01 0.  0.
         14    1    1    2    0    0  0.16859960363E-01 -0.87809785597E-02 -0.15041785208E-01  0.24240857043E-01  0.00000000000E+00 0.  1.
     999901    1    3    3    0    0  0.99517504225E-01 -0.41766991648E-03 -0.45058988095E-01  0.88675488186E+00  0.88000000000E+00 0.  1.
        -11    1    4    4    0    0 -0.24279939533E-01 -0.65016382671E-02  0.13204887124E-01  0.28397481030E-01  0.51100000000E-03 0.  1.
         11    1    4    4    0    0 -0.92097525055E-01  0.15700286743E-01  0.46895886180E-01  0.10453678007E+00  0.51100000000E-03 0. -1.
</event>
<event>
 8    1  0.1148488E+005  0.1043930E+01  0.7957747E-01            NaN
         13   -1    0    0    0    0  0.00000000000E+00  0.00000000000E+00  0.74505805969E-08  0.10566000000E+00  0.10566000000E+00 0. -1.
     999900   -1    0    0    0    0 -0.00000000000E+00 -0.00000000000E+00 -0.74505805969E-08  0.93827000000E+00  0.93827000000E+00 0.  1.
     999902    2    1    2    0    0  0.20953915293E-02  0.17070035123E-01 -0.16721869680E-01  0.10199425514E+01  0.10196604388E+01 0.  0.
     999903    2    3    3    0    0 -0.12638460151E+00 -0.15476166021E-01 -0.17013912163E-01  0.13001758315E+00  0.20062888844E-01 0.  0.
         14    1    1    2    0    0 -0.20953915293E-02 -0.17070035123E-01  0.16721869680E-01  0.23987448600E-01  0.00000000000E+00 0. -1.
     999901    1    3    3    0    0  0.12847999304E+00  0.32546201143E-01  0.29204248396E-03  0.88992496825E+00  0.88000000000E+00 0.  1.
        -11    1    4    4    0    0 -0.49937937556E-01 -0.10434089566E-02 -0.15142700354E-01  0.52196252784E-01  0.51100000000E-03 0.  1.
         11    1    4    4    0    0 -0.76446663953E-01 -0.14432757064E-01 -0.18712118096E-02  0.77821330370E-01  0.51100000000E-03 0. -1.
</event>
<event>
 8    1  0.1148488E+005  0.1043930E+01  0.7957747E-01            NaN
         13   -1    0    0    0    0  0.00000000000E+00  0.00000000000E+00  0.74505805969E-08  0.10566000000E+00  0.10566000000E+00 0. -1.
     999900   -1    0    0    0    0 -0.00000000000E+00 -0.00000000000E+00 -0.74505805969E-08  0.93827000000E+00  0.93827000000E+00 0.  1.
     999902    2    1    2    0    0 -0.78900187240E-02 -0.13242375902E-02 -0.22079011849E-01  0.10204462021E+01  0.10201759469E+01 0.  0.
     999903    2    3    3    0    0  0.31439936295E-01  0.12175285694E+00 -0.30560885836E-01  0.13097064944E+00  0.20177103416E-01 0.  0.
         14    1    1    2    0    0  0.78900187240E-02  0.13242375902E-02  0.22079011849E-01  0.23483797923E-01  0.00000000000E+00 0. -1.
     999901    1    3    3    0    0 -0.39329955019E-01 -0.12307709453E+00  0.84818739873E-02  0.88947555264E+00  0.88000000000E+00 0. -1.
        -11    1    4    4    0    0  0.18920159935E-01  0.38229263931E-01 -0.14061388612E-01  0.44915841787E-01  0.51100000000E-03 0. -1.
         11    1    4    4    0    0  0.12519776359E-01  0.83523593013E-01 -0.16499497224E-01  0.86054807649E-01  0.51100000000E-03 0.  1.
</event>
<event>
 8    1  0.1148488E+005  0.1043930E+01  0.7957747E-01            NaN
         13   -1    0    0    0    0  0.00000000000E+00  0.00000000000E+00  0.74505805969E-08  0.10566000000E+00  0.10566000000E+00 0. -1.
     999900   -1    0    0    0    0 -0.00000000000E+00 -0.00000000000E+00 -0.74505805969E-08  0.93827000000E+00  0.93827000000E+00 0.  1.
     999902    2    1    2    0    0 -0.76226136991E-02  0.39438711049E-02  0.23295044772E-01  0.10191042579E+01  0.10188018311E+01 0.  0.
     999903    2    3    3    0    0 -0.60109304441E-01 -0.84355029801E-01  0.78389623007E-01  0.13141796133E+00  0.19921044935E-01 0.  0.
         14    1    1    2    0    0  0.76226136991E-02 -0.39438711049E-02 -0.23295044772E-01  0.24825742080E-01  0.00000000000E+00 0.  1.
     999901    1    3    3    0    0  0.52486690742E-01  0.88298900906E-01 -0.55094578235E-01  0.88768629659E+00  0.88000000000E+00 0.  1.
        -11    1    4    4    0    0 -0.38310465108E-01 -0.44444686951E-01  0.54323112444E-01  0.79964264528E-01  0.51100000000E-03 0. -1.
         11    1    4    4    0    0 -0.21798839334E-01 -0.39910342850E-01  0.24066510563E-01  0.51453696800E-01  0.51100000000E-03 0.  1.
</event>
<event>
 8    1  0.1148488E+005  0.1043930E+01  0.7957747E-01            NaN
         13   -1    0    0    0    0  0.00000000000E+00  0.00000000000E+00  0.74505805969E-08  0.10566000000E+00  0.10566000000E+00 0. -1.
     999900   -1    0    0    0    0 -0.00000000000E+00 -0.00000000000E+00 -0.74505805969E-08  0.93827000000E+00  0.93827000000E+00 0. -1.
     999902    2    1    2    0    0  0.18161660193E-01  0.14655752248E-01 -0.44670262265E-02  0.10201688700E+01  0.10198921178E+01 0.  0.
     999903    2    3    3    0    0  0.17604772353E-01 -0.10378969880E+00  0.71747703353E-01  0.12896837630E+00  0.20071859960E-01 0.  0.
         14    1    1    2    0    0 -0.18161660193E-01 -0.14655752248E-01  0.44670262265E-02  0.23761129987E-01  0.00000000000E+00 0.  1.
     999901    1    3    3    0    0  0.55688784059E-03  0.11844545104E+00 -0.76214729579E-01  0.89120049372E+00  0.88000000000E+00 0. -1.
        -11    1    4    4    0    0  0.15519107027E-01 -0.69255862717E-01  0.37449984320E-01  0.80249483800E-01  0.51100000000E-03 0. -1.
         11    1    4    4    0    0  0.20856653259E-02 -0.34533836079E-01  0.34297719033E-01  0.48718892496E-01  0.51100000000E-03 0.  1.
</event>
<event>
 8    1  0.1187392E+005  0.1043930E+01  0.7957747E-01            NaN
         13   -1    0    0    0    0  0.00000000000E+00  0.00000000000E+00  0.74505805969E-08  0.10566000000E+00  0.10566000000E+00 0. -1.
     999900   -1    0    0    0    0 -0.00000000000E+00 -0.00000000000E+00 -0.74505805969E-08  0.93827000000E+00  0.93827000000E+00 0.  1.
     999902    2    1    2    0    0  0.11373487755E-01 -0.21460905189E-01  0.19876519833E-02  0.10195603994E+01  0.10192691158E+01 0.  0.
     999903    2    3    3    0    0 -0.12078168840E+00 -0.42322903489E-01 -0.68825745225E-03  0.12944390470E+00  0.19385725524E-01 0.  0.
         14    1    1    2    0    0 -0.11373487755E-01  0.21460905189E-01 -0.19876519833E-02  0.24369600646E-01  0.00000000000E+00 0.  1.
     999901    1    3    3    0    0  0.13215517616E+00  0.20861998301E-01  0.26759094355E-02  0.89011649465E+00  0.88000000000E+00 0.  1.
        -11    1    4    4    0    0 -0.45151426085E-01 -0.11577922308E-01  0.81591528121E-02  0.47323698695E-01  0.51100000000E-03 0. -1.
         11    1    4    4    0    0 -0.75630262314E-01 -0.30744981181E-01 -0.88474102643E-02  0.82120206009E-01  0.51100000000E-03 0.  1.
</event>
<event>
 8    1  0.1148488E+005  0.1043930E+01  0.7957747E-01            NaN
         13   -1    0    0    0    0  0.00000000000E+00  0.00000000000E+00  0.74505805969E-08  0.10566000000E+00  0.10566000000E+00 0. -1.
     999900   -1    0    0    0    0 -0.00000000000E+00 -0.00000000000E+00 -0.74505805969E-08  0.93827000000E+00  0.93827000000E+00 0.  1.
     999902    2    1    2    0    0 -0.10848758868E-01  0.84057986126E-02 -0.20043138104E-01  0.10196384294E+01  0.10193490306E+01 0.  0.
     999903    2    3    3    0    0  0.36944189164E-01  0.10262416048E+00  0.65852052329E-01  0.12916706579E+00  0.21237859159E-01 0.  0.
         14    1    1    2    0    0  0.10848758868E-01 -0.84057986126E-02  0.20043138104E-01  0.24291570644E-01  0.00000000000E+00 0. -1.
     999901    1    3    3    0    0 -0.47792948032E-01 -0.94218361865E-01 -0.85895190433E-01  0.89047136357E+00  0.88000000000E+00 0.  1.
        -11    1    4    4    0    0  0.20962473340E-01  0.67321929199E-01  0.53435498009E-01  0.88471922145E-01  0.51100000000E-03 0. -1.
         11    1    4    4    0    0  0.15981715824E-01  0.35302231279E-01  0.12416554320E-01  0.40695143644E-01  0.51100000000E-03 0.  1.
</event>
<event>
 8    1  0.1148488E+005  0.1043930E+01  0.7957747E-01            NaN
         13   -1    0    0    0    0  0.00000000000E+00  0.00000000000E+00  0.74505805969E-08  0.10566000000E+00  0.10566000000E+00 0. -1.
     999900   -1    0    0    0    0 -0.00000000000E+00 -0.00000000000E+00 -0.74505805969E-08  0.93827000000E+00  0.93827000000E+00 0.  1.
     999902    2    1    2    0    0 -0.13173547290E-01  0.15126472964E-01  0.11535036979E-01  0.10207910802E+01  0.10205287942E+01 0.  0.
     999903    2    3    3    0    0  0.10741521296E+00 -0.38795632281E-01 -0.55389819690E-01  0.12841886021E+00  0.19499806969E-01 0.  0.
         14    1    1    2    0    0  0.13173547290E-01 -0.15126472964E-01 -0.11535036979E-01  0.23138919825E-01  0.00000000000E+00 0. -1.
     999901    1    3    3    0    0 -0.12058876025E+00  0.53922105245E-01  0.66924856669E-01  0.89237221997E+00  0.88000000000E+00 0. -1.
        -11    1    4    4    0    0  0.79993320110E-01 -0.23423695553E-01 -0.47754511792E-01  0.96064328932E-01  0.51100000000E-03 0.  1.
         11    1    4    4    0    0  0.27421892851E-01 -0.15371936728E-01 -0.76353078975E-02  0.32354531274E-01  0.51100000000E-03 0. -1.
</event>
<event>
 8    1  0.1148488E+005  0.1043930E+01  0.7957747E-01            NaN
         13   -1    0    0    0    0  0.00000000000E+00  0.00000000000E+00  0.74505805969E-08  0.10566000000E+00  0.10566000000E+00 0.  1.
     999900   -1    0    0    0    0 -0.00000000000E+00 -0.00000000000E+00 -0.74505805969E-08  0.93827000000E+00  0.93827000000E+00 0. -1.
     999902    2    1    2    0    0  0.15223002519E-01 -0.22381738595E-02 -0.18510728280E-01  0.10198593480E+01  0.10195752514E+01 0.  0.
     999903    2    3    3    0    0 -0.91325920172E-02 -0.12480090191E+00  0.28060615244E-01  0.12981232262E+00  0.20128875292E-01 0.  0.
         14    1    1    2    0    0 -0.15223002519E-01  0.22381738595E-02  0.18510728280E-01  0.24070652035E-01  0.00000000000E+00 0.  1.
     999901    1    3    3    0    0  0.24355594536E-01  0.12256272805E+00 -0.46571343524E-01  0.89004702535E+00  0.88000000000E+00 0. -1.
        -11    1    4    4    0    0  0.23502640571E-02 -0.15137935486E-01  0.94004077201E-02  0.17980812502E-01  0.51100000000E-03 0. -1.
         11    1    4    4    0    0 -0.11482856074E-01 -0.10966296643E+00  0.18660207524E-01  0.11183151012E+00  0.51100000000E-03 0.  1.
</event>
<event>
 8    1  0.1148488E+005  0.1043930E+01  0.7957747E-01            NaN
         13   -1    0    0    0    0  0.00000000000E+00  0.00000000000E+00  0.74505805969E-08  0.10566000000E+00  0.10566000000E+00 0.  1.
     999900   -1    0    0    0    0 -0.00000000000E+00 -0.00000000000E+00 -0.74505805969E-08  0.93827000000E+00  0.93827000000E+00 0.  1.
     999902    2    1    2    0    0 -0.20243327828E-02 -0.50667552421E-03 -0.19844766819E-01  0.10239758171E+01  0.10237813754E+01 0.  0.
     999903    2    3    3    0    0 -0.58462635419E-01 -0.11589973839E+00 -0.29380600243E-01  0.13459863446E+00  0.20073455825E-01 0.  0.
         14    1    1    2    0    0  0.20243327828E-02  0.50667552421E-03  0.19844766819E-01  0.19954182855E-01  0.00000000000E+00 0.  1.
     999901    1    3    3    0    0  0.56438302636E-01  0.11539306287E+00  0.95358334234E-02  0.88937718269E+00  0.88000000000E+00 0. -1.
        -11    1    4    4    0    0 -0.43290144235E-01 -0.87861561009E-01 -0.30816501559E-01  0.10268207429E+00  0.51100000000E-03 0.  1.
         11    1    4    4    0    0 -0.15172491183E-01 -0.28038177381E-01  0.14359013163E-02  0.31916560171E-01  0.51100000000E-03 0. -1.
</event>
<event>
 8    1  0.1148488E+005  0.1043930E+01  0.7957747E-01            NaN
         13   -1    0    0    0    0  0.00000000000E+00  0.00000000000E+00  0.74505805969E-08  0.10566000000E+00  0.10566000000E+00 0.  1.
     999900   -1    0    0    0    0 -0.00000000000E+00 -0.00000000000E+00 -0.74505805969E-08  0.93827000000E+00  0.93827000000E+00 0.  1.
     999902    2    1    2    0    0 -0.68188310690E-02  0.17170849144E-02  0.22094401687E-01  0.10207436371E+01  0.10204802621E+01 0.  0.
     999903    2    3    3    0    0  0.68554801950E-01  0.11655287925E-01 -0.10594134939E+00  0.12823419404E+00  0.19617145656E-01 0.  0.
         14    1    1    2    0    0  0.68188310690E-02 -0.17170849144E-02 -0.22094401687E-01  0.23186362881E-01  0.00000000000E+00 0. -1.
     999901    1    3    3    0    0 -0.75373633019E-01 -0.99382030104E-02  0.12803575107E+00  0.89250944308E+00  0.88000000000E+00 0. -1.
        -11    1    4    4    0    0  0.10429350851E-01  0.76781494581E-02 -0.28626304612E-01  0.31423745401E-01  0.51100000000E-03 0. -1.
         11    1    4    4    0    0  0.58125451099E-01  0.39771384667E-02 -0.77315044776E-01  0.96810448638E-01  0.51100000000E-03 0.  1.
</event>
<event>
 8    1  0.1488726E+005  0.1043930E+01  0.7957747E-01            NaN
         13   -1    0    0    0    0  0.00000000000E+00  0.00000000000E+00  0.74505805969E-08  0.10566000000E+00  0.10566000000E+00 0.  1.
     999900   -1    0    0    0    0 -0.00000000000E+00 -0.00000000000E+00 -0.74505805969E-08  0.93827000000E+00  0.93827000000E+00 0. -1.
     999902    2    1    2    0    0  0.25857094092E-01  0.18127295743E-01 -0.48649244904E-04  0.10123516762E+01  0.10118590444E+01 0.  0.
     999903    2    3    3    0    0  0.34209567347E-02 -0.79519738414E-01 -0.90263663226E-01  0.12208369843E+00  0.20537983841E-01 0.  0.
         14    1    1    2    0    0 -0.25857094092E-01 -0.18127295743E-01  0.48649244904E-04  0.31578323777E-01  0.00000000000E+00 0.  1.
     999901    1    3    3    0    0  0.22436137358E-01  0.97647034157E-01  0.90215013982E-01  0.89026797779E+00  0.88000000000E+00 0.  1.
        -11    1    4    4    0    0  0.10583812323E-02 -0.37332528433E-01 -0.27339887168E-01  0.46287886120E-01  0.51100000000E-03 0. -1.
         11    1    4    4    0    0  0.23625755024E-02 -0.42187209981E-01 -0.62923776059E-01  0.75795812308E-01  0.51100000000E-03 0.  1.
</event>
<event>
 7    1  0.1148488E+005  0.1043930E+01  0.7957747E-01            NaN
         13   -1    0    0    0    0  0.00000000000E+00  0.00000000000E+00  0.74505805969E-08  0.10566000000E+00  0.10566000000E+00 0. -1.
     999900   -1    0    0    0    0 -0.00000000000E+00 -0.00000000000E+00 -0.74505805969E-08  0.93827000000E+00  0.93827000000E+00 0.  1.
     999902    2    1    2    0    0 -0.76597633366E-02  0.22075233909E-01 -0.68068046696E-02  0.10195923642E+01  0.10193018535E+01 0.  0.
         14    1    1    2    0    0  0.76597633366E-02 -0.22075233909E-01  0.68068046696E-02  0.24337635800E-01  0.00000000000E+00 0.  1.
     999901    1    3    3    0    0 -0.35451327675E-01  0.11608170219E+00  0.67817502768E-01  0.89091580517E+00  0.88000000000E+00 0. -1.
        -11    1    3    3    0    0  0.36044799222E-01 -0.72020731896E-01 -0.64118106028E-01  0.10294467454E+00  0.51100000000E-03 0. -1.
         11    1    3    3    0    0 -0.82532348832E-02 -0.21985736389E-01 -0.10506201409E-01  0.25731884495E-01  0.51100000000E-03 0.  1.
</event>
<event>
 8    1  0.1148488E+005  0.1043930E+01  0.7957747E-01            NaN
         13   -1    0    0    0    0  0.00000000000E+00  0.00000000000E+00  0.74505805969E-08  0.10566000000E+00  0.10566000000E+00 0.  1.
     999900   -1    0    0    0    0 -0.00000000000E+00 -0.00000000000E+00 -0.74505805969E-08  0.93827000000E+00  0.93827000000E+00 0.  1.
     999902    2    1    2    0    0 -0.18127313247E-01  0.10754298765E-01 -0.88078827124E-02  0.10210863307E+01  0.10208307703E+01 0.  0.
     999903    2    3    3    0    0  0.52002363274E-01  0.83803300546E-01  0.83328900518E-01  0.13050027930E+00  0.18957274795E-01 0.  0.
         14    1    1    2    0    0  0.18127313247E-01 -0.10754298765E-01  0.88078827124E-02  0.22843669262E-01  0.00000000000E+00 0. -1.
     999901    1    3    3    0    0 -0.70129676521E-01 -0.73049001781E-01 -0.92136783231E-01  0.89058605144E+00  0.88000000000E+00 0.  1.
        -11    1    4    4    0    0  0.15064680875E-01  0.33120152900E-01  0.41085458389E-01  0.54883195516E-01  0.51100000000E-03 0.  1.
         11    1    4    4    0    0  0.36937682398E-01  0.50683147646E-01  0.42243442129E-01  0.75617083785E-01  0.51100000000E-03 0. -1.
</event>
<event>
 8    1  0.1148488E+005  0.1043930E+01  0.7957747E-01            NaN
         13   -1    0    0    0    0  0.00000000000E+00  0.00000000000E+00  0.74505805969E-08  0.10566000000E+00  0.10566000000E+00 0. -1.
     999900   -1    0    0    0    0 -0.00000000000E+00 -0.00000000000E+00 -0.74505805969E-08  0.93827000000E+00  0.93827000000E+00 0. -1.
     999902    2    1    2    0    0  0.22169398023E-01 -0.44541365408E-02  0.44404936485E-02  0.10208857052E+01  0.10206255844E+01 0.  0.
     999903    2    3    3    0    0 -0.47636545640E-01  0.11455496676E+00 -0.30238717771E-01  0.12946061905E+00  0.21297674569E-01 0.  0.
         14    1    1    2    0    0 -0.22169398023E-01  0.44541365408E-02 -0.44404936485E-02  0.23044294844E-01  0.00000000000E+00 0.  1.
     999901    1    3    3    0    0  0.69805943663E-01 -0.11900910330E+00  0.34679211420E-01  0.89142508611E+00  0.88000000000E+00 0.  1.
        -11    1    4    4    0    0 -0.58702785646E-02  0.38705552233E-01 -0.66195325272E-02  0.39707169075E-01  0.51100000000E-03 0. -1.
         11    1    4    4    0    0 -0.41766267076E-01  0.75849414526E-01 -0.23619185244E-01  0.89753449973E-01  0.51100000000E-03 0.  1.
</event>
<event>
 8    1  0.1148488E+005  0.1043930E+01  0.7957747E-01            NaN
         13   -1    0    0    0    0  0.00000000000E+00  0.00000000000E+00  0.74505805969E-08  0.10566000000E+00  0.10566000000E+00 0. -1.
     999900   -1    0    0    0    0 -0.00000000000E+00 -0.00000000000E+00 -0.74505805969E-08  0.93827000000E+00  0.93827000000E+00 0. -1.
     999902    2    1    2    0    0 -0.12474122683E-01 -0.77567567554E-02  0.19157868366E-01  0.10197888540E+01  0.10195030710E+01 0.  0.
     999903    2    3    3    0    0 -0.85581800639E-01  0.90818758760E-01 -0.29990245557E-01  0.12991391783E+00  0.20147448340E-01 0.  0.
         14    1    1    2    0    0  0.12474122683E-01  0.77567567554E-02 -0.19157868366E-01  0.24141146046E-01  0.00000000000E+00 0.  1.
     999901    1    3    3    0    0  0.73107677957E-01 -0.98575515515E-01  0.49148113923E-01  0.88987493612E+00  0.88000000000E+00 0. -1.
        -11    1    4    4    0    0 -0.54961029124E-01  0.58488020315E-01 -0.29096043727E-01  0.85372150754E-01  0.51100000000E-03 0.  1.
         11    1    4    4    0    0 -0.30620771515E-01  0.32330738445E-01 -0.89420183012E-03  0.44541767078E-01  0.51100000000E-03 0. -1.
</event>
<event>
 8    1  0.1148488E+005  0.1043930E+01  0.7957747E-01            NaN
         13   -1    0    0    0    0  0.00000000000E+00  0.00000000000E+00  0.74505805969E-08  0.10566000000E+00  0.10566000000E+00 0.  1.
     999900   -1    0    0    0    0 -0.00000000000E+00 -0.00000000000E+00 -0.74505805969E-08  0.93827000000E+00  0.93827000000E+00 0. -1.
     999902    2    1    2    0    0 -0.84338086076E-02  0.52626644253E-02  0.22003444595E-01  0.10197850970E+01  0.10194992240E+01 0.  0.
     999903    2    3    3    0    0 -0.35681974485E-01 -0.60937812428E-01  0.11031864266E+00  0.13247199566E+00  0.19799152282E-01 0.  0.
         14    1    1    2    0    0  0.84338086076E-02 -0.52626644253E-02 -0.22003444595E-01  0.24144902952E-01  0.00000000000E+00 0. -1.
     999901    1    3    3    0    0  0.27248165877E-01  0.66200476853E-01 -0.88315198061E-01  0.88731310138E+00  0.88000000000E+00 0. -1.
        -11    1    4    4    0    0 -0.12300375983E-01 -0.37006334676E-01  0.69459891890E-01  0.79659938224E-01  0.51100000000E-03 0.  1.
         11    1    4    4    0    0 -0.23381598502E-01 -0.23931477752E-01  0.40858750766E-01  0.52812057440E-01  0.51100000000E-03 0. -1.
</event>
<event>
 8    1  0.1148488E+005  0.1043930E+01  0.7957747E-01            NaN
         13   -1    0    0    0    0  0.00000000000E+00  0.00000000000E+00  0.74505805969E-08  0.10566000000E+00  0.10566000000E+00 0. -1.
     999900   -1    0    0    0    0 -0.00000000000E+00 -0.00000000000E+00 -0.74505805969E-08  0.93827000000E+00  0.93827000000E+00 0.  1.
     999902    2    1    2    0    0 -0.20225906038E-01 -0.11574016971E-01 -0.48471065193E-02  0.10201279080E+01  0.10198501895E+01 0.  0.
     999903    2    3    3    0    0 -0.27891803028E-01  0.10879889502E+00 -0.62163032758E-01  0.13005290027E+00  0.20841352954E-01 0.  0.
         14    1    1    2    0    0  0.20225906038E-01  0.11574016971E-01  0.48471065193E-02  0.23802092041E-01  0.00000000000E+00 0.  1.
     999901    1    3    3    0    0  0.76658969894E-02 -0.12037291199E+00  0.57315926239E-01  0.89007500769E+00  0.88000000000E+00 0. -1.
        -11    1    4    4    0    0 -0.21168690542E-01  0.92329494045E-01 -0.43408812876E-01  0.10419901672E+00  0.51100000000E-03 0.  1.
         11    1    4    4    0    0 -0.67231124860E-02  0.16469400973E-01 -0.18754219882E-01  0.25853883543E-01  0.51100000000E-03 0. -1.
</event>
<event>
 8    1  0.1148488E+005  0.1043930E+01  0.7957747E-01            NaN
         13   -1    0    0    0    0  0.00000000000E+00  0.00000000000E+00  0.74505805969E-08  0.10566000000E+00  0.10566000000E+00 0. -1.
     999900   -1    0    0    0    0 -0.00000000000E+00 -0.00000000000E+00 -0.74505805969E-08  0.93827000000E+00  0.93827000000E+00 0.  1.
     999902    2    1    2    0    0  0.21046637083E-04  0.20730419024E-01 -0.10791357276E-01  0.10205589900E+01  0.10202913545E+01 0.  0.
     999903    2    3    3    0    0  0.62535754967E-01  0.10419291301E+00 -0.53178306555E-01  0.13338892169E+00  0.14063725337E-01 0.  0.
         14    1    1    2    0    0 -0.21046637083E-04 -0.20730419024E-01  0.10791357276E-01  0.23371009985E-01  0.00000000000E+00 0.  1.
     999901    1    3    3    0    0 -0.62514708330E-01 -0.83462493989E-01  0.42386949280E-01  0.88717006832E+00  0.88000000000E+00 0. -1.
        -11    1    4    4    0    0  0.30338904595E-01  0.56945925482E-01 -0.21441674512E-01  0.67994809272E-01  0.51100000000E-03 0.  1.
         11    1    4    4    0    0  0.32196850372E-01  0.47246987531E-01 -0.31736632044E-01  0.65394112419E-01  0.51100000000E-03 0. -1.
</event>
<event>
 8    1  0.1356134E+005  0.1043930E+01  0.7957747E-01            NaN
         13   -1    0    0    0    0  0.00000000000E+00  0.00000000000E+00  0.74505805969E-08  0.10566000000E+00  0.10566000000E+00 0.  1.
     999900   -1    0    0    0    0 -0.00000000000E+00 -0.00000000000E+00 -0.74505805969E-08  0.93827000000E+00  0.93827000000E+00 0.  1.
     999902    2    1    2    0    0  0.54036983894E-02  0.23104018098E-01  0.44814925551E-02  0.10197829632E+01  0.10194970391E+01 0.  0.
     999903    2    3    3    0    0  0.16722045362E-01 -0.10208891816E+00  0.72845278249E-01  0.12822534679E+00  0.20821406833E-01 0.  0.
         14    1    1    2    0    0 -0.54036983894E-02 -0.23104018098E-01 -0.44814925551E-02  0.24147036756E-01  0.00000000000E+00 0.  1.
     999901    1    3    3    0    0 -0.11318346972E-01  0.12519293626E+00 -0.68363785694E-01  0.89155761646E+00  0.88000000000E+00 0. -1.
        -11    1    4    4    0    0  0.47849811151E-02 -0.57944302437E-01  0.51845088000E-01  0.77901299732E-01  0.51100000000E-03 0.  1.
         11    1    4    4    0    0  0.11937064247E-01 -0.44144615727E-01  0.21000190249E-01  0.50324047055E-01  0.51100000000E-03 0. -1.
</event>
<event>
 8    1  0.1148488E+005  0.1043930E+01  0.7957747E-01            NaN
         13   -1    0    0    0    0  0.00000000000E+00  0.00000000000E+00  0.74505805969E-08  0.10566000000E+00  0.10566000000E+00 0. -1.
     999900   -1    0    0    0    0 -0.00000000000E+00 -0.00000000000E+00 -0.74505805969E-08  0.93827000000E+00  0.93827000000E+00 0. -1.
     999902    2    1    2    0    0  0.22445465471E-01 -0.64632483124E-02  0.44903955972E-02  0.10201447913E+01  0.10198674714E+01 0.  0.
     999903    2    3    3    0    0  0.54160531210E-01 -0.11820029407E+00  0.15176092025E-01  0.13244822329E+00  0.20187754326E-01 0.  0.
         14    1    1    2    0    0 -0.22445465471E-01  0.64632483124E-02 -0.44903955972E-02  0.23785208672E-01  0.00000000000E+00 0. -1.
     999901    1    3    3    0    0 -0.31715065738E-01  0.11173704576E+00 -0.10685696428E-01  0.88769656803E+00  0.88000000000E+00 0.  1.
        -11    1    4    4    0    0  0.43848737375E-01 -0.73585554703E-01  0.71775981620E-02  0.85961181161E-01  0.51100000000E-03 0.  1.
         11    1    4    4    0    0  0.10311793835E-01 -0.44614739371E-01  0.79984938633E-02  0.46487042133E-01  0.51100000000E-03 0. -1.
</event>
<event>
 8    1  0.1148488E+005  0.1043930E+01  0.7957747E-01            NaN
         13   -1    0    0    0    0  0.00000000000E+00  0.00000000000E+00  0.74505805969E-08  0.10566000000E+00  0.10566000000E+00 0.  1.
     999900   -1    0    0    0    0 -0.00000000000E+00 -0.00000000000E+00 -0.74505805969E-08  0.93827000000E+00  0.93827000000E+00 0.  1.
     999902    2    1    2    0    0  0.13032815674E-01  0.16798903907E-01  0.11504497232E-01  0.10197554077E+01  0.10194688228E+01 0.  0.
     999903    2    3    3    0    0  0.94085809379E-01  0.36443691540E-01  0.83672779818E-01  0.13287110493E+00  0.21755786883E-01 0.  0.
         14    1    1    2    0    0 -0.13032815674E-01 -0.16798903907E-01 -0.11504497232E-01  0.24174592312E-01  0.00000000000E+00 0. -1.
     999901    1    3    3    0    0 -0.81052993705E-01 -0.19644787633E-01 -0.72168282586E-01  0.88688430276E+00  0.88000000000E+00 0.  1.
        -11    1    4    4    0    0  0.62432454526E-01  0.28895955297E-01  0.44463394767E-01  0.81914847286E-01  0.51100000000E-03 0. -1.
         11    1    4    4    0    0  0.31653354853E-01  0.75477362425E-02  0.39209385052E-01  0.50956257643E-01  0.51100000000E-03 0.  1.
</event>
<event>
 8    1  0.1197406E+005  0.1043930E+01  0.7957747E-01            NaN
         13   -1    0    0    0    0  0.00000000000E+00  0.00000000000E+00  0.74505805969E-08  0.10566000000E+00  0.10566000000E+00 0.  1.
     999900   -1    0    0    0    0 -0.00000000000E+00 -0.00000000000E+00 -0.74505805969E-08  0.93827000000E+00  0.93827000000E+00 0.  1.
     999902    2    1    2    0    0  0.16366066572E-01 -0.16243584114E-01  0.15056066715E-02  0.10208222305E+01  0.10205606583E+01 0.  0.
     999903    2    3    3    0    0  0.11367557859E+00  0.63648284413E-01  0.34669954147E-02  0.13185895857E+00  0.20038054361E-01 0.  0.
         14    1    1    2    0    0 -0.16366066572E-01  0.16243584114E-01 -0.15056066715E-02  0.23107769502E-01  0.00000000000E+00 0. -1.
     999901    1    3    3    0    0 -0.97309512016E-01 -0.79891868527E-01 -0.19613887432E-02  0.88896327192E+00  0.88000000000E+00 0.  1.
        -11    1    4    4    0    0  0.54555736543E-01  0.19284302901E-01  0.29493985752E-02  0.57941114945E-01  0.51100000000E-03 0. -1.
         11    1    4    4    0    0  0.59119842046E-01  0.44363981512E-01  0.51759683945E-03  0.73917843628E-01  0.51100000000E-03 0.  1.
</event>
<event>
 8    1  0.1148488E+005  0.1043930E+01  0.7957747E-01            NaN
         13   -1    0    0    0    0  0.00000000000E+00  0.00000000000E+00  0.74505805969E-08  0.10566000000E+00  0.10566000000E+00 0.  1.
     999900   -1    0    0    0    0 -0.00000000000E+00 -0.00000000000E+00 -0.74505805969E-08  0.93827000000E+00  0.93827000000E+00 0.  1.
     999902    2    1    2    0    0 -0.42565420378E-02 -0.10724260515E-01 -0.20461943353E-01  0.10204391712E+01  0.10201687522E+01 0.  0.
     999903    2    3    3    0    0 -0.94016246673E-01  0.32231320699E-01 -0.85219221614E-01  0.13246648486E+00  0.20177740356E-01 0.  0.
         14    1    1    2    0    0  0.42565420378E-02  0.10724260515E-01  0.20461943353E-01  0.23490828838E-01  0.00000000000E+00 0.  1.
     999901    1    3    3    0    0  0.89759704635E-01 -0.42955581214E-01  0.64757278261E-01  0.88797268630E+00  0.88000000000E+00 0. -1.
        -11    1    4    4    0    0 -0.18617695727E-01 -0.14387433758E-02 -0.18680714784E-01  0.26418152897E-01  0.51100000000E-03 0. -1.
         11    1    4    4    0    0 -0.75398550946E-01  0.33670064075E-01 -0.66538506830E-01  0.10604833196E+00  0.51100000000E-03 0.  1.
</event>
<event>
 8    1  0.1148488E+005  0.1043930E+01  0.7957747E-01            NaN
         13   -1    0    0    0    0  0.00000000000E+00  0.00000000000E+00  0.74505805969E-08  0.10566000000E+00  0.10566000000E+00 0. -1.
     999900   -1    0    0    0    0 -0.00000000000E+00 -0.00000000000E+00 -0.74505805969E-08  0.93827000000E+00  0.93827000000E+00 0. -1.
     999902    2    1    2    0    0 -0.36440612074E-02 -0.23254046974E-01  0.79875258954E-03  0.10203786118E+01  0.10201067804E+01 0.  0.
     999903    2    3    3    0    0  0.11867857347E+00 -0.51951933609E-01  0.10567400723E-01  0.13140064682E+00  0.19257539281E-01 0.  0.
         14    1    1    2    0    0  0.36440612074E-02  0.23254046974E-01 -0.79875258954E-03  0.23551388249E-01  0.00000000000E+00 0.  1.
     999901    1    3    3    0    0 -0.12232263468E+00  0.28697886635E-01 -0.97686481333E-02  0.88897796493E+00  0.88000000000E+00 0. -1.
        -11    1    4    4    0    0  0.93270993816E-01 -0.37008645040E-01  0.81764712725E-03  0.10034962762E+00  0.51100000000E-03 0. -1.
         11    1    4    4    0    0  0.25407579655E-01 -0.14943288569E-01  0.97497535956E-02  0.31051019200E-01  0.51100000000E-03 0.  1.
</event>
<event>
 8    1  0.1148488E+005  0.1043930E+01  0.7957747E-01            NaN
         13   -1    0    0    0    0  0.00000000000E+00  0.00000000000E+00  0.74505805969E-08  0.10566000000E+00  0.10566000000E+00 0.  1.
     999900   -1    0    0    0    0 -0.00000000000E+00 -0.00000000000E+00 -0.74505805969E-08  0.93827000000E+00  0.93827000000E+00 0. -1.
     999902    2    1    2    0    0 -0.18262451509E-01  0.12914996468E-01 -0.52926257013E-02  0.10209446535E+01  0.10206858769E+01 0.  0.
     999903    2    3    3    0    0 -0.77576268596E-01  0.25686393843E-01 -0.10360206095E+00  0.13339410135E+00  0.19563511049E-01 0.  0.
         14    1    1    2    0    0  0.18262451509E-01 -0.12914996468E-01  0.52926257013E-02  0.22985346543E-01  0.00000000000E+00 0.  1.
     999901    1    3    3    0    0  0.59313817087E-01 -0.12771397375E-01  0.98309435245E-01  0.88755055211E+00  0.88000000000E+00 0.  1.
        -11    1    4    4    0    0 -0.42371602762E-01  0.75647774822E-02 -0.41843237528E-01  0.60030793988E-01  0.51100000000E-03 0. -1.
         11    1    4    4    0    0 -0.35204665834E-01  0.18121616360E-01 -0.61758823419E-01  0.73363307362E-01  0.51100000000E-03 0.  1.
</event>
<event>
 8    1  0.1148488E+005  0.1043930E+01  0.7957747E-01            NaN
         13   -1    0    0    0    0  0.00000000000E+00  0.00000000000E+00  0.74505805969E-08  0.10566000000E+00  0.10566000000E+00 0.  1.
     999900   -1    0    0    0    0 -0.00000000000E+00 -0.00000000000E+00 -0.74505805969E-08  0.93827000000E+00  0.93827000000E+00 0. -1.
     999902    2    1    2    0    0  0.11666457825E-01 -0.12376989266E-01  0.16139188214E-01  0.10204828360E+01  0.10202134331E+01 0.  0.
     999903    2    3    3    0    0 -0.39262450683E-01 -0.96355069751E-01  0.78629136584E-01  0.13281675841E+00  0.25137833946E-01 0.  0.
         14    1    1    2    0    0 -0.11666457825E-01  0.12376989266E-01 -0.16139188214E-01  0.23447163958E-01  0.00000000000E+00 0. -1.
     999901    1    3    3    0    0  0.50928908508E-01  0.83978080485E-01 -0.62489948370E-01  0.88766607763E+00  0.88000000000E+00 0. -1.
        -11    1    4    4    0    0 -0.17984195445E-01 -0.18628494544E-01  0.13528057361E-01  0.29218513852E-01  0.51100000000E-03 0.  1.
         11    1    4    4    0    0 -0.21278255238E-01 -0.77726575207E-01  0.65101079223E-01  0.10359824456E+00  0.51100000000E-03 0. -1.
</event>
<event>
 8    1  0.1198690E+005  0.1043930E+01  0.7957747E-01            NaN
         13   -1    0    0    0    0  0.00000000000E+00  0.00000000000E+00  0.74505805969E-08  0.10566000000E+00  0.10566000000E+00 0. -1.
     999900   -1    0    0    0    0 -0.00000000000E+00 -0.00000000000E+00 -0.74505805969E-08  0.93827000000E+00  0.93827000000E+00 0.  1.
     999902    2    1    2    0    0 -0.94971309086E-02 -0.21789869183E-02 -0.18871253264E-01  0.10226916460E+01  0.10224710926E+01 0.  0.
     999903    2    3    3    0    0 -0.42531371704E-01  0.11995405919E+00  0.30418795368E-01  0.13227755646E+00  0.19343084990E-01 0.  0.
         14    1    1    2    0    0  0.94971309086E-02  0.21789869183E-02  0.18871253264E-01  0.21238353967E-01  0.00000000000E+00 0. -1.
     999901    1    3    3    0    0  0.33034240795E-01 -0.12213304611E+00 -0.49290048632E-01  0.89041408957E+00  0.88000000000E+00 0.  1.
        -11    1    4    4    0    0 -0.30585504793E-01  0.76457293636E-01  0.28445994627E-01  0.87124202062E-01  0.51100000000E-03 0. -1.
         11    1    4    4    0    0 -0.11945866911E-01  0.43496765551E-01  0.19728007416E-02  0.45153354398E-01  0.51100000000E-03 0.  1.
</event>
<event>
 8    1  0.1148488E+005  0.1043930E+01  0.7957747E-01            NaN
         13   -1    0    0    0    0  0.00000000000E+00  0.00000000000E+00  0.74505805969E-08  0.10566000000E+00  0.10566000000E+00 0. -1.
     999900   -1    0    0    0    0 -0.00000000000E+00 -0.00000000000E+00 -0.74505805969E-08  0.93827000000E+00  0.93827000000E+00 0.  1.
     999902    2    1    2    0    0  0.22385142581E-01 -0.59982441280E-02 -0.80104619920E-02  0.10194097830E+01  0.10191148437E+01 0.  0.
     999903    2    3    3    0    0 -0.56857999143E-01 -0.11361737954E+00  0.11882200412E-01  0.12909687629E+00  0.19572321797E-01 0.  0.
         14    1    1    2    0    0 -0.22385142581E-01  0.59982441280E-02  0.80104619920E-02  0.24520217012E-01  0.00000000000E+00 0. -1.
     999901    1    3    3    0    0  0.79243141724E-01  0.10761913541E+00 -0.19892662404E-01  0.89031290670E+00  0.88000000000E+00 0. -1.
        -11    1    4    4    0    0 -0.45700768920E-01 -0.72718651450E-01  0.40554380916E-02  0.85984127883E-01  0.51100000000E-03 0.  1.
         11    1    4    4    0    0 -0.11157230223E-01 -0.40898728091E-01  0.78267623200E-02  0.43112748406E-01  0.51100000000E-03 0. -1.
</event>
<event>
 8    1  0.1148488E+005  0.1043930E+01  0.7957747E-01            NaN
         13   -1    0    0    0    0  0.00000000000E+00  0.00000000000E+00  0.74505805969E-08  0.10566000000E+00  0.10566000000E+00 0. -1.
     999900   -1    0    0    0    0 -0.00000000000E+00 -0.00000000000E+00 -0.74505805969E-08  0.93827000000E+00  0.93827000000E+00 0. -1.
     999902    2    1    2    0    0  0.11279032419E-01  0.19573428477E-01 -0.40276754423E-02  0.10209831518E+01  0.10207252512E+01 0.  0.
     999903    2    3    3    0    0 -0.10554106405E+00 -0.69641921586E-01 -0.13587841111E-01  0.12874007367E+00  0.20011589149E-01 0.  0.
         14    1    1    2    0    0 -0.11279032419E-01 -0.19573428477E-01  0.40276754423E-02  0.22946848239E-01  0.00000000000E+00 0. -1.
     999901    1    3    3    0    0  0.11682009647E+00  0.89215350062E-01  0.95601656686E-02  0.89224307809E+00  0.88000000000E+00 0.  1.
        -11    1    4    4    0    0 -0.39583862794E-01 -0.15554198458E-01 -0.78122026671E-02  0.43244732799E-01  0.51100000000E-03 0. -1.
         11    1    4    4    0    0 -0.65957201258E-01 -0.54087723128E-01 -0.57756384438E-02  0.85495340875E-01  0.51100000000E-03 0.  1.
</event>
<event>
 8    1  0.1148488E+005  0.1043930E+01  0.7957747E-01            NaN
         13   -1    0    0    0    0  0.00000000000E+00  0.00000000000E+00  0.74505805969E-08  0.10566000000E+00  0.10566000000E+00 0. -1.
     999900   -1    0    0    0    0 -0.00000000000E+00 -0.00000000000E+00 -0.74505805969E-08  0.93827000000E+00  0.93827000000E+00 0.  1.
     999902    2    1    2    0    0  0.13046328643E-02  0.21763459035E-01  0.81009286288E-02  0.10206711251E+01  0.10204060811E+01 0.  0.
     999903    2    3    3    0    0  0.26467877498E-01 -0.23710226136E-01 -0.12277956029E+00  0.12947488001E+00  0.20644630405E-01 0.  0.
         14    1    1    2    0    0 -0.13046328643E-02 -0.21763459035E-01 -0.81009286288E-02  0.23258874881E-01  0.00000000000E+00 0.  1.
     999901    1    3    3    0    0 -0.25163244633E-01  0.45473685171E-01  0.13088048892E+00  0.89119624511E+00  0.88000000000E+00 0. -1.
        -11    1    4    4    0    0  0.16150951484E-01 -0.17693676439E-02 -0.38895749083E-01  0.42155952289E-01  0.51100000000E-03 0. -1.
         11    1    4    4    0    0  0.10316926014E-01 -0.21940858492E-01 -0.83883811209E-01  0.87318927717E-01  0.51100000000E-03 0.  1.
</event>
<event>
 8    1  0.1148488E+005  0.1043930E+01  0.7957747E-01            NaN
         13   -1    0    0    0    0  0.00000000000E+00  0.00000000000E+00  0.74505805969E-08  0.10566000000E+00  0.10566000000E+00 0.  1.
     999900   -1    0    0    0    0 -0.00000000000E+00 -0.00000000000E+00 -0.74505805969E-08  0.93827000000E+00  0.93827000000E+00 0.  1.
     999902    2    1    2    0    0  0.65912971326E-02  0.18736730330E-01 -0.12034535059E-01  0.10207062988E+01  0.10204420651E+01 0.  0.
     999903    2    3    3    0    0 -0.10020137028E+00  0.65385378031E-01 -0.52670779420E-01  0.13209385548E+00  0.18947648487E-01 0.  0.
         14    1    1    2    0    0 -0.65912971326E-02 -0.18736730330E-01  0.12034535059E-01  0.23223701157E-01  0.00000000000E+00 0.  1.
     999901    1    3    3    0    0  0.10679266742E+00 -0.46648647700E-01  0.40636244361E-01  0.88861244336E+00  0.88000000000E+00 0. -1.
        -11    1    4    4    0    0 -0.25586762951E-01  0.25777638401E-01 -0.11374419935E-01  0.38063205720E-01  0.51100000000E-03 0. -1.
         11    1    4    4    0    0 -0.74614607334E-01  0.39607739629E-01 -0.41296359485E-01  0.94030649758E-01  0.51100000000E-03 0.  1.
</event>
<event>
 8    1  0.1148488E+005  0.1043930E+01  0.7957747E-01            NaN
         13   -1    0    0    0    0  0.00000000000E+00  0.00000000000E+00  0.74505805969E-08  0.10566000000E+00  0.10566000000E+00 0.  1.
     999900   -1    0    0    0    0 -0.00000000000E+00 -0.00000000000E+00 -0.74505805969E-08  0.93827000000E+00  0.93827000000E+00 0.  1.
     999902    2    1    2    0    0 -0.13740323664E-01 -0.27009435007E-01 -0.39909225548E-03  0.10136238068E+01  0.10131706452E+01 0.  0.
     999903    2    3    3    0    0 -0.12371715537E+00 -0.17263859281E-01  0.49782146088E-02  0.12670848094E+00  0.20646577223E-01 0.  0.
         14    1    1    2    0    0  0.13740323664E-01  0.27009435007E-01  0.39909225548E-03  0.30306193235E-01  0.00000000000E+00 0. -1.
     999901    1    3    3    0    0  0.10997683170E+00 -0.97455757259E-02 -0.53773068643E-02  0.88691532583E+00  0.88000000000E+00 0. -1.
        -11    1    4    4    0    0 -0.10160702731E+00 -0.63787862740E-02  0.64703479895E-02  0.10201374141E+00  0.51100000000E-03 0.  1.
         11    1    4    4    0    0 -0.22110128059E-01 -0.10885073007E-01 -0.14921333807E-02  0.24694739525E-01  0.51100000000E-03 0. -1.
</event>
<event>
 8    1  0.1148488E+005  0.1043930E+01  0.7957747E-01            NaN
         13   -1    0    0    0    0  0.00000000000E+00  0.00000000000E+00  0.74505805969E-08  0.10566000000E+00  0.10566000000E+00 0. -1.
     999900   -1    0    0    0    0 -0.00000000000E+00 -0.00000000000E+00 -0.74505805969E-08  0.93827000000E+00  0.93827000000E+00 0. -1.
     999902    2    1    2    0    0  0.17893122911E-01 -0.41090687234E-02  0.15259994280E-01  0.10200570924E+01  0.10197776993E+01 0.  0.
     999903    2    3    3    0    0  0.29283617947E-02  0.15096657456E-01  0.12986202642E+00  0.13229224188E+00  0.20015168944E-01 0.  0.
         14    1    1    2    0    0 -0.17893122911E-01  0.41090687234E-02 -0.15259994280E-01  0.23872907630E-01  0.00000000000E+00 0.  1.
     999901    1    3    3    0    0  0.14964761117E-01 -0.19205726179E-01 -0.11460203214E+00  0.88776485049E+00  0.88000000000E+00 0. -1.
        -11    1    4    4    0    0 -0.54485600157E-02  0.15321559176E-01  0.98069683645E-01  0.99410064647E-01  0.51100000000E-03 0.  1.
         11    1    4    4    0    0  0.83769218104E-02 -0.22490171949E-03  0.31792342771E-01  0.32882177234E-01  0.51100000000E-03 0. -1.
</event>
<event>
 8    1  0.1148488E+005  0.1043930E+01  0.7957747E-01            NaN
         13   -1    0    0    0    0  0.00000000000E+00  0.00000000000E+00  0.74505805969E-08  0.10566000000E+00  0.10566000000E+00 0. -1.
     999900   -1    0    0    0    0 -0.00000000000E+00 -0.00000000000E+00 -0.74505805969E-08  0.93827000000E+00  0.93827000000E+00 0.  1.
     999902    2    1    2    0    0  0.15959568951E-01 -0.38092642781E-02  0.16038699374E-01  0.10209853228E+01  0.10207274715E+01 0.  0.
     999903    2    3    3    0    0 -0.88446058115E-01 -0.47159026688E-01 -0.78302982466E-01  0.12875211907E+00  0.19976789195E-01 0.  0.
         14    1    1    2    0    0 -0.15959568951E-01  0.38092642781E-02 -0.16038699374E-01  0.22944677227E-01  0.00000000000E+00 0.  1.
     999901    1    3    3    0    0  0.10440562707E+00  0.43349762410E-01  0.94341681841E-01  0.89223320371E+00  0.88000000000E+00 0. -1.
        -11    1    4    4    0    0 -0.49255070413E-01 -0.18139781254E-01 -0.31837172075E-01  0.61392021241E-01  0.51100000000E-03 0. -1.
         11    1    4    4    0    0 -0.39190987702E-01 -0.29019245434E-01 -0.46465810392E-01  0.67360097825E-01  0.51100000000E-03 0.  1.
</event>
<event>
 8    1  0.1148488E+005  0.1043930E+01  0.7957747E-01            NaN
         13   -1    0    0    0    0  0.00000000000E+00  0.00000000000E+00  0.74505805969E-08  0.10566000000E+00  0.10566000000E+00 0. -1.
     999900   -1    0    0    0    0 -0.00000000000E+00 -0.00000000000E+00 -0.74505805969E-08  0.93827000000E+00  0.93827000000E+00 0. -1.
     999902    2    1    2    0    0  0.56078507007E-02  0.32951224037E-02  0.23023035251E-01  0.10200058287E+01  0.10197252201E+01 0.  0.
     999903    2    3    3    0    0  0.22329067518E-01  0.10448581633E+00 -0.69886078578E-01  0.12919088771E+00  0.19757237111E-01 0.  0.
         14    1    1    2    0    0 -0.56078507007E-02 -0.32951224037E-02 -0.23023035251E-01  0.23924171319E-01  0.00000000000E+00 0.  1.
     999901    1    3    3    0    0 -0.16721216817E-01 -0.10119069392E+00  0.92909113829E-01  0.89081494097E+00  0.88000000000E+00 0.  1.
        -11    1    4    4    0    0  0.82140766642E-02  0.76538254260E-01 -0.44791950633E-01  0.89062648642E-01  0.51100000000E-03 0.  1.
         11    1    4    4    0    0  0.14114990853E-01  0.27947562066E-01 -0.25094127944E-01  0.40128239066E-01  0.51100000000E-03 0. -1.
</event>
<event>
 8    1  0.1148488E+005  0.1043930E+01  0.7957747E-01            NaN
         13   -1    0    0    0    0  0.00000000000E+00  0.00000000000E+00  0.74505805969E-08  0.10566000000E+00  0.10566000000E+00 0. -1.
     999900   -1    0    0    0    0 -0.00000000000E+00 -0.00000000000E+00 -0.74505805969E-08  0.93827000000E+00  0.93827000000E+00 0. -1.
     999902    2    1    2    0    0 -0.71515618186E-02 -0.15093710457E-01 -0.18832271240E-01  0.10187582028E+01  0.10184471790E+01 0.  0.
     999903    2    3    3    0    0  0.64198361356E-01  0.18741485688E-01 -0.11019041213E+00  0.13051164815E+00  0.20461927801E-01 0.  0.
         14    1    1    2    0    0  0.71515618186E-02  0.15093710457E-01  0.18832271240E-01  0.25171797152E-01  0.00000000000E+00 0. -1.
     999901    1    3    3    0    0 -0.71349923175E-01 -0.33835196145E-01  0.91358140891E-01  0.88824655470E+00  0.88000000000E+00 0. -1.
        -11    1    4    4    0    0  0.21954645650E-01  0.14916175931E-01 -0.53320297835E-01  0.59563529549E-01  0.51100000000E-03 0.  1.
         11    1    4    4    0    0  0.42243715706E-01  0.38253097573E-02 -0.56870114296E-01  0.70948118597E-01  0.51100000000E-03 0. -1.
</event>
<event>
 8    1  0.1148488E+005  0.1043930E+01  0.7957747E-01            NaN
         13   -1    0    0    0    0  0.00000000000E+00  0.00000000000E+00  0.74505805969E-08  0.10566000000E+00  0.10566000000E+00 0. -1.
     999900   -1    0    0    0    0 -0.00000000000E+00 -0.00000000000E+00 -0.74505805969E-08  0.93827000000E+00  0.93827000000E+00 0. -1.
     999902    2    1    2    0    0 -0.23220346139E-01  0.11279943123E-02 -0.45388595938E-02  0.10202433351E+01  0.10199683352E+01 0.  0.
     999903    2    3    3    0    0  0.39977441996E-01 -0.11754637109E+00 -0.31522131472E-01  0.12962239310E+00  0.19823591889E-01 0.  0.
         14    1    1    2    0    0  0.23220346139E-01 -0.11279943123E-02  0.45388595938E-02  0.23686664864E-01  0.00000000000E+00 0. -1.
     999901    1    3    3    0    0 -0.63197788135E-01  0.11867436540E+00  0.26983271878E-01  0.89062094203E+00  0.88000000000E+00 0.  1.
        -11    1    4    4    0    0  0.23675445402E-01 -0.52949569265E-01 -0.61431152994E-02  0.58328231474E-01  0.51100000000E-03 0.  1.
         11    1    4    4    0    0  0.16301996593E-01 -0.64596801827E-01 -0.25379016173E-01  0.71294161627E-01  0.51100000000E-03 0. -1.
</event>
<event>
 8    1  0.1148488E+005  0.1043930E+01  0.7957747E-01            NaN
         13   -1    0    0    0    0  0.00000000000E+00  0.00000000000E+00  0.74505805969E-08  0.10566000000E+00  0.10566000000E+00 0.  1.
     999900   -1    0    0    0    0 -0.00000000000E+00 -0.00000000000E+00 -0.74505805969E-08  0.93827000000E+00  0.93827000000E+00 0. -1.
     999902    2    1    2    0    0 -0.17336257567E-01  0.18430151328E-01 -0.27499865158E-02  0.10184785024E+01  0.10181604398E+01 0.  0.
     999903    2    3    3    0    0 -0.52468833630E-01  0.74233799973E-01 -0.93268487494E-01  0.13138101952E+00  0.17272115400E-01 0.  0.
         14    1    1    2    0    0  0.17336257567E-01 -0.18430151328E-01  0.27499865158E-02  0.25451497603E-01  0.00000000000E+00 0. -1.
     999901    1    3    3    0    0  0.35132576063E-01 -0.55803648645E-01  0.90518500978E-01  0.88709748287E+00  0.88000000000E+00 0.  1.
        -11    1    4    4    0    0 -0.49670659980E-02  0.18782729970E-01 -0.17445258600E-01  0.26116294883E-01  0.51100000000E-03 0.  1.
         11    1    4    4    0    0 -0.47501767632E-01  0.55451070002E-01 -0.75823228894E-01  0.10526472464E+00  0.51100000000E-03 0. -1.
</event>
<event>
 8    1  0.1148488E+005  0.1043930E+01  0.7957747E-01            NaN
         13   -1    0    0    0    0  0.00000000000E+00  0.00000000000E+00  0.74505805969E-08  0.10566000000E+00  0.10566000000E+00 0. -1.
     999900   -1    0    0    0    0 -0.00000000000E+00 -0.00000000000E+00 -0.74505805969E-08  0.93827000000E+00  0.93827000000E+00 0. -1.
     999902    2    1    2    0    0  0.55324592156E-02  0.92223742332E-02  0.41323118421E-02  0.10324088762E+01  0.10323445895E+01 0.  0.
     999903    2    3    3    0    0 -0.10347587224E+00  0.45257535794E-01  0.83122524272E-01  0.14144265755E+00  0.18470805385E-01 0.  0.
         14    1    1    2    0    0 -0.55324592156E-02 -0.92223742332E-02 -0.41323118421E-02  0.11521123757E-01  0.00000000000E+00 0.  1.
     999901    1    3    3    0    0  0.10900833145E+00 -0.36035161561E-01 -0.78990212430E-01  0.89096621869E+00  0.88000000000E+00 0. -1.
        -11    1    4    4    0    0 -0.34029706362E-01  0.11133352111E-01  0.16903801555E-01  0.39597627105E-01  0.51100000000E-03 0.  1.
         11    1    4    4    0    0 -0.69446165876E-01  0.34124183684E-01  0.66218722716E-01  0.10184503044E+00  0.51100000000E-03 0. -1.
</event>
<event>
 8    1  0.1148488E+005  0.1043930E+01  0.7957747E-01            NaN
         13   -1    0    0    0    0  0.00000000000E+00  0.00000000000E+00  0.74505805969E-08  0.10566000000E+00  0.10566000000E+00 0. -1.
     999900   -1    0    0    0    0 -0.00000000000E+00 -0.00000000000E+00 -0.74505805969E-08  0.93827000000E+00  0.93827000000E+00 0.  1.
     999902    2    1    2    0    0  0.21017624140E-01 -0.11376934978E-01 -0.54933671668E-03  0.10200244160E+01  0.10197442485E+01 0.  0.
     999903    2    3    3    0    0 -0.78629846339E-01 -0.25983842037E-01  0.96865056501E-01  0.12893937850E+00  0.19614060651E-01 0.  0.
         14    1    1    2    0    0 -0.21017624140E-01  0.11376934978E-01  0.54933671668E-03  0.23905583967E-01  0.00000000000E+00 0.  1.
     999901    1    3    3    0    0  0.99647470478E-01  0.14606907059E-01 -0.97414393217E-01  0.89108503753E+00  0.88000000000E+00 0.  1.
        -11    1    4    4    0    0 -0.37275771048E-01 -0.22013157688E-01  0.44367774467E-01  0.61990505327E-01  0.51100000000E-03 0.  1.
         11    1    4    4    0    0 -0.41354075291E-01 -0.39706843494E-02  0.52497282034E-01  0.66948873174E-01  0.51100000000E-03 0. -1.
</event>
<event>
 8    1  0.1148488E+005  0.1043930E+01  0.7957747E-01            NaN
         13   -1    0    0    0    0  0.00000000000E+00  0.00000000000E+00  0.74505805969E-08  0.10566000000E+00  0.10566000000E+00 0.  1.
     999900   -1    0    0    0    0 -0.00000000000E+00 -0.00000000000E+00 -0.74505805969E-08  0.93827000000E+00  0.93827000000E+00 0. -1.
     999902    2    1    2    0    0 -0.60017527049E-02 -0.38905575565E-02  0.23581170356E-01  0.10192879816E+01  0.10189900689E+01 0.  0.
     999903    2    3    3    0    0  0.13760586780E-01  0.75328806456E-01  0.10534740892E+00  0.13173405344E+00  0.19799026180E-01 0.  0.
         14    1    1    2    0    0  0.60017527049E-02  0.38905575565E-02 -0.23581170356E-01  0.24642018363E-01  0.00000000000E+00 0. -1.
     999901    1    3    3    0    0 -0.19762339485E-01 -0.79219364013E-01 -0.81766238564E-01  0.88755392820E+00  0.88000000000E+00 0. -1.
        -11    1    4    4    0    0  0.86555685845E-02  0.43187900170E-01  0.76333919023E-01  0.88131957331E-01  0.51100000000E-03 0. -1.
         11    1    4    4    0    0  0.51050181953E-02  0.32140906286E-01  0.29013489898E-01  0.43602096104E-01  0.51100000000E-03 0.  1.
</event>
<event>
 8    1  0.1148488E+005  0.1043930E+01  0.7957747E-01            NaN
         13   -1    0    0    0    0  0.00000000000E+00  0.00000000000E+00  0.74505805969E-08  0.10566000000E+00  0.10566000000E+00 0. -1.
     999900   -1    0    0    0    0 -0.00000000000E+00 -0.00000000000E+00 -0.74505805969E-08  0.93827000000E+00  0.93827000000E+00 0.  1.
     999902    2    1    2    0    0  0.20381976250E-01 -0.79557415692E-02  0.51552051182E-02  0.10214512340E+01  0.10212038624E+01 0.  0.
     999903    2    3    3    0    0  0.19219928651E-01 -0.91938038693E-01 -0.91026308531E-01  0.13223514097E+00  0.19450836658E-01 0.  0.
         14    1    1    2    0    0 -0.20381976250E-01  0.79557415692E-02 -0.51552051182E-02  0.22478765971E-01  0.00000000000E+00 0. -1.
     999901    1    3    3    0    0  0.11620475990E-02  0.83982297124E-01  0.96181513650E-01  0.88921609306E+00  0.88000000000E+00 0. -1.
        -11    1    4    4    0    0  0.15172899816E-01 -0.38814597368E-01 -0.30797603054E-01  0.51822228170E-01  0.51100000000E-03 0. -1.
         11    1    4    4    0    0  0.40470288350E-02 -0.53123441325E-01 -0.60228705478E-01  0.80412912801E-01  0.51100000000E-03 0.  1.
</event>
<event>
 8    1  0.1148488E+005  0.1043930E+01  0.7957747E-01            NaN
         13   -1    0    0    0    0  0.00000000000E+00  0.00000000000E+00  0.74505805969E-08  0.10566000000E+00  0.10566000000E+00 0. -1.
     999900   -1    0    0    0    0 -0.00000000000E+00 -0.00000000000E+00 -0.74505805969E-08  0.93827000000E+00  0.93827000000E+00 0. -1.
     999902    2    1    2    0    0  0.14015096306E-01  0.12749429305E-01 -0.14326748837E-01  0.10201765454E+01  0.10198999741E+01 0.  0.
     999903    2    3    3    0    0 -0.23884863414E-02 -0.10947395522E+00 -0.66917170412E-01  0.13002297121E+00  0.20923995968E-01 0.  0.
         14    1    1    2    0    0 -0.14015096306E-01 -0.12749429305E-01  0.14326748837E-01  0.23753454576E-01  0.00000000000E+00 0. -1.
     999901    1    3    3    0    0  0.16403582648E-01  0.12222338452E+00  0.52590421575E-01  0.89015357422E+00  0.88000000000E+00 0. -1.
        -11    1    4    4    0    0 -0.90747988132E-02 -0.73859792192E-01 -0.37417761814E-01  0.83294482989E-01  0.51100000000E-03 0. -1.
         11    1    4    4    0    0  0.66863124717E-02 -0.35614163028E-01 -0.29499408598E-01  0.46728488219E-01  0.51100000000E-03 0.  1.
</event>
<event>
 8    1  0.1148488E+005  0.1043930E+01  0.7957747E-01            NaN
         13   -1    0    0    0    0  0.00000000000E+00  0.00000000000E+00  0.74505805969E-08  0.10566000000E+00  0.10566000000E+00 0.  1.
     999900   -1    0    0    0    0 -0.00000000000E+00 -0.00000000000E+00 -0.74505805969E-08  0.93827000000E+00  0.93827000000E+00 0.  1.
     999902    2    1    2    0    0 -0.16378177270E-01  0.22579352531E-02 -0.16973167432E-01  0.10202354569E+01  0.10199602718E+01 0.  0.
     999903    2    3    3    0    0 -0.70690311737E-01  0.25241811544E-02  0.10707464229E+00  0.12987724920E+00  0.19990727187E-01 0.  0.
         14    1    1    2    0    0  0.16378177270E-01 -0.22579352531E-02  0.16973167432E-01  0.23694543147E-01  0.00000000000E+00 0.  1.
     999901    1    3    3    0    0  0.54312134467E-01 -0.26624590130E-03 -0.12404780972E+00  0.89035820765E+00  0.88000000000E+00 0.  1.
        -11    1    4    4    0    0 -0.67402706383E-01  0.63245624111E-02  0.93846231194E-01  0.11571733296E+00  0.51100000000E-03 0.  1.
         11    1    4    4    0    0 -0.32876053544E-02 -0.38003812567E-02  0.13228411099E-01  0.14159916238E-01  0.51100000000E-03 0. -1.
</event>
<event>
 7    1  0.1148488E+005  0.1043930E+01  0.7957747E-01            NaN
         13   -1    0    0    0    0  0.00000000000E+00  0.00000000000E+00  0.74505805969E-08  0.10566000000E+00  0.10566000000E+00 0. -1.
     999900   -1    0    0    0    0 -0.00000000000E+00 -0.00000000000E+00 -0.74505805969E-08  0.93827000000E+00  0.93827000000E+00 0. -1.
     999903    2    1    2    0    0 -0.10417139676E-01  0.48900316995E-01 -0.10161797628E+00  0.11506504093E+00  0.20346811517E-01 0.  0.
         14    1    1    2    0    0 -0.11862830041E-01  0.23959790811E-01  0.33626669920E-01  0.42959879448E-01  0.00000000000E+00 0. -1.
     999901    1    1    2    0    0  0.22279969717E-01 -0.72860107807E-01  0.67991306364E-01  0.88590507962E+00  0.88000000000E+00 0.  1.
        -11    1    3    3    0    0 -0.10561486138E-01  0.41939047294E-01 -0.66982660837E-01  0.79733096334E-01  0.51100000000E-03 0. -1.
         11    1    3    3    0    0  0.14434646216E-03  0.69612697019E-02 -0.34635315447E-01  0.35331944595E-01  0.51100000000E-03 0.  1.
</event>
<event>
 7    1  0.1148488E+005  0.1043930E+01  0.7957747E-01            NaN
         13   -1    0    0    0    0  0.00000000000E+00  0.00000000000E+00  0.74505805969E-08  0.10566000000E+00  0.10566000000E+00 0. -1.
     999900   -1    0    0    0    0 -0.00000000000E+00 -0.00000000000E+00 -0.74505805969E-08  0.93827000000E+00  0.93827000000E+00 0. -1.
     999902    2    1    2    0    0 -0.43973994184E-02 -0.27039352969E-02 -0.23506321105E-01  0.10198635188E+01  0.10195795218E+01 0.  0.
         14    1    1    2    0    0  0.43973994184E-02  0.27039352969E-02  0.23506321105E-01  0.24066481247E-01  0.00000000000E+00 0. -1.
     999901    1    3    3    0    0 -0.54067814459E-01 -0.10338422651E+00 -0.64082753086E-01  0.89001023932E+00  0.88000000000E+00 0. -1.
        -11    1    3    3    0    0  0.77200077432E-02  0.33780565130E-01  0.37161768782E-01  0.50813219540E-01  0.51100000000E-03 0. -1.
         11    1    3    3    0    0  0.41950407297E-01  0.66899726081E-01  0.34146631997E-02  0.79040059893E-01  0.51100000000E-03 0.  1.
</event>
<event>
 8    1  0.1148488E+005  0.1043930E+01  0.7957747E-01            NaN
         13   -1    0    0    0    0  0.00000000000E+00  0.00000000000E+00  0.74505805969E-08  0.10566000000E+00  0.10566000000E+00 0.  1.
     999900   -1    0    0    0    0 -0.00000000000E+00 -0.00000000000E+00 -0.74505805969E-08  0.93827000000E+00  0.93827000000E+00 0.  1.
     999902    2    1    2    0    0 -0.20965284304E-01 -0.10584134723E-01 -0.40028125390E-02  0.10201058618E+01  0.10198276225E+01 0.  0.
     999903    2    3    3    0    0 -0.95142186761E-01  0.78055267051E-01 -0.43459847235E-01  0.13167127556E+00  0.17432901917E-01 0.  0.
         14    1    1    2    0    0  0.20965284304E-01  0.10584134723E-01  0.40028125390E-02  0.23824138222E-01  0.00000000000E+00 0.  1.
     999901    1    3    3    0    0  0.74176902457E-01 -0.88639401774E-01  0.39457034696E-01  0.88843458622E+00  0.88000000000E+00 0. -1.
        -11    1    4    4    0    0 -0.63901332742E-01  0.42723038449E-01 -0.31021409725E-01  0.82892866538E-01  0.51100000000E-03 0.  1.
         11    1    4    4    0    0 -0.31240854019E-01  0.35332228603E-01 -0.12438437509E-01  0.48778409021E-01  0.51100000000E-03 0. -1.
</event>
<event>
 8    1  0.1148488E+005  0.1043930E+01  0.7957747E-01            NaN
         13   -1    0    0    0    0  0.00000000000E+00  0.00000000000E+00  0.74505805969E-08  0.10566000000E+00  0.10566000000E+00 0. -1.
     999900   -1    0    0    0    0 -0.00000000000E+00 -0.00000000000E+00 -0.74505805969E-08  0.93827000000E+00  0.93827000000E+00 0.  1.
     999902    2    1    2    0    0  0.88424970774E-02 -0.33820572976E-02  0.20937666579E-01  0.10209514459E+01  0.10206928240E+01 0.  0.
     999903    2    3    3    0    0  0.12216024809E+00  0.46166656221E-01  0.15065121674E-02  0.13209062584E+00  0.19778207572E-01 0.  0.
         14    1    1    2    0    0 -0.88424970774E-02  0.33820572976E-02 -0.20937666579E-01  0.22978554086E-01  0.00000000000E+00 0.  1.
     999901    1    3    3    0    0 -0.11331775101E+00 -0.49548713518E-01  0.19431154411E-01  0.88886082008E+00  0.88000000000E+00 0. -1.
        -11    1    4    4    0    0  0.79061249049E-02  0.55778794305E-02  0.47622811121E-02  0.10796295306E-01  0.51100000000E-03 0. -1.
         11    1    4    4    0    0  0.11425412319E+00  0.40588776790E-01 -0.32557689447E-02  0.12129433053E+00  0.51100000000E-03 0.  1.
</event>
<event>
 8    1  0.1148488E+005  0.1043930E+01  0.7957747E-01            NaN
         13   -1    0    0    0    0  0.00000000000E+00  0.00000000000E+00  0.74505805969E-08  0.10566000000E+00  0.10566000000E+00 0. -1.
     999900   -1    0    0    0    0 -0.00000000000E+00 -0.00000000000E+00 -0.74505805969E-08  0.93827000000E+00  0.93827000000E+00 0.  1.
     999902    2    1    2    0    0 -0.18906601641E-01 -0.98999721638E-02  0.89627133135E-02  0.10207826618E+01  0.10205201828E+01 0.  0.
     999903    2    3    3    0    0 -0.11427809604E+00  0.75396228821E-02  0.65862041868E-01  0.13363138104E+00  0.20080047111E-01 0.  0.
         14    1    1    2    0    0  0.18906601641E-01  0.98999721638E-02 -0.89627133135E-02  0.23147338171E-01  0.00000000000E+00 0.  1.
     999901    1    3    3    0    0  0.95371494396E-01 -0.17439595046E-01 -0.56899328554E-01  0.88715128079E+00  0.88000000000E+00 0.  1.
        -11    1    4    4    0    0 -0.59966360447E-01  0.46924048436E-02  0.46017616872E-01  0.75735495193E-01  0.51100000000E-03 0.  1.
         11    1    4    4    0    0 -0.54311735591E-01  0.28472180385E-02  0.19844424995E-01  0.57895885845E-01  0.51100000000E-03 0. -1.
</event>
<event>
 8    1  0.1148488E+005  0.1043930E+01  0.7957747E-01            NaN
         13   -1    0    0    0    0  0.00000000000E+00  0.00000000000E+00  0.74505805969E-08  0.10566000000E+00  0.10566000000E+00 0. -1.
     999900   -1    0    0    0    0 -0.00000000000E+00 -0.00000000000E+00 -0.74505805969E-08  0.93827000000E+00  0.93827000000E+00 0. -1.
     999902    2    1    2    0    0 -0.25417808695E-01 -0.62650276260E-02 -0.12860962582E-01  0.10147628965E+01  0.10143436381E+01 0.  0.
     999903    2    3    3    0    0  0.54655224862E-02  0.64349982954E-01  0.10358195352E+00  0.12375267623E+00  0.20364467503E-01 0.  0.
         14    1    1    2    0    0  0.25417808695E-01  0.62650276260E-02  0.12860962582E-01  0.29167103533E-01  0.00000000000E+00 0.  1.
     999901    1    3    3    0    0 -0.30883331181E-01 -0.70615010580E-01 -0.11644291610E+00  0.89101022024E+00  0.88000000000E+00 0. -1.
        -11    1    4    4    0    0  0.10703495682E-01  0.45003958963E-01  0.82985401719E-01  0.95009258294E-01  0.51100000000E-03 0. -1.
         11    1    4    4    0    0 -0.52379731963E-02  0.19346023991E-01  0.20596551797E-01  0.28743417932E-01  0.51100000000E-03 0.  1.
</event>
<event>
 8    1  0.1148488E+005  0.1043930E+01  0.7957747E-01            NaN
         13   -1    0    0    0    0  0.00000000000E+00  0.00000000000E+00  0.74505805969E-08  0.10566000000E+00  0.10566000000E+00 0. -1.
     999900   -1    0    0    0    0 -0.00000000000E+00 -0.00000000000E+00 -0.74505805969E-08  0.93827000000E+00  0.93827000000E+00 0. -1.
     999902    2    1    2    0    0 -0.16580953133E-01 -0.11506787274E-01 -0.10583353881E-01  0.10211409338E+01  0.10208866074E+01 0.  0.
     999903    2    3    3    0    0  0.93628428684E-01 -0.46127079248E-01 -0.76934820818E-01  0.13111442314E+00  0.19443127431E-01 0.  0.
         14    1    1    2    0    0  0.16580953133E-01  0.11506787274E-01  0.10583353881E-01  0.22789066227E-01  0.00000000000E+00 0. -1.
     999901    1    3    3    0    0 -0.11020938182E+00  0.34620291975E-01  0.66351466937E-01  0.89002651063E+00  0.88000000000E+00 0.  1.
        -11    1    4    4    0    0  0.36558631404E-01 -0.28647396371E-01 -0.35277593466E-01  0.58326465440E-01  0.51100000000E-03 0.  1.
         11    1    4    4    0    0  0.57069797280E-01 -0.17479682877E-01 -0.41657227351E-01  0.72787957704E-01  0.51100000000E-03 0. -1.
</event>
<event>
 8    1  0.1148488E+005  0.1043930E+01  0.7957747E-01            NaN
         13   -1    0    0    0    0  0.00000000000E+00  0.00000000000E+00  0.74505805969E-08  0.10566000000E+00  0.10566000000E+00 0. -1.
     999900   -1    0    0    0    0 -0.00000000000E+00 -0.00000000000E+00 -0.74505805969E-08  0.93827000000E+00  0.93827000000E+00 0. -1.
     999902    2    1    2    0    0 -0.22304721572E-01  0.52113794697E-02  0.85928805287E-03  0.10210084500E+01  0.10207511241E+01 0.  0.
     999903    2    3    3    0    0  0.41998817752E-01 -0.10885185787E+00 -0.53167980688E-01  0.12968117390E+00  0.19435664086E-01 0.  0.
         14    1    1    2    0    0  0.22304721572E-01 -0.52113794697E-02 -0.85928805287E-03  0.22921550043E-01  0.00000000000E+00 0.  1.
     999901    1    3    3    0    0 -0.64303539324E-01  0.11406323734E+00  0.54027268741E-01  0.89132727606E+00  0.88000000000E+00 0.  1.
        -11    1    4    4    0    0  0.12179884223E-01 -0.57072126241E-01 -0.29716072246E-01  0.65489565918E-01  0.51100000000E-03 0. -1.
         11    1    4    4    0    0  0.29818933529E-01 -0.51779731628E-01 -0.23451908443E-01  0.64191607979E-01  0.51100000000E-03 0.  1.
</event>
<event>
 8    1  0.1148488E+005  0.1043930E+01  0.7957747E-01            NaN
         13   -1    0    0    0    0  0.00000000000E+00  0.00000000000E+00  0.74505805969E-08  0.10566000000E+00  0.10566000000E+00 0.  1.
     999900   -1    0    0    0    0 -0.00000000000E+00 -0.00000000000E+00 -0.74505805969E-08  0.93827000000E+00  0.93827000000E+00 0. -1.
     999902    2    1    2    0    0  0.35223279377E-02 -0.21554482102E-01 -0.81249302974E-02  0.10206272752E+01  0.10203612193E+01 0.  0.
     999903    2    3    3    0    0 -0.62643990354E-01 -0.72595495570E-01  0.87742973115E-01  0.13148509213E+00  0.19877741747E-01 0.  0.
         14    1    1    2    0    0 -0.35223279377E-02  0.21554482102E-01  0.81249302974E-02  0.23302724844E-01  0.00000000000E+00 0.  1.
     999901    1    3    3    0    0  0.66166318291E-01  0.51041013467E-01 -0.95867903412E-01  0.88914218303E+00  0.88000000000E+00 0. -1.
        -11    1    4    4    0    0 -0.53740836629E-01 -0.70429281818E-01  0.77220093081E-01  0.11752261551E+00  0.51100000000E-03 0. -1.
         11    1    4    4    0    0 -0.89031537251E-02 -0.21662137517E-02  0.10522880034E-01  0.13962476624E-01  0.51100000000E-03 0.  1.
</event>
<event>
 8    1  0.1148488E+005  0.1043930E+01  0.7957747E-01            NaN
         13   -1    0    0    0    0  0.00000000000E+00  0.00000000000E+00  0.74505805969E-08  0.10566000000E+00  0.10566000000E+00 0.  1.
     999900   -1    0    0    0    0 -0.00000000000E+00 -0.00000000000E+00 -0.74505805969E-08  0.93827000000E+00  0.93827000000E+00 0.  1.
     999902    2    1    2    0    0  0.22136718728E-01  0.12312790232E-01 -0.49873228483E-02  0.10181130965E+01  0.10177857165E+01 0.  0.
     999903    2    3    3    0    0  0.17947609782E-01 -0.12484136813E+00 -0.11971088261E-03  0.12746585684E+00  0.18440348009E-01 0.  0.
         14    1    1    2    0    0 -0.22136718728E-01 -0.12312790232E-01  0.49873228483E-02  0.25816903543E-01  0.00000000000E+00 0.  1.
     999901    1    3    3    0    0  0.41891089464E-02  0.13715415837E+00 -0.48676119657E-02  0.89064723962E+00  0.88000000000E+00 0. -1.
        -11    1    4    4    0    0  0.70842301256E-02 -0.83626913980E-01  0.71230695125E-02  0.84229723368E-01  0.51100000000E-03 0.  1.
         11    1    4    4    0    0  0.10863379656E-01 -0.41214454155E-01 -0.72427803951E-02  0.43236133473E-01  0.51100000000E-03 0. -1.
</event>
<event>
 8    1  0.1148488E+005  0.1043930E+01  0.7957747E-01            NaN
         13   -1    0    0    0    0  0.00000000000E+00  0.00000000000E+00  0.74505805969E-08  0.10566000000E+00  0.10566000000E+00 0.  1.
     999900   -1    0    0    0    0 -0.00000000000E+00 -0.00000000000E+00 -0.74505805969E-08  0.93827000000E+00  0.93827000000E+00 0.  1.
     999902    2    1    2    0    0  0.83481143635E-02  0.15612684655E-01 -0.13963051950E-01  0.10213819678E+01  0.10211330523E+01 0.  0.
     999903    2    3    3    0    0 -0.12880156448E+00  0.38089077412E-02 -0.59273711489E-02  0.13064410754E+00  0.20697785290E-01 0.  0.
         14    1    1    2    0    0 -0.83481143635E-02 -0.15612684655E-01  0.13963051950E-01  0.22548032183E-01  0.00000000000E+00 0. -1.
     999901    1    3    3    0    0  0.13714967885E+00  0.11803776914E-01 -0.80356808008E-02  0.89073786027E+00  0.88000000000E+00 0.  1.
        -11    1    4    4    0    0 -0.62496387542E-01  0.63749431285E-03 -0.13147794185E-01  0.63869636509E-01  0.51100000000E-03 0. -1.
         11    1    4    4    0    0 -0.66305176941E-01  0.31714134284E-02  0.72204230362E-02  0.66774471036E-01  0.51100000000E-03 0.  1.
</event>
<event>
 8    1  0.1148488E+005  0.1043930E+01  0.7957747E-01            NaN
         13   -1    0    0    0    0  0.00000000000E+00  0.00000000000E+00  0.74505805969E-08  0.10566000000E+00  0.10566000000E+00 0.  1.
     999900   -1    0    0    0    0 -0.00000000000E+00 -0.00000000000E+00 -0.74505805969E-08  0.93827000000E+00  0.93827000000E+00 0.  1.
     999902    2    1    2    0    0 -0.14460271731E-01 -0.35237125296E-02 -0.18339005148E-01  0.10203114666E+01  0.10200380649E+01 0.  0.
     999903    2    3    3    0    0  0.73122473907E-01 -0.10518803328E+00 -0.10421145303E-01  0.13010415148E+00  0.20176011200E-01 0.  0.
         14    1    1    2    0    0  0.14460271731E-01  0.35237125296E-02  0.18339005148E-01  0.23618533366E-01  0.00000000000E+00 0.  1.
     999901    1    3    3    0    0 -0.87582745639E-01  0.10166432075E+00 -0.79178598453E-02  0.89020731515E+00  0.88000000000E+00 0.  1.
        -11    1    4    4    0    0  0.43886901288E-01 -0.57387414697E-01 -0.15327795655E-01  0.73855114318E-01  0.51100000000E-03 0.  1.
         11    1    4    4    0    0  0.29235572620E-01 -0.47800618581E-01  0.49066503518E-02  0.56249037164E-01  0.51100000000E-03 0. -1.
</event>
<event>
 8    1  0.1148488E+005  0.1043930E+01  0.7957747E-01            NaN
         13   -1    0    0    0    0  0.00000000000E+00  0.00000000000E+00  0.74505805969E-08  0.10566000000E+00  0.10566000000E+00 0.  1.
     999900   -1    0    0    0    0 -0.00000000000E+00 -0.00000000000E+00 -0.74505805969E-08  0.93827000000E+00  0.93827000000E+00 0.  1.
     999902    2    1    2    0    0  0.14039153106E-01  0.15948791578E-01  0.10729627175E-01  0.10201269189E+01  0.10198491770E+01 0.  0.
     999903    2    3    3    0    0 -0.97888957614E-01 -0.21000899608E-01 -0.77079153218E-01  0.12793660084E+00  0.20082135489E-01 0.  0.
         14    1    1    2    0    0 -0.14039153106E-01 -0.15948791578E-01 -0.10729627175E-01  0.23803081146E-01  0.00000000000E+00 0. -1.
     999901    1    3    3    0    0  0.11192811072E+00  0.36949691187E-01  0.87808780393E-01  0.89219031802E+00  0.88000000000E+00 0.  1.
        -11    1    4    4    0    0 -0.23717729186E-01 -0.51178483627E-02 -0.86105902737E-02  0.25751241435E-01  0.51100000000E-03 0.  1.
         11    1    4    4    0    0 -0.74171228428E-01 -0.15883051246E-01 -0.68468562944E-01  0.10218535940E+00  0.51100000000E-03 0. -1.
</event>
<event>
 8    1  0.1148488E+005  0.1043930E+01  0.7957747E-01            NaN
         13   -1    0    0    0    0  0.00000000000E+00  0.00000000000E+00  0.74505805969E-08  0.10566000000E+00  0.10566000000E+00 0.  1.
     999900   -1    0    0    0    0 -0.00000000000E+00 -0.00000000000E+00 -0.74505805969E-08  0.93827000000E+00  0.93827000000E+00 0.  1.
     999902    2    1    2    0    0  0.84905993960E-02 -0.34522813115E-02 -0.21810334010E-01  0.10202720374E+01  0.10199977113E+01 0.  0.
     999903    2    3    3    0    0 -0.32805312817E-01 -0.67988362773E-01 -0.10734680310E+00  0.13281119561E+00  0.20417431860E-01 0.  0.
         14    1    1    2    0    0 -0.84905993960E-02  0.34522813115E-02  0.21810334010E-01  0.23657962592E-01  0.00000000000E+00 0.  1.
     999901    1    3    3    0    0  0.41295912213E-01  0.64536081462E-01  0.85536469085E-01  0.88746084179E+00  0.88000000000E+00 0. -1.
        -11    1    4    4    0    0 -0.17915048314E-01 -0.29497118381E-01 -0.32872353964E-01  0.47664260458E-01  0.51100000000E-03 0. -1.
         11    1    4    4    0    0 -0.14890264502E-01 -0.38491244392E-01 -0.74474449132E-01  0.85146935155E-01  0.51100000000E-03 0.  1.
</event>
<event>
 8    1  0.1148488E+005  0.1043930E+01  0.7957747E-01            NaN
         13   -1    0    0    0    0  0.00000000000E+00  0.00000000000E+00  0.74505805969E-08  0.10566000000E+00  0.10566000000E+00 0.  1.
     999900   -1    0    0    0    0 -0.00000000000E+00 -0.00000000000E+00 -0.74505805969E-08  0.93827000000E+00  0.93827000000E+00 0.  1.
     999902    2    1    2    0    0  0.22869770973E-01 -0.12680422685E-02  0.83561755625E-02  0.10195484491E+01  0.10192568763E+01 0.  0.
     999903    2    3    3    0    0 -0.38697074584E-01  0.85395518504E-01 -0.85003079922E-01  0.12824771429E+00  0.20786881996E-01 0.  0.
         14    1    1    2    0    0 -0.22869770973E-01  0.12680422685E-02 -0.83561755625E-02  0.24381550926E-01  0.00000000000E+00 0.  1.
     999901    1    3    3    0    0  0.61566845556E-01 -0.86663560772E-01  0.93359255484E-01  0.89130073478E+00  0.88000000000E+00 0. -1.
        -11    1    4    4    0    0 -0.19586714603E-01  0.24123325118E-01 -0.20369425072E-01  0.37158428418E-01  0.51100000000E-03 0. -1.
         11    1    4    4    0    0 -0.19110359980E-01  0.61272193386E-01 -0.64633654850E-01  0.91089285875E-01  0.51100000000E-03 0.  1.
</event>
<event>
 8    1  0.1148488E+005  0.1043930E+01  0.7957747E-01            NaN
         13   -1    0    0    0    0  0.00000000000E+00  0.00000000000E+00  0.74505805969E-08  0.10566000000E+00  0.10566000000E+00 0. -1.
     999900   -1    0    0    0    0 -0.00000000000E+00 -0.00000000000E+00 -0.74505805969E-08  0.93827000000E+00  0.93827000000E+00 0. -1.
     999902    2    1    2    0    0  0.23049368569E-01  0.17964083370E-03 -0.57247283135E-02  0.10201796700E+01  0.10199031723E+01 0.  0.
     999903    2    3    3    0    0 -0.92632606564E-01  0.12559013055E-01  0.84901465736E-01  0.12790803237E+00  0.20339057295E-01 0.  0.
         14    1    1    2    0    0 -0.23049368569E-01 -0.17964083370E-03  0.57247283135E-02  0.23750330030E-01  0.00000000000E+00 0. -1.
     999901    1    3    3    0    0  0.11568197513E+00 -0.12379372221E-01 -0.90626194050E-01  0.89227163761E+00  0.88000000000E+00 0. -1.
        -11    1    4    4    0    0 -0.57555695562E-01  0.46067309164E-02  0.39390196811E-01  0.69897988435E-01  0.51100000000E-03 0.  1.
         11    1    4    4    0    0 -0.35076911001E-01  0.79522821385E-02  0.45511268926E-01  0.58010043931E-01  0.51100000000E-03 0. -1.
</event>
<event>
 8    1  0.1148488E+005  0.1043930E+01  0.7957747E-01            NaN
         13   -1    0    0    0    0  0.00000000000E+00  0.00000000000E+00  0.74505805969E-08  0.10566000000E+00  0.10566000000E+00 0. -1.
     999900   -1    0    0    0    0 -0.00000000000E+00 -0.00000000000E+00 -0.74505805969E-08  0.93827000000E+00  0.93827000000E+00 0. -1.
     999902    2    1    2    0    0  0.13032127129E-01  0.18814698961E-01 -0.56914493054E-02  0.10203456444E+01  0.10200730426E+01 0.  0.
     999903    2    3    3    0    0 -0.47189776512E-01  0.40304660053E-01  0.11335374894E+00  0.13003094984E+00  0.14409541567E-01 0.  0.
         14    1    1    2    0    0 -0.13032127129E-01 -0.18814698961E-01  0.56914493054E-02  0.23584355613E-01  0.00000000000E+00 0. -1.
     999901    1    3    3    0    0  0.60221903641E-01 -0.21489961093E-01 -0.11904519824E+00  0.89031469455E+00  0.88000000000E+00 0. -1.
        -11    1    4    4    0    0 -0.76657946021E-02  0.12244226279E-01  0.18205733455E-01  0.23246404790E-01  0.51100000000E-03 0.  1.
         11    1    4    4    0    0 -0.39523981910E-01  0.28060433775E-01  0.95148015483E-01  0.10678454505E+00  0.51100000000E-03 0. -1.
</event>
<event>
 8    1  0.1148488E+005  0.1043930E+01  0.7957747E-01            NaN
         13   -1    0    0    0    0  0.00000000000E+00  0.00000000000E+00  0.74505805969E-08  0.10566000000E+00  0.10566000000E+00 0.  1.
     999900   -1    0    0    0    0 -0.00000000000E+00 -0.00000000000E+00 -0.74505805969E-08  0.93827000000E+00  0.93827000000E+00 0.  1.
     999902    2    1    2    0    0 -0.16567806135E-01 -0.14381887040E-01  0.98862681924E-02  0.10198661438E+01  0.10195822096E+01 0.  0.
     999903    2    3    3    0    0 -0.40706607007E-01  0.40731674649E-01 -0.11406718998E+00  0.12914472488E+00  0.18733364915E-01 0.  0.
         14    1    1    2    0    0  0.16567806135E-01  0.14381887040E-01 -0.98862681924E-02  0.24063856169E-01  0.00000000000E+00 0. -1.
     999901    1    3    3    0    0  0.24138800873E-01 -0.55113561689E-01  0.12395345817E+00  0.89072141895E+00  0.88000000000E+00 0. -1.
        -11    1    4    4    0    0 -0.17671312921E-01  0.81625931145E-02 -0.26190698301E-01  0.32636130671E-01  0.51100000000E-03 0.  1.
         11    1    4    4    0    0 -0.23035294086E-01  0.32569081535E-01 -0.87876491675E-01  0.96508594207E-01  0.51100000000E-03 0. -1.
</event>
<event>
 8    1  0.1148488E+005  0.1043930E+01  0.7957747E-01            NaN
         13   -1    0    0    0    0  0.00000000000E+00  0.00000000000E+00  0.74505805969E-08  0.10566000000E+00  0.10566000000E+00 0.  1.
     999900   -1    0    0    0    0 -0.00000000000E+00 -0.00000000000E+00 -0.74505805969E-08  0.93827000000E+00  0.93827000000E+00 0.  1.
     999902    2    1    2    0    0  0.17542922574E-01 -0.88822387212E-03 -0.16252694932E-01  0.10199989915E+01  0.10197182207E+01 0.  0.
     999903    2    3    3    0    0 -0.49639882372E-01  0.10857225727E+00  0.43356186730E-01  0.12868067297E+00  0.20661648026E-01 0.  0.
         14    1    1    2    0    0 -0.17542922574E-01  0.88822387212E-03  0.16252694932E-01  0.23931008475E-01  0.00000000000E+00 0.  1.
     999901    1    3    3    0    0  0.67182804947E-01 -0.10946048114E+00 -0.59608881662E-01  0.89131831855E+00  0.88000000000E+00 0. -1.
        -11    1    4    4    0    0  0.50680367070E-03  0.93122228177E-02  0.70258456366E-02  0.11687513494E-01  0.51100000000E-03 0.  1.
         11    1    4    4    0    0 -0.50146686043E-01  0.99260034449E-01  0.36330341094E-01  0.11699315948E+00  0.51100000000E-03 0. -1.
</event>
