<event>
 8    1  0.1233916E+005  0.1043930E+01  0.7957747E-01            NaN
         13   -1    0    0    0    0  0.00000000000E+00  0.00000000000E+00  0.74505805969E-08  0.10566000000E+00  0.10566000000E+00 0.  1.
     999900   -1    0    0    0    0 -0.00000000000E+00 -0.00000000000E+00 -0.74505805969E-08  0.93827000000E+00  0.93827000000E+00 0. -1.
     999902    2    1    2    0    0  0.11790302630E-01  0.17918860947E-01 -0.16064769524E-02  0.10224200585E+01  0.10221937676E+01 0.  0.
     999903    2    3    3    0    0 -0.38087368926E-01  0.85945783158E-01 -0.93102500969E-01  0.13366420529E+00  0.18992597878E-01 0.  0.
         14    1    1    2    0    0 -0.11790302630E-01 -0.17918860947E-01  0.16064769524E-02  0.21509941468E-01  0.00000000000E+00 0. -1.
     999901    1    3    3    0    0  0.49877671557E-01 -0.68026922211E-01  0.91496024017E-01  0.88875585324E+00  0.88000000000E+00 0.  1.
        -11    1    4    4    0    0 -0.39928922354E-02  0.25951127167E-01 -0.19055295472E-01  0.32446411145E-01  0.51100000000E-03 0. -1.
         11    1    4    4    0    0 -0.34094476691E-01  0.59994655991E-01 -0.74047205497E-01  0.10121779414E+00  0.51100000000E-03 0.  1.
</event>
<event>
 8    1  0.1233916E+005  0.1043930E+01  0.7957747E-01            NaN
         13   -1    0    0    0    0  0.00000000000E+00  0.00000000000E+00  0.74505805969E-08  0.10566000000E+00  0.10566000000E+00 0.  1.
     999900   -1    0    0    0    0 -0.00000000000E+00 -0.00000000000E+00 -0.74505805969E-08  0.93827000000E+00  0.93827000000E+00 0. -1.
     999902    2    1    2    0    0 -0.16434366134E-02  0.23255823086E-01 -0.14071400205E-02  0.10205737538E+01  0.10203064602E+01 0.  0.
     999903    2    3    3    0    0  0.21159512543E-01 -0.51401966646E-01 -0.11562350610E+00  0.12976561607E+00  0.19504686711E-01 0.  0.
         14    1    1    2    0    0  0.16434366134E-02 -0.23255823086E-01  0.14071400205E-02  0.23356246153E-01  0.00000000000E+00 0. -1.
     999901    1    3    3    0    0 -0.22802949157E-01  0.74657789732E-01  0.11421636608E+00  0.89080813778E+00  0.88000000000E+00 0.  1.
        -11    1    4    4    0    0  0.15528325577E-01 -0.14879526078E-01 -0.50400064980E-01  0.54799241441E-01  0.51100000000E-03 0.  1.
         11    1    4    4    0    0  0.56311869665E-02 -0.36522440569E-01 -0.65223441120E-01  0.74966374624E-01  0.51100000000E-03 0. -1.
</event>
<event>
 8    1  0.1233916E+005  0.1043930E+01  0.7957747E-01            NaN
         13   -1    0    0    0    0  0.00000000000E+00  0.00000000000E+00  0.74505805969E-08  0.10566000000E+00  0.10566000000E+00 0. -1.
     999900   -1    0    0    0    0 -0.00000000000E+00 -0.00000000000E+00 -0.74505805969E-08  0.93827000000E+00  0.93827000000E+00 0.  1.
     999902    2    1    2    0    0 -0.19872479846E-01 -0.11004242514E-01 -0.22653712135E-02  0.10211014934E+01  0.10208462759E+01 0.  0.
     999903    2    3    3    0    0  0.10655265080E+00  0.40377773444E-01 -0.57114038342E-01  0.12889535042E+00  0.19187652368E-01 0.  0.
         14    1    1    2    0    0  0.19872479846E-01  0.11004242514E-01  0.22653712135E-02  0.22828506637E-01  0.00000000000E+00 0. -1.
     999901    1    3    3    0    0 -0.12642513064E+00 -0.51382015958E-01  0.54848667129E-01  0.89220614294E+00  0.88000000000E+00 0.  1.
        -11    1    4    4    0    0  0.37068916531E-01  0.14587568970E-01 -0.30390933356E-01  0.50107601145E-01  0.51100000000E-03 0.  1.
         11    1    4    4    0    0  0.69483734267E-01  0.25790204475E-01 -0.26723104986E-01  0.78787749273E-01  0.51100000000E-03 0. -1.
</event>
<event>
 8    1  0.1233916E+005  0.1043930E+01  0.7957747E-01            NaN
         13   -1    0    0    0    0  0.00000000000E+00  0.00000000000E+00  0.74505805969E-08  0.10566000000E+00  0.10566000000E+00 0. -1.
     999900   -1    0    0    0    0 -0.00000000000E+00 -0.00000000000E+00 -0.74505805969E-08  0.93827000000E+00  0.93827000000E+00 0. -1.
     999902    2    1    2    0    0  0.71138776113E-02  0.55650756988E-02  0.22145499129E-01  0.10200134690E+01  0.10197330418E+01 0.  0.
     999903    2    3    3    0    0  0.12707457357E+00 -0.13457287481E-01 -0.18965441137E-01  0.13072019440E+00  0.19975871297E-01 0.  0.
         14    1    1    2    0    0 -0.71138776113E-02 -0.55650756988E-02 -0.22145499129E-01  0.23916530975E-01  0.00000000000E+00 0.  1.
     999901    1    3    3    0    0 -0.11996069596E+00  0.19022363179E-01  0.41110940266E-01  0.88929327462E+00  0.88000000000E+00 0.  1.
        -11    1    4    4    0    0  0.10799089872E+00 -0.13575245106E-01 -0.90756376349E-02  0.10921973176E+00  0.51100000000E-03 0.  1.
         11    1    4    4    0    0  0.19083674849E-01  0.11795762516E-03 -0.98898035021E-02  0.21500462647E-01  0.51100000000E-03 0. -1.
</event>
<event>
 7    1  0.1233916E+005  0.1043930E+01  0.7957747E-01            NaN
         13   -1    0    0    0    0  0.00000000000E+00  0.00000000000E+00  0.74505805969E-08  0.10566000000E+00  0.10566000000E+00 0. -1.
     999900   -1    0    0    0    0 -0.00000000000E+00 -0.00000000000E+00 -0.74505805969E-08  0.93827000000E+00  0.93827000000E+00 0.  1.
     999903    2    1    2    0    0  0.16164332367E-01 -0.36417694920E-01 -0.94566963285E-01  0.10463818516E+00  0.20462284927E-01 0.  0.
         14    1    1    2    0    0  0.22951848925E-01  0.42665731159E-01  0.27840635293E-01  0.55877123745E-01  0.00000000000E+00 0. -1.
     999901    1    1    2    0    0 -0.39116181292E-01 -0.62480362394E-02  0.66726327992E-01  0.88341469110E+00  0.88000000000E+00 0. -1.
        -11    1    3    3    0    0  0.16387119888E-01 -0.16029558106E-01 -0.36614935661E-01  0.43201841000E-01  0.51100000000E-03 0.  1.
         11    1    3    3    0    0 -0.22278752145E-03 -0.20388136814E-01 -0.57952027624E-01  0.61436344160E-01  0.51100000000E-03 0. -1.
</event>
<event>
 8    1  0.1342667E+005  0.1043930E+01  0.7957747E-01            NaN
         13   -1    0    0    0    0  0.00000000000E+00  0.00000000000E+00  0.74505805969E-08  0.10566000000E+00  0.10566000000E+00 0. -1.
     999900   -1    0    0    0    0 -0.00000000000E+00 -0.00000000000E+00 -0.74505805969E-08  0.93827000000E+00  0.93827000000E+00 0. -1.
     999902    2    1    2    0    0  0.18359245901E-01 -0.93959135912E-02  0.11981251817E-01  0.10200784697E+01  0.10197995827E+01 0.  0.
     999903    2    3    3    0    0 -0.88883354490E-01  0.58664292599E-01 -0.67118319423E-01  0.12744757781E+00  0.19906440033E-01 0.  0.
         14    1    1    2    0    0 -0.18359245901E-01  0.93959135912E-02 -0.11981251817E-01  0.23851530294E-01  0.00000000000E+00 0.  1.
     999901    1    3    3    0    0  0.10724260039E+00 -0.68060206190E-01  0.79099571240E-01  0.89263089190E+00  0.88000000000E+00 0. -1.
        -11    1    4    4    0    0 -0.46705576894E-01  0.42555802523E-01 -0.38719521979E-01  0.74107150429E-01  0.51100000000E-03 0. -1.
         11    1    4    4    0    0 -0.42177777596E-01  0.16108490075E-01 -0.28398797444E-01  0.53340427376E-01  0.51100000000E-03 0.  1.
</event>
<event>
 8    1  0.1233916E+005  0.1043930E+01  0.7957747E-01            NaN
         13   -1    0    0    0    0  0.00000000000E+00  0.00000000000E+00  0.74505805969E-08  0.10566000000E+00  0.10566000000E+00 0.  1.
     999900   -1    0    0    0    0 -0.00000000000E+00 -0.00000000000E+00 -0.74505805969E-08  0.93827000000E+00  0.93827000000E+00 0.  1.
     999902    2    1    2    0    0 -0.15241037353E-01  0.15833600495E-01 -0.11960187890E-01  0.10189092442E+01  0.10186019879E+01 0.  0.
     999903    2    3    3    0    0  0.52960168864E-02  0.12486533743E-01  0.12562206242E+00  0.12797611036E+00  0.20322916549E-01 0.  0.
         14    1    1    2    0    0  0.15241037353E-01 -0.15833600495E-01  0.11960187890E-01  0.25020755755E-01  0.00000000000E+00 0. -1.
     999901    1    3    3    0    0 -0.20537054239E-01  0.33470667512E-02 -0.13758225031E+00  0.89093313388E+00  0.88000000000E+00 0.  1.
        -11    1    4    4    0    0 -0.53325678466E-02  0.12701713165E-01  0.69601538410E-01  0.70953541612E-01  0.51100000000E-03 0. -1.
         11    1    4    4    0    0  0.10628584733E-01 -0.21517942131E-03  0.56020524008E-01  0.57022568749E-01  0.51100000000E-03 0.  1.
</event>
<event>
 8    1  0.1233916E+005  0.1043930E+01  0.7957747E-01            NaN
         13   -1    0    0    0    0  0.00000000000E+00  0.00000000000E+00  0.74505805969E-08  0.10566000000E+00  0.10566000000E+00 0.  1.
     999900   -1    0    0    0    0 -0.00000000000E+00 -0.00000000000E+00 -0.74505805969E-08  0.93827000000E+00  0.93827000000E+00 0.  1.
     999902    2    1    2    0    0 -0.32504791637E-02 -0.17702532913E-01  0.16881983952E-01  0.10192531552E+01  0.10189543894E+01 0.  0.
     999903    2    3    3    0    0  0.11969225865E+00  0.27004624094E-01  0.34201930433E-01  0.12941405335E+00  0.22863478636E-01 0.  0.
         14    1    1    2    0    0  0.32504791637E-02  0.17702532913E-01 -0.16881983952E-01  0.24676844784E-01  0.00000000000E+00 0.  1.
     999901    1    3    3    0    0 -0.12294273781E+00 -0.44707157006E-01 -0.17319946480E-01  0.88983910187E+00  0.88000000000E+00 0. -1.
        -11    1    4    4    0    0  0.94697020770E-01  0.13756799504E-01  0.32532429113E-01  0.10107123894E+00  0.51100000000E-03 0. -1.
         11    1    4    4    0    0  0.24995237880E-01  0.13247824590E-01  0.16695013200E-02  0.28342814410E-01  0.51100000000E-03 0.  1.
</event>
<event>
 8    1  0.1233916E+005  0.1043930E+01  0.7957747E-01            NaN
         13   -1    0    0    0    0  0.00000000000E+00  0.00000000000E+00  0.74505805969E-08  0.10566000000E+00  0.10566000000E+00 0. -1.
     999900   -1    0    0    0    0 -0.00000000000E+00 -0.00000000000E+00 -0.74505805969E-08  0.93827000000E+00  0.93827000000E+00 0.  1.
     999902    2    1    2    0    0 -0.15916042134E-01  0.22948439767E-02  0.17574218091E-01  0.10201090041E+01  0.10198308391E+01 0.  0.
     999903    2    3    3    0    0 -0.73428435904E-01  0.10555041563E+00 -0.19151215438E-01  0.13144813174E+00  0.19473490872E-01 0.  0.
         14    1    1    2    0    0  0.15916042134E-01 -0.22948439767E-02 -0.17574218091E-01  0.23820995941E-01  0.00000000000E+00 0.  1.
     999901    1    3    3    0    0  0.57512393770E-01 -0.10325557166E+00  0.36725433528E-01  0.88866087231E+00  0.88000000000E+00 0. -1.
        -11    1    4    4    0    0 -0.26553693833E-01  0.46286356166E-01 -0.16428973216E-01  0.55836347527E-01  0.51100000000E-03 0. -1.
         11    1    4    4    0    0 -0.46874742071E-01  0.59264059468E-01 -0.27222422219E-02  0.75611784217E-01  0.51100000000E-03 0.  1.
</event>
<event>
 8    1  0.1233916E+005  0.1043930E+01  0.7957747E-01            NaN
         13   -1    0    0    0    0  0.00000000000E+00  0.00000000000E+00  0.74505805969E-08  0.10566000000E+00  0.10566000000E+00 0.  1.
     999900   -1    0    0    0    0 -0.00000000000E+00 -0.00000000000E+00 -0.74505805969E-08  0.93827000000E+00  0.93827000000E+00 0. -1.
     999902    2    1    2    0    0 -0.68944217047E-02 -0.77777843123E-02  0.21780360632E-01  0.10197968053E+01  0.10195112127E+01 0.  0.
     999903    2    3    3    0    0 -0.94356665634E-01  0.81372655505E-01  0.34725500578E-01  0.13088453642E+00  0.20005301047E-01 0.  0.
         14    1    1    2    0    0  0.68944217047E-02  0.77777843123E-02 -0.21780360632E-01  0.24133194747E-01  0.00000000000E+00 0. -1.
     999901    1    3    3    0    0  0.87462243929E-01 -0.89150439817E-01 -0.12945139946E-01  0.88891226883E+00  0.88000000000E+00 0. -1.
        -11    1    4    4    0    0 -0.38171880971E-01  0.32612126300E-01  0.39115276131E-02  0.50360743124E-01  0.51100000000E-03 0.  1.
         11    1    4    4    0    0 -0.56184784663E-01  0.48760529204E-01  0.30813972965E-01  0.80523793296E-01  0.51100000000E-03 0. -1.
</event>
<event>
 8    1  0.1233916E+005  0.1043930E+01  0.7957747E-01            NaN
         13   -1    0    0    0    0  0.00000000000E+00  0.00000000000E+00  0.74505805969E-08  0.10566000000E+00  0.10566000000E+00 0. -1.
     999900   -1    0    0    0    0 -0.00000000000E+00 -0.00000000000E+00 -0.74505805969E-08  0.93827000000E+00  0.93827000000E+00 0.  1.
     999902    2    1    2    0    0 -0.10527402742E-01  0.12602491503E-01  0.18431072609E-01  0.10192449147E+01  0.10189459469E+01 0.  0.
     999903    2    3    3    0    0  0.70080489329E-01 -0.94900675279E-01 -0.42451322977E-01  0.12696624226E+00  0.20022454850E-01 0.  0.
         14    1    1    2    0    0  0.10527402742E-01 -0.12602491503E-01 -0.18431072609E-01  0.24685085337E-01  0.00000000000E+00 0.  1.
     999901    1    3    3    0    0 -0.80607892072E-01  0.10750316678E+00  0.60882395586E-01  0.89227867240E+00  0.88000000000E+00 0.  1.
        -11    1    4    4    0    0  0.59529440254E-01 -0.89826027333E-01 -0.40299477844E-01  0.11505119938E+00  0.51100000000E-03 0. -1.
         11    1    4    4    0    0  0.10551049075E-01 -0.50746479463E-02 -0.21518451334E-02  0.11915042880E-01  0.51100000000E-03 0.  1.
</event>
<event>
 8    1  0.1233916E+005  0.1043930E+01  0.7957747E-01            NaN
         13   -1    0    0    0    0  0.00000000000E+00  0.00000000000E+00  0.74505805969E-08  0.10566000000E+00  0.10566000000E+00 0. -1.
     999900   -1    0    0    0    0 -0.00000000000E+00 -0.00000000000E+00 -0.74505805969E-08  0.93827000000E+00  0.93827000000E+00 0. -1.
     999902    2    1    2    0    0  0.94166441320E-02  0.13529224288E-01 -0.14169654587E-01  0.10221931141E+01  0.10219619711E+01 0.  0.
     999903    2    3    3    0    0 -0.32803466228E-01 -0.75749121495E-01 -0.10165553206E+00  0.13235777008E+00  0.19254487778E-01 0.  0.
         14    1    1    2    0    0 -0.94166441320E-02 -0.13529224288E-01  0.14169654587E-01  0.21736885878E-01  0.00000000000E+00 0. -1.
     999901    1    3    3    0    0  0.42220110360E-01  0.89278345783E-01  0.87485877470E-01  0.88983534404E+00  0.88000000000E+00 0.  1.
        -11    1    4    4    0    0 -0.10815422692E-01 -0.46014575285E-01 -0.49787498210E-01  0.68653991914E-01  0.51100000000E-03 0. -1.
         11    1    4    4    0    0 -0.21988043535E-01 -0.29734546210E-01 -0.51868033847E-01  0.63703778169E-01  0.51100000000E-03 0.  1.
</event>
<event>
 8    1  0.1233916E+005  0.1043930E+01  0.7957747E-01            NaN
         13   -1    0    0    0    0  0.00000000000E+00  0.00000000000E+00  0.74505805969E-08  0.10566000000E+00  0.10566000000E+00 0.  1.
     999900   -1    0    0    0    0 -0.00000000000E+00 -0.00000000000E+00 -0.74505805969E-08  0.93827000000E+00  0.93827000000E+00 0. -1.
     999902    2    1    2    0    0 -0.55819910976E-02  0.22303316400E-01  0.97118595806E-02  0.10189716995E+01  0.10186659941E+01 0.  0.
     999903    2    3    3    0    0 -0.43755193685E-01  0.31231812695E-01  0.11826973045E+00  0.13143481421E+00  0.19935850795E-01 0.  0.
         14    1    1    2    0    0  0.55819910976E-02 -0.22303316400E-01 -0.97118595806E-02  0.24958300495E-01  0.00000000000E+00 0. -1.
     999901    1    3    3    0    0  0.38173202588E-01 -0.89284962944E-02 -0.10855787086E+00  0.88753688530E+00  0.88000000000E+00 0. -1.
        -11    1    4    4    0    0 -0.21526923910E-01  0.27276020103E-01  0.72085639500E-01  0.80024935294E-01  0.51100000000E-03 0. -1.
         11    1    4    4    0    0 -0.22228269776E-01  0.39557925921E-02  0.46184090945E-01  0.51409878911E-01  0.51100000000E-03 0.  1.
</event>
<event>
 8    1  0.1233916E+005  0.1043930E+01  0.7957747E-01            NaN
         13   -1    0    0    0    0  0.00000000000E+00  0.00000000000E+00  0.74505805969E-08  0.10566000000E+00  0.10566000000E+00 0. -1.
     999900   -1    0    0    0    0 -0.00000000000E+00 -0.00000000000E+00 -0.74505805969E-08  0.93827000000E+00  0.93827000000E+00 0.  1.
     999902    2    1    2    0    0 -0.18124976172E-01 -0.14118718109E-01  0.75857682827E-02  0.10197350244E+01  0.10194479502E+01 0.  0.
     999903    2    3    3    0    0  0.11411358631E+00 -0.55535797306E-01 -0.76086572803E-02  0.12876180237E+00  0.20385649881E-01 0.  0.
         14    1    1    2    0    0  0.18124976172E-01  0.14118718109E-01 -0.75857682827E-02  0.24194975568E-01  0.00000000000E+00 0. -1.
     999901    1    3    3    0    0 -0.13223856249E+00  0.41417079196E-01  0.15194425563E-01  0.89097322206E+00  0.88000000000E+00 0. -1.
        -11    1    4    4    0    0  0.27671759794E-01 -0.17410059323E-01 -0.10192451668E-01  0.34248848853E-01  0.51100000000E-03 0. -1.
         11    1    4    4    0    0  0.86441826519E-01 -0.38125737982E-01  0.25837943874E-02  0.94512953520E-01  0.51100000000E-03 0.  1.
</event>
<event>
 8    1  0.1233916E+005  0.1043930E+01  0.7957747E-01            NaN
         13   -1    0    0    0    0  0.00000000000E+00  0.00000000000E+00  0.74505805969E-08  0.10566000000E+00  0.10566000000E+00 0. -1.
     999900   -1    0    0    0    0 -0.00000000000E+00 -0.00000000000E+00 -0.74505805969E-08  0.93827000000E+00  0.93827000000E+00 0. -1.
     999902    2    1    2    0    0 -0.12866835570E-01 -0.62099434220E-02 -0.21663633958E-01  0.10179794337E+01  0.10176486110E+01 0.  0.
     999903    2    3    3    0    0 -0.10381694555E+00  0.72319647267E-01  0.15145175699E-01  0.12905102962E+00  0.20413288165E-01 0.  0.
         14    1    1    2    0    0  0.12866835570E-01  0.62099434220E-02  0.21663633958E-01  0.25950566297E-01  0.00000000000E+00 0.  1.
     999901    1    3    3    0    0  0.90950109984E-01 -0.78529590689E-01 -0.36808809657E-01  0.88892840408E+00  0.88000000000E+00 0. -1.
        -11    1    4    4    0    0 -0.51739979881E-01  0.48228905012E-01  0.66865597383E-02  0.71049447563E-01  0.51100000000E-03 0.  1.
         11    1    4    4    0    0 -0.52076965672E-01  0.24090742255E-01  0.84586159608E-02  0.58001582056E-01  0.51100000000E-03 0. -1.
</event>
<event>
 8    1  0.1233916E+005  0.1043930E+01  0.7957747E-01            NaN
         13   -1    0    0    0    0  0.00000000000E+00  0.00000000000E+00  0.74505805969E-08  0.10566000000E+00  0.10566000000E+00 0. -1.
     999900   -1    0    0    0    0 -0.00000000000E+00 -0.00000000000E+00 -0.74505805969E-08  0.93827000000E+00  0.93827000000E+00 0.  1.
     999902    2    1    2    0    0  0.56671919330E-02  0.17104444901E-01 -0.15928192587E-01  0.10198803343E+01  0.10195967389E+01 0.  0.
     999903    2    3    3    0    0 -0.13685131959E-01  0.85823035701E-01  0.95285354637E-01  0.13001224846E+00  0.16462370661E-01 0.  0.
         14    1    1    2    0    0 -0.56671919330E-02 -0.17104444901E-01  0.15928192587E-01  0.24049665671E-01  0.00000000000E+00 0. -1.
     999901    1    3    3    0    0  0.19352323892E-01 -0.68718590800E-01 -0.11121354722E+00  0.88986808587E+00  0.88000000000E+00 0. -1.
        -11    1    4    4    0    0  0.56310395112E-03  0.46919576947E-01  0.53576629570E-01  0.71221346126E-01  0.51100000000E-03 0. -1.
         11    1    4    4    0    0 -0.14248235910E-01  0.38903458754E-01  0.41708725068E-01  0.58790902335E-01  0.51100000000E-03 0.  1.
</event>
<event>
 8    1  0.1233916E+005  0.1043930E+01  0.7957747E-01            NaN
         13   -1    0    0    0    0  0.00000000000E+00  0.00000000000E+00  0.74505805969E-08  0.10566000000E+00  0.10566000000E+00 0. -1.
     999900   -1    0    0    0    0 -0.00000000000E+00 -0.00000000000E+00 -0.74505805969E-08  0.93827000000E+00  0.93827000000E+00 0. -1.
     999902    2    1    2    0    0  0.13272744886E-01  0.13571665516E-01  0.14678635295E-01  0.10199337879E+01  0.10196514667E+01 0.  0.
     999903    2    3    3    0    0 -0.98352357599E-01 -0.26508632035E-01  0.77718179886E-01  0.12974247253E+00  0.20423023166E-01 0.  0.
         14    1    1    2    0    0 -0.13272744886E-01 -0.13571665516E-01 -0.14678635295E-01  0.23996212114E-01  0.00000000000E+00 0.  1.
     999901    1    3    3    0    0  0.11162510249E+00  0.40080297552E-01 -0.63039544591E-01  0.89019131536E+00  0.88000000000E+00 0. -1.
        -11    1    4    4    0    0 -0.64471472470E-01 -0.22413758008E-01  0.41066675377E-01  0.79659778170E-01  0.51100000000E-03 0.  1.
         11    1    4    4    0    0 -0.33880885128E-01 -0.40948740271E-02  0.36651504509E-01  0.50082694358E-01  0.51100000000E-03 0. -1.
</event>
<event>
 8    1  0.1233916E+005  0.1043930E+01  0.7957747E-01            NaN
         13   -1    0    0    0    0  0.00000000000E+00  0.00000000000E+00  0.74505805969E-08  0.10566000000E+00  0.10566000000E+00 0. -1.
     999900   -1    0    0    0    0 -0.00000000000E+00 -0.00000000000E+00 -0.74505805969E-08  0.93827000000E+00  0.93827000000E+00 0.  1.
     999902    2    1    2    0    0  0.23493760619E-01 -0.35754947061E-02 -0.26531203243E-02  0.10200180783E+01  0.10197377605E+01 0.  0.
     999903    2    3    3    0    0  0.12425710671E-01 -0.26976079210E-01  0.12535761707E+00  0.13037947869E+00  0.20054155936E-01 0.  0.
         14    1    1    2    0    0 -0.23493760619E-01  0.35754947061E-02  0.26531203243E-02  0.23911921669E-01  0.00000000000E+00 0.  1.
     999901    1    3    3    0    0  0.11068049948E-01  0.23400584504E-01 -0.12801073740E+00  0.88963859964E+00  0.88000000000E+00 0.  1.
        -11    1    4    4    0    0 -0.38439737962E-02 -0.14284683805E-01  0.62096235225E-01  0.63835976346E-01  0.51100000000E-03 0.  1.
         11    1    4    4    0    0  0.16269684467E-01 -0.12691395405E-01  0.63261381846E-01  0.66543502343E-01  0.51100000000E-03 0. -1.
</event>
<event>
 8    1  0.1233916E+005  0.1043930E+01  0.7957747E-01            NaN
         13   -1    0    0    0    0  0.00000000000E+00  0.00000000000E+00  0.74505805969E-08  0.10566000000E+00  0.10566000000E+00 0.  1.
     999900   -1    0    0    0    0 -0.00000000000E+00 -0.00000000000E+00 -0.74505805969E-08  0.93827000000E+00  0.93827000000E+00 0.  1.
     999902    2    1    2    0    0 -0.16775623757E-01 -0.35654021888E-02 -0.16928461947E-01  0.10198321480E+01  0.10195474014E+01 0.  0.
     999903    2    3    3    0    0  0.94089522055E-01  0.58640488327E-01 -0.63838186433E-01  0.12946077854E+00  0.19830131155E-01 0.  0.
         14    1    1    2    0    0  0.16775623757E-01  0.35654021888E-02  0.16928461947E-01  0.24097851961E-01  0.00000000000E+00 0.  1.
     999901    1    3    3    0    0 -0.11086514581E+00 -0.62205890516E-01  0.46909724486E-01  0.89037136950E+00  0.88000000000E+00 0.  1.
        -11    1    4    4    0    0  0.70482938994E-01  0.34317380633E-01 -0.49058873731E-01  0.92480060097E-01  0.51100000000E-03 0.  1.
         11    1    4    4    0    0  0.23606583062E-01  0.24323107694E-01 -0.14779312702E-01  0.36980718444E-01  0.51100000000E-03 0. -1.
</event>
<event>
 8    1  0.1233916E+005  0.1043930E+01  0.7957747E-01            NaN
         13   -1    0    0    0    0  0.00000000000E+00  0.00000000000E+00  0.74505805969E-08  0.10566000000E+00  0.10566000000E+00 0. -1.
     999900   -1    0    0    0    0 -0.00000000000E+00 -0.00000000000E+00 -0.74505805969E-08  0.93827000000E+00  0.93827000000E+00 0. -1.
     999902    2    1    2    0    0 -0.11668558345E-01 -0.15455969777E-01 -0.14198503808E-01  0.10199166752E+01  0.10196339464E+01 0.  0.
     999903    2    3    3    0    0  0.44771572661E-01  0.62122008149E-01  0.10026829451E+00  0.12733251732E+00  0.17210504649E-01 0.  0.
         14    1    1    2    0    0  0.11668558345E-01  0.15455969777E-01  0.14198503808E-01  0.24013324759E-01  0.00000000000E+00 0. -1.
     999901    1    3    3    0    0 -0.56440131006E-01 -0.77577977925E-01 -0.11446679831E+00  0.89258415792E+00  0.88000000000E+00 0. -1.
        -11    1    4    4    0    0  0.26408118972E-01  0.27535800197E-01  0.60435868946E-01  0.71472822922E-01  0.51100000000E-03 0. -1.
         11    1    4    4    0    0  0.18363453689E-01  0.34586207951E-01  0.39832425560E-01  0.55859694403E-01  0.51100000000E-03 0.  1.
</event>
<event>
 8    1  0.1233916E+005  0.1043930E+01  0.7957747E-01            NaN
         13   -1    0    0    0    0  0.00000000000E+00  0.00000000000E+00  0.74505805969E-08  0.10566000000E+00  0.10566000000E+00 0.  1.
     999900   -1    0    0    0    0 -0.00000000000E+00 -0.00000000000E+00 -0.74505805969E-08  0.93827000000E+00  0.93827000000E+00 0.  1.
     999902    2    1    2    0    0 -0.15776725813E-01 -0.59893782072E-02 -0.18821606614E-01  0.10186509453E+01  0.10183372319E+01 0.  0.
     999903    2    3    3    0    0 -0.35414102989E-02 -0.12746940102E+00  0.14859310842E-01  0.12958317341E+00  0.17607098805E-01 0.  0.
         14    1    1    2    0    0  0.15776725813E-01  0.59893782072E-02  0.18821606614E-01  0.25279054655E-01  0.00000000000E+00 0.  1.
     999901    1    3    3    0    0 -0.12235315514E-01  0.12148002282E+00 -0.33680917457E-01  0.88906777193E+00  0.88000000000E+00 0. -1.
        -11    1    4    4    0    0 -0.14750394711E-02 -0.94530972741E-01  0.18628178944E-01  0.96361562464E-01  0.51100000000E-03 0.  1.
         11    1    4    4    0    0 -0.20663708278E-02 -0.32938428284E-01 -0.37688681016E-02  0.33221610948E-01  0.51100000000E-03 0. -1.
</event>
<event>
 8    1  0.1233916E+005  0.1043930E+01  0.7957747E-01            NaN
         13   -1    0    0    0    0  0.00000000000E+00  0.00000000000E+00  0.74505805969E-08  0.10566000000E+00  0.10566000000E+00 0.  1.
     999900   -1    0    0    0    0 -0.00000000000E+00 -0.00000000000E+00 -0.74505805969E-08  0.93827000000E+00  0.93827000000E+00 0. -1.
     999902    2    1    2    0    0  0.20961252894E-01  0.92385433219E-02  0.76235207777E-02  0.10197878610E+01  0.10195020542E+01 0.  0.
     999903    2    3    3    0    0  0.41995562980E-01  0.66193610640E-01  0.10478542908E+00  0.13236081708E+00  0.19853925297E-01 0.  0.
         14    1    1    2    0    0 -0.20961252894E-01 -0.92385433219E-02 -0.76235207777E-02  0.24142138983E-01  0.00000000000E+00 0. -1.
     999901    1    3    3    0    0 -0.21034310086E-01 -0.56955067318E-01 -0.97161908303E-01  0.88742704394E+00  0.88000000000E+00 0.  1.
        -11    1    4    4    0    0  0.11373053953E-01  0.27320632776E-01  0.26403073800E-01  0.39662914147E-01  0.51100000000E-03 0. -1.
         11    1    4    4    0    0  0.30622509027E-01  0.38872977864E-01  0.78382355280E-01  0.92697902929E-01  0.51100000000E-03 0.  1.
</event>
<event>
 8    1  0.1233916E+005  0.1043930E+01  0.7957747E-01            NaN
         13   -1    0    0    0    0  0.00000000000E+00  0.00000000000E+00  0.74505805969E-08  0.10566000000E+00  0.10566000000E+00 0. -1.
     999900   -1    0    0    0    0 -0.00000000000E+00 -0.00000000000E+00 -0.74505805969E-08  0.93827000000E+00  0.93827000000E+00 0. -1.
     999902    2    1    2    0    0 -0.13332879879E-01 -0.20488149227E-01  0.30312275164E-02  0.10192983479E+01  0.10190006888E+01 0.  0.
     999903    2    3    3    0    0  0.52384550347E-01  0.10410139621E+00  0.46416685244E-01  0.12704074306E+00  0.20089796411E-01 0.  0.
         14    1    1    2    0    0  0.13332879879E-01  0.20488149227E-01 -0.30312275164E-02  0.24631652094E-01  0.00000000000E+00 0.  1.
     999901    1    3    3    0    0 -0.65717430226E-01 -0.12458954544E+00 -0.43385457727E-01  0.89225760485E+00  0.88000000000E+00 0. -1.
        -11    1    4    4    0    0  0.15908987587E-01  0.43644946253E-01  0.27319289426E-01  0.53894173295E-01  0.51100000000E-03 0. -1.
         11    1    4    4    0    0  0.36475562759E-01  0.60456449957E-01  0.19097395818E-01  0.73146569762E-01  0.51100000000E-03 0.  1.
</event>
<event>
 8    1  0.1233916E+005  0.1043930E+01  0.7957747E-01            NaN
         13   -1    0    0    0    0  0.00000000000E+00  0.00000000000E+00  0.74505805969E-08  0.10566000000E+00  0.10566000000E+00 0. -1.
     999900   -1    0    0    0    0 -0.00000000000E+00 -0.00000000000E+00 -0.74505805969E-08  0.93827000000E+00  0.93827000000E+00 0.  1.
     999902    2    1    2    0    0  0.15361069159E-01  0.93649313060E-02  0.15454860724E-01  0.10202125570E+01  0.10199368335E+01 0.  0.
     999903    2    3    3    0    0  0.84223886997E-01  0.47844233162E-01  0.89716208090E-01  0.13356860810E+00  0.20219824122E-01 0.  0.
         14    1    1    2    0    0 -0.15361069159E-01 -0.93649313060E-02 -0.15454860724E-01  0.23717443034E-01  0.00000000000E+00 0. -1.
     999901    1    3    3    0    0 -0.68862817838E-01 -0.38479301856E-01 -0.74261347366E-01  0.88664394887E+00  0.88000000000E+00 0.  1.
        -11    1    4    4    0    0  0.19261746915E-01  0.11820871552E-01  0.10349212006E-01  0.24861922866E-01  0.51100000000E-03 0.  1.
         11    1    4    4    0    0  0.64962140082E-01  0.36023361610E-01  0.79366996084E-01  0.10870668523E+00  0.51100000000E-03 0. -1.
</event>
<event>
 8    1  0.1233916E+005  0.1043930E+01  0.7957747E-01            NaN
         13   -1    0    0    0    0  0.00000000000E+00  0.00000000000E+00  0.74505805969E-08  0.10566000000E+00  0.10566000000E+00 0.  1.
     999900   -1    0    0    0    0 -0.00000000000E+00 -0.00000000000E+00 -0.74505805969E-08  0.93827000000E+00  0.93827000000E+00 0. -1.
     999902    2    1    2    0    0 -0.37564629278E-02 -0.22247758817E-01 -0.73808318265E-02  0.10201907821E+01  0.10199145462E+01 0.  0.
     999903    2    3    3    0    0  0.81261343011E-01 -0.38304926304E-02  0.98849784370E-01  0.12954373261E+00  0.19804551163E-01 0.  0.
         14    1    1    2    0    0  0.37564629278E-02  0.22247758817E-01  0.73808318265E-02  0.23739217859E-01  0.00000000000E+00 0. -1.
     999901    1    3    3    0    0 -0.85017805939E-01 -0.18417266187E-01 -0.10623061620E+00  0.89064704953E+00  0.88000000000E+00 0. -1.
        -11    1    4    4    0    0  0.51751266659E-01 -0.47127491674E-02  0.48006189231E-01  0.70747854604E-01  0.51100000000E-03 0.  1.
         11    1    4    4    0    0  0.29510076352E-01  0.88225653702E-03  0.50843595138E-01  0.58795878006E-01  0.51100000000E-03 0. -1.
</event>
<event>
 8    1  0.1233916E+005  0.1043930E+01  0.7957747E-01            NaN
         13   -1    0    0    0    0  0.00000000000E+00  0.00000000000E+00  0.74505805969E-08  0.10566000000E+00  0.10566000000E+00 0. -1.
     999900   -1    0    0    0    0 -0.00000000000E+00 -0.00000000000E+00 -0.74505805969E-08  0.93827000000E+00  0.93827000000E+00 0.  1.
     999902    2    1    2    0    0 -0.17616253357E-01 -0.88333110255E-02  0.36947870723E-02  0.10238797826E+01  0.10236834462E+01 0.  0.
     999903    2    3    3    0    0  0.70060400951E-01 -0.10792906711E+00  0.30091257022E-01  0.13359671627E+00  0.19633021692E-01 0.  0.
         14    1    1    2    0    0  0.17616253357E-01  0.88333110255E-02 -0.36947870723E-02  0.20050217393E-01  0.00000000000E+00 0. -1.
     999901    1    3    3    0    0 -0.87676654307E-01  0.99095756080E-01 -0.26396469950E-01  0.89028306634E+00  0.88000000000E+00 0.  1.
        -11    1    4    4    0    0  0.27786716546E-01 -0.59810934915E-01  0.18567749296E-01  0.68516216961E-01  0.51100000000E-03 0.  1.
         11    1    4    4    0    0  0.42273684405E-01 -0.48118132191E-01  0.11523507727E-01  0.65080499307E-01  0.51100000000E-03 0. -1.
</event>
<event>
 8    1  0.1233916E+005  0.1043930E+01  0.7957747E-01            NaN
         13   -1    0    0    0    0  0.00000000000E+00  0.00000000000E+00  0.74505805969E-08  0.10566000000E+00  0.10566000000E+00 0. -1.
     999900   -1    0    0    0    0 -0.00000000000E+00 -0.00000000000E+00 -0.74505805969E-08  0.93827000000E+00  0.93827000000E+00 0. -1.
     999902    2    1    2    0    0  0.71373285669E-02 -0.21554482850E-01  0.45715425239E-02  0.10207689078E+01  0.10205061132E+01 0.  0.
     999903    2    3    3    0    0  0.52297313278E-01  0.30795339739E-01  0.11441299599E+00  0.13124933353E+00  0.21276559273E-01 0.  0.
         14    1    1    2    0    0 -0.71373285669E-02  0.21554482850E-01 -0.45715425239E-02  0.23161092181E-01  0.00000000000E+00 0.  1.
     999901    1    3    3    0    0 -0.45159984711E-01 -0.52349822588E-01 -0.10984145347E+00  0.88951957429E+00  0.88000000000E+00 0. -1.
        -11    1    4    4    0    0 -0.56665101776E-03 -0.14876719875E-02  0.75337715759E-02  0.77170652762E-02  0.51100000000E-03 0.  1.
         11    1    4    4    0    0  0.52863964295E-01  0.32283011726E-01  0.10687922442E+00  0.12353226825E+00  0.51100000000E-03 0. -1.
</event>
<event>
 8    1  0.1233916E+005  0.1043930E+01  0.7957747E-01            NaN
         13   -1    0    0    0    0  0.00000000000E+00  0.00000000000E+00  0.74505805969E-08  0.10566000000E+00  0.10566000000E+00 0. -1.
     999900   -1    0    0    0    0 -0.00000000000E+00 -0.00000000000E+00 -0.74505805969E-08  0.93827000000E+00  0.93827000000E+00 0. -1.
     999902    2    1    2    0    0 -0.12630168080E-01 -0.15958251965E-01  0.11109542191E-01  0.10207436057E+01  0.10204802300E+01 0.  0.
     999903    2    3    3    0    0 -0.39912110695E-01 -0.88652639893E-01 -0.86658026933E-01  0.13193132184E+00  0.21071139253E-01 0.  0.
         14    1    1    2    0    0  0.12630168080E-01  0.15958251965E-01 -0.11109542191E-01  0.23186394269E-01  0.00000000000E+00 0.  1.
     999901    1    3    3    0    0  0.27281942615E-01  0.72694387928E-01  0.97767569124E-01  0.88881228389E+00  0.88000000000E+00 0.  1.
        -11    1    4    4    0    0 -0.66786783484E-02 -0.32804317413E-02 -0.10005483407E-01  0.12479454960E-01  0.51100000000E-03 0.  1.
         11    1    4    4    0    0 -0.33233432347E-01 -0.85372208152E-01 -0.76652543526E-01  0.11945186688E+00  0.51100000000E-03 0. -1.
</event>
<event>
 8    1  0.1233916E+005  0.1043930E+01  0.7957747E-01            NaN
         13   -1    0    0    0    0  0.00000000000E+00  0.00000000000E+00  0.74505805969E-08  0.10566000000E+00  0.10566000000E+00 0. -1.
     999900   -1    0    0    0    0 -0.00000000000E+00 -0.00000000000E+00 -0.74505805969E-08  0.93827000000E+00  0.93827000000E+00 0.  1.
     999902    2    1    2    0    0 -0.37325259266E-02  0.10712471995E-01  0.20877649567E-01  0.10201694222E+01  0.10198926830E+01 0.  0.
     999903    2    3    3    0    0 -0.39774650639E-01 -0.10678923455E+00  0.60846039176E-01  0.13072962212E+00  0.20050689920E-01 0.  0.
         14    1    1    2    0    0  0.37325259266E-02 -0.10712471995E-01 -0.20877649567E-01  0.23760577802E-01  0.00000000000E+00 0.  1.
     999901    1    3    3    0    0  0.36042124713E-01  0.11750170655E+00 -0.39968389609E-01  0.88943980008E+00  0.88000000000E+00 0.  1.
        -11    1    4    4    0    0 -0.38081783080E-01 -0.81346832806E-01  0.42867602726E-01  0.99525986027E-01  0.51100000000E-03 0. -1.
         11    1    4    4    0    0 -0.16928675590E-02 -0.25442401748E-01  0.17978436450E-01  0.31203636093E-01  0.51100000000E-03 0.  1.
</event>
<event>
 8    1  0.1233916E+005  0.1043930E+01  0.7957747E-01            NaN
         13   -1    0    0    0    0  0.00000000000E+00  0.00000000000E+00  0.74505805969E-08  0.10566000000E+00  0.10566000000E+00 0. -1.
     999900   -1    0    0    0    0 -0.00000000000E+00 -0.00000000000E+00 -0.74505805969E-08  0.93827000000E+00  0.93827000000E+00 0.  1.
     999902    2    1    2    0    0  0.19330100296E-01 -0.84155452560E-02 -0.10405629482E-01  0.10204193364E+01  0.10201484552E+01 0.  0.
     999903    2    3    3    0    0  0.23542778583E-01 -0.41724228349E-01  0.11954949882E+00  0.13024207852E+00  0.19384083485E-01 0.  0.
         14    1    1    2    0    0 -0.19330100296E-01  0.84155452560E-02  0.10405629482E-01  0.23510663630E-01  0.00000000000E+00 0. -1.
     999901    1    3    3    0    0 -0.42126782863E-02  0.33308683093E-01 -0.12995512831E+00  0.89017725785E+00  0.88000000000E+00 0.  1.
        -11    1    4    4    0    0  0.21719630663E-01 -0.19293785896E-01  0.71629332668E-01  0.77298220871E-01  0.51100000000E-03 0.  1.
         11    1    4    4    0    0  0.18231479191E-02 -0.22430442453E-01  0.47920166155E-01  0.52943857644E-01  0.51100000000E-03 0. -1.
</event>
<event>
 8    1  0.1233916E+005  0.1043930E+01  0.7957747E-01            NaN
         13   -1    0    0    0    0  0.00000000000E+00  0.00000000000E+00  0.74505805969E-08  0.10566000000E+00  0.10566000000E+00 0. -1.
     999900   -1    0    0    0    0 -0.00000000000E+00 -0.00000000000E+00 -0.74505805969E-08  0.93827000000E+00  0.93827000000E+00 0.  1.
     999902    2    1    2    0    0  0.10088915256E-01 -0.51471457007E-03 -0.22991197211E-01  0.10188173281E+01  0.10185077819E+01 0.  0.
     999903    2    3    3    0    0  0.10311785062E+00  0.49546551220E-01  0.56778880182E-01  0.12891633448E+00  0.17533630755E-01 0.  0.
         14    1    1    2    0    0 -0.10088915256E-01  0.51471457007E-03  0.22991197211E-01  0.25112671927E-01  0.00000000000E+00 0. -1.
     999901    1    3    3    0    0 -0.93028935363E-01 -0.50061265790E-01 -0.79770077393E-01  0.88990099359E+00  0.88000000000E+00 0.  1.
        -11    1    4    4    0    0  0.71412448032E-01  0.25318436099E-01  0.39213914513E-01  0.85315609081E-01  0.51100000000E-03 0.  1.
         11    1    4    4    0    0  0.31705402587E-01  0.24228115122E-01  0.17564965669E-01  0.43600725401E-01  0.51100000000E-03 0. -1.
</event>
<event>
 8    1  0.1233916E+005  0.1043930E+01  0.7957747E-01            NaN
         13   -1    0    0    0    0  0.00000000000E+00  0.00000000000E+00  0.74505805969E-08  0.10566000000E+00  0.10566000000E+00 0. -1.
     999900   -1    0    0    0    0 -0.00000000000E+00 -0.00000000000E+00 -0.74505805969E-08  0.93827000000E+00  0.93827000000E+00 0. -1.
     999902    2    1    2    0    0  0.20347145217E-01 -0.25285691392E-02 -0.94768786383E-02  0.10213421447E+01  0.10210923392E+01 0.  0.
     999903    2    3    3    0    0 -0.27066953602E-01  0.10213293777E+00 -0.75553729010E-01  0.13141614888E+00  0.19951973953E-01 0.  0.
         14    1    1    2    0    0 -0.20347145217E-01  0.25285691392E-02  0.94768786383E-02  0.22587855345E-01  0.00000000000E+00 0. -1.
     999901    1    3    3    0    0  0.47414098819E-01 -0.10466150691E+00  0.66076850372E-01  0.88992599577E+00  0.88000000000E+00 0.  1.
        -11    1    4    4    0    0 -0.14126634740E-01  0.71941578852E-01 -0.42172485145E-01  0.84580921023E-01  0.51100000000E-03 0.  1.
         11    1    4    4    0    0 -0.12940318862E-01  0.30191358920E-01 -0.33381243866E-01  0.46835227860E-01  0.51100000000E-03 0. -1.
</event>
<event>
 8    1  0.1233916E+005  0.1043930E+01  0.7957747E-01            NaN
         13   -1    0    0    0    0  0.00000000000E+00  0.00000000000E+00  0.74505805969E-08  0.10566000000E+00  0.10566000000E+00 0. -1.
     999900   -1    0    0    0    0 -0.00000000000E+00 -0.00000000000E+00 -0.74505805969E-08  0.93827000000E+00  0.93827000000E+00 0. -1.
     999902    2    1    2    0    0  0.85705374912E-02  0.22898297772E-01  0.10312777024E-01  0.10173943726E+01  0.10170482633E+01 0.  0.
     999903    2    3    3    0    0 -0.12287261954E-01  0.73474543538E-01  0.10487735974E+00  0.13063878913E+00  0.22754060857E-01 0.  0.
         14    1    1    2    0    0 -0.85705374912E-02 -0.22898297772E-01 -0.10312777024E-01  0.26535627441E-01  0.00000000000E+00 0.  1.
     999901    1    3    3    0    0  0.20857799445E-01 -0.50576245766E-01 -0.94564582717E-01  0.88675558343E+00  0.88000000000E+00 0. -1.
        -11    1    4    4    0    0 -0.13117882469E-01  0.17793340776E-01  0.32702450124E-01  0.39476488972E-01  0.51100000000E-03 0. -1.
         11    1    4    4    0    0  0.83062051528E-03  0.55681202762E-01  0.72174909617E-01  0.91162300161E-01  0.51100000000E-03 0.  1.
</event>
<event>
 8    1  0.1233916E+005  0.1043930E+01  0.7957747E-01            NaN
         13   -1    0    0    0    0  0.00000000000E+00  0.00000000000E+00  0.74505805969E-08  0.10566000000E+00  0.10566000000E+00 0.  1.
     999900   -1    0    0    0    0 -0.00000000000E+00 -0.00000000000E+00 -0.74505805969E-08  0.93827000000E+00  0.93827000000E+00 0. -1.
     999902    2    1    2    0    0  0.35361163248E-02 -0.76720024152E-02  0.22096680216E-01  0.10202735629E+01  0.10199992726E+01 0.  0.
     999903    2    3    3    0    0 -0.16577883834E-01 -0.10829858285E+00 -0.67368215448E-01  0.12980500689E+00  0.17534368547E-01 0.  0.
         14    1    1    2    0    0 -0.35361163248E-02  0.76720024152E-02 -0.22096680216E-01  0.23656437100E-01  0.00000000000E+00 0. -1.
     999901    1    3    3    0    0  0.20114000159E-01  0.10062658043E+00  0.89464895664E-01  0.89046855601E+00  0.88000000000E+00 0.  1.
        -11    1    4    4    0    0 -0.17173890356E-01 -0.54458985723E-01 -0.34124419868E-01  0.66524136885E-01  0.51100000000E-03 0. -1.
         11    1    4    4    0    0  0.59600652216E-03 -0.53839597127E-01 -0.33243795581E-01  0.63280870002E-01  0.51100000000E-03 0.  1.
</event>
<event>
 8    1  0.1233916E+005  0.1043930E+01  0.7957747E-01            NaN
         13   -1    0    0    0    0  0.00000000000E+00  0.00000000000E+00  0.74505805969E-08  0.10566000000E+00  0.10566000000E+00 0. -1.
     999900   -1    0    0    0    0 -0.00000000000E+00 -0.00000000000E+00 -0.74505805969E-08  0.93827000000E+00  0.93827000000E+00 0.  1.
     999902    2    1    2    0    0  0.14353049185E-01 -0.53842708820E-02  0.16429299159E-01  0.10214595246E+01  0.10212123374E+01 0.  0.
     999903    2    3    3    0    0  0.54081969286E-01  0.85234813237E-01  0.84978660015E-01  0.13326516503E+00  0.18665443016E-01 0.  0.
         14    1    1    2    0    0 -0.14353049185E-01  0.53842708820E-02 -0.16429299159E-01  0.22470475400E-01  0.00000000000E+00 0.  1.
     999901    1    3    3    0    0 -0.39728920101E-01 -0.90619084119E-01 -0.68549360856E-01  0.88819435957E+00  0.88000000000E+00 0.  1.
        -11    1    4    4    0    0  0.92718199637E-02  0.76536550032E-02  0.45449931146E-02  0.12863248569E-01  0.51100000000E-03 0. -1.
         11    1    4    4    0    0  0.44810149322E-01  0.77581158234E-01  0.80433666900E-01  0.12040191646E+00  0.51100000000E-03 0.  1.
</event>
<event>
 8    1  0.1233916E+005  0.1043930E+01  0.7957747E-01            NaN
         13   -1    0    0    0    0  0.00000000000E+00  0.00000000000E+00  0.74505805969E-08  0.10566000000E+00  0.10566000000E+00 0. -1.
     999900   -1    0    0    0    0 -0.00000000000E+00 -0.00000000000E+00 -0.74505805969E-08  0.93827000000E+00  0.93827000000E+00 0.  1.
     999902    2    1    2    0    0 -0.26734442063E-01 -0.11595431296E-01  0.16468320538E-04  0.10147892263E+01  0.10143707356E+01 0.  0.
     999903    2    3    3    0    0 -0.12094277104E-01  0.56990773436E-01  0.10913142937E+00  0.12528122937E+00  0.19786302402E-01 0.  0.
         14    1    1    2    0    0  0.26734442063E-01  0.11595431296E-01 -0.16468320538E-04  0.29140773678E-01  0.00000000000E+00 0.  1.
     999901    1    3    3    0    0 -0.14640164959E-01 -0.68586204732E-01 -0.10911496105E+00  0.88950799695E+00  0.88000000000E+00 0.  1.
        -11    1    4    4    0    0  0.26813009931E-02  0.10765245345E-01  0.34622717108E-01  0.36360329252E-01  0.51100000000E-03 0.  1.
         11    1    4    4    0    0 -0.14775578097E-01  0.46225528090E-01  0.74508712258E-01  0.88920900123E-01  0.51100000000E-03 0. -1.
</event>
<event>
 8    1  0.1233916E+005  0.1043930E+01  0.7957747E-01            NaN
         13   -1    0    0    0    0  0.00000000000E+00  0.00000000000E+00  0.74505805969E-08  0.10566000000E+00  0.10566000000E+00 0. -1.
     999900   -1    0    0    0    0 -0.00000000000E+00 -0.00000000000E+00 -0.74505805969E-08  0.93827000000E+00  0.93827000000E+00 0. -1.
     999902    2    1    2    0    0 -0.78188641021E-02  0.18854268064E-01  0.11608862642E-01  0.10204484380E+01  0.10201782349E+01 0.  0.
     999903    2    3    3    0    0 -0.42025393870E-01 -0.11777808353E+00  0.25341667924E-01  0.12914205070E+00  0.19941374997E-01 0.  0.
         14    1    1    2    0    0  0.78188641021E-02 -0.18854268064E-01 -0.11608862642E-01  0.23481561956E-01  0.00000000000E+00 0.  1.
     999901    1    3    3    0    0  0.34206529768E-01  0.13663235159E+00 -0.13732805283E-01  0.89130638734E+00  0.88000000000E+00 0.  1.
        -11    1    4    4    0    0 -0.25301419630E-02 -0.37825130805E-02  0.50252158751E-02  0.67987454099E-02  0.51100000000E-03 0. -1.
         11    1    4    4    0    0 -0.39495251907E-01 -0.11399557045E+00  0.20316452049E-01  0.12234330529E+00  0.51100000000E-03 0.  1.
</event>
<event>
 8    1  0.1233916E+005  0.1043930E+01  0.7957747E-01            NaN
         13   -1    0    0    0    0  0.00000000000E+00  0.00000000000E+00  0.74505805969E-08  0.10566000000E+00  0.10566000000E+00 0. -1.
     999900   -1    0    0    0    0 -0.00000000000E+00 -0.00000000000E+00 -0.74505805969E-08  0.93827000000E+00  0.93827000000E+00 0. -1.
     999902    2    1    2    0    0  0.22033103545E-01 -0.33330403511E-02  0.55103767351E-02  0.10209750210E+01  0.10207169355E+01 0.  0.
     999903    2    3    3    0    0  0.66798367675E-01  0.74838043707E-01  0.84903179583E-01  0.13282083144E+00  0.19237168508E-01 0.  0.
         14    1    1    2    0    0 -0.22033103545E-01  0.33330403511E-02 -0.55103767351E-02  0.22954979015E-01  0.00000000000E+00 0.  1.
     999901    1    3    3    0    0 -0.44765264130E-01 -0.78171084058E-01 -0.79392802848E-01  0.88815418954E+00  0.88000000000E+00 0. -1.
        -11    1    4    4    0    0  0.15465516795E-01  0.29443206154E-01  0.22675529141E-01  0.40255749170E-01  0.51100000000E-03 0.  1.
         11    1    4    4    0    0  0.51332850880E-01  0.45394837552E-01  0.62227650442E-01  0.92565082274E-01  0.51100000000E-03 0. -1.
</event>
<event>
 8    1  0.1233916E+005  0.1043930E+01  0.7957747E-01            NaN
         13   -1    0    0    0    0  0.00000000000E+00  0.00000000000E+00  0.74505805969E-08  0.10566000000E+00  0.10566000000E+00 0.  1.
     999900   -1    0    0    0    0 -0.00000000000E+00 -0.00000000000E+00 -0.74505805969E-08  0.93827000000E+00  0.93827000000E+00 0.  1.
     999902    2    1    2    0    0 -0.17248214841E-01 -0.11497926082E-01  0.11924233258E-01  0.10200157666E+01  0.10197353939E+01 0.  0.
     999903    2    3    3    0    0 -0.91241551924E-01  0.34524372779E-01 -0.84333376325E-01  0.13048859259E+00  0.19954982379E-01 0.  0.
         14    1    1    2    0    0  0.17248214841E-01  0.11497926082E-01 -0.11924233258E-01  0.23914233381E-01  0.00000000000E+00 0. -1.
     999901    1    3    3    0    0  0.73993337083E-01 -0.46022298861E-01  0.96257609583E-01  0.88952717402E+00  0.88000000000E+00 0. -1.
        -11    1    4    4    0    0 -0.61465952951E-01  0.31653260379E-01 -0.52583666635E-01  0.86863659735E-01  0.51100000000E-03 0. -1.
         11    1    4    4    0    0 -0.29775598973E-01  0.28711123999E-02 -0.31749709691E-01  0.43624932860E-01  0.51100000000E-03 0.  1.
</event>
<event>
 8    1  0.1233916E+005  0.1043930E+01  0.7957747E-01            NaN
         13   -1    0    0    0    0  0.00000000000E+00  0.00000000000E+00  0.74505805969E-08  0.10566000000E+00  0.10566000000E+00 0.  1.
     999900   -1    0    0    0    0 -0.00000000000E+00 -0.00000000000E+00 -0.74505805969E-08  0.93827000000E+00  0.93827000000E+00 0.  1.
     999902    2    1    2    0    0  0.15050120470E-01  0.15921861298E-01  0.22965762560E-02  0.10219007908E+01  0.10216633204E+01 0.  0.
     999903    2    3    3    0    0 -0.88889555653E-01  0.95506275525E-01  0.78769323364E-02  0.13219956255E+00  0.19795870954E-01 0.  0.
         14    1    1    2    0    0 -0.15050120470E-01 -0.15921861298E-01 -0.22965762560E-02  0.22029209151E-01  0.00000000000E+00 0. -1.
     999901    1    3    3    0    0  0.10393967612E+00 -0.79584414227E-01 -0.55803560804E-02  0.88970122830E+00  0.88000000000E+00 0. -1.
        -11    1    4    4    0    0 -0.21540008861E-01  0.36640764857E-01  0.32212470423E-02  0.42628103225E-01  0.51100000000E-03 0.  1.
         11    1    4    4    0    0 -0.67349546792E-01  0.58865510668E-01  0.46556852942E-02  0.89571459326E-01  0.51100000000E-03 0. -1.
</event>
<event>
 8    1  0.1233916E+005  0.1043930E+01  0.7957747E-01            NaN
         13   -1    0    0    0    0  0.00000000000E+00  0.00000000000E+00  0.74505805969E-08  0.10566000000E+00  0.10566000000E+00 0. -1.
     999900   -1    0    0    0    0 -0.00000000000E+00 -0.00000000000E+00 -0.74505805969E-08  0.93827000000E+00  0.93827000000E+00 0. -1.
     999902    2    1    2    0    0 -0.19564586893E-01  0.23915392752E-02  0.12853672806E-01  0.10203989689E+01  0.10201276127E+01 0.  0.
     999903    2    3    3    0    0 -0.29658446083E-01  0.63986362633E-01 -0.10747268272E+00  0.13002026290E+00  0.19519559533E-01 0.  0.
         14    1    1    2    0    0  0.19564586893E-01 -0.23915392752E-02 -0.12853672806E-01  0.23531031107E-01  0.00000000000E+00 0.  1.
     999901    1    3    3    0    0  0.10093859190E-01 -0.61594823358E-01  0.12032635553E+00  0.89037870600E+00  0.88000000000E+00 0.  1.
        -11    1    4    4    0    0 -0.16224859421E-01  0.14285740025E-01 -0.29294335816E-01  0.36410817942E-01  0.51100000000E-03 0. -1.
         11    1    4    4    0    0 -0.13433586662E-01  0.49700622608E-01 -0.78178346908E-01  0.93609444954E-01  0.51100000000E-03 0.  1.
</event>
<event>
 8    1  0.1233916E+005  0.1043930E+01  0.7957747E-01            NaN
         13   -1    0    0    0    0  0.00000000000E+00  0.00000000000E+00  0.74505805969E-08  0.10566000000E+00  0.10566000000E+00 0.  1.
     999900   -1    0    0    0    0 -0.00000000000E+00 -0.00000000000E+00 -0.74505805969E-08  0.93827000000E+00  0.93827000000E+00 0.  1.
     999902    2    1    2    0    0  0.42162540446E-02 -0.17289306264E-01 -0.15971295050E-01  0.10200180955E+01  0.10197377781E+01 0.  0.
     999903    2    3    3    0    0  0.65887842890E-01  0.62190984640E-01 -0.92237293407E-01  0.13100909445E+00  0.21136180425E-01 0.  0.
         14    1    1    2    0    0 -0.42162540446E-02  0.17289306264E-01  0.15971295050E-01  0.23911904459E-01  0.00000000000E+00 0. -1.
     999901    1    3    3    0    0 -0.61671588845E-01 -0.79480290904E-01  0.76265998356E-01  0.88900900109E+00  0.88000000000E+00 0.  1.
        -11    1    4    4    0    0  0.20951520661E-01  0.33391118974E-01 -0.34601667363E-01  0.52454452143E-01  0.51100000000E-03 0. -1.
         11    1    4    4    0    0  0.44936322228E-01  0.28799865666E-01 -0.57635626043E-01  0.78554642309E-01  0.51100000000E-03 0.  1.
</event>
<event>
 8    1  0.1233916E+005  0.1043930E+01  0.7957747E-01            NaN
         13   -1    0    0    0    0  0.00000000000E+00  0.00000000000E+00  0.74505805969E-08  0.10566000000E+00  0.10566000000E+00 0. -1.
     999900   -1    0    0    0    0 -0.00000000000E+00 -0.00000000000E+00 -0.74505805969E-08  0.93827000000E+00  0.93827000000E+00 0.  1.
     999902    2    1    2    0    0 -0.10313203485E-01  0.62075838751E-02 -0.20109276242E-01  0.10204932926E+01  0.10202241327E+01 0.  0.
     999903    2    3    3    0    0  0.66308616758E-01  0.11031708966E+00 -0.10610182892E-01  0.13099909625E+00  0.21942978595E-01 0.  0.
         14    1    1    2    0    0  0.10313203485E-01 -0.62075838751E-02  0.20109276242E-01  0.23436707420E-01  0.00000000000E+00 0. -1.
     999901    1    3    3    0    0 -0.76621820243E-01 -0.10410950578E+00 -0.94990933503E-02  0.88949419633E+00  0.88000000000E+00 0. -1.
        -11    1    4    4    0    0  0.13909247457E-01  0.17683773555E-01 -0.98575589251E-02  0.24568589722E-01  0.51100000000E-03 0. -1.
         11    1    4    4    0    0  0.52399369301E-01  0.92633316105E-01 -0.75262396711E-03  0.10643050653E+00  0.51100000000E-03 0.  1.
</event>
<event>
 8    1  0.1233916E+005  0.1043930E+01  0.7957747E-01            NaN
         13   -1    0    0    0    0  0.00000000000E+00  0.00000000000E+00  0.74505805969E-08  0.10566000000E+00  0.10566000000E+00 0. -1.
     999900   -1    0    0    0    0 -0.00000000000E+00 -0.00000000000E+00 -0.74505805969E-08  0.93827000000E+00  0.93827000000E+00 0. -1.
     999902    2    1    2    0    0 -0.22639714998E-01 -0.61588352294E-02  0.33689719725E-02  0.10202268796E+01  0.10199514929E+01 0.  0.
     999903    2    3    3    0    0  0.61046250223E-01  0.70656538799E-01  0.86868199132E-01  0.12900521050E+00  0.19423418191E-01 0.  0.
         14    1    1    2    0    0  0.22639714998E-01  0.61588352294E-02 -0.33689719725E-02  0.23703120443E-01  0.00000000000E+00 0. -1.
     999901    1    3    3    0    0 -0.83685965221E-01 -0.76815374028E-01 -0.83499227160E-01  0.89122166906E+00  0.88000000000E+00 0. -1.
        -11    1    4    4    0    0  0.46655846381E-01  0.39828871450E-01  0.55371605838E-01  0.82640080207E-01  0.51100000000E-03 0.  1.
         11    1    4    4    0    0  0.14390403842E-01  0.30827667349E-01  0.31496593294E-01  0.46365130293E-01  0.51100000000E-03 0. -1.
</event>
<event>
 8    1  0.1233916E+005  0.1043930E+01  0.7957747E-01            NaN
         13   -1    0    0    0    0  0.00000000000E+00  0.00000000000E+00  0.74505805969E-08  0.10566000000E+00  0.10566000000E+00 0.  1.
     999900   -1    0    0    0    0 -0.00000000000E+00 -0.00000000000E+00 -0.74505805969E-08  0.93827000000E+00  0.93827000000E+00 0. -1.
     999902    2    1    2    0    0  0.19534113390E-01 -0.29797697827E-02 -0.13883279992E-01  0.10197803400E+01  0.10194943530E+01 0.  0.
     999903    2    3    3    0    0  0.66389475679E-01 -0.57736610668E-01 -0.97569683976E-01  0.13287721633E+00  0.19885489574E-01 0.  0.
         14    1    1    2    0    0 -0.19534113390E-01  0.29797697827E-02  0.13883279992E-01  0.24149659982E-01  0.00000000000E+00 0.  1.
     999901    1    3    3    0    0 -0.46855362289E-01  0.54756840885E-01  0.83686403985E-01  0.88690312369E+00  0.88000000000E+00 0.  1.
        -11    1    4    4    0    0  0.22976180879E-01 -0.26186997339E-01 -0.26266452098E-01  0.43633145019E-01  0.51100000000E-03 0. -1.
         11    1    4    4    0    0  0.43413294800E-01 -0.31549613329E-01 -0.71303231879E-01  0.89244071310E-01  0.51100000000E-03 0.  1.
</event>
<event>
 8    1  0.1233916E+005  0.1043930E+01  0.7957747E-01            NaN
         13   -1    0    0    0    0  0.00000000000E+00  0.00000000000E+00  0.74505805969E-08  0.10566000000E+00  0.10566000000E+00 0.  1.
     999900   -1    0    0    0    0 -0.00000000000E+00 -0.00000000000E+00 -0.74505805969E-08  0.93827000000E+00  0.93827000000E+00 0.  1.
     999902    2    1    2    0    0  0.38681321905E-02 -0.44076761070E-02  0.24165586965E-01  0.10190630410E+01  0.10187595967E+01 0.  0.
     999903    2    3    3    0    0  0.12404570045E+00 -0.29900787908E-01 -0.12074240063E-01  0.12979037658E+00  0.20453891152E-01 0.  0.
         14    1    1    2    0    0 -0.38681321905E-02  0.44076761070E-02 -0.24165586965E-01  0.24866958976E-01  0.00000000000E+00 0. -1.
     999901    1    3    3    0    0 -0.12017756826E+00  0.25493111801E-01  0.36239827028E-01  0.88927266444E+00  0.88000000000E+00 0. -1.
        -11    1    4    4    0    0  0.36405593340E-01 -0.15600677639E-01  0.29804673196E-02  0.39722697235E-01  0.51100000000E-03 0. -1.
         11    1    4    4    0    0  0.87640107108E-01 -0.14300110269E-01 -0.15054707383E-01  0.90067679347E-01  0.51100000000E-03 0.  1.
</event>
<event>
 8    1  0.1233916E+005  0.1043930E+01  0.7957747E-01            NaN
         13   -1    0    0    0    0  0.00000000000E+00  0.00000000000E+00  0.74505805969E-08  0.10566000000E+00  0.10566000000E+00 0. -1.
     999900   -1    0    0    0    0 -0.00000000000E+00 -0.00000000000E+00 -0.74505805969E-08  0.93827000000E+00  0.93827000000E+00 0. -1.
     999902    2    1    2    0    0 -0.19350948147E-01 -0.44496461048E-02 -0.13170162123E-01  0.10201032983E+01  0.10198249984E+01 0.  0.
     999903    2    3    3    0    0  0.76340268398E-01  0.58101766529E-01  0.81725759645E-01  0.12764897221E+00  0.20285671395E-01 0.  0.
         14    1    1    2    0    0  0.19350948147E-01  0.44496461048E-02  0.13170162123E-01  0.23826701723E-01  0.00000000000E+00 0.  1.
     999901    1    3    3    0    0 -0.95691216545E-01 -0.62551412634E-01 -0.94895921768E-01  0.89245432607E+00  0.88000000000E+00 0. -1.
        -11    1    4    4    0    0  0.25434602838E-01  0.31888233589E-01  0.33468823547E-01  0.52765535471E-01  0.51100000000E-03 0.  1.
         11    1    4    4    0    0  0.50905665560E-01  0.26213532940E-01  0.48256936098E-01  0.74883436739E-01  0.51100000000E-03 0. -1.
</event>
<event>
 8    1  0.1233916E+005  0.1043930E+01  0.7957747E-01            NaN
         13   -1    0    0    0    0  0.00000000000E+00  0.00000000000E+00  0.74505805969E-08  0.10566000000E+00  0.10566000000E+00 0.  1.
     999900   -1    0    0    0    0 -0.00000000000E+00 -0.00000000000E+00 -0.74505805969E-08  0.93827000000E+00  0.93827000000E+00 0.  1.
     999902    2    1    2    0    0 -0.23027204617E-01 -0.40233004413E-02  0.56447811741E-02  0.10198820759E+01  0.10195985220E+01 0.  0.
     999903    2    3    3    0    0 -0.97593043842E-01  0.78617240152E-01 -0.35851806632E-01  0.13190038120E+00  0.20181324689E-01 0.  0.
         14    1    1    2    0    0  0.23027204617E-01  0.40233004413E-02 -0.56447811741E-02  0.24047924098E-01  0.00000000000E+00 0. -1.
     999901    1    3    3    0    0  0.74565839225E-01 -0.82640540593E-01  0.41496587806E-01  0.88798169470E+00  0.88000000000E+00 0. -1.
        -11    1    4    4    0    0 -0.59759716486E-01  0.52616464653E-01 -0.13213422193E-01  0.80712896826E-01  0.51100000000E-03 0.  1.
         11    1    4    4    0    0 -0.37833327356E-01  0.26000775499E-01 -0.22638384439E-01  0.51187484372E-01  0.51100000000E-03 0. -1.
</event>
<event>
 8    1  0.1233916E+005  0.1043930E+01  0.7957747E-01            NaN
         13   -1    0    0    0    0  0.00000000000E+00  0.00000000000E+00  0.74505805969E-08  0.10566000000E+00  0.10566000000E+00 0. -1.
     999900   -1    0    0    0    0 -0.00000000000E+00 -0.00000000000E+00 -0.74505805969E-08  0.93827000000E+00  0.93827000000E+00 0. -1.
     999902    2    1    2    0    0 -0.87215208289E-02  0.19836066653E-01 -0.13385207535E-01  0.10184604447E+01  0.10181419249E+01 0.  0.
     999903    2    3    3    0    0 -0.17362875919E-01  0.37838998999E-01  0.11958588364E+00  0.12824693679E+00  0.20328156007E-01 0.  0.
         14    1    1    2    0    0  0.87215208289E-02 -0.19836066653E-01  0.13385207535E-01  0.25469555288E-01  0.00000000000E+00 0.  1.
     999901    1    3    3    0    0  0.86413550901E-02 -0.18002932347E-01 -0.13297109117E+00  0.89021350792E+00  0.88000000000E+00 0. -1.
        -11    1    4    4    0    0 -0.83007359489E-02  0.20374266753E-01  0.90431360183E-01  0.93070430259E-01  0.51100000000E-03 0. -1.
         11    1    4    4    0    0 -0.90621399701E-02  0.17464732246E-01  0.29154523454E-01  0.35176506536E-01  0.51100000000E-03 0.  1.
</event>
<event>
 8    1  0.1233916E+005  0.1043930E+01  0.7957747E-01            NaN
         13   -1    0    0    0    0  0.00000000000E+00  0.00000000000E+00  0.74505805969E-08  0.10566000000E+00  0.10566000000E+00 0.  1.
     999900   -1    0    0    0    0 -0.00000000000E+00 -0.00000000000E+00 -0.74505805969E-08  0.93827000000E+00  0.93827000000E+00 0.  1.
     999902    2    1    2    0    0  0.15573945258E-01 -0.93079210204E-02  0.15192559437E-01  0.10202657014E+01  0.10199912267E+01 0.  0.
     999903    2    3    3    0    0 -0.28107192418E-01  0.37345758027E-01 -0.11749186554E+00  0.12802707629E+00  0.20046792409E-01 0.  0.
         14    1    1    2    0    0 -0.15573945258E-01  0.93079210204E-02 -0.15192559437E-01  0.23664298571E-01  0.00000000000E+00 0.  1.
     999901    1    3    3    0    0  0.43681137676E-01 -0.46653679048E-01  0.13268442498E+00  0.89223862514E+00  0.88000000000E+00 0. -1.
        -11    1    4    4    0    0 -0.90421742908E-02  0.69493307744E-02 -0.53083210161E-01  0.54296799502E-01  0.51100000000E-03 0.  1.
         11    1    4    4    0    0 -0.19065018128E-01  0.30396427253E-01 -0.64408655383E-01  0.73730276788E-01  0.51100000000E-03 0. -1.
</event>
<event>
 8    1  0.1233916E+005  0.1043930E+01  0.7957747E-01            NaN
         13   -1    0    0    0    0  0.00000000000E+00  0.00000000000E+00  0.74505805969E-08  0.10566000000E+00  0.10566000000E+00 0.  1.
     999900   -1    0    0    0    0 -0.00000000000E+00 -0.00000000000E+00 -0.74505805969E-08  0.93827000000E+00  0.93827000000E+00 0. -1.
     999902    2    1    2    0    0  0.12001309296E-01 -0.12968260858E-01 -0.17007756557E-01  0.10194050943E+01  0.10191100409E+01 0.  0.
     999903    2    3    3    0    0 -0.12503328769E-01  0.63150895532E-01  0.10780683663E+00  0.12700760111E+00  0.19085279101E-01 0.  0.
         14    1    1    2    0    0 -0.12001309296E-01  0.12968260858E-01  0.17007756557E-01  0.24524905659E-01  0.00000000000E+00 0.  1.
     999901    1    3    3    0    0  0.24504638066E-01 -0.76119156390E-01 -0.12481459319E+00  0.89239749323E+00  0.88000000000E+00 0. -1.
        -11    1    4    4    0    0 -0.91381893082E-02  0.10617707554E-01  0.16888175608E-01  0.21947979723E-01  0.51100000000E-03 0. -1.
         11    1    4    4    0    0 -0.33651394612E-02  0.52533187979E-01  0.90918661021E-01  0.10505962139E+00  0.51100000000E-03 0.  1.
</event>
<event>
 8    1  0.1233916E+005  0.1043930E+01  0.7957747E-01            NaN
         13   -1    0    0    0    0  0.00000000000E+00  0.00000000000E+00  0.74505805969E-08  0.10566000000E+00  0.10566000000E+00 0. -1.
     999900   -1    0    0    0    0 -0.00000000000E+00 -0.00000000000E+00 -0.74505805969E-08  0.93827000000E+00  0.93827000000E+00 0.  1.
     999902    2    1    2    0    0  0.13764303679E-01 -0.15054001129E-01 -0.63338659511E-02  0.10225712345E+01  0.10223481466E+01 0.  0.
     999903    2    3    3    0    0 -0.11164788292E+00 -0.66895920354E-01  0.10287707170E-01  0.13201406181E+00  0.19533603801E-01 0.  0.
         14    1    1    2    0    0 -0.13764303679E-01  0.15054001129E-01  0.63338659511E-02  0.21358765499E-01  0.00000000000E+00 0. -1.
     999901    1    3    3    0    0  0.12541218660E+00  0.51841919226E-01 -0.16621573121E-01  0.89055717269E+00  0.88000000000E+00 0.  1.
        -11    1    4    4    0    0 -0.43922405343E-01 -0.36002162056E-01  0.94069935533E-02  0.57568098913E-01  0.51100000000E-03 0.  1.
         11    1    4    4    0    0 -0.67725477574E-01 -0.30893758299E-01  0.88071361643E-03  0.74445962899E-01  0.51100000000E-03 0. -1.
</event>
<event>
 8    1  0.1233916E+005  0.1043930E+01  0.7957747E-01            NaN
         13   -1    0    0    0    0  0.00000000000E+00  0.00000000000E+00  0.74505805969E-08  0.10566000000E+00  0.10566000000E+00 0.  1.
     999900   -1    0    0    0    0 -0.00000000000E+00 -0.00000000000E+00 -0.74505805969E-08  0.93827000000E+00  0.93827000000E+00 0.  1.
     999902    2    1    2    0    0  0.61536325738E-02 -0.52045982457E-02  0.22713833273E-01  0.10198286876E+01  0.10195438582E+01 0.  0.
     999903    2    3    3    0    0  0.26246390525E-01  0.18714882923E-01 -0.12171625380E+00  0.12750816754E+00  0.20108866000E-01 0.  0.
         14    1    1    2    0    0 -0.61536325738E-02  0.52045982457E-02 -0.22713833273E-01  0.24101312385E-01  0.00000000000E+00 0. -1.
     999901    1    3    3    0    0 -0.20092757952E-01 -0.23919481169E-01  0.14443008707E+00  0.89232052008E+00  0.88000000000E+00 0. -1.
        -11    1    4    4    0    0  0.80588119670E-02  0.14471290380E-01 -0.33991170193E-01  0.37815651094E-01  0.51100000000E-03 0.  1.
         11    1    4    4    0    0  0.18187578558E-01  0.42435925426E-02 -0.87725083604E-01  0.89692516443E-01  0.51100000000E-03 0. -1.
</event>
<event>
 8    1  0.1233916E+005  0.1043930E+01  0.7957747E-01            NaN
         13   -1    0    0    0    0  0.00000000000E+00  0.00000000000E+00  0.74505805969E-08  0.10566000000E+00  0.10566000000E+00 0. -1.
     999900   -1    0    0    0    0 -0.00000000000E+00 -0.00000000000E+00 -0.74505805969E-08  0.93827000000E+00  0.93827000000E+00 0.  1.
     999902    2    1    2    0    0  0.14232260863E-01 -0.54017617131E-02  0.15705571293E-01  0.10220576145E+01  0.10218235494E+01 0.  0.
     999903    2    3    3    0    0  0.13988882103E-01  0.12807109438E+00  0.20981398598E-01  0.13197733894E+00  0.19491148437E-01 0.  0.
         14    1    1    2    0    0 -0.14232260863E-01  0.54017617131E-02 -0.15705571293E-01  0.21872385524E-01  0.00000000000E+00 0. -1.
     999901    1    3    3    0    0  0.24337876018E-03 -0.13347285610E+00 -0.52758273048E-02  0.89008027554E+00  0.88000000000E+00 0. -1.
        -11    1    4    4    0    0  0.19950662378E-03  0.26366895392E-01  0.11922372792E-01  0.28942305877E-01  0.51100000000E-03 0. -1.
         11    1    4    4    0    0  0.13789375479E-01  0.10170419899E+00  0.90590258059E-02  0.10303503306E+00  0.51100000000E-03 0.  1.
</event>
<event>
 8    1  0.1233916E+005  0.1043930E+01  0.7957747E-01            NaN
         13   -1    0    0    0    0  0.00000000000E+00  0.00000000000E+00  0.74505805969E-08  0.10566000000E+00  0.10566000000E+00 0. -1.
     999900   -1    0    0    0    0 -0.00000000000E+00 -0.00000000000E+00 -0.74505805969E-08  0.93827000000E+00  0.93827000000E+00 0.  1.
     999902    2    1    2    0    0 -0.22297177949E-01 -0.14401367311E-01 -0.20472028878E-01  0.10104088501E+01  0.10098526511E+01 0.  0.
     999903    2    3    3    0    0 -0.28859402190E-01 -0.11156616853E+00 -0.43371804069E-01  0.12474048039E+00  0.19979965053E-01 0.  0.
         14    1    1    2    0    0  0.22297177949E-01  0.14401367311E-01  0.20472028878E-01  0.33521149909E-01  0.00000000000E+00 0.  1.
     999901    1    3    3    0    0  0.65622242413E-02  0.97164801224E-01  0.22899775192E-01  0.88566836970E+00  0.88000000000E+00 0. -1.
        -11    1    4    4    0    0 -0.19467965414E-01 -0.41651139606E-01 -0.11901806555E-01  0.47494559985E-01  0.51100000000E-03 0. -1.
         11    1    4    4    0    0 -0.93914367759E-02 -0.69915028928E-01 -0.31469997514E-01  0.77245920406E-01  0.51100000000E-03 0.  1.
</event>
<event>
 8    1  0.1233916E+005  0.1043930E+01  0.7957747E-01            NaN
         13   -1    0    0    0    0  0.00000000000E+00  0.00000000000E+00  0.74505805969E-08  0.10566000000E+00  0.10566000000E+00 0. -1.
     999900   -1    0    0    0    0 -0.00000000000E+00 -0.00000000000E+00 -0.74505805969E-08  0.93827000000E+00  0.93827000000E+00 0. -1.
     999902    2    1    2    0    0 -0.16964276955E-02  0.19003518356E-01  0.11393876576E-01  0.10217076689E+01  0.10214659704E+01 0.  0.
     999903    2    3    3    0    0  0.11288645001E+00  0.46234745065E-01 -0.46143950376E-01  0.13199907777E+00  0.20334456707E-01 0.  0.
         14    1    1    2    0    0  0.16964276955E-02 -0.19003518356E-01 -0.11393876576E-01  0.22222331117E-01  0.00000000000E+00 0.  1.
     999901    1    3    3    0    0 -0.11458287770E+00 -0.27231226709E-01  0.57537826951E-01  0.88970859111E+00  0.88000000000E+00 0.  1.
        -11    1    4    4    0    0  0.85036919249E-01  0.26586483404E-01 -0.28056480567E-01  0.93410630861E-01  0.51100000000E-03 0.  1.
         11    1    4    4    0    0  0.27849530757E-01  0.19648261662E-01 -0.18087469809E-01  0.38588446908E-01  0.51100000000E-03 0. -1.
</event>
<event>
 8    1  0.1233916E+005  0.1043930E+01  0.7957747E-01            NaN
         13   -1    0    0    0    0  0.00000000000E+00  0.00000000000E+00  0.74505805969E-08  0.10566000000E+00  0.10566000000E+00 0. -1.
     999900   -1    0    0    0    0 -0.00000000000E+00 -0.00000000000E+00 -0.74505805969E-08  0.93827000000E+00  0.93827000000E+00 0.  1.
     999902    2    1    2    0    0 -0.13441800356E-02  0.18440600203E-01 -0.96238451712E-02  0.10230857933E+01  0.10228734328E+01 0.  0.
     999903    2    3    3    0    0  0.12679225112E+00  0.31184301938E-01 -0.19784194735E-01  0.13365643716E+00  0.20588666792E-01 0.  0.
         14    1    1    2    0    0  0.13441800356E-02 -0.18440600203E-01  0.96238451712E-02  0.20844206670E-01  0.00000000000E+00 0.  1.
     999901    1    3    3    0    0 -0.12813643116E+00 -0.12743701735E-01  0.10160349563E-01  0.88942935618E+00  0.88000000000E+00 0. -1.
        -11    1    4    4    0    0  0.46775831274E-01  0.61157387284E-02 -0.15638091088E-01  0.49701022781E-01  0.51100000000E-03 0.  1.
         11    1    4    4    0    0  0.80016419846E-01  0.25068563210E-01 -0.41461036470E-02  0.83955414374E-01  0.51100000000E-03 0. -1.
</event>
<event>
 8    1  0.1233916E+005  0.1043930E+01  0.7957747E-01            NaN
         13   -1    0    0    0    0  0.00000000000E+00  0.00000000000E+00  0.74505805969E-08  0.10566000000E+00  0.10566000000E+00 0.  1.
     999900   -1    0    0    0    0 -0.00000000000E+00 -0.00000000000E+00 -0.74505805969E-08  0.93827000000E+00  0.93827000000E+00 0.  1.
     999902    2    1    2    0    0 -0.12802619208E-01  0.12431458355E-01  0.99174214820E-02  0.10235142349E+01  0.10233106007E+01 0.  0.
     999903    2    3    3    0    0 -0.12546145686E+00  0.44297968324E-01 -0.13256016450E-01  0.13545765091E+00  0.21683313007E-01 0.  0.
         14    1    1    2    0    0  0.12802619208E-01 -0.12431458355E-01 -0.99174214820E-02  0.20415765092E-01  0.00000000000E+00 0.  1.
     999901    1    3    3    0    0  0.11265883765E+00 -0.31866509969E-01  0.23173437932E-01  0.88805658400E+00  0.88000000000E+00 0. -1.
        -11    1    4    4    0    0 -0.58775377658E-01  0.10260723888E-01 -0.10130414175E-01  0.60520359268E-01  0.51100000000E-03 0. -1.
         11    1    4    4    0    0 -0.66686079201E-01  0.34037244436E-01 -0.31256022754E-02  0.74937291641E-01  0.51100000000E-03 0.  1.
</event>
<event>
 8    1  0.1233916E+005  0.1043930E+01  0.7957747E-01            NaN
         13   -1    0    0    0    0  0.00000000000E+00  0.00000000000E+00  0.74505805969E-08  0.10566000000E+00  0.10566000000E+00 0.  1.
     999900   -1    0    0    0    0 -0.00000000000E+00 -0.00000000000E+00 -0.74505805969E-08  0.93827000000E+00  0.93827000000E+00 0.  1.
     999902    2    1    2    0    0 -0.72154628194E-03 -0.20881298946E-01  0.55778529377E-03  0.10230287943E+01  0.10228152588E+01 0.  0.
     999903    2    3    3    0    0  0.41806998408E-01  0.50467851018E-01  0.11284237003E+00  0.13201408833E+00  0.19987244445E-01 0.  0.
         14    1    1    2    0    0  0.72154628194E-03  0.20881298946E-01 -0.55778529377E-03  0.20901205686E-01  0.00000000000E+00 0.  1.
     999901    1    3    3    0    0 -0.42528544690E-01 -0.71349149964E-01 -0.11228458474E+00  0.89101470599E+00  0.88000000000E+00 0.  1.
        -11    1    4    4    0    0  0.18663248600E-01  0.37693752156E-01  0.70433550018E-01  0.82038295259E-01  0.51100000000E-03 0. -1.
         11    1    4    4    0    0  0.23143749808E-01  0.12774098862E-01  0.42408820013E-01  0.49975793068E-01  0.51100000000E-03 0.  1.
</event>
<event>
 8    1  0.1233916E+005  0.1043930E+01  0.7957747E-01            NaN
         13   -1    0    0    0    0  0.00000000000E+00  0.00000000000E+00  0.74505805969E-08  0.10566000000E+00  0.10566000000E+00 0. -1.
     999900   -1    0    0    0    0 -0.00000000000E+00 -0.00000000000E+00 -0.74505805969E-08  0.93827000000E+00  0.93827000000E+00 0. -1.
     999902    2    1    2    0    0  0.12252837161E-01 -0.30337079498E-02  0.20811071830E-01  0.10195899895E+01  0.10192994214E+01 0.  0.
     999903    2    3    3    0    0 -0.46658439091E-01 -0.32989952651E-01 -0.11186189493E+00  0.12719431983E+00  0.19999113601E-01 0.  0.
         14    1    1    2    0    0 -0.12252837161E-01  0.30337079498E-02 -0.20811071830E-01  0.24340010541E-01  0.00000000000E+00 0.  1.
     999901    1    3    3    0    0  0.58911276252E-01  0.29956244701E-01  0.13267296676E+00  0.89239566963E+00  0.88000000000E+00 0.  1.
        -11    1    4    4    0    0 -0.90351533644E-02 -0.96663186197E-02 -0.11637975554E-01  0.17628820379E-01  0.51100000000E-03 0. -1.
         11    1    4    4    0    0 -0.37623285727E-01 -0.23323634031E-01 -0.10022391938E+00  0.10956549945E+00  0.51100000000E-03 0.  1.
</event>
<event>
 8    1  0.1233916E+005  0.1043930E+01  0.7957747E-01            NaN
         13   -1    0    0    0    0  0.00000000000E+00  0.00000000000E+00  0.74505805969E-08  0.10566000000E+00  0.10566000000E+00 0. -1.
     999900   -1    0    0    0    0 -0.00000000000E+00 -0.00000000000E+00 -0.74505805969E-08  0.93827000000E+00  0.93827000000E+00 0. -1.
     999902    2    1    2    0    0 -0.10417229944E-01  0.20918130808E-01  0.39023367664E-02  0.10202379104E+01  0.10199627830E+01 0.  0.
     999903    2    3    3    0    0 -0.22876639079E-01  0.12220288982E+00  0.43308477726E-01  0.13346472453E+00  0.21916239508E-01 0.  0.
         14    1    1    2    0    0  0.10417229944E-01 -0.20918130808E-01 -0.39023367664E-02  0.23692089575E-01  0.00000000000E+00 0. -1.
     999901    1    3    3    0    0  0.12459409135E-01 -0.10128475901E+00 -0.39406140959E-01  0.88677318590E+00  0.88000000000E+00 0. -1.
        -11    1    4    4    0    0 -0.11099414518E-01  0.63947055683E-01  0.11052154681E-01  0.65839457601E-01  0.51100000000E-03 0.  1.
         11    1    4    4    0    0 -0.11777224561E-01  0.58255834137E-01  0.32256323044E-01  0.67625266925E-01  0.51100000000E-03 0. -1.
</event>
<event>
 8    1  0.1233916E+005  0.1043930E+01  0.7957747E-01            NaN
         13   -1    0    0    0    0  0.00000000000E+00  0.00000000000E+00  0.74505805969E-08  0.10566000000E+00  0.10566000000E+00 0.  1.
     999900   -1    0    0    0    0 -0.00000000000E+00 -0.00000000000E+00 -0.74505805969E-08  0.93827000000E+00  0.93827000000E+00 0. -1.
     999902    2    1    2    0    0  0.17134591159E-01 -0.52262428944E-03 -0.17558203104E-01  0.10193910952E+01  0.10190957007E+01 0.  0.
     999903    2    3    3    0    0 -0.40120643107E-01 -0.73424158140E-01 -0.98544712830E-01  0.13082392826E+00  0.20076523019E-01 0.  0.
         14    1    1    2    0    0 -0.17134591159E-01  0.52262428944E-03  0.17558203104E-01  0.24538904755E-01  0.00000000000E+00 0.  1.
     999901    1    3    3    0    0  0.57255234266E-01  0.72901533850E-01  0.80986509726E-01  0.88856716699E+00  0.88000000000E+00 0.  1.
        -11    1    4    4    0    0 -0.18945439627E-01 -0.52761414168E-01 -0.58420136586E-01  0.80968327063E-01  0.51100000000E-03 0. -1.
         11    1    4    4    0    0 -0.21175203479E-01 -0.20662743972E-01 -0.40124576244E-01  0.49855601196E-01  0.51100000000E-03 0.  1.
</event>
<event>
 8    1  0.1233916E+005  0.1043930E+01  0.7957747E-01            NaN
         13   -1    0    0    0    0  0.00000000000E+00  0.00000000000E+00  0.74505805969E-08  0.10566000000E+00  0.10566000000E+00 0. -1.
     999900   -1    0    0    0    0 -0.00000000000E+00 -0.00000000000E+00 -0.74505805969E-08  0.93827000000E+00  0.93827000000E+00 0. -1.
     999902    2    1    2    0    0  0.63114579582E-02  0.19155835326E-01  0.12087317119E-01  0.10204165195E+01  0.10201455727E+01 0.  0.
     999903    2    3    3    0    0  0.46358394354E-01 -0.12399911007E-01  0.12160000909E+00  0.13216399241E+00  0.19439654240E-01 0.  0.
         14    1    1    2    0    0 -0.63114579582E-02 -0.19155835326E-01 -0.12087317119E-01  0.23513480468E-01  0.00000000000E+00 0.  1.
     999901    1    3    3    0    0 -0.40046936396E-01  0.31555746333E-01 -0.10951269198E+00  0.88825252713E+00  0.88000000000E+00 0. -1.
        -11    1    4    4    0    0  0.21659688293E-01  0.40888851142E-02  0.49724587923E-01  0.54393536781E-01  0.51100000000E-03 0. -1.
         11    1    4    4    0    0  0.24698706060E-01 -0.16488796121E-01  0.71875421171E-01  0.77770455625E-01  0.51100000000E-03 0.  1.
</event>
<event>
 8    1  0.1233916E+005  0.1043930E+01  0.7957747E-01            NaN
         13   -1    0    0    0    0  0.00000000000E+00  0.00000000000E+00  0.74505805969E-08  0.10566000000E+00  0.10566000000E+00 0.  1.
     999900   -1    0    0    0    0 -0.00000000000E+00 -0.00000000000E+00 -0.74505805969E-08  0.93827000000E+00  0.93827000000E+00 0. -1.
     999902    2    1    2    0    0 -0.77710148643E-02 -0.22018710287E-01  0.74394221883E-03  0.10205683707E+01  0.10203009524E+01 0.  0.
     999903    2    3    3    0    0 -0.12072623313E+00  0.40982376294E-01  0.22149784057E-01  0.13085705328E+00  0.19457053395E-01 0.  0.
         14    1    1    2    0    0  0.77710148643E-02  0.22018710287E-01 -0.74394221883E-03  0.23361629326E-01  0.00000000000E+00 0. -1.
     999901    1    3    3    0    0  0.11295521826E+00 -0.63001086581E-01 -0.21405841839E-01  0.88971131740E+00  0.88000000000E+00 0.  1.
        -11    1    4    4    0    0 -0.85856209120E-01  0.27532335533E-01  0.67015739981E-02  0.90412888237E-01  0.51100000000E-03 0. -1.
         11    1    4    4    0    0 -0.34870024005E-01  0.13450040761E-01  0.15448210059E-01  0.40444165038E-01  0.51100000000E-03 0.  1.
</event>
<event>
 8    1  0.1233916E+005  0.1043930E+01  0.7957747E-01            NaN
         13   -1    0    0    0    0  0.00000000000E+00  0.00000000000E+00  0.74505805969E-08  0.10566000000E+00  0.10566000000E+00 0.  1.
     999900   -1    0    0    0    0 -0.00000000000E+00 -0.00000000000E+00 -0.74505805969E-08  0.93827000000E+00  0.93827000000E+00 0. -1.
     999902    2    1    2    0    0 -0.78696406718E-02  0.21393988529E-01 -0.91742329932E-02  0.10193576468E+01  0.10190614366E+01 0.  0.
     999903    2    3    3    0    0  0.44478181126E-01  0.90048355648E-01  0.81143330883E-01  0.13053202899E+00  0.19166520166E-01 0.  0.
         14    1    1    2    0    0  0.78696406718E-02 -0.21393988529E-01  0.91742329932E-02  0.24572353174E-01  0.00000000000E+00 0.  1.
     999901    1    3    3    0    0 -0.52347821797E-01 -0.68654367118E-01 -0.90317563876E-01  0.88882561783E+00  0.88000000000E+00 0. -1.
        -11    1    4    4    0    0  0.22050041044E-01  0.35413040842E-01  0.44637730289E-01  0.61098902266E-01  0.51100000000E-03 0. -1.
         11    1    4    4    0    0  0.22428140081E-01  0.54635314806E-01  0.36505600593E-01  0.69433126727E-01  0.51100000000E-03 0.  1.
</event>
<event>
 8    1  0.1233916E+005  0.1043930E+01  0.7957747E-01            NaN
         13   -1    0    0    0    0  0.00000000000E+00  0.00000000000E+00  0.74505805969E-08  0.10566000000E+00  0.10566000000E+00 0. -1.
     999900   -1    0    0    0    0 -0.00000000000E+00 -0.00000000000E+00 -0.74505805969E-08  0.93827000000E+00  0.93827000000E+00 0. -1.
     999902    2    1    2    0    0  0.29444056171E-01 -0.63711013571E-02 -0.53879939607E-02  0.10133265058E+01  0.10128642720E+01 0.  0.
     999903    2    3    3    0    0  0.40334869714E-01  0.10551814081E+00  0.46881187500E-01  0.12463652633E+00  0.23988292964E-01 0.  0.
         14    1    1    2    0    0 -0.29444056171E-01  0.63711013571E-02  0.53879939607E-02  0.30603494167E-01  0.00000000000E+00 0. -1.
     999901    1    3    3    0    0 -0.10890813543E-01 -0.11188924217E+00 -0.52269181461E-01  0.88868997950E+00  0.88000000000E+00 0.  1.
        -11    1    4    4    0    0  0.27523802615E-01  0.86720869773E-01  0.28374699139E-01  0.95307154174E-01  0.51100000000E-03 0. -1.
         11    1    4    4    0    0  0.12811067098E-01  0.18797271041E-01  0.18506488361E-01  0.29329372159E-01  0.51100000000E-03 0.  1.
</event>
<event>
 8    1  0.1233916E+005  0.1043930E+01  0.7957747E-01            NaN
         13   -1    0    0    0    0  0.00000000000E+00  0.00000000000E+00  0.74505805969E-08  0.10566000000E+00  0.10566000000E+00 0.  1.
     999900   -1    0    0    0    0 -0.00000000000E+00 -0.00000000000E+00 -0.74505805969E-08  0.93827000000E+00  0.93827000000E+00 0. -1.
     999902    2    1    2    0    0  0.10313573578E-01 -0.24056046506E-01  0.10112120460E-01  0.10158708098E+01  0.10154832269E+01 0.  0.
     999903    2    3    3    0    0 -0.20062447353E-01 -0.52706662274E-01 -0.11157000863E+00  0.12651705513E+00  0.19447477235E-01 0.  0.
         14    1    1    2    0    0 -0.10313573578E-01  0.24056046506E-01 -0.10112120460E-01  0.28059190182E-01  0.00000000000E+00 0. -1.
     999901    1    3    3    0    0  0.30376020931E-01  0.28650615768E-01  0.12168212910E+00  0.88935375469E+00  0.88000000000E+00 0.  1.
        -11    1    4    4    0    0 -0.91946194542E-02 -0.14069917670E-01 -0.52278956795E-01  0.54916792102E-01  0.51100000000E-03 0. -1.
         11    1    4    4    0    0 -0.10867827898E-01 -0.38636744605E-01 -0.59291051839E-01  0.71600263031E-01  0.51100000000E-03 0.  1.
</event>
<event>
 8    1  0.1233916E+005  0.1043930E+01  0.7957747E-01            NaN
         13   -1    0    0    0    0  0.00000000000E+00  0.00000000000E+00  0.74505805969E-08  0.10566000000E+00  0.10566000000E+00 0. -1.
     999900   -1    0    0    0    0 -0.00000000000E+00 -0.00000000000E+00 -0.74505805969E-08  0.93827000000E+00  0.93827000000E+00 0.  1.
     999902    2    1    2    0    0 -0.97179377540E-03  0.21294964472E-01 -0.78769556967E-02  0.10212041045E+01  0.10209512019E+01 0.  0.
     999903    2    3    3    0    0 -0.20146617445E-01  0.28089232932E-01 -0.12673922892E+00  0.13297999093E+00  0.20638668496E-01 0.  0.
         14    1    1    2    0    0  0.97179377540E-03 -0.21294964472E-01  0.78769556967E-02  0.22725895495E-01  0.00000000000E+00 0. -1.
     999901    1    3    3    0    0  0.19174823669E-01 -0.67942684609E-02  0.11886227323E+00  0.88822411358E+00  0.88000000000E+00 0. -1.
        -11    1    4    4    0    0 -0.93450369091E-02  0.93637571911E-03 -0.17144953407E-01  0.19555486766E-01  0.51100000000E-03 0. -1.
         11    1    4    4    0    0 -0.10801580535E-01  0.27152857213E-01 -0.10959427552E+00  0.11342450416E+00  0.51100000000E-03 0.  1.
</event>
<event>
 8    1  0.1233916E+005  0.1043930E+01  0.7957747E-01            NaN
         13   -1    0    0    0    0  0.00000000000E+00  0.00000000000E+00  0.74505805969E-08  0.10566000000E+00  0.10566000000E+00 0.  1.
     999900   -1    0    0    0    0 -0.00000000000E+00 -0.00000000000E+00 -0.74505805969E-08  0.93827000000E+00  0.93827000000E+00 0.  1.
     999902    2    1    2    0    0  0.15373531932E-01 -0.80635508435E-02  0.15841842468E-01  0.10204282914E+01  0.10201576189E+01 0.  0.
     999903    2    3    3    0    0 -0.38975728961E-01  0.62645056459E-01 -0.10259978805E+00  0.12802593303E+00  0.20503962377E-01 0.  0.
         14    1    1    2    0    0 -0.15373531932E-01  0.80635508435E-02 -0.15841842468E-01  0.23501708641E-01  0.00000000000E+00 0. -1.
     999901    1    3    3    0    0  0.54349260893E-01 -0.70708607302E-01  0.11844163052E+00  0.89240235833E+00  0.88000000000E+00 0. -1.
        -11    1    4    4    0    0 -0.36042324693E-01  0.50438826026E-01 -0.72395093414E-01  0.95312302519E-01  0.51100000000E-03 0.  1.
         11    1    4    4    0    0 -0.29334042680E-02  0.12206230433E-01 -0.30204694641E-01  0.32713630513E-01  0.51100000000E-03 0. -1.
</event>
<event>
 8    1  0.1233916E+005  0.1043930E+01  0.7957747E-01            NaN
         13   -1    0    0    0    0  0.00000000000E+00  0.00000000000E+00  0.74505805969E-08  0.10566000000E+00  0.10566000000E+00 0.  1.
     999900   -1    0    0    0    0 -0.00000000000E+00 -0.00000000000E+00 -0.74505805969E-08  0.93827000000E+00  0.93827000000E+00 0.  1.
     999902    2    1    2    0    0  0.49185001660E-02 -0.51618713071E-02 -0.20856969893E-01  0.10218880003E+01  0.10216502510E+01 0.  0.
     999903    2    3    3    0    0  0.29584709388E-01  0.12654145389E+00 -0.18273428803E-02  0.13154182352E+00  0.20295752505E-01 0.  0.
         14    1    1    2    0    0 -0.49185001660E-02  0.51618713071E-02  0.20856969893E-01  0.22041999736E-01  0.00000000000E+00 0.  1.
     999901    1    3    3    0    0 -0.24666209222E-01 -0.13170332520E+00 -0.19029627012E-01  0.89034617675E+00  0.88000000000E+00 0. -1.
        -11    1    4    4    0    0  0.86586214182E-02  0.43474136842E-01 -0.10138362320E-01  0.45475485820E-01  0.51100000000E-03 0.  1.
         11    1    4    4    0    0  0.20926087970E-01  0.83067317048E-01  0.83110194402E-02  0.86066337696E-01  0.51100000000E-03 0. -1.
</event>
<event>
 8    1  0.1233916E+005  0.1043930E+01  0.7957747E-01            NaN
         13   -1    0    0    0    0  0.00000000000E+00  0.00000000000E+00  0.74505805969E-08  0.10566000000E+00  0.10566000000E+00 0.  1.
     999900   -1    0    0    0    0 -0.00000000000E+00 -0.00000000000E+00 -0.74505805969E-08  0.93827000000E+00  0.93827000000E+00 0. -1.
     999902    2    1    2    0    0 -0.13335398504E-01 -0.52771482919E-02 -0.17157889564E-01  0.10215676584E+01  0.10213228708E+01 0.  0.
     999903    2    3    3    0    0 -0.38054363704E-01  0.12192477578E+00 -0.27033428729E-01  0.13202345883E+00  0.19636747859E-01 0.  0.
         14    1    1    2    0    0  0.13335398504E-01  0.52771482919E-02  0.17157889564E-01  0.22362341595E-01  0.00000000000E+00 0.  1.
     999901    1    3    3    0    0  0.24718965201E-01 -0.12720192407E+00  0.98755391655E-02  0.88954419958E+00  0.88000000000E+00 0.  1.
        -11    1    4    4    0    0 -0.34483853580E-01  0.10127618906E+00 -0.29335508679E-01  0.11093617904E+00  0.51100000000E-03 0.  1.
         11    1    4    4    0    0 -0.35705101245E-02  0.20648586715E-01  0.23020799498E-02  0.21087279791E-01  0.51100000000E-03 0. -1.
</event>
<event>
 8    1  0.1233916E+005  0.1043930E+01  0.7957747E-01            NaN
         13   -1    0    0    0    0  0.00000000000E+00  0.00000000000E+00  0.74505805969E-08  0.10566000000E+00  0.10566000000E+00 0. -1.
     999900   -1    0    0    0    0 -0.00000000000E+00 -0.00000000000E+00 -0.74505805969E-08  0.93827000000E+00  0.93827000000E+00 0.  1.
     999902    2    1    2    0    0 -0.28084825726E-02  0.21840912245E-01  0.82938239810E-02  0.10203991577E+01  0.10201278060E+01 0.  0.
     999903    2    3    3    0    0  0.10563311654E+00  0.75086513458E-01  0.15851479649E-01  0.13211328447E+00  0.20157150377E-01 0.  0.
         14    1    1    2    0    0  0.28084825726E-02 -0.21840912245E-01 -0.82938239810E-02  0.23530842277E-01  0.00000000000E+00 0. -1.
     999901    1    3    3    0    0 -0.10844159912E+00 -0.53245601213E-01 -0.75576556677E-02  0.88828587326E+00  0.88000000000E+00 0. -1.
        -11    1    4    4    0    0  0.57159088232E-01  0.52506472498E-01  0.11421318613E-01  0.78452524889E-01  0.51100000000E-03 0. -1.
         11    1    4    4    0    0  0.48474028312E-01  0.22580040961E-01  0.44301610359E-02  0.53660759577E-01  0.51100000000E-03 0.  1.
</event>
<event>
 8    1  0.1233916E+005  0.1043930E+01  0.7957747E-01            NaN
         13   -1    0    0    0    0  0.00000000000E+00  0.00000000000E+00  0.74505805969E-08  0.10566000000E+00  0.10566000000E+00 0. -1.
     999900   -1    0    0    0    0 -0.00000000000E+00 -0.00000000000E+00 -0.74505805969E-08  0.93827000000E+00  0.93827000000E+00 0.  1.
     999902    2    1    2    0    0 -0.31953069194E-02 -0.83138964145E-02 -0.22358673017E-01  0.10198625714E+01  0.10195785519E+01 0.  0.
     999903    2    3    3    0    0 -0.90522428683E-01  0.87847684864E-01 -0.25748615558E-01  0.13032079745E+00  0.20223580639E-01 0.  0.
         14    1    1    2    0    0  0.31953069194E-02  0.83138964145E-02  0.22358673017E-01  0.24067428591E-01  0.00000000000E+00 0. -1.
     999901    1    3    3    0    0  0.87327121764E-01 -0.96161581279E-01  0.33899425412E-02  0.88954177396E+00  0.88000000000E+00 0. -1.
        -11    1    4    4    0    0 -0.33759115560E-01  0.21597411697E-01 -0.13092996800E-01  0.42164128849E-01  0.51100000000E-03 0.  1.
         11    1    4    4    0    0 -0.56763313124E-01  0.66250273168E-01 -0.12655618758E-01  0.88156668600E-01  0.51100000000E-03 0. -1.
</event>
<event>
 8    1  0.1233916E+005  0.1043930E+01  0.7957747E-01            NaN
         13   -1    0    0    0    0  0.00000000000E+00  0.00000000000E+00  0.74505805969E-08  0.10566000000E+00  0.10566000000E+00 0.  1.
     999900   -1    0    0    0    0 -0.00000000000E+00 -0.00000000000E+00 -0.74505805969E-08  0.93827000000E+00  0.93827000000E+00 0.  1.
     999902    2    1    2    0    0  0.33575470613E-02 -0.16144734273E-01 -0.16943719576E-01  0.10202864977E+01  0.10200125108E+01 0.  0.
     999903    2    3    3    0    0 -0.83650105960E-01  0.32511461790E-01 -0.93793341570E-01  0.13133001875E+00  0.19900942882E-01 0.  0.
         14    1    1    2    0    0 -0.33575470613E-02  0.16144734273E-01  0.16943719576E-01  0.23643502280E-01  0.00000000000E+00 0.  1.
     999901    1    3    3    0    0  0.87007653021E-01 -0.48656196063E-01  0.76849621994E-01  0.88895647897E+00  0.88000000000E+00 0. -1.
        -11    1    4    4    0    0 -0.41251702027E-01  0.80580793674E-02 -0.34046203859E-01  0.54092889380E-01  0.51100000000E-03 0.  1.
         11    1    4    4    0    0 -0.42398403932E-01  0.24453382423E-01 -0.59747137711E-01  0.77237129371E-01  0.51100000000E-03 0. -1.
</event>
<event>
 8    1  0.1233916E+005  0.1043930E+01  0.7957747E-01            NaN
         13   -1    0    0    0    0  0.00000000000E+00  0.00000000000E+00  0.74505805969E-08  0.10566000000E+00  0.10566000000E+00 0.  1.
     999900   -1    0    0    0    0 -0.00000000000E+00 -0.00000000000E+00 -0.74505805969E-08  0.93827000000E+00  0.93827000000E+00 0.  1.
     999902    2    1    2    0    0 -0.86022345504E-02  0.21035235416E-01 -0.45368246980E-02  0.10207553944E+01  0.10204922894E+01 0.  0.
     999903    2    3    3    0    0 -0.79945794122E-02 -0.20990141812E-01 -0.12772285013E+00  0.13118173331E+00  0.19774259879E-01 0.  0.
         14    1    1    2    0    0  0.86022345504E-02 -0.21035235416E-01  0.45368246980E-02  0.23174605641E-01  0.00000000000E+00 0.  1.
     999901    1    3    3    0    0 -0.60765513822E-03  0.42025377229E-01  0.12318602544E+00  0.88957366105E+00  0.88000000000E+00 0. -1.
        -11    1    4    4    0    0 -0.30998807277E-02  0.19475132308E-02 -0.48964083923E-02  0.61349820256E-02  0.51100000000E-03 0. -1.
         11    1    4    4    0    0 -0.48946986845E-02 -0.22937655043E-01 -0.12282644174E+00  0.12504675128E+00  0.51100000000E-03 0.  1.
</event>
<event>
 8    1  0.1233916E+005  0.1043930E+01  0.7957747E-01            NaN
         13   -1    0    0    0    0  0.00000000000E+00  0.00000000000E+00  0.74505805969E-08  0.10566000000E+00  0.10566000000E+00 0. -1.
     999900   -1    0    0    0    0 -0.00000000000E+00 -0.00000000000E+00 -0.74505805969E-08  0.93827000000E+00  0.93827000000E+00 0.  1.
     999902    2    1    2    0    0 -0.23498304280E-02 -0.20097646930E-01 -0.10914430905E-01  0.10209395255E+01  0.10206806321E+01 0.  0.
     999903    2    3    3    0    0  0.61910141743E-01 -0.10330119475E+00 -0.53756457876E-01  0.13364723226E+00  0.21629226494E-01 0.  0.
         14    1    1    2    0    0  0.23498304280E-02  0.20097646930E-01  0.10914430905E-01  0.22990474487E-01  0.00000000000E+00 0. -1.
     999901    1    3    3    0    0 -0.64259972171E-01  0.83203547823E-01  0.42842026971E-01  0.88729229325E+00  0.88000000000E+00 0. -1.
        -11    1    4    4    0    0  0.19995303499E-01 -0.26991539753E-01 -0.53122444743E-02  0.34012298402E-01  0.51100000000E-03 0.  1.
         11    1    4    4    0    0  0.41914838244E-01 -0.76309655001E-01 -0.48444213402E-01  0.99634933856E-01  0.51100000000E-03 0. -1.
</event>
<event>
 8    1  0.1233916E+005  0.1043930E+01  0.7957747E-01            NaN
         13   -1    0    0    0    0  0.00000000000E+00  0.00000000000E+00  0.74505805969E-08  0.10566000000E+00  0.10566000000E+00 0. -1.
     999900   -1    0    0    0    0 -0.00000000000E+00 -0.00000000000E+00 -0.74505805969E-08  0.93827000000E+00  0.93827000000E+00 0. -1.
     999902    2    1    2    0    0 -0.68637742397E-02 -0.22535356366E-01 -0.31781718431E-02  0.10201591258E+01  0.10198821439E+01 0.  0.
     999903    2    3    3    0    0 -0.92756729379E-01  0.86678197437E-01  0.12745809363E-01  0.12911548308E+00  0.19784629354E-01 0.  0.
         14    1    1    2    0    0  0.68637742397E-02  0.22535356366E-01  0.31781718431E-02  0.23770874187E-01  0.00000000000E+00 0. -1.
     999901    1    3    3    0    0  0.85892955139E-01 -0.10921355380E+00 -0.15923981206E-01  0.89104364273E+00  0.88000000000E+00 0. -1.
        -11    1    4    4    0    0 -0.87722154245E-02  0.60971349469E-02  0.65876348608E-02  0.12561244846E-01  0.51100000000E-03 0. -1.
         11    1    4    4    0    0 -0.83984513955E-01  0.80581062490E-01  0.61581745025E-02  0.11655423823E+00  0.51100000000E-03 0.  1.
</event>
<event>
 8    1  0.1233916E+005  0.1043930E+01  0.7957747E-01            NaN
         13   -1    0    0    0    0  0.00000000000E+00  0.00000000000E+00  0.74505805969E-08  0.10566000000E+00  0.10566000000E+00 0. -1.
     999900   -1    0    0    0    0 -0.00000000000E+00 -0.00000000000E+00 -0.74505805969E-08  0.93827000000E+00  0.93827000000E+00 0.  1.
     999902    2    1    2    0    0  0.85276111253E-02 -0.24958593971E-01 -0.37713175775E-02  0.10172865317E+01  0.10169375661E+01 0.  0.
     999903    2    3    3    0    0  0.39429105590E-01 -0.20790503034E-02  0.11992537214E+00  0.12780395916E+00  0.19818685063E-01 0.  0.
         14    1    1    2    0    0 -0.85276111253E-02  0.24958593971E-01  0.37713175775E-02  0.26643468258E-01  0.00000000000E+00 0. -1.
     999901    1    3    3    0    0 -0.30901494465E-01 -0.22879543668E-01 -0.12369668971E+00  0.88948257258E+00  0.88000000000E+00 0.  1.
        -11    1    4    4    0    0  0.12348792889E-01  0.84707554541E-02  0.45508235465E-01  0.47911449570E-01  0.51100000000E-03 0.  1.
         11    1    4    4    0    0  0.27080312701E-01 -0.10549805758E-01  0.74417136672E-01  0.79892509592E-01  0.51100000000E-03 0. -1.
</event>
<event>
 8    1  0.1233916E+005  0.1043930E+01  0.7957747E-01            NaN
         13   -1    0    0    0    0  0.00000000000E+00  0.00000000000E+00  0.74505805969E-08  0.10566000000E+00  0.10566000000E+00 0. -1.
     999900   -1    0    0    0    0 -0.00000000000E+00 -0.00000000000E+00 -0.74505805969E-08  0.93827000000E+00  0.93827000000E+00 0. -1.
     999902    2    1    2    0    0  0.18013497476E-01  0.99922199878E-02  0.11878158114E-01  0.10201514132E+01  0.10198742494E+01 0.  0.
     999903    2    3    3    0    0  0.26324330405E-01  0.11925527967E+00  0.47766116875E-01  0.13262933922E+00  0.19853150915E-01 0.  0.
         14    1    1    2    0    0 -0.18013497476E-01 -0.99922199878E-02 -0.11878158114E-01  0.23778586833E-01  0.00000000000E+00 0. -1.
     999901    1    3    3    0    0 -0.83108329290E-02 -0.10926305968E+00 -0.35887958761E-01  0.88752207394E+00  0.88000000000E+00 0. -1.
        -11    1    4    4    0    0  0.20289486820E-01  0.11357598709E+00  0.43584219340E-01  0.12333293727E+00  0.51100000000E-03 0.  1.
         11    1    4    4    0    0  0.60348435851E-02  0.56792925775E-02  0.41818975350E-02  0.92964019529E-02  0.51100000000E-03 0. -1.
</event>
<event>
 8    1  0.1233916E+005  0.1043930E+01  0.7957747E-01            NaN
         13   -1    0    0    0    0  0.00000000000E+00  0.00000000000E+00  0.74505805969E-08  0.10566000000E+00  0.10566000000E+00 0.  1.
     999900   -1    0    0    0    0 -0.00000000000E+00 -0.00000000000E+00 -0.74505805969E-08  0.93827000000E+00  0.93827000000E+00 0. -1.
     999902    2    1    2    0    0  0.17289040782E-02  0.16160558754E-01  0.17080358014E-01  0.10203526507E+01  0.10200802128E+01 0.  0.
     999903    2    3    3    0    0  0.11848879893E+00 -0.29035221183E-01 -0.39615131742E-01  0.12968441276E+00  0.19132399492E-01 0.  0.
         14    1    1    2    0    0 -0.17289040782E-02 -0.16160558754E-01 -0.17080358014E-01  0.23577349267E-01  0.00000000000E+00 0. -1.
     999901    1    3    3    0    0 -0.11675989485E+00  0.45195779937E-01  0.56695489756E-01  0.89066823797E+00  0.88000000000E+00 0.  1.
        -11    1    4    4    0    0  0.81904132975E-01 -0.29003594960E-01 -0.28549406037E-01  0.91459418460E-01  0.51100000000E-03 0.  1.
         11    1    4    4    0    0  0.36584665953E-01 -0.31626222813E-04 -0.11065725705E-01  0.38224994303E-01  0.51100000000E-03 0. -1.
</event>
<event>
 8    1  0.1233916E+005  0.1043930E+01  0.7957747E-01            NaN
         13   -1    0    0    0    0  0.00000000000E+00  0.00000000000E+00  0.74505805969E-08  0.10566000000E+00  0.10566000000E+00 0. -1.
     999900   -1    0    0    0    0 -0.00000000000E+00 -0.00000000000E+00 -0.74505805969E-08  0.93827000000E+00  0.93827000000E+00 0.  1.
     999902    2    1    2    0    0  0.21297479343E-01  0.13156471761E-01  0.21144376827E-03  0.10188956220E+01  0.10185880268E+01 0.  0.
     999903    2    3    3    0    0  0.71527378910E-01 -0.84436710316E-01 -0.64490422794E-01  0.12971970936E+00  0.20553938372E-01 0.  0.
         14    1    1    2    0    0 -0.21297479343E-01 -0.13156471761E-01 -0.21144376827E-03  0.25034378044E-01  0.00000000000E+00 0. -1.
     999901    1    3    3    0    0 -0.50229899567E-01  0.97593182077E-01  0.64701866562E-01  0.88917591259E+00  0.88000000000E+00 0. -1.
        -11    1    4    4    0    0  0.43672018691E-01 -0.63986220066E-01 -0.50249656165E-01  0.92340514621E-01  0.51100000000E-03 0.  1.
         11    1    4    4    0    0  0.27855360219E-01 -0.20450490250E-01 -0.14240766628E-01  0.37379194742E-01  0.51100000000E-03 0. -1.
</event>
<event>
 8    1  0.1233916E+005  0.1043930E+01  0.7957747E-01            NaN
         13   -1    0    0    0    0  0.00000000000E+00  0.00000000000E+00  0.74505805969E-08  0.10566000000E+00  0.10566000000E+00 0. -1.
     999900   -1    0    0    0    0 -0.00000000000E+00 -0.00000000000E+00 -0.74505805969E-08  0.93827000000E+00  0.93827000000E+00 0.  1.
     999902    2    1    2    0    0 -0.50001532038E-02  0.40974187404E-02 -0.22695801778E-01  0.10203314875E+01  0.10200585545E+01 0.  0.
     999903    2    3    3    0    0  0.20801033943E-01 -0.31242931343E-01 -0.12617873350E+00  0.13318811763E+00  0.20228645946E-01 0.  0.
         14    1    1    2    0    0  0.50001532038E-02 -0.40974187404E-02  0.22695801778E-01  0.23598512468E-01  0.00000000000E+00 0. -1.
     999901    1    3    3    0    0 -0.25801187147E-01  0.35340350083E-01  0.10348293173E+00  0.88714336990E+00  0.88000000000E+00 0. -1.
        -11    1    4    4    0    0  0.19187077394E-01 -0.19546352699E-01 -0.59942297572E-01  0.65905568824E-01  0.51100000000E-03 0.  1.
         11    1    4    4    0    0  0.16139565485E-02 -0.11696578643E-01 -0.66236435933E-01  0.67282548806E-01  0.51100000000E-03 0. -1.
</event>
<event>
 8    1  0.1233916E+005  0.1043930E+01  0.7957747E-01            NaN
         13   -1    0    0    0    0  0.00000000000E+00  0.00000000000E+00  0.74505805969E-08  0.10566000000E+00  0.10566000000E+00 0.  1.
     999900   -1    0    0    0    0 -0.00000000000E+00 -0.00000000000E+00 -0.74505805969E-08  0.93827000000E+00  0.93827000000E+00 0.  1.
     999902    2    1    2    0    0  0.19408971985E-01 -0.10800507758E-01  0.43418359494E-02  0.10212979276E+01  0.10210471322E+01 0.  0.
     999903    2    3    3    0    0 -0.11492730367E+00 -0.26972821198E-01  0.50057494543E-01  0.12978365396E+00  0.20055569381E-01 0.  0.
         14    1    1    2    0    0 -0.19408971985E-01  0.10800507758E-01 -0.43418359494E-02  0.22632072392E-01  0.00000000000E+00 0.  1.
     999901    1    3    3    0    0  0.13433627565E+00  0.16172313441E-01 -0.45715658593E-01  0.89151427365E+00  0.88000000000E+00 0.  1.
        -11    1    4    4    0    0 -0.24269391467E-01  0.91661208196E-03  0.51234474361E-02  0.24826485343E-01  0.51100000000E-03 0.  1.
         11    1    4    4    0    0 -0.90657912202E-01 -0.27889433280E-01  0.44934047107E-01  0.10495716862E+00  0.51100000000E-03 0. -1.
</event>
<event>
 8    1  0.1233916E+005  0.1043930E+01  0.7957747E-01            NaN
         13   -1    0    0    0    0  0.00000000000E+00  0.00000000000E+00  0.74505805969E-08  0.10566000000E+00  0.10566000000E+00 0. -1.
     999900   -1    0    0    0    0 -0.00000000000E+00 -0.00000000000E+00 -0.74505805969E-08  0.93827000000E+00  0.93827000000E+00 0.  1.
     999902    2    1    2    0    0  0.10733505445E-01  0.18944167305E-01 -0.12373478898E-01  0.10188861865E+01  0.10185783566E+01 0.  0.
     999903    2    3    3    0    0  0.44158273751E-01  0.11409460335E+00  0.44491439924E-01  0.13130270333E+00  0.17128339717E-01 0.  0.
         14    1    1    2    0    0 -0.10733505445E-01 -0.18944167305E-01  0.12373478898E-01  0.25043813489E-01  0.00000000000E+00 0. -1.
     999901    1    3    3    0    0 -0.33424768306E-01 -0.95150436048E-01 -0.56864918822E-01  0.88758348318E+00  0.88000000000E+00 0.  1.
        -11    1    4    4    0    0  0.32642391682E-01  0.93769506023E-01  0.29654540245E-01  0.10362383352E+00  0.51100000000E-03 0. -1.
         11    1    4    4    0    0  0.11515882069E-01  0.20325097329E-01  0.14836899679E-01  0.27678869817E-01  0.51100000000E-03 0.  1.
</event>
<event>
 8    1  0.1275117E+005  0.1043930E+01  0.7957747E-01            NaN
         13   -1    0    0    0    0  0.00000000000E+00  0.00000000000E+00  0.74505805969E-08  0.10566000000E+00  0.10566000000E+00 0.  1.
     999900   -1    0    0    0    0 -0.00000000000E+00 -0.00000000000E+00 -0.74505805969E-08  0.93827000000E+00  0.93827000000E+00 0.  1.
     999902    2    1    2    0    0 -0.38814261161E-02 -0.23185668539E-01  0.33259347894E-02  0.10201875794E+01  0.10199112680E+01 0.  0.
     999903    2    3    3    0    0 -0.69283509103E-01 -0.11208499928E+00  0.16052950696E-02  0.13329216049E+00  0.20024269710E-01 0.  0.
         14    1    1    2    0    0  0.38814261161E-02  0.23185668539E-01 -0.33259347894E-02  0.23742420612E-01  0.00000000000E+00 0.  1.
     999901    1    3    3    0    0  0.65402082987E-01  0.88899330743E-01  0.17206397198E-02  0.88689541890E+00  0.88000000000E+00 0. -1.
        -11    1    4    4    0    0 -0.36466081661E-01 -0.42538471862E-01  0.54337988795E-02  0.56294617783E-01  0.51100000000E-03 0.  1.
         11    1    4    4    0    0 -0.32817427442E-01 -0.69546527420E-01 -0.38285038099E-02  0.76997542705E-01  0.51100000000E-03 0. -1.
</event>
<event>
 8    1  0.1233916E+005  0.1043930E+01  0.7957747E-01            NaN
         13   -1    0    0    0    0  0.00000000000E+00  0.00000000000E+00  0.74505805969E-08  0.10566000000E+00  0.10566000000E+00 0. -1.
     999900   -1    0    0    0    0 -0.00000000000E+00 -0.00000000000E+00 -0.74505805969E-08  0.93827000000E+00  0.93827000000E+00 0. -1.
     999902    2    1    2    0    0  0.20394155986E-01 -0.10286814399E-01  0.48472847513E-02  0.10205797041E+01  0.10203125482E+01 0.  0.
     999903    2    3    3    0    0  0.29755538148E-01  0.12500906803E+00 -0.63783348627E-02  0.13011992073E+00  0.19438402022E-01 0.  0.
         14    1    1    2    0    0 -0.20394155986E-01  0.10286814399E-01 -0.48472847513E-02  0.23350295894E-01  0.00000000000E+00 0. -1.
     999901    1    3    3    0    0 -0.93613821614E-02 -0.13529588243E+00  0.11225619614E-01  0.89045978338E+00  0.88000000000E+00 0.  1.
        -11    1    4    4    0    0  0.24490699558E-01  0.88031350403E-01 -0.12635033169E-01  0.92245423750E-01  0.51100000000E-03 0. -1.
         11    1    4    4    0    0  0.52648385896E-02  0.36977717632E-01  0.62566983059E-02  0.37874496978E-01  0.51100000000E-03 0.  1.
</event>
<event>
 8    1  0.1233916E+005  0.1043930E+01  0.7957747E-01            NaN
         13   -1    0    0    0    0  0.00000000000E+00  0.00000000000E+00  0.74505805969E-08  0.10566000000E+00  0.10566000000E+00 0. -1.
     999900   -1    0    0    0    0 -0.00000000000E+00 -0.00000000000E+00 -0.74505805969E-08  0.93827000000E+00  0.93827000000E+00 0. -1.
     999902    2    1    2    0    0 -0.85044518182E-02  0.99373030904E-02  0.20759616198E-01  0.10193935504E+01  0.10190982157E+01 0.  0.
     999903    2    3    3    0    0 -0.64003570872E-01  0.74044379074E-01  0.87530983418E-01  0.13279990906E+00  0.19877515753E-01 0.  0.
         14    1    1    2    0    0  0.85044518182E-02 -0.99373030904E-02 -0.20759616198E-01  0.24536449583E-01  0.00000000000E+00 0.  1.
     999901    1    3    3    0    0  0.55499119054E-01 -0.64107075984E-01 -0.66771367220E-01  0.88659364135E+00  0.88000000000E+00 0. -1.
        -11    1    4    4    0    0 -0.26184994391E-01  0.34838680715E-01  0.51588834844E-01  0.67535595110E-01  0.51100000000E-03 0. -1.
         11    1    4    4    0    0 -0.37818576481E-01  0.39205698359E-01  0.35942148574E-01  0.65264313955E-01  0.51100000000E-03 0.  1.
</event>
<event>
 8    1  0.1233916E+005  0.1043930E+01  0.7957747E-01            NaN
         13   -1    0    0    0    0  0.00000000000E+00  0.00000000000E+00  0.74505805969E-08  0.10566000000E+00  0.10566000000E+00 0.  1.
     999900   -1    0    0    0    0 -0.00000000000E+00 -0.00000000000E+00 -0.74505805969E-08  0.93827000000E+00  0.93827000000E+00 0.  1.
     999902    2    1    2    0    0  0.37128838287E-04 -0.18615835189E-01  0.15298864010E-01  0.10198342340E+01  0.10195495373E+01 0.  0.
     999903    2    3    3    0    0 -0.58681883586E-01 -0.93259062749E-01  0.71020074463E-01  0.13297213248E+00  0.22291720319E-01 0.  0.
         14    1    1    2    0    0 -0.37128838287E-04  0.18615835189E-01 -0.15298864010E-01  0.24095765983E-01  0.00000000000E+00 0.  1.
     999901    1    3    3    0    0  0.58719012424E-01  0.74643227560E-01 -0.55721210454E-01  0.88686210153E+00  0.88000000000E+00 0.  1.
        -11    1    4    4    0    0 -0.48332891604E-01 -0.64523538016E-01  0.42295665465E-01  0.91041418086E-01  0.51100000000E-03 0.  1.
         11    1    4    4    0    0 -0.10348991982E-01 -0.28735524733E-01  0.28724408998E-01  0.41930714399E-01  0.51100000000E-03 0. -1.
</event>
<event>
 8    1  0.1233916E+005  0.1043930E+01  0.7957747E-01            NaN
         13   -1    0    0    0    0  0.00000000000E+00  0.00000000000E+00  0.74505805969E-08  0.10566000000E+00  0.10566000000E+00 0.  1.
     999900   -1    0    0    0    0 -0.00000000000E+00 -0.00000000000E+00 -0.74505805969E-08  0.93827000000E+00  0.93827000000E+00 0. -1.
     999902    2    1    2    0    0  0.23749798308E-01 -0.20193334539E-02 -0.76984648327E-03  0.10200820799E+01  0.10198032784E+01 0.  0.
     999903    2    3    3    0    0  0.10076631268E+00  0.10194854362E-01 -0.82998547273E-01  0.13281532800E+00  0.22211881453E-01 0.  0.
         14    1    1    2    0    0 -0.23749798308E-01  0.20193334539E-02  0.76984648327E-03  0.23847920053E-01  0.00000000000E+00 0.  1.
     999901    1    3    3    0    0 -0.77016514368E-01 -0.12214187816E-01  0.82228700789E-01  0.88726675194E+00  0.88000000000E+00 0.  1.
        -11    1    4    4    0    0  0.53329228763E-01  0.15128971040E-01 -0.37731883245E-01  0.67058545611E-01  0.51100000000E-03 0. -1.
         11    1    4    4    0    0  0.47437083912E-01 -0.49341166782E-02 -0.45266664028E-01  0.65756782393E-01  0.51100000000E-03 0.  1.
</event>
<event>
 8    1  0.1233916E+005  0.1043930E+01  0.7957747E-01            NaN
         13   -1    0    0    0    0  0.00000000000E+00  0.00000000000E+00  0.74505805969E-08  0.10566000000E+00  0.10566000000E+00 0. -1.
     999900   -1    0    0    0    0 -0.00000000000E+00 -0.00000000000E+00 -0.74505805969E-08  0.93827000000E+00  0.93827000000E+00 0. -1.
     999902    2    1    2    0    0 -0.12757528832E-01  0.11480295792E-01  0.15972093254E-01  0.10204851819E+01  0.10202158335E+01 0.  0.
     999903    2    3    3    0    0 -0.23158796512E-01 -0.91380721845E-01  0.89307431548E-01  0.13140326937E+00  0.20105613436E-01 0.  0.
         14    1    1    2    0    0  0.12757528832E-01 -0.11480295792E-01 -0.15972093254E-01  0.23444818111E-01  0.00000000000E+00 0.  1.
     999901    1    3    3    0    0  0.10401267680E-01  0.10286101764E+00 -0.73335338294E-01  0.88908191251E+00  0.88000000000E+00 0.  1.
        -11    1    4    4    0    0 -0.15966939007E-01 -0.33376755426E-01  0.43722335564E-01  0.57278745554E-01  0.51100000000E-03 0. -1.
         11    1    4    4    0    0 -0.71918575055E-02 -0.58003966419E-01  0.45585095983E-01  0.74124523820E-01  0.51100000000E-03 0.  1.
</event>
<event>
 8    1  0.1233916E+005  0.1043930E+01  0.7957747E-01            NaN
         13   -1    0    0    0    0  0.00000000000E+00  0.00000000000E+00  0.74505805969E-08  0.10566000000E+00  0.10566000000E+00 0. -1.
     999900   -1    0    0    0    0 -0.00000000000E+00 -0.00000000000E+00 -0.74505805969E-08  0.93827000000E+00  0.93827000000E+00 0.  1.
     999902    2    1    2    0    0 -0.12936554718E-01  0.15579194179E-01  0.12627494552E-01  0.10200653953E+01  0.10197861988E+01 0.  0.
     999903    2    3    3    0    0 -0.15793893285E-01 -0.32990498166E-01  0.12430003417E+00  0.13167475177E+00  0.23450409876E-01 0.  0.
         14    1    1    2    0    0  0.12936554718E-01 -0.15579194179E-01 -0.12627494552E-01  0.23864604709E-01  0.00000000000E+00 0.  1.
     999901    1    3    3    0    0  0.28573385669E-02  0.48569692345E-01 -0.11167253962E+00  0.88839064353E+00  0.88000000000E+00 0.  1.
        -11    1    4    4    0    0  0.45371389259E-02 -0.16301563468E-01  0.42472946443E-01  0.45722411372E-01  0.51100000000E-03 0. -1.
         11    1    4    4    0    0 -0.20331032211E-01 -0.16688934697E-01  0.81827087728E-01  0.85952340394E-01  0.51100000000E-03 0.  1.
</event>
<event>
 8    1  0.1233916E+005  0.1043930E+01  0.7957747E-01            NaN
         13   -1    0    0    0    0  0.00000000000E+00  0.00000000000E+00  0.74505805969E-08  0.10566000000E+00  0.10566000000E+00 0.  1.
     999900   -1    0    0    0    0 -0.00000000000E+00 -0.00000000000E+00 -0.74505805969E-08  0.93827000000E+00  0.93827000000E+00 0. -1.
     999902    2    1    2    0    0 -0.17533197878E-02  0.14264335566E-01  0.18229968265E-01  0.10207162725E+01  0.10204522683E+01 0.  0.
     999903    2    3    3    0    0  0.40227047156E-01 -0.90664390463E-01 -0.78842427519E-01  0.12819431832E+00  0.19478394462E-01 0.  0.
         14    1    1    2    0    0  0.17533197878E-02 -0.14264335566E-01 -0.18229968265E-01  0.23213727456E-01  0.00000000000E+00 0. -1.
     999901    1    3    3    0    0 -0.41980366944E-01  0.10492872603E+00  0.97072395784E-01  0.89252195423E+00  0.88000000000E+00 0. -1.
        -11    1    4    4    0    0  0.32138671853E-01 -0.82264614693E-01 -0.62873917782E-01  0.10841472094E+00  0.51100000000E-03 0. -1.
         11    1    4    4    0    0  0.80883753028E-02 -0.83997757693E-02 -0.15968509737E-01  0.19779597373E-01  0.51100000000E-03 0.  1.
</event>
<event>
 8    1  0.1233916E+005  0.1043930E+01  0.7957747E-01            NaN
         13   -1    0    0    0    0  0.00000000000E+00  0.00000000000E+00  0.74505805969E-08  0.10566000000E+00  0.10566000000E+00 0.  1.
     999900   -1    0    0    0    0 -0.00000000000E+00 -0.00000000000E+00 -0.74505805969E-08  0.93827000000E+00  0.93827000000E+00 0.  1.
     999902    2    1    2    0    0 -0.38025668668E-03  0.15217788813E-01  0.17860970227E-01  0.10204621507E+01  0.10201922668E+01 0.  0.
     999903    2    3    3    0    0  0.42790500894E-01 -0.10262676659E+00  0.64885638905E-01  0.13031476237E+00  0.20211654268E-01 0.  0.
         14    1    1    2    0    0  0.38025668668E-03 -0.15217788813E-01 -0.17860970227E-01  0.23467849261E-01  0.00000000000E+00 0. -1.
     999901    1    3    3    0    0 -0.43170757581E-01  0.11784455541E+00 -0.47024668678E-01  0.89014738837E+00  0.88000000000E+00 0. -1.
        -11    1    4    4    0    0  0.16904514034E-01 -0.33351976264E-01  0.11565613686E-01  0.39142578560E-01  0.51100000000E-03 0.  1.
         11    1    4    4    0    0  0.25885986860E-01 -0.69274790329E-01  0.53320025219E-01  0.91172183813E-01  0.51100000000E-03 0. -1.
</event>
<event>
 7    1  0.1233916E+005  0.1043930E+01  0.7957747E-01            NaN
         13   -1    0    0    0    0  0.00000000000E+00  0.00000000000E+00  0.74505805969E-08  0.10566000000E+00  0.10566000000E+00 0.  1.
     999900   -1    0    0    0    0 -0.00000000000E+00 -0.00000000000E+00 -0.74505805969E-08  0.93827000000E+00  0.93827000000E+00 0.  1.
     999903    2    1    2    0    0 -0.26062389051E-01  0.59481091968E-02  0.55325118591E-01  0.64584782086E-01  0.19892139250E-01 0.  0.
         14    1    1    2    0    0  0.17820748081E-01  0.68509072287E-01 -0.65007241584E-01  0.96109383028E-01  0.00000000000E+00 0. -1.
     999901    1    1    2    0    0  0.82416409707E-02 -0.74457181483E-01  0.96821229930E-02  0.88323583489E+00  0.88000000000E+00 0.  1.
        -11    1    3    3    0    0 -0.79483070262E-02 -0.63110724302E-02  0.26611419832E-01  0.28485680723E-01  0.51100000000E-03 0. -1.
         11    1    3    3    0    0 -0.18114082025E-01  0.12259181627E-01  0.28713698760E-01  0.36099101363E-01  0.51100000000E-03 0.  1.
</event>
<event>
 8    1  0.1233916E+005  0.1043930E+01  0.7957747E-01            NaN
         13   -1    0    0    0    0  0.00000000000E+00  0.00000000000E+00  0.74505805969E-08  0.10566000000E+00  0.10566000000E+00 0. -1.
     999900   -1    0    0    0    0 -0.00000000000E+00 -0.00000000000E+00 -0.74505805969E-08  0.93827000000E+00  0.93827000000E+00 0.  1.
     999902    2    1    2    0    0  0.96910154851E-02 -0.17804703186E-01  0.11933804655E-01  0.10204068427E+01  0.10201356702E+01 0.  0.
     999903    2    3    3    0    0  0.44713753376E-01  0.10575877888E+00 -0.53929976088E-01  0.12864871186E+00  0.21396487812E-01 0.  0.
         14    1    1    2    0    0 -0.96910154851E-02  0.17804703186E-01 -0.11933804655E-01  0.23523157319E-01  0.00000000000E+00 0.  1.
     999901    1    3    3    0    0 -0.35022737891E-01 -0.12356348207E+00  0.65863780744E-01  0.89175813082E+00  0.88000000000E+00 0. -1.
        -11    1    4    4    0    0  0.77118153338E-02  0.14856531189E-01 -0.16780477066E-01  0.23707259358E-01  0.51100000000E-03 0.  1.
         11    1    4    4    0    0  0.37001938042E-01  0.90902247694E-01 -0.37149499023E-01  0.10494145250E+00  0.51100000000E-03 0. -1.
</event>
<event>
 8    1  0.1233916E+005  0.1043930E+01  0.7957747E-01            NaN
         13   -1    0    0    0    0  0.00000000000E+00  0.00000000000E+00  0.74505805969E-08  0.10566000000E+00  0.10566000000E+00 0. -1.
     999900   -1    0    0    0    0 -0.00000000000E+00 -0.00000000000E+00 -0.74505805969E-08  0.93827000000E+00  0.93827000000E+00 0. -1.
     999902    2    1    2    0    0 -0.22469374288E-01  0.66224801116E-02  0.67077502148E-03  0.10204954110E+01  0.10202263003E+01 0.  0.
     999903    2    3    3    0    0 -0.52713838174E-01  0.94970981927E-01  0.72523859884E-01  0.13264235378E+00  0.23152702215E-01 0.  0.
         14    1    1    2    0    0  0.22469374288E-01 -0.66224801116E-02 -0.67077502148E-03  0.23434589027E-01  0.00000000000E+00 0. -1.
     999901    1    3    3    0    0  0.30244463886E-01 -0.88348501815E-01 -0.71853084862E-01  0.88785305720E+00  0.88000000000E+00 0. -1.
        -11    1    4    4    0    0 -0.32088859226E-01  0.47739117033E-01  0.25684675356E-01  0.62997474955E-01  0.51100000000E-03 0. -1.
         11    1    4    4    0    0 -0.20624978948E-01  0.47231864894E-01  0.46839184527E-01  0.69644878822E-01  0.51100000000E-03 0.  1.
</event>
<event>
 8    1  0.1233916E+005  0.1043930E+01  0.7957747E-01            NaN
         13   -1    0    0    0    0  0.00000000000E+00  0.00000000000E+00  0.74505805969E-08  0.10566000000E+00  0.10566000000E+00 0.  1.
     999900   -1    0    0    0    0 -0.00000000000E+00 -0.00000000000E+00 -0.74505805969E-08  0.93827000000E+00  0.93827000000E+00 0. -1.
     999902    2    1    2    0    0 -0.15085979401E-01 -0.12199028659E-01 -0.13684671439E-01  0.10201881949E+01  0.10199118981E+01 0.  0.
     999903    2    3    3    0    0  0.50671709804E-03  0.53678210211E-01  0.11478389915E+00  0.12828735045E+00  0.20017336660E-01 0.  0.
         14    1    1    2    0    0  0.15085979401E-01  0.12199028659E-01  0.13684671439E-01  0.23741805051E-01  0.00000000000E+00 0. -1.
     999901    1    3    3    0    0 -0.15592696499E-01 -0.65877238871E-01 -0.12846857059E+00  0.89190084450E+00  0.88000000000E+00 0. -1.
        -11    1    4    4    0    0 -0.22372427366E-02  0.30597974755E-01  0.42946080992E-01  0.52781325369E-01  0.51100000000E-03 0.  1.
         11    1    4    4    0    0  0.27439598347E-02  0.23080235456E-01  0.71837818163E-01  0.75506025082E-01  0.51100000000E-03 0. -1.
</event>
<event>
 8    1  0.1233916E+005  0.1043930E+01  0.7957747E-01            NaN
         13   -1    0    0    0    0  0.00000000000E+00  0.00000000000E+00  0.74505805969E-08  0.10566000000E+00  0.10566000000E+00 0.  1.
     999900   -1    0    0    0    0 -0.00000000000E+00 -0.00000000000E+00 -0.74505805969E-08  0.93827000000E+00  0.93827000000E+00 0.  1.
     999902    2    1    2    0    0  0.87003927912E-02 -0.17339295876E-01 -0.13188557654E-01  0.10204718230E+01  0.10202021640E+01 0.  0.
     999903    2    3    3    0    0  0.38176460300E-01  0.10167469810E+00  0.65534749985E-01  0.12849058524E+00  0.20490014274E-01 0.  0.
         14    1    1    2    0    0 -0.87003927912E-02  0.17339295876E-01  0.13188557654E-01  0.23458177022E-01  0.00000000000E+00 0.  1.
     999901    1    3    3    0    0 -0.29476067509E-01 -0.11901399397E+00 -0.78723307639E-01  0.89198123774E+00  0.88000000000E+00 0.  1.
        -11    1    4    4    0    0  0.12815160584E-01  0.61937721821E-01  0.34494724155E-01  0.72046213229E-01  0.51100000000E-03 0.  1.
         11    1    4    4    0    0  0.25361299716E-01  0.39736976275E-01  0.31040025830E-01  0.56444372007E-01  0.51100000000E-03 0. -1.
</event>
<event>
 8    1  0.1233916E+005  0.1043930E+01  0.7957747E-01            NaN
         13   -1    0    0    0    0  0.00000000000E+00  0.00000000000E+00  0.74505805969E-08  0.10566000000E+00  0.10566000000E+00 0.  1.
     999900   -1    0    0    0    0 -0.00000000000E+00 -0.00000000000E+00 -0.74505805969E-08  0.93827000000E+00  0.93827000000E+00 0. -1.
     999902    2    1    2    0    0 -0.10726251265E-01  0.32124734995E-02  0.20540622103E-01  0.10205357783E+01  0.10202676047E+01 0.  0.
     999903    2    3    3    0    0  0.77854695484E-01  0.24537262852E-01 -0.96688697254E-01  0.12809864098E+00  0.19928039717E-01 0.  0.
         14    1    1    2    0    0  0.10726251265E-01 -0.32124734995E-02 -0.20540622103E-01  0.23394221691E-01  0.00000000000E+00 0. -1.
     999901    1    3    3    0    0 -0.88580946749E-01 -0.21324789352E-01  0.11722931936E+00  0.89243713733E+00  0.88000000000E+00 0.  1.
        -11    1    4    4    0    0  0.74670578655E-02  0.71621275460E-02 -0.59309759450E-02  0.11936943529E-01  0.51100000000E-03 0. -1.
         11    1    4    4    0    0  0.70387637618E-01  0.17375135306E-01 -0.90757721309E-01  0.11616169745E+00  0.51100000000E-03 0.  1.
</event>
<event>
 8    1  0.1233916E+005  0.1043930E+01  0.7957747E-01            NaN
         13   -1    0    0    0    0  0.00000000000E+00  0.00000000000E+00  0.74505805969E-08  0.10566000000E+00  0.10566000000E+00 0.  1.
     999900   -1    0    0    0    0 -0.00000000000E+00 -0.00000000000E+00 -0.74505805969E-08  0.93827000000E+00  0.93827000000E+00 0.  1.
     999902    2    1    2    0    0  0.47159419782E-02  0.65777235320E-02 -0.12108169375E-01  0.10293658549E+01  0.10292628182E+01 0.  0.
     999903    2    3    3    0    0 -0.30846308221E-01 -0.18183418906E-01 -0.13383323617E+00  0.13993076473E+00  0.19676187675E-01 0.  0.
         14    1    1    2    0    0 -0.47159419782E-02 -0.65777235320E-02  0.12108169375E-01  0.14564145056E-01  0.00000000000E+00 0.  1.
     999901    1    3    3    0    0  0.35562250199E-01  0.24761142438E-01  0.12172506679E+00  0.88943509021E+00  0.88000000000E+00 0. -1.
        -11    1    4    4    0    0 -0.17476306016E-01 -0.14943454100E-02 -0.39821367945E-01  0.43516167182E-01  0.51100000000E-03 0. -1.
         11    1    4    4    0    0 -0.13370002205E-01 -0.16689073496E-01 -0.94011868223E-01  0.96414597550E-01  0.51100000000E-03 0.  1.
</event>
<event>
 8    1  0.1233916E+005  0.1043930E+01  0.7957747E-01            NaN
         13   -1    0    0    0    0  0.00000000000E+00  0.00000000000E+00  0.74505805969E-08  0.10566000000E+00  0.10566000000E+00 0.  1.
     999900   -1    0    0    0    0 -0.00000000000E+00 -0.00000000000E+00 -0.74505805969E-08  0.93827000000E+00  0.93827000000E+00 0.  1.
     999902    2    1    2    0    0  0.16065760251E-01  0.55220660657E-02 -0.16389584700E-01  0.10203244847E+01  0.10200513878E+01 0.  0.
     999903    2    3    3    0    0 -0.67229722861E-01 -0.89678704292E-01  0.58647263070E-01  0.12811831306E+00  0.20314896910E-01 0.  0.
         14    1    1    2    0    0 -0.16065760251E-01 -0.55220660657E-02  0.16389584700E-01  0.23605515302E-01  0.00000000000E+00 0.  1.
     999901    1    3    3    0    0  0.83295483112E-01  0.95200770358E-01 -0.75036847770E-01  0.89220617164E+00  0.88000000000E+00 0.  1.
        -11    1    4    4    0    0 -0.26935585421E-01 -0.21306867529E-01  0.21201663209E-01  0.40364340818E-01  0.51100000000E-03 0. -1.
         11    1    4    4    0    0 -0.40294137440E-01 -0.68371836763E-01  0.37445599861E-01  0.87753972242E-01  0.51100000000E-03 0.  1.
</event>
<event>
 8    1  0.1233916E+005  0.1043930E+01  0.7957747E-01            NaN
         13   -1    0    0    0    0  0.00000000000E+00  0.00000000000E+00  0.74505805969E-08  0.10566000000E+00  0.10566000000E+00 0. -1.
     999900   -1    0    0    0    0 -0.00000000000E+00 -0.00000000000E+00 -0.74505805969E-08  0.93827000000E+00  0.93827000000E+00 0.  1.
     999902    2    1    2    0    0  0.14398251653E-01 -0.12474401650E-01  0.12542030344E-01  0.10211216052E+01  0.10208668423E+01 0.  0.
     999903    2    3    3    0    0  0.10408636404E+00 -0.58578284587E-01  0.58027368353E-01  0.13419520382E+00  0.19385320400E-01 0.  0.
         14    1    1    2    0    0 -0.14398251653E-01  0.12474401650E-01 -0.12542030344E-01  0.22808394778E-01  0.00000000000E+00 0. -1.
     999901    1    3    3    0    0 -0.89688112387E-01  0.46103882936E-01 -0.45485338009E-01  0.88692640140E+00  0.88000000000E+00 0.  1.
        -11    1    4    4    0    0  0.77257695610E-01 -0.50460879718E-01  0.38276628915E-01  0.99902018773E-01  0.51100000000E-03 0. -1.
         11    1    4    4    0    0  0.26828668430E-01 -0.81174048689E-02  0.19750739438E-01  0.34293185050E-01  0.51100000000E-03 0.  1.
</event>
<event>
 8    1  0.1233916E+005  0.1043930E+01  0.7957747E-01            NaN
         13   -1    0    0    0    0  0.00000000000E+00  0.00000000000E+00  0.74505805969E-08  0.10566000000E+00  0.10566000000E+00 0. -1.
     999900   -1    0    0    0    0 -0.00000000000E+00 -0.00000000000E+00 -0.74505805969E-08  0.93827000000E+00  0.93827000000E+00 0.  1.
     999902    2    1    2    0    0  0.87272407445E-02  0.12190655020E-01 -0.17841529819E-01  0.10206255586E+01  0.10203594631E+01 0.  0.
     999903    2    3    3    0    0  0.14612708771E-01 -0.67052246998E-01  0.10653896218E+00  0.12833379971E+00  0.20235577612E-01 0.  0.
         14    1    1    2    0    0 -0.87272407445E-02 -0.12190655020E-01  0.17841529819E-01  0.23304441361E-01  0.00000000000E+00 0. -1.
     999901    1    3    3    0    0 -0.58854680267E-02  0.79242902018E-01 -0.12438049200E+00  0.89229175892E+00  0.88000000000E+00 0.  1.
        -11    1    4    4    0    0  0.65384266007E-02 -0.43336538755E-01  0.50001294026E-01  0.66492083281E-01  0.51100000000E-03 0. -1.
         11    1    4    4    0    0  0.80742821705E-02 -0.23715708243E-01  0.56537668156E-01  0.61841716434E-01  0.51100000000E-03 0.  1.
</event>
<event>
 8    1  0.1233916E+005  0.1043930E+01  0.7957747E-01            NaN
         13   -1    0    0    0    0  0.00000000000E+00  0.00000000000E+00  0.74505805969E-08  0.10566000000E+00  0.10566000000E+00 0. -1.
     999900   -1    0    0    0    0 -0.00000000000E+00 -0.00000000000E+00 -0.74505805969E-08  0.93827000000E+00  0.93827000000E+00 0.  1.
     999902    2    1    2    0    0 -0.55022204372E-02 -0.65198835896E-02  0.23163006379E-01  0.10192458315E+01  0.10189468861E+01 0.  0.
     999903    2    3    3    0    0  0.87356643857E-01 -0.69124197982E-01 -0.60322779941E-01  0.12822846610E+00  0.19858594278E-01 0.  0.
         14    1    1    2    0    0  0.55022204372E-02  0.65198835896E-02 -0.23163006379E-01  0.24684168535E-01  0.00000000000E+00 0.  1.
     999901    1    3    3    0    0 -0.92858864295E-01  0.62604314393E-01  0.83485786319E-01  0.89101736536E+00  0.88000000000E+00 0. -1.
        -11    1    4    4    0    0  0.19158416463E-01 -0.58567492129E-02 -0.88086796900E-02  0.21890646212E-01  0.51100000000E-03 0.  1.
         11    1    4    4    0    0  0.68198227394E-01 -0.63267448769E-01 -0.51514100251E-01  0.10633781989E+00  0.51100000000E-03 0. -1.
</event>
<event>
 8    1  0.1233916E+005  0.1043930E+01  0.7957747E-01            NaN
         13   -1    0    0    0    0  0.00000000000E+00  0.00000000000E+00  0.74505805969E-08  0.10566000000E+00  0.10566000000E+00 0.  1.
     999900   -1    0    0    0    0 -0.00000000000E+00 -0.00000000000E+00 -0.74505805969E-08  0.93827000000E+00  0.93827000000E+00 0.  1.
     999902    2    1    2    0    0  0.19613685180E-01  0.64988818855E-03 -0.45242993182E-02  0.10237907774E+01  0.10235926766E+01 0.  0.
     999903    2    3    3    0    0  0.91586372627E-01  0.97922929384E-01 -0.30478253183E-02  0.13550912602E+00  0.19402841140E-01 0.  0.
         14    1    1    2    0    0 -0.19613685180E-01 -0.64988818855E-03  0.45242993182E-02  0.20139222560E-01  0.00000000000E+00 0.  1.
     999901    1    3    3    0    0 -0.71972687447E-01 -0.97273041195E-01 -0.14764739999E-02  0.88828165142E+00  0.88000000000E+00 0.  1.
        -11    1    4    4    0    0  0.75838783833E-01  0.85262585420E-01  0.37814638188E-02  0.11417438502E+00  0.51100000000E-03 0. -1.
         11    1    4    4    0    0  0.15747588794E-01  0.12660343964E-01 -0.68292891371E-02  0.21334740992E-01  0.51100000000E-03 0.  1.
</event>
<event>
 8    1  0.1233916E+005  0.1043930E+01  0.7957747E-01            NaN
         13   -1    0    0    0    0  0.00000000000E+00  0.00000000000E+00  0.74505805969E-08  0.10566000000E+00  0.10566000000E+00 0.  1.
     999900   -1    0    0    0    0 -0.00000000000E+00 -0.00000000000E+00 -0.74505805969E-08  0.93827000000E+00  0.93827000000E+00 0. -1.
     999902    2    1    2    0    0  0.23595295330E-01 -0.11531488024E-02  0.26010933136E-02  0.10201637761E+01  0.10198869038E+01 0.  0.
     999903    2    3    3    0    0 -0.85527297230E-02  0.11945430362E+00  0.46947506430E-01  0.13025015247E+00  0.20458592833E-01 0.  0.
         14    1    1    2    0    0 -0.23595295330E-01  0.11531488024E-02 -0.26010933136E-02  0.23766223939E-01  0.00000000000E+00 0. -1.
     999901    1    3    3    0    0  0.32148025053E-01 -0.12060745242E+00 -0.44346413117E-01  0.88991362359E+00  0.88000000000E+00 0. -1.
        -11    1    4    4    0    0 -0.64793472127E-03  0.52034300104E-01  0.10104330477E-01  0.53012704346E-01  0.51100000000E-03 0.  1.
         11    1    4    4    0    0 -0.79047950017E-02  0.67420003513E-01  0.36843175953E-01  0.77237448126E-01  0.51100000000E-03 0. -1.
</event>
<event>
 8    1  0.1233916E+005  0.1043930E+01  0.7957747E-01            NaN
         13   -1    0    0    0    0  0.00000000000E+00  0.00000000000E+00  0.74505805969E-08  0.10566000000E+00  0.10566000000E+00 0.  1.
     999900   -1    0    0    0    0 -0.00000000000E+00 -0.00000000000E+00 -0.74505805969E-08  0.93827000000E+00  0.93827000000E+00 0.  1.
     999902    2    1    2    0    0 -0.70102800648E-02  0.18973546826E-01 -0.13130632981E-01  0.10198145894E+01  0.10195294227E+01 0.  0.
     999903    2    3    3    0    0 -0.98485378116E-01  0.20993482865E-01  0.80125884308E-01  0.13016940635E+00  0.19591349852E-01 0.  0.
         14    1    1    2    0    0  0.70102800648E-02 -0.18973546826E-01  0.13130632981E-01  0.24115410597E-01  0.00000000000E+00 0.  1.
     999901    1    3    3    0    0  0.91475098052E-01 -0.20199360387E-02 -0.93256517289E-01  0.88964518305E+00  0.88000000000E+00 0.  1.
        -11    1    4    4    0    0 -0.52259708741E-01  0.17259362571E-01  0.53167437894E-01  0.76524508017E-01  0.51100000000E-03 0.  1.
         11    1    4    4    0    0 -0.46225669376E-01  0.37341202937E-02  0.26958446414E-01  0.53644898338E-01  0.51100000000E-03 0. -1.
</event>
<event>
 8    1  0.1233916E+005  0.1043930E+01  0.7957747E-01            NaN
         13   -1    0    0    0    0  0.00000000000E+00  0.00000000000E+00  0.74505805969E-08  0.10566000000E+00  0.10566000000E+00 0. -1.
     999900   -1    0    0    0    0 -0.00000000000E+00 -0.00000000000E+00 -0.74505805969E-08  0.93827000000E+00  0.93827000000E+00 0. -1.
     999902    2    1    2    0    0  0.47675398414E-02  0.22869412925E-01 -0.94104199404E-04  0.10205687428E+01  0.10203013331E+01 0.  0.
     999903    2    3    3    0    0  0.17462585630E-01 -0.43551447243E-01 -0.11937088573E+00  0.12995106640E+00  0.20885421806E-01 0.  0.
         14    1    1    2    0    0 -0.47675398414E-02 -0.22869412925E-01  0.94104199404E-04  0.23361257228E-01  0.00000000000E+00 0. -1.
     999901    1    3    3    0    0 -0.12695045788E-01  0.66420860168E-01  0.11927678153E+00  0.89061767637E+00  0.88000000000E+00 0.  1.
        -11    1    4    4    0    0  0.15261762943E-01 -0.31401930021E-01 -0.61005778976E-01  0.70292025199E-01  0.51100000000E-03 0.  1.
         11    1    4    4    0    0  0.22008226871E-02 -0.12149517222E-01 -0.58365106757E-01  0.59659041201E-01  0.51100000000E-03 0. -1.
</event>
<event>
 8    1  0.1233916E+005  0.1043930E+01  0.7957747E-01            NaN
         13   -1    0    0    0    0  0.00000000000E+00  0.00000000000E+00  0.74505805969E-08  0.10566000000E+00  0.10566000000E+00 0. -1.
     999900   -1    0    0    0    0 -0.00000000000E+00 -0.00000000000E+00 -0.74505805969E-08  0.93827000000E+00  0.93827000000E+00 0.  1.
     999902    2    1    2    0    0  0.99786990102E-03 -0.33631642823E-02 -0.23978568762E-01  0.10196961729E+01  0.10194081648E+01 0.  0.
     999903    2    3    3    0    0  0.52684587926E-01  0.31707387043E-01 -0.11599083274E+00  0.13269689601E+00  0.19327926283E-01 0.  0.
         14    1    1    2    0    0 -0.99786990102E-03  0.33631642823E-02  0.23978568762E-01  0.24233827147E-01  0.00000000000E+00 0. -1.
     999901    1    3    3    0    0 -0.51686718025E-01 -0.35070551325E-01  0.92012263977E-01  0.88699927684E+00  0.88000000000E+00 0.  1.
        -11    1    4    4    0    0  0.33928459594E-01  0.30191995086E-01 -0.76946984720E-01  0.89352092959E-01  0.51100000000E-03 0. -1.
         11    1    4    4    0    0  0.18756128331E-01  0.15153919576E-02 -0.39043848019E-01  0.43344803055E-01  0.51100000000E-03 0.  1.
</event>
<event>
 8    1  0.1233916E+005  0.1043930E+01  0.7957747E-01            NaN
         13   -1    0    0    0    0  0.00000000000E+00  0.00000000000E+00  0.74505805969E-08  0.10566000000E+00  0.10566000000E+00 0.  1.
     999900   -1    0    0    0    0 -0.00000000000E+00 -0.00000000000E+00 -0.74505805969E-08  0.93827000000E+00  0.93827000000E+00 0. -1.
     999902    2    1    2    0    0 -0.85307608640E-02  0.75143401105E-02  0.19821721376E-01  0.10210796209E+01  0.10208239086E+01 0.  0.
     999903    2    3    3    0    0 -0.12589897434E+00 -0.21758076551E-01  0.30050697953E-01  0.13274589761E+00  0.19861098943E-01 0.  0.
         14    1    1    2    0    0  0.85307608640E-02 -0.75143401105E-02 -0.19821721376E-01  0.22850379133E-01  0.00000000000E+00 0. -1.
     999901    1    3    3    0    0  0.11736821347E+00  0.29272416662E-01 -0.10228976578E-01  0.88833372326E+00  0.88000000000E+00 0. -1.
        -11    1    4    4    0    0 -0.10810142121E+00 -0.25349015996E-01  0.23979965118E-01  0.11359484904E+00  0.51100000000E-03 0.  1.
         11    1    4    4    0    0 -0.17797553123E-01  0.35909394447E-02  0.60707328355E-02  0.19151048573E-01  0.51100000000E-03 0. -1.
</event>
<event>
 8    1  0.1233916E+005  0.1043930E+01  0.7957747E-01            NaN
         13   -1    0    0    0    0  0.00000000000E+00  0.00000000000E+00  0.74505805969E-08  0.10566000000E+00  0.10566000000E+00 0.  1.
     999900   -1    0    0    0    0 -0.00000000000E+00 -0.00000000000E+00 -0.74505805969E-08  0.93827000000E+00  0.93827000000E+00 0.  1.
     999902    2    1    2    0    0 -0.18259252447E-01  0.10479599818E-01 -0.12071435205E-01  0.10196618756E+01  0.10193730420E+01 0.  0.
     999903    2    3    3    0    0  0.16190462761E-01 -0.11456920908E+00 -0.53646660804E-01  0.12918307922E+00  0.20544317656E-01 0.  0.
         14    1    1    2    0    0  0.18259252447E-01 -0.10479599818E-01  0.12071435205E-01  0.24268124365E-01  0.00000000000E+00 0.  1.
     999901    1    3    3    0    0 -0.34449715209E-01  0.12504880890E+00  0.41575225599E-01  0.89047879642E+00  0.88000000000E+00 0.  1.
        -11    1    4    4    0    0  0.26941825150E-02 -0.40779246962E-01 -0.29396505364E-01  0.50345022106E-01  0.51100000000E-03 0. -1.
         11    1    4    4    0    0  0.13496280246E-01 -0.73789962115E-01 -0.24250155440E-01  0.78838057112E-01  0.51100000000E-03 0.  1.
</event>
<event>
 8    1  0.1233916E+005  0.1043930E+01  0.7957747E-01            NaN
         13   -1    0    0    0    0  0.00000000000E+00  0.00000000000E+00  0.74505805969E-08  0.10566000000E+00  0.10566000000E+00 0.  1.
     999900   -1    0    0    0    0 -0.00000000000E+00 -0.00000000000E+00 -0.74505805969E-08  0.93827000000E+00  0.93827000000E+00 0.  1.
     999902    2    1    2    0    0  0.13406258844E-01 -0.18692976236E-01  0.32601145831E-03  0.10209243177E+01  0.10206650778E+01 0.  0.
     999903    2    3    3    0    0  0.44337118616E-01  0.47463848841E-01  0.11181030317E+00  0.13088937964E+00  0.20295043071E-01 0.  0.
         14    1    1    2    0    0 -0.13406258844E-01  0.18692976236E-01 -0.32601145831E-03  0.23005682346E-01  0.00000000000E+00 0. -1.
     999901    1    3    3    0    0 -0.30930859773E-01 -0.66156825077E-01 -0.11148429171E+00  0.89003493802E+00  0.88000000000E+00 0.  1.
        -11    1    4    4    0    0  0.72608787580E-02  0.17627612269E-01  0.44868515713E-01  0.48753439858E-01  0.51100000000E-03 0.  1.
         11    1    4    4    0    0  0.37076239858E-01  0.29836236572E-01  0.66941787456E-01  0.82135939780E-01  0.51100000000E-03 0. -1.
</event>
<event>
 8    1  0.1233916E+005  0.1043930E+01  0.7957747E-01            NaN
         13   -1    0    0    0    0  0.00000000000E+00  0.00000000000E+00  0.74505805969E-08  0.10566000000E+00  0.10566000000E+00 0.  1.
     999900   -1    0    0    0    0 -0.00000000000E+00 -0.00000000000E+00 -0.74505805969E-08  0.93827000000E+00  0.93827000000E+00 0. -1.
     999902    2    1    2    0    0  0.63385807090E-02  0.26213628557E-01 -0.41866668405E-03  0.10169576584E+01  0.10165999075E+01 0.  0.
     999903    2    3    3    0    0 -0.53646426540E-02  0.12606601721E+00  0.27959598472E-01  0.13077890057E+00  0.19999040030E-01 0.  0.
         14    1    1    2    0    0 -0.63385807090E-02 -0.26213628557E-01  0.41866668405E-03  0.26972341561E-01  0.00000000000E+00 0.  1.
     999901    1    3    3    0    0  0.11703223363E-01 -0.99852388655E-01 -0.28378265156E-01  0.88617875786E+00  0.88000000000E+00 0. -1.
        -11    1    4    4    0    0 -0.11228730575E-01  0.10527561469E+00  0.19966464200E-01  0.10774024435E+00  0.51100000000E-03 0. -1.
         11    1    4    4    0    0  0.58640879214E-02  0.20790402522E-01  0.79931342712E-02  0.23038656225E-01  0.51100000000E-03 0.  1.
</event>
<event>
 8    1  0.1233916E+005  0.1043930E+01  0.7957747E-01            NaN
         13   -1    0    0    0    0  0.00000000000E+00  0.00000000000E+00  0.74505805969E-08  0.10566000000E+00  0.10566000000E+00 0. -1.
     999900   -1    0    0    0    0 -0.00000000000E+00 -0.00000000000E+00 -0.74505805969E-08  0.93827000000E+00  0.93827000000E+00 0.  1.
     999902    2    1    2    0    0  0.23579433001E-01 -0.15218591006E-02  0.58650719236E-02  0.10195844710E+01  0.10192937695E+01 0.  0.
     999903    2    3    3    0    0 -0.12082500621E+00  0.57159079634E-03 -0.33512733830E-01  0.12694364947E+00  0.19813580467E-01 0.  0.
         14    1    1    2    0    0 -0.23579433001E-01  0.15218591006E-02 -0.58650719236E-02  0.24345529044E-01  0.00000000000E+00 0.  1.
     999901    1    3    3    0    0  0.14440443921E+00 -0.20934498969E-02  0.39377805754E-01  0.89264082149E+00  0.88000000000E+00 0. -1.
        -11    1    4    4    0    0 -0.20808007603E-01  0.69940082091E-02 -0.29013475688E-02  0.22148775811E-01  0.51100000000E-03 0. -1.
         11    1    4    4    0    0 -0.10001699861E+00 -0.64224174127E-02 -0.30611386261E-01  0.10479487366E+00  0.51100000000E-03 0.  1.
</event>
<event>
 8    1  0.1233916E+005  0.1043930E+01  0.7957747E-01            NaN
         13   -1    0    0    0    0  0.00000000000E+00  0.00000000000E+00  0.74505805969E-08  0.10566000000E+00  0.10566000000E+00 0. -1.
     999900   -1    0    0    0    0 -0.00000000000E+00 -0.00000000000E+00 -0.74505805969E-08  0.93827000000E+00  0.93827000000E+00 0.  1.
     999902    2    1    2    0    0  0.40764601098E-02 -0.14295787064E-01  0.20096135709E-01  0.10189331657E+01  0.10186265039E+01 0.  0.
     999903    2    3    3    0    0 -0.61356603532E-01 -0.89421406002E-01 -0.66978549305E-01  0.12904140531E+00  0.20118090569E-01 0.  0.
         14    1    1    2    0    0 -0.40764601098E-02  0.14295787064E-01 -0.20096135709E-01  0.24996834304E-01  0.00000000000E+00 0.  1.
     999901    1    3    3    0    0  0.65433063642E-01  0.75125618938E-01  0.87074685014E-01  0.88989176039E+00  0.88000000000E+00 0. -1.
        -11    1    4    4    0    0 -0.15413263922E-02 -0.75765601387E-02 -0.10330020597E-01  0.12913186947E-01  0.51100000000E-03 0. -1.
         11    1    4    4    0    0 -0.59815277140E-01 -0.81844845864E-01 -0.56648528708E-01  0.11612821836E+00  0.51100000000E-03 0.  1.
</event>
<event>
 8    1  0.1247418E+005  0.1043930E+01  0.7957747E-01            NaN
         13   -1    0    0    0    0  0.00000000000E+00  0.00000000000E+00  0.74505805969E-08  0.10566000000E+00  0.10566000000E+00 0. -1.
     999900   -1    0    0    0    0 -0.00000000000E+00 -0.00000000000E+00 -0.74505805969E-08  0.93827000000E+00  0.93827000000E+00 0. -1.
     999902    2    1    2    0    0  0.88579125514E-02 -0.16654817777E-01  0.14438735289E-01  0.10201745239E+01  0.10198979049E+01 0.  0.
     999903    2    3    3    0    0  0.71516344066E-01 -0.38516130400E-01 -0.99976463679E-01  0.13028979324E+00  0.19546282604E-01 0.  0.
         14    1    1    2    0    0 -0.88579125514E-02  0.16654817777E-01 -0.14438735289E-01  0.23755476141E-01  0.00000000000E+00 0.  1.
     999901    1    3    3    0    0 -0.62658431515E-01  0.21861312623E-01  0.11441519897E+00  0.88988473062E+00  0.88000000000E+00 0.  1.
        -11    1    4    4    0    0  0.42889551419E-01 -0.33622116539E-01 -0.64935376265E-01  0.84775141128E-01  0.51100000000E-03 0.  1.
         11    1    4    4    0    0  0.28626792647E-01 -0.48940138609E-02 -0.35041087414E-01  0.45514652114E-01  0.51100000000E-03 0. -1.
</event>
<event>
 8    1  0.1233916E+005  0.1043930E+01  0.7957747E-01            NaN
         13   -1    0    0    0    0  0.00000000000E+00  0.00000000000E+00  0.74505805969E-08  0.10566000000E+00  0.10566000000E+00 0.  1.
     999900   -1    0    0    0    0 -0.00000000000E+00 -0.00000000000E+00 -0.74505805969E-08  0.93827000000E+00  0.93827000000E+00 0. -1.
     999902    2    1    2    0    0  0.23087023503E-01  0.26915214170E-02 -0.44389049990E-02  0.10202665510E+01  0.10199920962E+01 0.  0.
     999903    2    3    3    0    0  0.20589259120E-01 -0.66720385139E-01  0.10824512590E+00  0.13036658895E+00  0.20072689138E-01 0.  0.
         14    1    1    2    0    0 -0.23087023503E-01 -0.26915214170E-02  0.44389049990E-02  0.23663449016E-01  0.00000000000E+00 0. -1.
     999901    1    3    3    0    0  0.24977643826E-02  0.69411906556E-01 -0.11268403090E+00  0.88989996203E+00  0.88000000000E+00 0. -1.
        -11    1    4    4    0    0  0.48214377967E-02 -0.30285484116E-01  0.31535735665E-01  0.43991141784E-01  0.51100000000E-03 0. -1.
         11    1    4    4    0    0  0.15767821324E-01 -0.36434901023E-01  0.76709390240E-01  0.86375447170E-01  0.51100000000E-03 0.  1.
</event>
<event>
 8    1  0.1233916E+005  0.1043930E+01  0.7957747E-01            NaN
         13   -1    0    0    0    0  0.00000000000E+00  0.00000000000E+00  0.74505805969E-08  0.10566000000E+00  0.10566000000E+00 0. -1.
     999900   -1    0    0    0    0 -0.00000000000E+00 -0.00000000000E+00 -0.74505805969E-08  0.93827000000E+00  0.93827000000E+00 0.  1.
     999902    2    1    2    0    0 -0.88763417178E-02  0.89530937544E-02 -0.23052962608E-01  0.10176547947E+01  0.10173155335E+01 0.  0.
     999903    2    3    3    0    0 -0.53858550712E-01  0.70003631519E-01 -0.95292524695E-01  0.13144425444E+00  0.19891577409E-01 0.  0.
         14    1    1    2    0    0  0.88763417178E-02 -0.89530937544E-02  0.23052962608E-01  0.26275205329E-01  0.00000000000E+00 0. -1.
     999901    1    3    3    0    0  0.44982208995E-01 -0.61050537765E-01  0.72239562087E-01  0.88621054023E+00  0.88000000000E+00 0. -1.
        -11    1    4    4    0    0 -0.35685505987E-01  0.40043141658E-01 -0.70176957051E-01  0.88328788927E-01  0.51100000000E-03 0. -1.
         11    1    4    4    0    0 -0.18173044725E-01  0.29960489861E-01 -0.25115567644E-01  0.43115465513E-01  0.51100000000E-03 0.  1.
</event>
<event>
 8    1  0.1233916E+005  0.1043930E+01  0.7957747E-01            NaN
         13   -1    0    0    0    0  0.00000000000E+00  0.00000000000E+00  0.74505805969E-08  0.10566000000E+00  0.10566000000E+00 0.  1.
     999900   -1    0    0    0    0 -0.00000000000E+00 -0.00000000000E+00 -0.74505805969E-08  0.93827000000E+00  0.93827000000E+00 0.  1.
     999902    2    1    2    0    0 -0.38338855624E-02 -0.18792414692E-01  0.13526091604E-01  0.10204606864E+01  0.10201907683E+01 0.  0.
     999903    2    3    3    0    0  0.33817519263E-01 -0.12576358911E+00 -0.15585498417E-01  0.13270624672E+00  0.20197405806E-01 0.  0.
         14    1    1    2    0    0  0.38338855624E-02  0.18792414692E-01 -0.13526091604E-01  0.23469313636E-01  0.00000000000E+00 0. -1.
     999901    1    3    3    0    0 -0.37651404825E-01  0.10697117442E+00  0.29111590021E-01  0.88775443965E+00  0.88000000000E+00 0. -1.
        -11    1    4    4    0    0  0.35064795415E-01 -0.10076255956E+00 -0.11049008803E-01  0.10726124651E+00  0.51100000000E-03 0. -1.
         11    1    4    4    0    0 -0.12472761517E-02 -0.25001029550E-01 -0.45364896145E-02  0.25445000204E-01  0.51100000000E-03 0.  1.
</event>
<event>
 8    1  0.1233916E+005  0.1043930E+01  0.7957747E-01            NaN
         13   -1    0    0    0    0  0.00000000000E+00  0.00000000000E+00  0.74505805969E-08  0.10566000000E+00  0.10566000000E+00 0. -1.
     999900   -1    0    0    0    0 -0.00000000000E+00 -0.00000000000E+00 -0.74505805969E-08  0.93827000000E+00  0.93827000000E+00 0.  1.
     999902    2    1    2    0    0  0.18334193569E-01 -0.94461218113E-02 -0.11875165260E-01  0.10201310206E+01  0.10198533756E+01 0.  0.
     999903    2    3    3    0    0  0.40931678156E-01 -0.24351719399E-01  0.11948242251E+00  0.12996944030E+00  0.18643969819E-01 0.  0.
         14    1    1    2    0    0 -0.18334193569E-01  0.94461218113E-02  0.11875165260E-01  0.23798979412E-01  0.00000000000E+00 0. -1.
     999901    1    3    3    0    0 -0.22597484587E-01  0.14905597588E-01 -0.13135758777E+00  0.89016158028E+00  0.88000000000E+00 0.  1.
        -11    1    4    4    0    0  0.22663766744E-02 -0.91375236852E-02  0.18284351678E-01  0.20572054823E-01  0.51100000000E-03 0. -1.
         11    1    4    4    0    0  0.38665301482E-01 -0.15214195714E-01  0.10119807083E+00  0.10939738548E+00  0.51100000000E-03 0.  1.
</event>
<event>
 8    1  0.1233916E+005  0.1043930E+01  0.7957747E-01            NaN
         13   -1    0    0    0    0  0.00000000000E+00  0.00000000000E+00  0.74505805969E-08  0.10566000000E+00  0.10566000000E+00 0.  1.
     999900   -1    0    0    0    0 -0.00000000000E+00 -0.00000000000E+00 -0.74505805969E-08  0.93827000000E+00  0.93827000000E+00 0.  1.
     999902    2    1    2    0    0  0.17757992436E-01 -0.15626085365E-01  0.28736977201E-03  0.10202740616E+01  0.10199997830E+01 0.  0.
     999903    2    3    3    0    0  0.11265397713E+00 -0.60746697986E-01 -0.32559551140E-01  0.13341441218E+00  0.18926202147E-01 0.  0.
         14    1    1    2    0    0 -0.17757992436E-01  0.15626085365E-01 -0.28736977201E-03  0.23655938379E-01  0.00000000000E+00 0.  1.
     999901    1    3    3    0    0 -0.94895984692E-01  0.45120612621E-01  0.32846920912E-01  0.88685964944E+00  0.88000000000E+00 0. -1.
        -11    1    4    4    0    0  0.70276299133E-01 -0.29710838655E-01 -0.25300079148E-01  0.80385616122E-01  0.51100000000E-03 0.  1.
         11    1    4    4    0    0  0.42377677995E-01 -0.31035859331E-01 -0.72594719921E-02  0.53028796057E-01  0.51100000000E-03 0. -1.
</event>
<event>
 8    1  0.1233916E+005  0.1043930E+01  0.7957747E-01            NaN
         13   -1    0    0    0    0  0.00000000000E+00  0.00000000000E+00  0.74505805969E-08  0.10566000000E+00  0.10566000000E+00 0. -1.
     999900   -1    0    0    0    0 -0.00000000000E+00 -0.00000000000E+00 -0.74505805969E-08  0.93827000000E+00  0.93827000000E+00 0. -1.
     999902    2    1    2    0    0 -0.14983338570E-01  0.16061108857E-01  0.87716686745E-03  0.10219475280E+01  0.10217110751E+01 0.  0.
     999903    2    3    3    0    0 -0.53298709182E-01  0.49944567581E-01 -0.11071573743E+00  0.13342677267E+00  0.14474699276E-01 0.  0.
         14    1    1    2    0    0  0.14983338570E-01 -0.16061108857E-01 -0.87716686745E-03  0.21982471975E-01  0.00000000000E+00 0. -1.
     999901    1    3    3    0    0  0.38315370612E-01 -0.33883458725E-01  0.11159290430E+00  0.88852075535E+00  0.88000000000E+00 0.  1.
        -11    1    4    4    0    0 -0.19420777541E-01  0.18241849535E-01 -0.53422636469E-01  0.59700677408E-01  0.51100000000E-03 0. -1.
         11    1    4    4    0    0 -0.33877931641E-01  0.31702718047E-01 -0.57293100965E-01  0.73726095265E-01  0.51100000000E-03 0.  1.
</event>
<event>
 8    1  0.1233916E+005  0.1043930E+01  0.7957747E-01            NaN
         13   -1    0    0    0    0  0.00000000000E+00  0.00000000000E+00  0.74505805969E-08  0.10566000000E+00  0.10566000000E+00 0.  1.
     999900   -1    0    0    0    0 -0.00000000000E+00 -0.00000000000E+00 -0.74505805969E-08  0.93827000000E+00  0.93827000000E+00 0. -1.
     999902    2    1    2    0    0  0.28073272856E-02  0.21985930120E-01 -0.87632306009E-02  0.10200960658E+01  0.10198175950E+01 0.  0.
     999903    2    3    3    0    0 -0.11566825228E+00  0.58103157204E-01 -0.12599345543E-01  0.13141410196E+00  0.18862693945E-01 0.  0.
         14    1    1    2    0    0 -0.28073272856E-02 -0.21985930120E-01  0.87632306009E-02  0.23833934218E-01  0.00000000000E+00 0.  1.
     999901    1    3    3    0    0  0.11847557957E+00 -0.36117227084E-01  0.38361149424E-02  0.88868196382E+00  0.88000000000E+00 0.  1.
        -11    1    4    4    0    0 -0.18401888666E-01  0.20107761200E-02 -0.22828274424E-02  0.18658648108E-01  0.51100000000E-03 0.  1.
         11    1    4    4    0    0 -0.97266363615E-01  0.56092381084E-01 -0.10316518101E-01  0.11275545385E+00  0.51100000000E-03 0. -1.
</event>
<event>
 8    1  0.1233916E+005  0.1043930E+01  0.7957747E-01            NaN
         13   -1    0    0    0    0  0.00000000000E+00  0.00000000000E+00  0.74505805969E-08  0.10566000000E+00  0.10566000000E+00 0.  1.
     999900   -1    0    0    0    0 -0.00000000000E+00 -0.00000000000E+00 -0.74505805969E-08  0.93827000000E+00  0.93827000000E+00 0.  1.
     999902    2    1    2    0    0  0.10242027431E-01 -0.20991974732E-01  0.98879760176E-03  0.10205518082E+01  0.10202840063E+01 0.  0.
     999903    2    3    3    0    0 -0.12285576127E+00  0.27270561686E-02 -0.35522006303E-01  0.12947905443E+00  0.20050877626E-01 0.  0.
         14    1    1    2    0    0 -0.10242027431E-01  0.20991974732E-01 -0.98879760176E-03  0.23378191755E-01  0.00000000000E+00 0. -1.
     999901    1    3    3    0    0  0.13309778870E+00 -0.23719030900E-01  0.36510803905E-01  0.89107275381E+00  0.88000000000E+00 0. -1.
        -11    1    4    4    0    0 -0.43278017776E-01 -0.85999585268E-02 -0.12978890597E-01  0.45996291496E-01  0.51100000000E-03 0.  1.
         11    1    4    4    0    0 -0.79577743490E-01  0.11327014695E-01 -0.22543115706E-01  0.83482762937E-01  0.51100000000E-03 0. -1.
</event>
<event>
 8    1  0.1233916E+005  0.1043930E+01  0.7957747E-01            NaN
         13   -1    0    0    0    0  0.00000000000E+00  0.00000000000E+00  0.74505805969E-08  0.10566000000E+00  0.10566000000E+00 0. -1.
     999900   -1    0    0    0    0 -0.00000000000E+00 -0.00000000000E+00 -0.74505805969E-08  0.93827000000E+00  0.93827000000E+00 0.  1.
     999902    2    1    2    0    0 -0.15921505210E-01  0.97288910846E-02  0.19895823733E-01  0.10166538300E+01  0.10162878630E+01 0.  0.
     999903    2    3    3    0    0 -0.41621028196E-01  0.11940757516E+00 -0.14386254896E-01  0.12881085953E+00  0.19869429015E-01 0.  0.
         14    1    1    2    0    0  0.15921505210E-01 -0.97288910846E-02 -0.19895823733E-01  0.27276170037E-01  0.00000000000E+00 0. -1.
     999901    1    3    3    0    0  0.25699522986E-01 -0.10967868408E+00  0.34282078628E-01  0.88784297043E+00  0.88000000000E+00 0.  1.
        -11    1    4    4    0    0 -0.18040281807E-01  0.80568044421E-01 -0.92961388467E-02  0.83086345858E-01  0.51100000000E-03 0. -1.
         11    1    4    4    0    0 -0.23580746388E-01  0.38839530743E-01 -0.50901160490E-02  0.45724513677E-01  0.51100000000E-03 0.  1.
</event>
<event>
 8    1  0.1233916E+005  0.1043930E+01  0.7957747E-01            NaN
         13   -1    0    0    0    0  0.00000000000E+00  0.00000000000E+00  0.74505805969E-08  0.10566000000E+00  0.10566000000E+00 0. -1.
     999900   -1    0    0    0    0 -0.00000000000E+00 -0.00000000000E+00 -0.74505805969E-08  0.93827000000E+00  0.93827000000E+00 0.  1.
     999902    2    1    2    0    0  0.32698936077E-02  0.20263389809E-01  0.10069221892E-01  0.10210676642E+01  0.10208116812E+01 0.  0.
     999903    2    3    3    0    0 -0.34196083978E-01  0.11356429115E+00 -0.56102282263E-01  0.13287431492E+00  0.21021348800E-01 0.  0.
         14    1    1    2    0    0 -0.32698936077E-02 -0.20263389809E-01 -0.10069221892E-01  0.22862335845E-01  0.00000000000E+00 0. -1.
     999901    1    3    3    0    0  0.37465977586E-01 -0.93300901343E-01  0.66171504155E-01  0.88819334924E+00  0.88000000000E+00 0. -1.
        -11    1    4    4    0    0 -0.21386933894E-01  0.78179286080E-01 -0.48571849166E-01  0.94492790020E-01  0.51100000000E-03 0.  1.
         11    1    4    4    0    0 -0.12809150084E-01  0.35385005072E-01 -0.75304330970E-02  0.38381524898E-01  0.51100000000E-03 0. -1.
</event>
<event>
 8    1  0.1233916E+005  0.1043930E+01  0.7957747E-01            NaN
         13   -1    0    0    0    0  0.00000000000E+00  0.00000000000E+00  0.74505805969E-08  0.10566000000E+00  0.10566000000E+00 0.  1.
     999900   -1    0    0    0    0 -0.00000000000E+00 -0.00000000000E+00 -0.74505805969E-08  0.93827000000E+00  0.93827000000E+00 0. -1.
     999902    2    1    2    0    0  0.10921642035E-01  0.77964423495E-02 -0.17356416195E-01  0.10219911769E+01  0.10217556722E+01 0.  0.
     999903    2    3    3    0    0  0.35517196695E-01  0.54765161265E-01  0.11194814464E+00  0.13096330337E+00  0.18928961746E-01 0.  0.
         14    1    1    2    0    0 -0.10921642035E-01 -0.77964423495E-02  0.17356416195E-01  0.21938823149E-01  0.00000000000E+00 0.  1.
     999901    1    3    3    0    0 -0.24595554660E-01 -0.46968718915E-01 -0.12930456083E+00  0.89102787348E+00  0.88000000000E+00 0. -1.
        -11    1    4    4    0    0  0.30202075062E-01  0.50980612644E-01  0.87667589573E-01  0.10581614048E+00  0.51100000000E-03 0.  1.
         11    1    4    4    0    0  0.53151216326E-02  0.37845486207E-02  0.24280555064E-01  0.25147162891E-01  0.51100000000E-03 0. -1.
</event>
<event>
 8    1  0.1233916E+005  0.1043930E+01  0.7957747E-01            NaN
         13   -1    0    0    0    0  0.00000000000E+00  0.00000000000E+00  0.74505805969E-08  0.10566000000E+00  0.10566000000E+00 0. -1.
     999900   -1    0    0    0    0 -0.00000000000E+00 -0.00000000000E+00 -0.74505805969E-08  0.93827000000E+00  0.93827000000E+00 0. -1.
     999902    2    1    2    0    0 -0.12078976168E-01 -0.12283845318E-02 -0.21404419541E-01  0.10193218759E+01  0.10190247921E+01 0.  0.
     999903    2    3    3    0    0 -0.10770238656E+00 -0.58403533880E-01 -0.44727194465E-01  0.13199060401E+00  0.20253907829E-01 0.  0.
         14    1    1    2    0    0  0.12078976168E-01  0.12283845318E-02  0.21404419541E-01  0.24608124059E-01  0.00000000000E+00 0. -1.
     999901    1    3    3    0    0  0.95623410389E-01  0.57175149348E-01  0.23322774923E-01  0.88733127193E+00  0.88000000000E+00 0. -1.
        -11    1    4    4    0    0 -0.45410388752E-01 -0.17366413417E-01 -0.96942021299E-02  0.49577559415E-01  0.51100000000E-03 0.  1.
         11    1    4    4    0    0 -0.62291997805E-01 -0.41037120463E-01 -0.35032992335E-01  0.82413044595E-01  0.51100000000E-03 0. -1.
</event>
<event>
 8    1  0.1710460E+005  0.1043930E+01  0.7957747E-01            NaN
         13   -1    0    0    0    0  0.00000000000E+00  0.00000000000E+00  0.74505805969E-08  0.10566000000E+00  0.10566000000E+00 0.  1.
     999900   -1    0    0    0    0 -0.00000000000E+00 -0.00000000000E+00 -0.74505805969E-08  0.93827000000E+00  0.93827000000E+00 0.  1.
     999902    2    1    2    0    0 -0.35700465082E-02 -0.87550048763E-02 -0.22180539807E-01  0.10198183495E+01  0.10195332728E+01 0.  0.
     999903    2    3    3    0    0 -0.10495077390E+00  0.49700613066E-01  0.54348487912E-01  0.12877861795E+00  0.12056468095E-01 0.  0.
         14    1    1    2    0    0  0.35700465082E-02  0.87550048763E-02  0.22180539807E-01  0.24111650474E-01  0.00000000000E+00 0.  1.
     999901    1    3    3    0    0  0.10138072739E+00 -0.58455617943E-01 -0.76529027719E-01  0.89103973157E+00  0.88000000000E+00 0. -1.
        -11    1    4    4    0    0 -0.61566855730E-01  0.30771555271E-01  0.38461157457E-01  0.78847245305E-01  0.51100000000E-03 0. -1.
         11    1    4    4    0    0 -0.43383918168E-01  0.18929057796E-01  0.15887330455E-01  0.49931372649E-01  0.51100000000E-03 0.  1.
</event>
<event>
 8    1  0.1233916E+005  0.1043930E+01  0.7957747E-01            NaN
         13   -1    0    0    0    0  0.00000000000E+00  0.00000000000E+00  0.74505805969E-08  0.10566000000E+00  0.10566000000E+00 0.  1.
     999900   -1    0    0    0    0 -0.00000000000E+00 -0.00000000000E+00 -0.74505805969E-08  0.93827000000E+00  0.93827000000E+00 0. -1.
     999902    2    1    2    0    0 -0.37082272155E-03 -0.25914597774E-03  0.23230803548E-01  0.10206947918E+01  0.10204302931E+01 0.  0.
     999903    2    3    3    0    0  0.53647344947E-01  0.88060104279E-02 -0.11437512538E+00  0.12831845238E+00  0.20697161069E-01 0.  0.
         14    1    1    2    0    0  0.37082272155E-03  0.25914597774E-03 -0.23230803548E-01  0.23235208190E-01  0.00000000000E+00 0. -1.
     999901    1    3    3    0    0 -0.54018167669E-01 -0.90651564056E-02  0.13760592893E+00  0.89237633943E+00  0.88000000000E+00 0.  1.
        -11    1    4    4    0    0  0.29801293708E-01  0.15159142742E-01 -0.63172836191E-01  0.71477164666E-01  0.51100000000E-03 0. -1.
         11    1    4    4    0    0  0.23846051239E-01 -0.63531323137E-02 -0.51202289188E-01  0.56841287714E-01  0.51100000000E-03 0.  1.
</event>
<event>
 8    1  0.1233916E+005  0.1043930E+01  0.7957747E-01            NaN
         13   -1    0    0    0    0  0.00000000000E+00  0.00000000000E+00  0.74505805969E-08  0.10566000000E+00  0.10566000000E+00 0.  1.
     999900   -1    0    0    0    0 -0.00000000000E+00 -0.00000000000E+00 -0.74505805969E-08  0.93827000000E+00  0.93827000000E+00 0. -1.
     999902    2    1    2    0    0  0.13447148632E-01  0.18141214171E-01  0.64919952833E-02  0.10204337139E+01  0.10201631678E+01 0.  0.
     999903    2    3    3    0    0 -0.12498713312E+00 -0.18327435685E-01 -0.13686960859E-01  0.12863709860E+00  0.20062200623E-01 0.  0.
         14    1    1    2    0    0 -0.13447148632E-01 -0.18141214171E-01 -0.64919952833E-02  0.23496286105E-01  0.00000000000E+00 0. -1.
     999901    1    3    3    0    0  0.13843428175E+00  0.36468649857E-01  0.20178956142E-01  0.89179661530E+00  0.88000000000E+00 0.  1.
        -11    1    4    4    0    0 -0.10071695029E+00 -0.12534948724E-01 -0.18641436844E-01  0.10319299057E+00  0.51100000000E-03 0. -1.
         11    1    4    4    0    0 -0.24270182833E-01 -0.57924869610E-02  0.49544759854E-02  0.25444108026E-01  0.51100000000E-03 0.  1.
</event>
<event>
 8    1  0.1233916E+005  0.1043930E+01  0.7957747E-01            NaN
         13   -1    0    0    0    0  0.00000000000E+00  0.00000000000E+00  0.74505805969E-08  0.10566000000E+00  0.10566000000E+00 0.  1.
     999900   -1    0    0    0    0 -0.00000000000E+00 -0.00000000000E+00 -0.74505805969E-08  0.93827000000E+00  0.93827000000E+00 0.  1.
     999902    2    1    2    0    0  0.22065400973E-01  0.21111698178E-02  0.96587059118E-02  0.10197508859E+01  0.10194641925E+01 0.  0.
     999903    2    3    3    0    0 -0.16223375763E-01 -0.12292510723E+00  0.32663424817E-01  0.12979059574E+00  0.20122611982E-01 0.  0.
         14    1    1    2    0    0 -0.22065400973E-01 -0.21111698178E-02 -0.96587059118E-02  0.24179114086E-01  0.00000000000E+00 0. -1.
     999901    1    3    3    0    0  0.38288776736E-01  0.12503627704E+00 -0.23004718905E-01  0.88996029018E+00  0.88000000000E+00 0.  1.
        -11    1    4    4    0    0 -0.93985474482E-02 -0.27863289277E-01  0.12405632445E-02  0.29436299048E-01  0.51100000000E-03 0.  1.
         11    1    4    4    0    0 -0.68248283148E-02 -0.95061817950E-01  0.31422861572E-01  0.10035429669E+00  0.51100000000E-03 0. -1.
</event>
<event>
 8    1  0.1233916E+005  0.1043930E+01  0.7957747E-01            NaN
         13   -1    0    0    0    0  0.00000000000E+00  0.00000000000E+00  0.74505805969E-08  0.10566000000E+00  0.10566000000E+00 0. -1.
     999900   -1    0    0    0    0 -0.00000000000E+00 -0.00000000000E+00 -0.74505805969E-08  0.93827000000E+00  0.93827000000E+00 0.  1.
     999902    2    1    2    0    0 -0.85795066881E-04 -0.22097741872E-01  0.68186386381E-02  0.10208040105E+01  0.10205420209E+01 0.  0.
     999903    2    3    3    0    0  0.30044343122E-01 -0.67582382617E-01 -0.10723051665E+00  0.13176864137E+00  0.19863286569E-01 0.  0.
         14    1    1    2    0    0  0.85795066881E-04  0.22097741872E-01 -0.68186386381E-02  0.23125989482E-01  0.00000000000E+00 0.  1.
     999901    1    3    3    0    0 -0.30130138189E-01  0.45484640744E-01  0.11404915529E+00  0.88903536915E+00  0.88000000000E+00 0. -1.
        -11    1    4    4    0    0  0.30139268397E-01 -0.66333266533E-01 -0.96315466931E-01  0.12077006268E+00  0.51100000000E-03 0.  1.
         11    1    4    4    0    0 -0.94925275132E-04 -0.12491160833E-02 -0.10915049722E-01  0.10998578692E-01  0.51100000000E-03 0. -1.
</event>
<event>
 8    1  0.1233916E+005  0.1043930E+01  0.7957747E-01            NaN
         13   -1    0    0    0    0  0.00000000000E+00  0.00000000000E+00  0.74505805969E-08  0.10566000000E+00  0.10566000000E+00 0. -1.
     999900   -1    0    0    0    0 -0.00000000000E+00 -0.00000000000E+00 -0.74505805969E-08  0.93827000000E+00  0.93827000000E+00 0. -1.
     999902    2    1    2    0    0 -0.12108816953E-01 -0.16849955888E-01 -0.89409274228E-02  0.10213360928E+01  0.10210861520E+01 0.  0.
     999903    2    3    3    0    0  0.23058074057E-01  0.12185659512E+00  0.27742721517E-01  0.12902341907E+00  0.22286307852E-01 0.  0.
         14    1    1    2    0    0  0.12108816953E-01  0.16849955888E-01  0.89409274228E-02  0.22593907245E-01  0.00000000000E+00 0. -1.
     999901    1    3    3    0    0 -0.35166891009E-01 -0.13870655101E+00 -0.36683648940E-01  0.89231267368E+00  0.88000000000E+00 0. -1.
        -11    1    4    4    0    0  0.10672098289E-01  0.17665753302E-01  0.64680522978E-03  0.20655556144E-01  0.51100000000E-03 0.  1.
         11    1    4    4    0    0  0.12385975767E-01  0.10419084182E+00  0.27095916287E-01  0.10836786293E+00  0.51100000000E-03 0. -1.
</event>
<event>
 8    1  0.1233916E+005  0.1043930E+01  0.7957747E-01            NaN
         13   -1    0    0    0    0  0.00000000000E+00  0.00000000000E+00  0.74505805969E-08  0.10566000000E+00  0.10566000000E+00 0. -1.
     999900   -1    0    0    0    0 -0.00000000000E+00 -0.00000000000E+00 -0.74505805969E-08  0.93827000000E+00  0.93827000000E+00 0.  1.
     999902    2    1    2    0    0  0.10703496602E-01  0.19353147636E-01 -0.69472335806E-02  0.10207486882E+01  0.10204854292E+01 0.  0.
     999903    2    3    3    0    0 -0.77301301528E-01 -0.95661850796E-01  0.30191536617E-01  0.12813870471E+00  0.19527361442E-01 0.  0.
         14    1    1    2    0    0 -0.10703496602E-01 -0.19353147636E-01  0.69472335806E-02  0.23181311813E-01  0.00000000000E+00 0. -1.
     999901    1    3    3    0    0  0.88004798130E-01  0.11501499843E+00 -0.37138770198E-01  0.89260998348E+00  0.88000000000E+00 0.  1.
        -11    1    4    4    0    0 -0.38034407108E-01 -0.48793652450E-01  0.52119772516E-02  0.62087538776E-01  0.51100000000E-03 0.  1.
         11    1    4    4    0    0 -0.39266894420E-01 -0.46868198346E-01  0.24979559366E-01  0.66051165930E-01  0.51100000000E-03 0. -1.
</event>
<event>
 8    1  0.1233916E+005  0.1043930E+01  0.7957747E-01            NaN
         13   -1    0    0    0    0  0.00000000000E+00  0.00000000000E+00  0.74505805969E-08  0.10566000000E+00  0.10566000000E+00 0.  1.
     999900   -1    0    0    0    0 -0.00000000000E+00 -0.00000000000E+00 -0.74505805969E-08  0.93827000000E+00  0.93827000000E+00 0. -1.
     999902    2    1    2    0    0  0.59222697060E-02  0.16088510219E-01  0.16525309813E-01  0.10201182528E+01  0.10198403063E+01 0.  0.
     999903    2    3    3    0    0  0.69783078590E-02 -0.24027372015E-01  0.12814464172E+00  0.13216032899E+00  0.20476620086E-01 0.  0.
         14    1    1    2    0    0 -0.59222697060E-02 -0.16088510219E-01 -0.16525309813E-01  0.23811747184E-01  0.00000000000E+00 0. -1.
     999901    1    3    3    0    0 -0.10560381530E-02  0.40115882234E-01 -0.11161933191E+00  0.88795792382E+00  0.88000000000E+00 0. -1.
        -11    1    4    4    0    0 -0.94910854552E-03 -0.24035588885E-01  0.10381986530E+00  0.10657127142E+00  0.51100000000E-03 0.  1.
         11    1    4    4    0    0  0.79274164045E-02  0.82168701688E-05  0.24324776429E-01  0.25589057577E-01  0.51100000000E-03 0. -1.
</event>
<event>
 8    1  0.1233916E+005  0.1043930E+01  0.7957747E-01            NaN
         13   -1    0    0    0    0  0.00000000000E+00  0.00000000000E+00  0.74505805969E-08  0.10566000000E+00  0.10566000000E+00 0.  1.
     999900   -1    0    0    0    0 -0.00000000000E+00 -0.00000000000E+00 -0.74505805969E-08  0.93827000000E+00  0.93827000000E+00 0.  1.
     999902    2    1    2    0    0 -0.30768094294E-03  0.31348115310E-01  0.13666808835E-01  0.10097308675E+01  0.10091515466E+01 0.  0.
     999903    2    3    3    0    0 -0.46876726275E-01  0.39147168887E-01  0.10550688812E+00  0.12369243639E+00  0.20932918587E-01 0.  0.
         14    1    1    2    0    0  0.30768094294E-03 -0.31348115310E-01 -0.13666808835E-01  0.34199132515E-01  0.00000000000E+00 0. -1.
     999901    1    3    3    0    0  0.46569045333E-01 -0.77990535768E-02 -0.91840079285E-01  0.88603843110E+00  0.88000000000E+00 0.  1.
        -11    1    4    4    0    0 -0.51633512199E-02  0.15085557584E-01  0.20305939961E-01  0.25822985152E-01  0.51100000000E-03 0.  1.
         11    1    4    4    0    0 -0.41713375056E-01  0.24061611302E-01  0.85200948158E-01  0.97869451235E-01  0.51100000000E-03 0. -1.
</event>
<event>
 8    1  0.1233916E+005  0.1043930E+01  0.7957747E-01            NaN
         13   -1    0    0    0    0  0.00000000000E+00  0.00000000000E+00  0.74505805969E-08  0.10566000000E+00  0.10566000000E+00 0. -1.
     999900   -1    0    0    0    0 -0.00000000000E+00 -0.00000000000E+00 -0.74505805969E-08  0.93827000000E+00  0.93827000000E+00 0. -1.
     999902    2    1    2    0    0  0.20177998787E-01  0.89318249943E-02  0.62858241957E-02  0.10209857040E+01  0.10207278614E+01 0.  0.
     999903    2    3    3    0    0  0.40151603698E-01  0.46927777594E-01 -0.11446788383E+00  0.13170279328E+00  0.20696901716E-01 0.  0.
         14    1    1    2    0    0 -0.20177998787E-01 -0.89318249943E-02 -0.62858241957E-02  0.22944295993E-01  0.00000000000E+00 0. -1.
     999901    1    3    3    0    0 -0.19973604911E-01 -0.37995952599E-01  0.12075370802E+00  0.88928291073E+00  0.88000000000E+00 0.  1.
        -11    1    4    4    0    0  0.79889037756E-02  0.46408948639E-02 -0.34306489463E-01  0.35532475694E-01  0.51100000000E-03 0. -1.
         11    1    4    4    0    0  0.32162699923E-01  0.42286882730E-01 -0.80161394366E-01  0.96170317588E-01  0.51100000000E-03 0.  1.
</event>
<event>
 8    1  0.1233916E+005  0.1043930E+01  0.7957747E-01            NaN
         13   -1    0    0    0    0  0.00000000000E+00  0.00000000000E+00  0.74505805969E-08  0.10566000000E+00  0.10566000000E+00 0. -1.
     999900   -1    0    0    0    0 -0.00000000000E+00 -0.00000000000E+00 -0.74505805969E-08  0.93827000000E+00  0.93827000000E+00 0.  1.
     999902    2    1    2    0    0  0.13591992628E-01 -0.46605136567E-02  0.18629028950E-01  0.10204033477E+01  0.10201320937E+01 0.  0.
     999903    2    3    3    0    0 -0.12053005432E+00  0.60033589903E-02 -0.38720625533E-01  0.12833192421E+00  0.20155932514E-01 0.  0.
         14    1    1    2    0    0 -0.13591992628E-01  0.46605136567E-02 -0.18629028950E-01  0.23526652349E-01  0.00000000000E+00 0. -1.
     999901    1    3    3    0    0  0.13412204695E+00 -0.10663872647E-01  0.57349654482E-01  0.89207142344E+00  0.88000000000E+00 0. -1.
        -11    1    4    4    0    0 -0.78086218868E-01  0.20259323175E-02 -0.14989886645E-01  0.79539422939E-01  0.51100000000E-03 0. -1.
         11    1    4    4    0    0 -0.42443835451E-01  0.39774266728E-02 -0.23730738888E-01  0.48792501267E-01  0.51100000000E-03 0.  1.
</event>
<event>
 8    1  0.1233916E+005  0.1043930E+01  0.7957747E-01            NaN
         13   -1    0    0    0    0  0.00000000000E+00  0.00000000000E+00  0.74505805969E-08  0.10566000000E+00  0.10566000000E+00 0.  1.
     999900   -1    0    0    0    0 -0.00000000000E+00 -0.00000000000E+00 -0.74505805969E-08  0.93827000000E+00  0.93827000000E+00 0.  1.
     999902    2    1    2    0    0 -0.70841566942E-02 -0.83278762346E-02  0.19555988779E-01  0.10215251903E+01  0.10212794618E+01 0.  0.
     999903    2    3    3    0    0  0.83009978280E-01 -0.52317808517E-01 -0.82819657852E-01  0.12993512741E+00  0.19905577757E-01 0.  0.
         14    1    1    2    0    0  0.70841566942E-02  0.83278762346E-02 -0.19555988779E-01  0.22404809657E-01  0.00000000000E+00 0. -1.
     999901    1    3    3    0    0 -0.90094134975E-01  0.43989932282E-01  0.10237564663E+00  0.89159006293E+00  0.88000000000E+00 0. -1.
        -11    1    4    4    0    0  0.58856974448E-01 -0.25865641336E-01 -0.53775258041E-01  0.83816551715E-01  0.51100000000E-03 0. -1.
         11    1    4    4    0    0  0.24153003833E-01 -0.26452167181E-01 -0.29044399811E-01  0.46118575694E-01  0.51100000000E-03 0.  1.
</event>
<event>
 8    1  0.1233916E+005  0.1043930E+01  0.7957747E-01            NaN
         13   -1    0    0    0    0  0.00000000000E+00  0.00000000000E+00  0.74505805969E-08  0.10566000000E+00  0.10566000000E+00 0. -1.
     999900   -1    0    0    0    0 -0.00000000000E+00 -0.00000000000E+00 -0.74505805969E-08  0.93827000000E+00  0.93827000000E+00 0. -1.
     999902    2    1    2    0    0 -0.11754307587E-01  0.87238591910E-02 -0.20369248370E-01  0.10188466241E+01  0.10185378087E+01 0.  0.
     999903    2    3    3    0    0  0.10283777828E+00 -0.38361332475E-01  0.60529638253E-01  0.12649412019E+00  0.17021306254E-01 0.  0.
         14    1    1    2    0    0  0.11754307587E-01 -0.87238591910E-02  0.20369248370E-01  0.25083375873E-01  0.00000000000E+00 0. -1.
     999901    1    3    3    0    0 -0.11459208586E+00  0.47085191666E-01 -0.80898886624E-01  0.89235250393E+00  0.88000000000E+00 0. -1.
        -11    1    4    4    0    0  0.75050612131E-01 -0.30959500909E-01  0.36493233355E-01  0.89011809775E-01  0.51100000000E-03 0.  1.
         11    1    4    4    0    0  0.27787166146E-01 -0.74018315667E-02  0.24036404899E-01  0.37482310420E-01  0.51100000000E-03 0. -1.
</event>
<event>
 8    1  0.1233916E+005  0.1043930E+01  0.7957747E-01            NaN
         13   -1    0    0    0    0  0.00000000000E+00  0.00000000000E+00  0.74505805969E-08  0.10566000000E+00  0.10566000000E+00 0.  1.
     999900   -1    0    0    0    0 -0.00000000000E+00 -0.00000000000E+00 -0.74505805969E-08  0.93827000000E+00  0.93827000000E+00 0. -1.
     999902    2    1    2    0    0  0.13788259579E-01 -0.41095507057E-02 -0.18293101629E-01  0.10206567949E+01  0.10203914204E+01 0.  0.
     999903    2    3    3    0    0  0.10792844347E+00  0.49403098825E-01 -0.56836051100E-01  0.13318198575E+00  0.20442346781E-01 0.  0.
         14    1    1    2    0    0 -0.13788259579E-01  0.41095507057E-02  0.18293101629E-01  0.23273205117E-01  0.00000000000E+00 0.  1.
     999901    1    3    3    0    0 -0.94140183889E-01 -0.53512649531E-01  0.38542949471E-01  0.88747480913E+00  0.88000000000E+00 0.  1.
        -11    1    4    4    0    0  0.56238836001E-01  0.21013106132E-01 -0.38902807879E-01  0.71540526179E-01  0.51100000000E-03 0.  1.
         11    1    4    4    0    0  0.51689607468E-01  0.28389992692E-01 -0.17933243221E-01  0.61641459576E-01  0.51100000000E-03 0. -1.
</event>
<event>
 8    1  0.1233916E+005  0.1043930E+01  0.7957747E-01            NaN
         13   -1    0    0    0    0  0.00000000000E+00  0.00000000000E+00  0.74505805969E-08  0.10566000000E+00  0.10566000000E+00 0. -1.
     999900   -1    0    0    0    0 -0.00000000000E+00 -0.00000000000E+00 -0.74505805969E-08  0.93827000000E+00  0.93827000000E+00 0.  1.
     999902    2    1    2    0    0  0.22109628152E-01  0.71885008855E-02  0.36713664762E-02  0.10203930262E+01  0.10201215314E+01 0.  0.
     999903    2    3    3    0    0  0.12878168913E-01 -0.92214695677E-01 -0.88516139492E-01  0.12996349417E+00  0.19647023512E-01 0.  0.
         14    1    1    2    0    0 -0.22109628152E-01 -0.71885008855E-02 -0.36713664762E-02  0.23536973760E-01  0.00000000000E+00 0. -1.
     999901    1    3    3    0    0  0.92314592381E-02  0.99403196562E-01  0.92187505968E-01  0.89042953207E+00  0.88000000000E+00 0. -1.
        -11    1    4    4    0    0  0.14625362350E-01 -0.47028417744E-01 -0.38347500386E-01  0.62420871559E-01  0.51100000000E-03 0. -1.
         11    1    4    4    0    0 -0.17471934362E-02 -0.45186277933E-01 -0.50168639107E-01  0.67542622611E-01  0.51100000000E-03 0.  1.
</event>
<event>
 8    1  0.1233916E+005  0.1043930E+01  0.7957747E-01            NaN
         13   -1    0    0    0    0  0.00000000000E+00  0.00000000000E+00  0.74505805969E-08  0.10566000000E+00  0.10566000000E+00 0. -1.
     999900   -1    0    0    0    0 -0.00000000000E+00 -0.00000000000E+00 -0.74505805969E-08  0.93827000000E+00  0.93827000000E+00 0. -1.
     999902    2    1    2    0    0 -0.60480443171E-02 -0.60860136424E-02 -0.26356003015E-01  0.10162125453E+01  0.10158344746E+01 0.  0.
     999903    2    3    3    0    0 -0.14400251407E-01 -0.10037248835E+00 -0.78280315921E-01  0.12961464715E+00  0.19752094452E-01 0.  0.
         14    1    1    2    0    0  0.60480443171E-02  0.60860136424E-02  0.26356003015E-01  0.27717454736E-01  0.00000000000E+00 0. -1.
     999901    1    3    3    0    0  0.83522070896E-02  0.94286474710E-01  0.51924312906E-01  0.88659789812E+00  0.88000000000E+00 0.  1.
        -11    1    4    4    0    0 -0.17661203190E-01 -0.72222794221E-01 -0.50168038074E-01  0.89694722634E-01  0.51100000000E-03 0. -1.
         11    1    4    4    0    0  0.32609517833E-02 -0.28149694132E-01 -0.28112277847E-01  0.39919924512E-01  0.51100000000E-03 0.  1.
</event>
<event>
 8    1  0.1233916E+005  0.1043930E+01  0.7957747E-01            NaN
         13   -1    0    0    0    0  0.00000000000E+00  0.00000000000E+00  0.74505805969E-08  0.10566000000E+00  0.10566000000E+00 0. -1.
     999900   -1    0    0    0    0 -0.00000000000E+00 -0.00000000000E+00 -0.74505805969E-08  0.93827000000E+00  0.93827000000E+00 0. -1.
     999902    2    1    2    0    0 -0.48147141496E-02  0.14692217189E-01 -0.17791771748E-01  0.10203590463E+01  0.10200867578E+01 0.  0.
     999903    2    3    3    0    0 -0.11878966225E+00 -0.12131430266E-01 -0.52554100985E-01  0.13192322056E+00  0.19586912300E-01 0.  0.
         14    1    1    2    0    0  0.48147141496E-02 -0.14692217189E-01  0.17791771748E-01  0.23570953739E-01  0.00000000000E+00 0. -1.
     999901    1    3    3    0    0  0.11397494810E+00  0.26823647454E-01  0.34762329237E-01  0.88843582570E+00  0.88000000000E+00 0.  1.
        -11    1    4    4    0    0 -0.58308730536E-01 -0.10350525065E-01 -0.16463749691E-01  0.61468346332E-01  0.51100000000E-03 0.  1.
         11    1    4    4    0    0 -0.60480931718E-01 -0.17809052013E-02 -0.36090351294E-01  0.70454874226E-01  0.51100000000E-03 0. -1.
</event>
<event>
 8    1  0.1233916E+005  0.1043930E+01  0.7957747E-01            NaN
         13   -1    0    0    0    0  0.00000000000E+00  0.00000000000E+00  0.74505805969E-08  0.10566000000E+00  0.10566000000E+00 0. -1.
     999900   -1    0    0    0    0 -0.00000000000E+00 -0.00000000000E+00 -0.74505805969E-08  0.93827000000E+00  0.93827000000E+00 0. -1.
     999902    2    1    2    0    0  0.10716623250E-01 -0.20149864484E-01 -0.64951692440E-02  0.10202013195E+01  0.10199253316E+01 0.  0.
     999903    2    3    3    0    0  0.51838234048E-01 -0.11437564910E+00 -0.40943938735E-01  0.13354681914E+00  0.19732084724E-01 0.  0.
         14    1    1    2    0    0 -0.10716623250E-01  0.20149864484E-01  0.64951692440E-02  0.23728680455E-01  0.00000000000E+00 0.  1.
     999901    1    3    3    0    0 -0.41121610798E-01  0.94225784618E-01  0.34448769491E-01  0.88665450040E+00  0.88000000000E+00 0.  1.
        -11    1    4    4    0    0  0.18575901884E-01 -0.64647110555E-01 -0.22881204934E-01  0.71050149150E-01  0.51100000000E-03 0. -1.
         11    1    4    4    0    0  0.33262332165E-01 -0.49728538547E-01 -0.18062733800E-01  0.62496669995E-01  0.51100000000E-03 0.  1.
</event>
<event>
 8    1  0.1233916E+005  0.1043930E+01  0.7957747E-01            NaN
         13   -1    0    0    0    0  0.00000000000E+00  0.00000000000E+00  0.74505805969E-08  0.10566000000E+00  0.10566000000E+00 0.  1.
     999900   -1    0    0    0    0 -0.00000000000E+00 -0.00000000000E+00 -0.74505805969E-08  0.93827000000E+00  0.93827000000E+00 0.  1.
     999902    2    1    2    0    0  0.48240960109E-03 -0.24559100236E-01  0.14349631971E-02  0.10193242843E+01  0.10190272594E+01 0.  0.
     999903    2    3    3    0    0  0.34379261492E-01  0.11161568106E+00  0.46982870501E-01  0.12704227764E+00  0.17098430039E-01 0.  0.
         14    1    1    2    0    0 -0.48240960109E-03  0.24559100236E-01 -0.14349631971E-02  0.24605715653E-01  0.00000000000E+00 0.  1.
     999901    1    3    3    0    0 -0.33896851891E-01 -0.13617478129E+00 -0.45547907304E-01  0.89228200670E+00  0.88000000000E+00 0.  1.
        -11    1    4    4    0    0  0.21904850535E-01  0.71763771703E-01  0.21234909864E-01  0.77981048492E-01  0.51100000000E-03 0.  1.
         11    1    4    4    0    0  0.12474410957E-01  0.39851909353E-01  0.25747960637E-01  0.49061229151E-01  0.51100000000E-03 0. -1.
</event>
<event>
 8    1  0.1233916E+005  0.1043930E+01  0.7957747E-01            NaN
         13   -1    0    0    0    0  0.00000000000E+00  0.00000000000E+00  0.74505805969E-08  0.10566000000E+00  0.10566000000E+00 0.  1.
     999900   -1    0    0    0    0 -0.00000000000E+00 -0.00000000000E+00 -0.74505805969E-08  0.93827000000E+00  0.93827000000E+00 0. -1.
     999902    2    1    2    0    0  0.14361630615E-01 -0.78427193667E-02  0.17259761577E-01  0.10201463070E+01  0.10198690228E+01 0.  0.
     999903    2    3    3    0    0 -0.33593298909E-01 -0.10105262689E+00  0.75362339377E-01  0.13202262665E+00  0.20257063423E-01 0.  0.
         14    1    1    2    0    0 -0.14361630615E-01  0.78427193667E-02 -0.17259761577E-01  0.23783692957E-01  0.00000000000E+00 0. -1.
     999901    1    3    3    0    0  0.47954929523E-01  0.93209907523E-01 -0.58102577800E-01  0.88812368039E+00  0.88000000000E+00 0. -1.
        -11    1    4    4    0    0 -0.33908961040E-02 -0.41111865581E-01  0.27364718509E-01  0.49505278587E-01  0.51100000000E-03 0.  1.
         11    1    4    4    0    0 -0.30202402805E-01 -0.59940761310E-01  0.47997620869E-01  0.82517348065E-01  0.51100000000E-03 0. -1.
</event>
<event>
 8    1  0.1233916E+005  0.1043930E+01  0.7957747E-01            NaN
         13   -1    0    0    0    0  0.00000000000E+00  0.00000000000E+00  0.74505805969E-08  0.10566000000E+00  0.10566000000E+00 0. -1.
     999900   -1    0    0    0    0 -0.00000000000E+00 -0.00000000000E+00 -0.74505805969E-08  0.93827000000E+00  0.93827000000E+00 0.  1.
     999902    2    1    2    0    0  0.20043754029E-01 -0.10882961307E-01  0.60464421430E-02  0.10203344414E+01  0.10200615775E+01 0.  0.
     999903    2    3    3    0    0  0.12287016938E+00 -0.35956533266E-01 -0.31211528087E-01  0.13320980978E+00  0.19512640213E-01 0.  0.
         14    1    1    2    0    0 -0.20043754029E-01  0.10882961307E-01 -0.60464421430E-02  0.23595558586E-01  0.00000000000E+00 0. -1.
     999901    1    3    3    0    0 -0.10282641535E+00  0.25073571959E-01  0.37257970230E-01  0.88712463163E+00  0.88000000000E+00 0. -1.
        -11    1    4    4    0    0  0.81286871726E-01 -0.29236731888E-01 -0.13175652639E-01  0.87385358899E-01  0.51100000000E-03 0. -1.
         11    1    4    4    0    0  0.41583297655E-01 -0.67198013784E-02 -0.18035875448E-01  0.45824450882E-01  0.51100000000E-03 0.  1.
</event>
<event>
 8    1  0.1233916E+005  0.1043930E+01  0.7957747E-01            NaN
         13   -1    0    0    0    0  0.00000000000E+00  0.00000000000E+00  0.74505805969E-08  0.10566000000E+00  0.10566000000E+00 0. -1.
     999900   -1    0    0    0    0 -0.00000000000E+00 -0.00000000000E+00 -0.74505805969E-08  0.93827000000E+00  0.93827000000E+00 0. -1.
     999902    2    1    2    0    0  0.35112211933E-02  0.20576061593E-01 -0.85667061107E-02  0.10213669453E+01  0.10211176942E+01 0.  0.
     999903    2    3    3    0    0 -0.11979694276E+00  0.47713742014E-01  0.19652485039E-01  0.13190773893E+00  0.19634733266E-01 0.  0.
         14    1    1    2    0    0 -0.35112211933E-02 -0.20576061593E-01  0.85667061107E-02  0.22563054725E-01  0.00000000000E+00 0. -1.
     999901    1    3    3    0    0  0.12330816395E+00 -0.27137680422E-01 -0.28219191150E-01  0.88945920634E+00  0.88000000000E+00 0. -1.
        -11    1    4    4    0    0 -0.68229926161E-01  0.21097946017E-01  0.27862291696E-02  0.71473563952E-01  0.51100000000E-03 0. -1.
         11    1    4    4    0    0 -0.51567016600E-01  0.26615795997E-01  0.16866255870E-01  0.60434174981E-01  0.51100000000E-03 0.  1.
</event>
<event>
 8    1  0.1233916E+005  0.1043930E+01  0.7957747E-01            NaN
         13   -1    0    0    0    0  0.00000000000E+00  0.00000000000E+00  0.74505805969E-08  0.10566000000E+00  0.10566000000E+00 0. -1.
     999900   -1    0    0    0    0 -0.00000000000E+00 -0.00000000000E+00 -0.74505805969E-08  0.93827000000E+00  0.93827000000E+00 0. -1.
     999902    2    1    2    0    0  0.22070095201E-01 -0.26602395540E-02 -0.13790422379E-01  0.10177700740E+01  0.10174338219E+01 0.  0.
     999903    2    3    3    0    0 -0.70694031263E-01  0.10194637187E+00 -0.16322889826E-01  0.12672903138E+00  0.20077397004E-01 0.  0.
         14    1    1    2    0    0 -0.22070095201E-01  0.26602395540E-02  0.13790422379E-01  0.26159925957E-01  0.00000000000E+00 0. -1.
     999901    1    3    3    0    0  0.92764126464E-01 -0.10460661142E+00  0.25324674462E-02  0.89104104266E+00  0.88000000000E+00 0. -1.
        -11    1    4    4    0    0 -0.34019186761E-01  0.66219586274E-01 -0.85012636182E-02  0.74932444764E-01  0.51100000000E-03 0. -1.
         11    1    4    4    0    0 -0.36674844502E-01  0.35726785591E-01 -0.78216262074E-02  0.51796586619E-01  0.51100000000E-03 0.  1.
</event>
<event>
 8    1  0.1233916E+005  0.1043930E+01  0.7957747E-01            NaN
         13   -1    0    0    0    0  0.00000000000E+00  0.00000000000E+00  0.74505805969E-08  0.10566000000E+00  0.10566000000E+00 0.  1.
     999900   -1    0    0    0    0 -0.00000000000E+00 -0.00000000000E+00 -0.74505805969E-08  0.93827000000E+00  0.93827000000E+00 0. -1.
     999902    2    1    2    0    0  0.19983504574E-01 -0.68769746769E-02  0.97765263460E-02  0.10206445173E+01  0.10203788596E+01 0.  0.
     999903    2    3    3    0    0 -0.19482666883E-01 -0.10575564679E+00  0.74001709370E-01  0.13190414769E+00  0.18937266239E-01 0.  0.
         14    1    1    2    0    0 -0.19983504574E-01  0.68769746769E-02 -0.97765263460E-02  0.23285482670E-01  0.00000000000E+00 0. -1.
     999901    1    3    3    0    0  0.39466171457E-01  0.98878672111E-01 -0.64225183024E-01  0.88874036964E+00  0.88000000000E+00 0.  1.
        -11    1    4    4    0    0 -0.49415720617E-02 -0.30793113412E-01  0.32282318922E-01  0.44889243745E-01  0.51100000000E-03 0.  1.
         11    1    4    4    0    0 -0.14541094821E-01 -0.74962533376E-01  0.41719390448E-01  0.87014903948E-01  0.51100000000E-03 0. -1.
</event>
<event>
 8    1  0.1233916E+005  0.1043930E+01  0.7957747E-01            NaN
         13   -1    0    0    0    0  0.00000000000E+00  0.00000000000E+00  0.74505805969E-08  0.10566000000E+00  0.10566000000E+00 0.  1.
     999900   -1    0    0    0    0 -0.00000000000E+00 -0.00000000000E+00 -0.74505805969E-08  0.93827000000E+00  0.93827000000E+00 0.  1.
     999902    2    1    2    0    0 -0.12599179529E-01 -0.11213250739E-01  0.17065647710E-01  0.10199359872E+01  0.10196537184E+01 0.  0.
     999903    2    3    3    0    0  0.10069234132E+00 -0.70889333996E-01  0.37953683485E-01  0.13042347262E+00  0.20138392348E-01 0.  0.
         14    1    1    2    0    0  0.12599179529E-01  0.11213250739E-01 -0.17065647710E-01  0.23994012767E-01  0.00000000000E+00 0. -1.
     999901    1    3    3    0    0 -0.11329152085E+00  0.59676083257E-01 -0.20888035775E-01  0.88951251461E+00  0.88000000000E+00 0.  1.
        -11    1    4    4    0    0  0.58940991819E-01 -0.51625152495E-01  0.29167536606E-01  0.83607435073E-01  0.51100000000E-03 0. -1.
         11    1    4    4    0    0  0.41751349500E-01 -0.19264181501E-01  0.87861468785E-02  0.46816037550E-01  0.51100000000E-03 0.  1.
</event>
<event>
 8    1  0.1233916E+005  0.1043930E+01  0.7957747E-01            NaN
         13   -1    0    0    0    0  0.00000000000E+00  0.00000000000E+00  0.74505805969E-08  0.10566000000E+00  0.10566000000E+00 0.  1.
     999900   -1    0    0    0    0 -0.00000000000E+00 -0.00000000000E+00 -0.74505805969E-08  0.93827000000E+00  0.93827000000E+00 0. -1.
     999902    2    1    2    0    0 -0.40931732581E-02  0.41623607568E-03  0.24673530956E-01  0.10189157950E+01  0.10186087016E+01 0.  0.
     999903    2    3    3    0    0  0.10705217259E+00 -0.47614046179E-01 -0.46919886769E-01  0.12774476018E+00  0.19747985472E-01 0.  0.
         14    1    1    2    0    0  0.40931732581E-02 -0.41623607568E-03 -0.24673530956E-01  0.25014204957E-01  0.00000000000E+00 0. -1.
     999901    1    3    3    0    0 -0.11114534584E+00  0.48030282255E-01  0.71593417725E-01  0.89117103486E+00  0.88000000000E+00 0.  1.
        -11    1    4    4    0    0  0.62988310649E-01 -0.24737391044E-01 -0.17002513198E-01  0.69776875612E-01  0.51100000000E-03 0.  1.
         11    1    4    4    0    0  0.44063861937E-01 -0.22876655135E-01 -0.29917373572E-01  0.57967884569E-01  0.51100000000E-03 0. -1.
</event>
<event>
 8    1  0.1233916E+005  0.1043930E+01  0.7957747E-01            NaN
         13   -1    0    0    0    0  0.00000000000E+00  0.00000000000E+00  0.74505805969E-08  0.10566000000E+00  0.10566000000E+00 0. -1.
     999900   -1    0    0    0    0 -0.00000000000E+00 -0.00000000000E+00 -0.74505805969E-08  0.93827000000E+00  0.93827000000E+00 0. -1.
     999902    2    1    2    0    0 -0.58189779024E-02  0.68973548128E-02  0.21812208625E-01  0.10203247791E+01  0.10200516891E+01 0.  0.
     999903    2    3    3    0    0  0.28484918175E-01 -0.12368864893E+00 -0.13565616362E-01  0.12932474986E+00  0.20750723900E-01 0.  0.
         14    1    1    2    0    0  0.58189779024E-02 -0.68973548128E-02 -0.21812208625E-01  0.23605220870E-01  0.00000000000E+00 0.  1.
     999901    1    3    3    0    0 -0.34303896077E-01  0.13058600374E+00  0.35377824986E-01  0.89100002927E+00  0.88000000000E+00 0.  1.
        -11    1    4    4    0    0  0.27468726229E-02 -0.56825035042E-01 -0.38935244033E-02  0.57026753107E-01  0.51100000000E-03 0. -1.
         11    1    4    4    0    0  0.25738045552E-01 -0.66863613885E-01 -0.96720919583E-02  0.72297996752E-01  0.51100000000E-03 0.  1.
</event>
<event>
 8    1  0.1233916E+005  0.1043930E+01  0.7957747E-01            NaN
         13   -1    0    0    0    0  0.00000000000E+00  0.00000000000E+00  0.74505805969E-08  0.10566000000E+00  0.10566000000E+00 0. -1.
     999900   -1    0    0    0    0 -0.00000000000E+00 -0.00000000000E+00 -0.74505805969E-08  0.93827000000E+00  0.93827000000E+00 0.  1.
     999902    2    1    2    0    0 -0.34025943847E-02 -0.21068498640E-01 -0.10820651694E-01  0.10200020710E+01  0.10197213732E+01 0.  0.
     999903    2    3    3    0    0 -0.30433120740E-01 -0.12699672337E+00  0.13517822086E-01  0.13290354239E+00  0.20646488360E-01 0.  0.
         14    1    1    2    0    0  0.34025943847E-02  0.21068498640E-01  0.10820651694E-01  0.23927929007E-01  0.00000000000E+00 0.  1.
     999901    1    3    3    0    0  0.27030526355E-01  0.10592822473E+00 -0.24338473780E-01  0.88709852861E+00  0.88000000000E+00 0.  1.
        -11    1    4    4    0    0 -0.26444446705E-01 -0.95292196470E-01  0.19441157749E-02  0.98913862410E-01  0.51100000000E-03 0. -1.
         11    1    4    4    0    0 -0.39886740346E-02 -0.31704526895E-01  0.11573706311E-01  0.33989679977E-01  0.51100000000E-03 0.  1.
</event>
<event>
 8    1  0.1233916E+005  0.1043930E+01  0.7957747E-01            NaN
         13   -1    0    0    0    0  0.00000000000E+00  0.00000000000E+00  0.74505805969E-08  0.10566000000E+00  0.10566000000E+00 0.  1.
     999900   -1    0    0    0    0 -0.00000000000E+00 -0.00000000000E+00 -0.74505805969E-08  0.93827000000E+00  0.93827000000E+00 0. -1.
     999902    2    1    2    0    0  0.21315601155E-01  0.74672704512E-02 -0.57245005286E-02  0.10206301097E+01  0.10203641193E+01 0.  0.
     999903    2    3    3    0    0 -0.17005154913E-01 -0.11486270431E+00  0.53467660266E-01  0.12937435801E+00  0.19907729140E-01 0.  0.
         14    1    1    2    0    0 -0.21315601155E-01 -0.74672704512E-02  0.57245005286E-02  0.23299890276E-01  0.00000000000E+00 0.  1.
     999901    1    3    3    0    0  0.38320756067E-01  0.12232997476E+00 -0.59192160795E-01  0.89125575172E+00  0.88000000000E+00 0. -1.
        -11    1    4    4    0    0 -0.20335547312E-01 -0.89590198919E-01  0.37113143286E-01  0.99083725971E-01  0.51100000000E-03 0.  1.
         11    1    4    4    0    0  0.33303923989E-02 -0.25272505393E-01  0.16354516980E-01  0.30290632034E-01  0.51100000000E-03 0. -1.
</event>
<event>
 8    1  0.1233916E+005  0.1043930E+01  0.7957747E-01            NaN
         13   -1    0    0    0    0  0.00000000000E+00  0.00000000000E+00  0.74505805969E-08  0.10566000000E+00  0.10566000000E+00 0.  1.
     999900   -1    0    0    0    0 -0.00000000000E+00 -0.00000000000E+00 -0.74505805969E-08  0.93827000000E+00  0.93827000000E+00 0.  1.
     999902    2    1    2    0    0  0.62291569170E-02 -0.19515131443E-01  0.12422702450E-01  0.10199724065E+01  0.10196910040E+01 0.  0.
     999903    2    3    3    0    0  0.11790694259E+00 -0.10211310278E-02  0.55092916302E-01  0.13169615271E+00  0.20138455526E-01 0.  0.
         14    1    1    2    0    0 -0.62291569170E-02  0.19515131443E-01 -0.12422702450E-01  0.23957593521E-01  0.00000000000E+00 0. -1.
     999901    1    3    3    0    0 -0.11167778568E+00 -0.18494000416E-01 -0.42670213852E-01  0.88827625377E+00  0.88000000000E+00 0.  1.
        -11    1    4    4    0    0  0.44892337476E-01 -0.76051097959E-02  0.13929330552E-01  0.47617717603E-01  0.51100000000E-03 0. -1.
         11    1    4    4    0    0  0.73014605117E-01  0.65839787680E-02  0.41163585750E-01  0.84078435104E-01  0.51100000000E-03 0.  1.
</event>
<event>
 7    1  0.1233916E+005  0.1043930E+01  0.7957747E-01            NaN
         13   -1    0    0    0    0  0.00000000000E+00  0.00000000000E+00  0.74505805969E-08  0.10566000000E+00  0.10566000000E+00 0. -1.
     999900   -1    0    0    0    0 -0.00000000000E+00 -0.00000000000E+00 -0.74505805969E-08  0.93827000000E+00  0.93827000000E+00 0.  1.
     999902    2    1    2    0    0 -0.16404501546E-01  0.92233534056E-02  0.22505747030E-02  0.10249762931E+01  0.10248010336E+01 0.  0.
         14    1    1    2    0    0  0.16404501546E-01 -0.92233534056E-02 -0.22505747030E-02  0.18953706907E-01  0.00000000000E+00 0.  1.
     999901    1    3    3    0    0  0.10445062450E+00  0.44949707106E-01 -0.33118516364E-01  0.88793425728E+00  0.88000000000E+00 0.  1.
        -11    1    3    3    0    0 -0.93318535443E-01 -0.25788534730E-01  0.44242655410E-01  0.10644750471E+00  0.51100000000E-03 0. -1.
         11    1    3    3    0    0 -0.27536590605E-01 -0.99378189696E-02 -0.88735643432E-02  0.30594531099E-01  0.51100000000E-03 0.  1.
</event>
<event>
 8    1  0.1233916E+005  0.1043930E+01  0.7957747E-01            NaN
         13   -1    0    0    0    0  0.00000000000E+00  0.00000000000E+00  0.74505805969E-08  0.10566000000E+00  0.10566000000E+00 0. -1.
     999900   -1    0    0    0    0 -0.00000000000E+00 -0.00000000000E+00 -0.74505805969E-08  0.93827000000E+00  0.93827000000E+00 0.  1.
     999902    2    1    2    0    0  0.99269104549E-02 -0.20341131435E-01 -0.10377801143E-02  0.10212720617E+01  0.10210206863E+01 0.  0.
     999903    2    3    3    0    0  0.11255347260E+00 -0.34083375293E-01  0.59134812195E-01  0.13316069405E+00  0.20121723644E-01 0.  0.
         14    1    1    2    0    0 -0.99269104549E-02  0.20341131435E-01  0.10377801143E-02  0.22657938273E-01  0.00000000000E+00 0. -1.
     999901    1    3    3    0    0 -0.10262656214E+00  0.13742243858E-01 -0.60172592309E-01  0.88811136767E+00  0.88000000000E+00 0. -1.
        -11    1    4    4    0    0  0.11255422214E-01 -0.15631794699E-02 -0.13125756249E-03  0.11375693773E-01  0.51100000000E-03 0. -1.
         11    1    4    4    0    0  0.10129805038E+00 -0.32520195823E-01  0.59266069758E-01  0.12178500028E+00  0.51100000000E-03 0.  1.
</event>
<event>
 8    1  0.1233916E+005  0.1043930E+01  0.7957747E-01            NaN
         13   -1    0    0    0    0  0.00000000000E+00  0.00000000000E+00  0.74505805969E-08  0.10566000000E+00  0.10566000000E+00 0.  1.
     999900   -1    0    0    0    0 -0.00000000000E+00 -0.00000000000E+00 -0.74505805969E-08  0.93827000000E+00  0.93827000000E+00 0.  1.
     999902    2    1    2    0    0  0.25465603129E-02  0.19197828599E-01  0.13767367244E-01  0.10201690658E+01  0.10198923183E+01 0.  0.
     999903    2    3    3    0    0  0.62570309716E-01 -0.34056911385E-01 -0.10490446425E+00  0.12858512618E+00  0.21313638501E-01 0.  0.
         14    1    1    2    0    0 -0.25465603129E-02 -0.19197828599E-01 -0.13767367244E-01  0.23760934182E-01  0.00000000000E+00 0.  1.
     999901    1    3    3    0    0 -0.60023749404E-01  0.53254739985E-01  0.11867183149E+00  0.89158393963E+00  0.88000000000E+00 0. -1.
        -11    1    4    4    0    0  0.17347163430E-01 -0.53654336377E-03 -0.17742746070E-01  0.24824949485E-01  0.51100000000E-03 0.  1.
         11    1    4    4    0    0  0.45223146287E-01 -0.33520368022E-01 -0.87161718176E-01  0.10376017670E+00  0.51100000000E-03 0. -1.
</event>
<event>
 8    1  0.1304540E+005  0.1043930E+01  0.7957747E-01            NaN
         13   -1    0    0    0    0  0.00000000000E+00  0.00000000000E+00  0.74505805969E-08  0.10566000000E+00  0.10566000000E+00 0.  1.
     999900   -1    0    0    0    0 -0.00000000000E+00 -0.00000000000E+00 -0.74505805969E-08  0.93827000000E+00  0.93827000000E+00 0.  1.
     999902    2    1    2    0    0  0.45865171684E-03 -0.35368350052E-02 -0.22007204660E-01  0.10216356819E+01  0.10213923976E+01 0.  0.
     999903    2    3    3    0    0 -0.65191115439E-01 -0.87283793244E-01 -0.74776450568E-01  0.13365593085E+00  0.20100950120E-01 0.  0.
         14    1    1    2    0    0 -0.45865171684E-03  0.35368350052E-02  0.22007204660E-01  0.22294318115E-01  0.00000000000E+00 0.  1.
     999901    1    3    3    0    0  0.65649767155E-01  0.83746958239E-01  0.52769245908E-01  0.88797975104E+00  0.88000000000E+00 0. -1.
        -11    1    4    4    0    0 -0.17642176615E-01 -0.39615550205E-01 -0.26816055999E-01  0.50990197039E-01  0.51100000000E-03 0.  1.
         11    1    4    4    0    0 -0.47548938824E-01 -0.47668243039E-01 -0.47960394569E-01  0.82665733807E-01  0.51100000000E-03 0. -1.
</event>
<event>
 8    1  0.1233916E+005  0.1043930E+01  0.7957747E-01            NaN
         13   -1    0    0    0    0  0.00000000000E+00  0.00000000000E+00  0.74505805969E-08  0.10566000000E+00  0.10566000000E+00 0. -1.
     999900   -1    0    0    0    0 -0.00000000000E+00 -0.00000000000E+00 -0.74505805969E-08  0.93827000000E+00  0.93827000000E+00 0. -1.
     999902    2    1    2    0    0  0.20733361569E-01 -0.10704919863E-01  0.49524958863E-02  0.10200763880E+01  0.10197974517E+01 0.  0.
     999903    2    3    3    0    0 -0.19383496393E-01  0.12388081944E+00 -0.20390957476E-01  0.12858046866E+00  0.19873812336E-01 0.  0.
         14    1    1    2    0    0 -0.20733361569E-01  0.10704919863E-01 -0.49524958863E-02  0.23853612026E-01  0.00000000000E+00 0.  1.
     999901    1    3    3    0    0  0.40116857962E-01 -0.13458573931E+00  0.25343453363E-01  0.89149591931E+00  0.88000000000E+00 0.  1.
        -11    1    4    4    0    0  0.11895006001E-02  0.21487534719E-01 -0.96442047114E-02  0.23588150955E-01  0.51100000000E-03 0.  1.
         11    1    4    4    0    0 -0.20572996993E-01  0.10239328472E+00 -0.10746752765E-01  0.10499231771E+00  0.51100000000E-03 0. -1.
</event>
<event>
 8    1  0.1233916E+005  0.1043930E+01  0.7957747E-01            NaN
         13   -1    0    0    0    0  0.00000000000E+00  0.00000000000E+00  0.74505805969E-08  0.10566000000E+00  0.10566000000E+00 0.  1.
     999900   -1    0    0    0    0 -0.00000000000E+00 -0.00000000000E+00 -0.74505805969E-08  0.93827000000E+00  0.93827000000E+00 0.  1.
     999902    2    1    2    0    0 -0.72875863311E-02 -0.13689093669E-01  0.17009438009E-01  0.10209121552E+01  0.10206526380E+01 0.  0.
     999903    2    3    3    0    0  0.54927802827E-02 -0.31928859471E-01  0.12812422578E+00  0.13364527147E+00  0.19890164652E-01 0.  0.
         14    1    1    2    0    0  0.72875863311E-02  0.13689093669E-01 -0.17009438009E-01  0.23017844847E-01  0.00000000000E+00 0. -1.
     999901    1    3    3    0    0 -0.12780366614E-01  0.18239765802E-01 -0.11111478777E+00  0.88726688369E+00  0.88000000000E+00 0.  1.
        -11    1    4    4    0    0  0.11759646778E-01 -0.20898589094E-01  0.99174801747E-01  0.10203402737E+00  0.51100000000E-03 0.  1.
         11    1    4    4    0    0 -0.62668664955E-02 -0.11030270377E-01  0.28949424037E-01  0.31611244097E-01  0.51100000000E-03 0. -1.
</event>
<event>
 8    1  0.1233916E+005  0.1043930E+01  0.7957747E-01            NaN
         13   -1    0    0    0    0  0.00000000000E+00  0.00000000000E+00  0.74505805969E-08  0.10566000000E+00  0.10566000000E+00 0.  1.
     999900   -1    0    0    0    0 -0.00000000000E+00 -0.00000000000E+00 -0.74505805969E-08  0.93827000000E+00  0.93827000000E+00 0. -1.
     999902    2    1    2    0    0  0.12394035582E-01  0.43166797136E-02 -0.20181525543E-01  0.10198563668E+01  0.10195721991E+01 0.  0.
     999903    2    3    3    0    0 -0.12366746801E+00 -0.42496395776E-02  0.26283705697E-01  0.12814725936E+00  0.20474003428E-01 0.  0.
         14    1    1    2    0    0 -0.12394035582E-01 -0.43166797136E-02  0.20181525543E-01  0.24073633191E-01  0.00000000000E+00 0.  1.
     999901    1    3    3    0    0  0.13606150359E+00  0.85663192911E-02 -0.46465231240E-01  0.89170910745E+00  0.88000000000E+00 0. -1.
        -11    1    4    4    0    0 -0.40423366774E-01 -0.10707322582E-01  0.11269172285E-01  0.43312246573E-01  0.51100000000E-03 0.  1.
         11    1    4    4    0    0 -0.83244101237E-01  0.64576830044E-02  0.15014533411E-01  0.84835012791E-01  0.51100000000E-03 0. -1.
</event>
<event>
 8    1  0.1233916E+005  0.1043930E+01  0.7957747E-01            NaN
         13   -1    0    0    0    0  0.00000000000E+00  0.00000000000E+00  0.74505805969E-08  0.10566000000E+00  0.10566000000E+00 0.  1.
     999900   -1    0    0    0    0 -0.00000000000E+00 -0.00000000000E+00 -0.74505805969E-08  0.93827000000E+00  0.93827000000E+00 0. -1.
     999902    2    1    2    0    0  0.13397885325E-01 -0.14714219934E-01 -0.11713898130E-01  0.10208382913E+01  0.10205770868E+01 0.  0.
     999903    2    3    3    0    0  0.72698781724E-01 -0.36199986994E-01 -0.10435482062E+00  0.13373030748E+00  0.19957821300E-01 0.  0.
         14    1    1    2    0    0 -0.13397885325E-01  0.14714219934E-01  0.11713898130E-01  0.23091708660E-01  0.00000000000E+00 0.  1.
     999901    1    3    3    0    0 -0.59300896400E-01  0.21485767060E-01  0.92640922488E-01  0.88710798386E+00  0.88000000000E+00 0.  1.
        -11    1    4    4    0    0  0.38390309594E-01 -0.21204542953E-01 -0.71673421240E-01  0.84028500795E-01  0.51100000000E-03 0.  1.
         11    1    4    4    0    0  0.34308472130E-01 -0.14995444041E-01 -0.32681399378E-01  0.49701806690E-01  0.51100000000E-03 0. -1.
</event>
<event>
 8    1  0.1233916E+005  0.1043930E+01  0.7957747E-01            NaN
         13   -1    0    0    0    0  0.00000000000E+00  0.00000000000E+00  0.74505805969E-08  0.10566000000E+00  0.10566000000E+00 0.  1.
     999900   -1    0    0    0    0 -0.00000000000E+00 -0.00000000000E+00 -0.74505805969E-08  0.93827000000E+00  0.93827000000E+00 0.  1.
     999902    2    1    2    0    0 -0.18553875029E-01 -0.13919443460E-02 -0.10799512918E-01  0.10224169048E+01  0.10221905468E+01 0.  0.
     999903    2    3    3    0    0 -0.52587309542E-01  0.61465681817E-01 -0.10543822579E+00  0.13446091384E+00  0.20471021651E-01 0.  0.
         14    1    1    2    0    0  0.18553875029E-01  0.13919443460E-02  0.10799512918E-01  0.21513095242E-01  0.00000000000E+00 0.  1.
     999901    1    3    3    0    0  0.34033434514E-01 -0.62857626163E-01  0.94638712870E-01  0.88795599092E+00  0.88000000000E+00 0.  1.
        -11    1    4    4    0    0 -0.21396111152E-01  0.11041166891E-01 -0.32899632932E-01  0.40771900946E-01  0.51100000000E-03 0. -1.
         11    1    4    4    0    0 -0.31191198391E-01  0.50424514926E-01 -0.72538592856E-01  0.93689012894E-01  0.51100000000E-03 0.  1.
</event>
<event>
 8    1  0.1233916E+005  0.1043930E+01  0.7957747E-01            NaN
         13   -1    0    0    0    0  0.00000000000E+00  0.00000000000E+00  0.74505805969E-08  0.10566000000E+00  0.10566000000E+00 0.  1.
     999900   -1    0    0    0    0 -0.00000000000E+00 -0.00000000000E+00 -0.74505805969E-08  0.93827000000E+00  0.93827000000E+00 0.  1.
     999902    2    1    2    0    0  0.69309936934E-02 -0.22463679435E-01  0.37774478041E-02  0.10201198198E+01  0.10198419104E+01 0.  0.
     999903    2    3    3    0    0 -0.48649853256E-01  0.10047181109E+00  0.59746837231E-01  0.12808005731E+00  0.19324168190E-01 0.  0.
         14    1    1    2    0    0 -0.69309936934E-02  0.22463679435E-01 -0.37774478041E-02  0.23810180160E-01  0.00000000000E+00 0.  1.
     999901    1    3    3    0    0  0.55580846949E-01 -0.12293549053E+00 -0.55969389427E-01  0.89203976253E+00  0.88000000000E+00 0. -1.
        -11    1    4    4    0    0 -0.74183225532E-02  0.35279510629E-01  0.21528693133E-01  0.41993108110E-01  0.51100000000E-03 0.  1.
         11    1    4    4    0    0 -0.41231530703E-01  0.65192300463E-01  0.38218144097E-01  0.86086949202E-01  0.51100000000E-03 0. -1.
</event>
<event>
 8    1  0.1233916E+005  0.1043930E+01  0.7957747E-01            NaN
         13   -1    0    0    0    0  0.00000000000E+00  0.00000000000E+00  0.74505805969E-08  0.10566000000E+00  0.10566000000E+00 0. -1.
     999900   -1    0    0    0    0 -0.00000000000E+00 -0.00000000000E+00 -0.74505805969E-08  0.93827000000E+00  0.93827000000E+00 0. -1.
     999902    2    1    2    0    0  0.21814686889E-01 -0.45569356941E-02  0.51975270836E-02  0.10210463702E+01  0.10207899047E+01 0.  0.
     999903    2    3    3    0    0 -0.12619526547E+00 -0.93476647445E-02 -0.10268550357E-01  0.12853917319E+00  0.20106020366E-01 0.  0.
         14    1    1    2    0    0 -0.21814686889E-01  0.45569356941E-02 -0.51975270836E-02  0.22883629842E-01  0.00000000000E+00 0.  1.
     999901    1    3    3    0    0  0.14800995236E+00  0.47907290504E-02  0.15466077441E-01  0.89250719696E+00  0.88000000000E+00 0. -1.
        -11    1    4    4    0    0 -0.95012888016E-02 -0.67283962712E-03 -0.63450126612E-02  0.11456330509E-01  0.51100000000E-03 0. -1.
         11    1    4    4    0    0 -0.11669397667E+00 -0.86748251174E-02 -0.39235376961E-02  0.11708284268E+00  0.51100000000E-03 0.  1.
</event>
<event>
 8    1  0.1233916E+005  0.1043930E+01  0.7957747E-01            NaN
         13   -1    0    0    0    0  0.00000000000E+00  0.00000000000E+00  0.74505805969E-08  0.10566000000E+00  0.10566000000E+00 0. -1.
     999900   -1    0    0    0    0 -0.00000000000E+00 -0.00000000000E+00 -0.74505805969E-08  0.93827000000E+00  0.93827000000E+00 0. -1.
     999902    2    1    2    0    0  0.22275780811E-01 -0.71043426999E-02 -0.37262813155E-02  0.10202536982E+01  0.10199789416E+01 0.  0.
     999903    2    3    3    0    0 -0.10363045076E+00  0.28708950261E-03  0.72387371011E-01  0.12800916863E+00  0.20175803011E-01 0.  0.
         14    1    1    2    0    0 -0.22275780811E-01  0.71043426999E-02  0.37262813155E-02  0.23676301831E-01  0.00000000000E+00 0. -1.
     999901    1    3    3    0    0  0.12590623157E+00 -0.73914322025E-02 -0.76113652326E-01  0.89224452954E+00  0.88000000000E+00 0.  1.
        -11    1    4    4    0    0 -0.64708652575E-02 -0.27128103836E-02  0.10947450632E-01  0.13013040909E-01  0.51100000000E-03 0. -1.
         11    1    4    4    0    0 -0.97159585502E-01  0.29998998862E-02  0.61439920379E-01  0.11499612772E+00  0.51100000000E-03 0.  1.
</event>
<event>
 8    1  0.1233916E+005  0.1043930E+01  0.7957747E-01            NaN
         13   -1    0    0    0    0  0.00000000000E+00  0.00000000000E+00  0.74505805969E-08  0.10566000000E+00  0.10566000000E+00 0. -1.
     999900   -1    0    0    0    0 -0.00000000000E+00 -0.00000000000E+00 -0.74505805969E-08  0.93827000000E+00  0.93827000000E+00 0. -1.
     999902    2    1    2    0    0 -0.14314490667E-01  0.16511977466E-01  0.79862584859E-02  0.10206634926E+01  0.10203982726E+01 0.  0.
     999903    2    3    3    0    0  0.84949102853E-01 -0.58984301322E-01  0.75024800682E-01  0.12934586387E+00  0.20152764206E-01 0.  0.
         14    1    1    2    0    0  0.14314490667E-01 -0.16511977466E-01 -0.79862584859E-02  0.23266507419E-01  0.00000000000E+00 0.  1.
     999901    1    3    3    0    0 -0.99263593520E-01  0.75496278788E-01 -0.67038542196E-01  0.89131762871E+00  0.88000000000E+00 0. -1.
        -11    1    4    4    0    0  0.38421127244E-01 -0.15714041900E-01  0.34540739144E-01  0.54004054599E-01  0.51100000000E-03 0. -1.
         11    1    4    4    0    0  0.46527975609E-01 -0.43270259422E-01  0.40484061538E-01  0.75341809272E-01  0.51100000000E-03 0.  1.
</event>
<event>
 7    1  0.1233916E+005  0.1043930E+01  0.7957747E-01            NaN
         13   -1    0    0    0    0  0.00000000000E+00  0.00000000000E+00  0.74505805969E-08  0.10566000000E+00  0.10566000000E+00 0.  1.
     999900   -1    0    0    0    0 -0.00000000000E+00 -0.00000000000E+00 -0.74505805969E-08  0.93827000000E+00  0.93827000000E+00 0. -1.
     999903    2    1    2    0    0  0.50630764097E-01  0.20507594872E-02  0.56610161394E-01  0.79318810532E-01  0.22783402811E-01 0.  0.
         14    1    1    2    0    0  0.52240619775E-01  0.51324138836E-01 -0.21472784549E-01  0.76317298550E-01  0.00000000000E+00 0. -1.
     999901    1    1    2    0    0 -0.10287138387E+00 -0.53374898323E-01 -0.35137376845E-01  0.88829389092E+00  0.88000000000E+00 0. -1.
        -11    1    3    3    0    0  0.20753519874E-01 -0.48122896821E-02  0.10026987663E-01  0.23551397448E-01  0.51100000000E-03 0. -1.
         11    1    3    3    0    0  0.29877244223E-01  0.68630491693E-02  0.46583173731E-01  0.55767413084E-01  0.51100000000E-03 0.  1.
</event>
<event>
 8    1  0.1233916E+005  0.1043930E+01  0.7957747E-01            NaN
         13   -1    0    0    0    0  0.00000000000E+00  0.00000000000E+00  0.74505805969E-08  0.10566000000E+00  0.10566000000E+00 0. -1.
     999900   -1    0    0    0    0 -0.00000000000E+00 -0.00000000000E+00 -0.74505805969E-08  0.93827000000E+00  0.93827000000E+00 0.  1.
     999902    2    1    2    0    0  0.14915820495E-01 -0.14970637206E-01  0.12115216360E-01  0.10195706045E+01  0.10192795679E+01 0.  0.
     999903    2    3    3    0    0  0.16578737332E-01  0.67545754058E-01  0.10883788962E+00  0.13043226006E+00  0.18155021985E-01 0.  0.
         14    1    1    2    0    0 -0.14915820495E-01  0.14970637206E-01 -0.12115216360E-01  0.24359395453E-01  0.00000000000E+00 0. -1.
     999901    1    3    3    0    0 -0.16629168376E-02 -0.82516391264E-01 -0.96722673263E-01  0.88913834449E+00  0.88000000000E+00 0.  1.
        -11    1    4    4    0    0  0.14508006254E-01  0.49483266939E-01  0.65005843378E-01  0.82976483095E-01  0.51100000000E-03 0. -1.
         11    1    4    4    0    0  0.20707310781E-02  0.18062487118E-01  0.43832046245E-01  0.47455776962E-01  0.51100000000E-03 0.  1.
</event>
<event>
 8    1  0.1233916E+005  0.1043930E+01  0.7957747E-01            NaN
         13   -1    0    0    0    0  0.00000000000E+00  0.00000000000E+00  0.74505805969E-08  0.10566000000E+00  0.10566000000E+00 0.  1.
     999900   -1    0    0    0    0 -0.00000000000E+00 -0.00000000000E+00 -0.74505805969E-08  0.93827000000E+00  0.93827000000E+00 0. -1.
     999902    2    1    2    0    0 -0.15235813457E-01 -0.15403004397E-01  0.33823767000E-02  0.10220023228E+01  0.10217670599E+01 0.  0.
     999903    2    3    3    0    0  0.12624342441E+00 -0.26667096682E-01  0.45120336370E-02  0.13063004890E+00  0.19882529426E-01 0.  0.
         14    1    1    2    0    0  0.15235813457E-01  0.15403004397E-01 -0.33823767000E-02  0.21927677221E-01  0.00000000000E+00 0.  1.
     999901    1    3    3    0    0 -0.14147923786E+00  0.11264092285E-01 -0.11296569370E-02  0.89137227388E+00  0.88000000000E+00 0.  1.
        -11    1    4    4    0    0  0.59860301509E-01 -0.27471242422E-02  0.41033744463E-02  0.60065807172E-01  0.51100000000E-03 0. -1.
         11    1    4    4    0    0  0.66383122896E-01 -0.23919972439E-01  0.40865919075E-03  0.70564241726E-01  0.51100000000E-03 0.  1.
</event>
<event>
 8    1  0.1233916E+005  0.1043930E+01  0.7957747E-01            NaN
         13   -1    0    0    0    0  0.00000000000E+00  0.00000000000E+00  0.74505805969E-08  0.10566000000E+00  0.10566000000E+00 0.  1.
     999900   -1    0    0    0    0 -0.00000000000E+00 -0.00000000000E+00 -0.74505805969E-08  0.93827000000E+00  0.93827000000E+00 0. -1.
     999902    2    1    2    0    0 -0.80150585970E-02 -0.50652690179E-02  0.21674426351E-01  0.10202724669E+01  0.10199981509E+01 0.  0.
     999903    2    3    3    0    0 -0.10410640333E+00 -0.47080399052E-01 -0.59931015999E-01  0.13029591333E+00  0.18182166094E-01 0.  0.
         14    1    1    2    0    0  0.80150585970E-02  0.50652690179E-02 -0.21674426351E-01  0.23657533096E-01  0.00000000000E+00 0. -1.
     999901    1    3    3    0    0  0.96091344732E-01  0.42015130034E-01  0.81605442350E-01  0.88997655357E+00  0.88000000000E+00 0.  1.
        -11    1    4    4    0    0 -0.60347407689E-01 -0.31997342420E-01 -0.26819356753E-01  0.73383775825E-01  0.51100000000E-03 0.  1.
         11    1    4    4    0    0 -0.43758995640E-01 -0.15083056632E-01 -0.33111659246E-01  0.56912137509E-01  0.51100000000E-03 0. -1.
</event>
<event>
 8    1  0.1233916E+005  0.1043930E+01  0.7957747E-01            NaN
         13   -1    0    0    0    0  0.00000000000E+00  0.00000000000E+00  0.74505805969E-08  0.10566000000E+00  0.10566000000E+00 0. -1.
     999900   -1    0    0    0    0 -0.00000000000E+00 -0.00000000000E+00 -0.74505805969E-08  0.93827000000E+00  0.93827000000E+00 0.  1.
     999902    2    1    2    0    0  0.20182333707E-01 -0.52686025591E-02 -0.85706082758E-02  0.10213791665E+01  0.10211301884E+01 0.  0.
     999903    2    3    3    0    0 -0.12589101010E+00  0.15752180919E-01 -0.13207345560E-01  0.12907832345E+00  0.19750999501E-01 0.  0.
         14    1    1    2    0    0 -0.20182333707E-01  0.52686025591E-02  0.85706082758E-02  0.22550833533E-01  0.00000000000E+00 0. -1.
     999901    1    3    3    0    0  0.14607334381E+00 -0.21020783478E-01  0.46367372846E-02  0.89230084301E+00  0.88000000000E+00 0.  1.
        -11    1    4    4    0    0 -0.66771395858E-01  0.17544746612E-01 -0.34150957651E-02  0.69124246388E-01  0.51100000000E-03 0.  1.
         11    1    4    4    0    0 -0.59119614242E-01 -0.17925656933E-02 -0.97922497953E-02  0.59954077067E-01  0.51100000000E-03 0. -1.
</event>
<event>
 8    1  0.1233916E+005  0.1043930E+01  0.7957747E-01            NaN
         13   -1    0    0    0    0  0.00000000000E+00  0.00000000000E+00  0.74505805969E-08  0.10566000000E+00  0.10566000000E+00 0. -1.
     999900   -1    0    0    0    0 -0.00000000000E+00 -0.00000000000E+00 -0.74505805969E-08  0.93827000000E+00  0.93827000000E+00 0. -1.
     999902    2    1    2    0    0  0.16408080033E-02 -0.20260131740E-01  0.12722591162E-01  0.10199502270E+01  0.10196682970E+01 0.  0.
     999903    2    3    3    0    0  0.97147816432E-01 -0.22118122406E-01 -0.80964257059E-01  0.12983660145E+00  0.19375824619E-01 0.  0.
         14    1    1    2    0    0 -0.16408080033E-02  0.20260131740E-01 -0.12722591162E-01  0.23979773037E-01  0.00000000000E+00 0.  1.
     999901    1    3    3    0    0 -0.95507008429E-01  0.18579906668E-02  0.93686848221E-01  0.89011362551E+00  0.88000000000E+00 0.  1.
        -11    1    4    4    0    0  0.48245514512E-01 -0.16686828478E-01 -0.51334260358E-01  0.72398531219E-01  0.51100000000E-03 0.  1.
         11    1    4    4    0    0  0.48902301920E-01 -0.54312939288E-02 -0.29629996701E-01  0.57438070235E-01  0.51100000000E-03 0. -1.
</event>
<event>
 8    1  0.1233916E+005  0.1043930E+01  0.7957747E-01            NaN
         13   -1    0    0    0    0  0.00000000000E+00  0.00000000000E+00  0.74505805969E-08  0.10566000000E+00  0.10566000000E+00 0. -1.
     999900   -1    0    0    0    0 -0.00000000000E+00 -0.00000000000E+00 -0.74505805969E-08  0.93827000000E+00  0.93827000000E+00 0. -1.
     999902    2    1    2    0    0  0.16506557714E-01 -0.12026327677E-01 -0.71095595745E-02  0.10223049025E+01  0.10220761561E+01 0.  0.
     999903    2    3    3    0    0 -0.57596856956E-01  0.10893051587E+00 -0.37709723145E-01  0.13042024398E+00  0.20103770820E-01 0.  0.
         14    1    1    2    0    0 -0.16506557714E-01  0.12026327677E-01  0.71095595745E-02  0.21625097510E-01  0.00000000000E+00 0. -1.
     999901    1    3    3    0    0  0.74103414670E-01 -0.12095684355E+00  0.30600163571E-01  0.89188465851E+00  0.88000000000E+00 0.  1.
        -11    1    4    4    0    0 -0.18344111526E-01  0.35567991512E-01 -0.25896758108E-02  0.40106807273E-01  0.51100000000E-03 0.  1.
         11    1    4    4    0    0 -0.39252745431E-01  0.73362524363E-01 -0.35120047334E-01  0.90313436711E-01  0.51100000000E-03 0. -1.
</event>
<event>
 8    1  0.1233916E+005  0.1043930E+01  0.7957747E-01            NaN
         13   -1    0    0    0    0  0.00000000000E+00  0.00000000000E+00  0.74505805969E-08  0.10566000000E+00  0.10566000000E+00 0. -1.
     999900   -1    0    0    0    0 -0.00000000000E+00 -0.00000000000E+00 -0.74505805969E-08  0.93827000000E+00  0.93827000000E+00 0. -1.
     999902    2    1    2    0    0 -0.21278400201E-01 -0.15320566750E-02 -0.11912477974E-01  0.10194959122E+01  0.10192030663E+01 0.  0.
     999903    2    3    3    0    0 -0.84942435984E-01 -0.74410003685E-01  0.63256921726E-01  0.13100576415E+00  0.20223897141E-01 0.  0.
         14    1    1    2    0    0  0.21278400201E-01  0.15320566750E-02  0.11912477974E-01  0.24434087752E-01  0.00000000000E+00 0. -1.
     999901    1    3    3    0    0  0.63664035783E-01  0.72877947010E-01 -0.75169399699E-01  0.88849014810E+00  0.88000000000E+00 0. -1.
        -11    1    4    4    0    0 -0.35864194924E-01 -0.22733850455E-01  0.32052495328E-01  0.53204248061E-01  0.51100000000E-03 0.  1.
         11    1    4    4    0    0 -0.49078241061E-01 -0.51676153230E-01  0.31204426398E-01  0.77801516091E-01  0.51100000000E-03 0. -1.
</event>
<event>
 8    1  0.1233916E+005  0.1043930E+01  0.7957747E-01            NaN
         13   -1    0    0    0    0  0.00000000000E+00  0.00000000000E+00  0.74505805969E-08  0.10566000000E+00  0.10566000000E+00 0.  1.
     999900   -1    0    0    0    0 -0.00000000000E+00 -0.00000000000E+00 -0.74505805969E-08  0.93827000000E+00  0.93827000000E+00 0. -1.
     999902    2    1    2    0    0 -0.97794535554E-02  0.21787100339E-01  0.54547514317E-03  0.10200424929E+01  0.10197627539E+01 0.  0.
     999903    2    3    3    0    0  0.21712776265E-01 -0.12291680735E+00  0.12886094458E-01  0.12758337767E+00  0.23053864007E-01 0.  0.
         14    1    1    2    0    0  0.97794535554E-02 -0.21787100339E-01 -0.54547514317E-03  0.23887507114E-01  0.00000000000E+00 0. -1.
     999901    1    3    3    0    0 -0.31492229820E-01  0.14470390769E+00 -0.12340619315E-01  0.89245911521E+00  0.88000000000E+00 0.  1.
        -11    1    4    4    0    0  0.86403874285E-03 -0.38477121842E-01 -0.49172115121E-02  0.38803035426E-01  0.51100000000E-03 0.  1.
         11    1    4    4    0    0  0.20848737522E-01 -0.84439685509E-01  0.17803305970E-01  0.88780342247E-01  0.51100000000E-03 0. -1.
</event>
<event>
 8    1  0.1233916E+005  0.1043930E+01  0.7957747E-01            NaN
         13   -1    0    0    0    0  0.00000000000E+00  0.00000000000E+00  0.74505805969E-08  0.10566000000E+00  0.10566000000E+00 0. -1.
     999900   -1    0    0    0    0 -0.00000000000E+00 -0.00000000000E+00 -0.74505805969E-08  0.93827000000E+00  0.93827000000E+00 0.  1.
     999902    2    1    2    0    0  0.45044583150E-02  0.12549398987E-01  0.20539265966E-01  0.10194424724E+01  0.10191483286E+01 0.  0.
     999903    2    3    3    0    0 -0.10071137796E+00  0.74497733842E-01 -0.27251984067E-01  0.12972792722E+00  0.19848689299E-01 0.  0.
         14    1    1    2    0    0 -0.45044583150E-02 -0.12549398987E-01 -0.20539265966E-01  0.24487527562E-01  0.00000000000E+00 0. -1.
     999901    1    3    3    0    0  0.10521583627E+00 -0.61948334855E-01  0.47791250033E-01  0.88971454522E+00  0.88000000000E+00 0. -1.
        -11    1    4    4    0    0 -0.21521133804E-01  0.66279885714E-02 -0.41386705980E-02  0.22901509733E-01  0.51100000000E-03 0.  1.
         11    1    4    4    0    0 -0.79190244156E-01  0.67869745271E-01 -0.23113313469E-01  0.10682641749E+00  0.51100000000E-03 0. -1.
</event>
<event>
 8    1  0.1233916E+005  0.1043930E+01  0.7957747E-01            NaN
         13   -1    0    0    0    0  0.00000000000E+00  0.00000000000E+00  0.74505805969E-08  0.10566000000E+00  0.10566000000E+00 0.  1.
     999900   -1    0    0    0    0 -0.00000000000E+00 -0.00000000000E+00 -0.74505805969E-08  0.93827000000E+00  0.93827000000E+00 0. -1.
     999902    2    1    2    0    0  0.52984261560E-04 -0.20902486432E-01  0.51471538981E-02  0.10224030416E+01  0.10221763886E+01 0.  0.
     999903    2    3    3    0    0 -0.62024533229E-01  0.11800801288E-01 -0.11393103242E+00  0.13161533528E+00  0.18868351792E-01 0.  0.
         14    1    1    2    0    0 -0.52984261560E-04  0.20902486432E-01 -0.51471538981E-02  0.21526958439E-01  0.00000000000E+00 0. -1.
     999901    1    3    3    0    0  0.62077517490E-01 -0.32703287720E-01  0.11907818632E+00  0.89078770628E+00  0.88000000000E+00 0.  1.
        -11    1    4    4    0    0 -0.58935884590E-01  0.73361953906E-02 -0.10957464746E+00  0.12463596087E+00  0.51100000000E-03 0. -1.
         11    1    4    4    0    0 -0.30886486387E-02  0.44646058969E-02 -0.43563849607E-02  0.69793744099E-02  0.51100000000E-03 0.  1.
</event>
<event>
 8    1  0.1233916E+005  0.1043930E+01  0.7957747E-01            NaN
         13   -1    0    0    0    0  0.00000000000E+00  0.00000000000E+00  0.74505805969E-08  0.10566000000E+00  0.10566000000E+00 0.  1.
     999900   -1    0    0    0    0 -0.00000000000E+00 -0.00000000000E+00 -0.74505805969E-08  0.93827000000E+00  0.93827000000E+00 0.  1.
     999902    2    1    2    0    0  0.13245468402E-01 -0.10755861264E-01 -0.24049955385E-01  0.10144421832E+01  0.10140135166E+01 0.  0.
     999903    2    3    3    0    0  0.65797341752E-01  0.29828074475E-01  0.98195473841E-01  0.12351418377E+00  0.19859463752E-01 0.  0.
         14    1    1    2    0    0 -0.13245468402E-01  0.10755861264E-01  0.24049955385E-01  0.29487816785E-01  0.00000000000E+00 0.  1.
     999901    1    3    3    0    0 -0.52551873350E-01 -0.40583935739E-01 -0.12224542923E+00  0.89092799945E+00  0.88000000000E+00 0.  1.
        -11    1    4    4    0    0  0.31104444952E-01  0.10519571415E-01  0.29374864291E-01  0.44060091371E-01  0.51100000000E-03 0.  1.
         11    1    4    4    0    0  0.34692896801E-01  0.19308503060E-01  0.68820609550E-01  0.79454092397E-01  0.51100000000E-03 0. -1.
</event>
<event>
 8    1  0.1233916E+005  0.1043930E+01  0.7957747E-01            NaN
         13   -1    0    0    0    0  0.00000000000E+00  0.00000000000E+00  0.74505805969E-08  0.10566000000E+00  0.10566000000E+00 0. -1.
     999900   -1    0    0    0    0 -0.00000000000E+00 -0.00000000000E+00 -0.74505805969E-08  0.93827000000E+00  0.93827000000E+00 0. -1.
     999902    2    1    2    0    0 -0.15525845395E-01 -0.93339462127E-02  0.16372972182E-01  0.10195117968E+01  0.10192193362E+01 0.  0.
     999903    2    3    3    0    0  0.28072380025E-01 -0.12582228006E+00  0.78177882404E-02  0.13072412347E+00  0.20208264731E-01 0.  0.
         14    1    1    2    0    0  0.15525845395E-01  0.93339462127E-02 -0.16372972182E-01  0.24418203153E-01  0.00000000000E+00 0.  1.
     999901    1    3    3    0    0 -0.43598225420E-01  0.11648833385E+00  0.85551839417E-02  0.88878767338E+00  0.88000000000E+00 0. -1.
        -11    1    4    4    0    0  0.28708846834E-01 -0.86699511501E-01  0.67207083075E-02  0.91577465690E-01  0.51100000000E-03 0. -1.
         11    1    4    4    0    0 -0.63646680900E-03 -0.39122768559E-01  0.10970799329E-02  0.39146657776E-01  0.51100000000E-03 0.  1.
</event>
<event>
 8    1  0.1233916E+005  0.1043930E+01  0.7957747E-01            NaN
         13   -1    0    0    0    0  0.00000000000E+00  0.00000000000E+00  0.74505805969E-08  0.10566000000E+00  0.10566000000E+00 0. -1.
     999900   -1    0    0    0    0 -0.00000000000E+00 -0.00000000000E+00 -0.74505805969E-08  0.93827000000E+00  0.93827000000E+00 0. -1.
     999902    2    1    2    0    0  0.13841353478E-01 -0.17565846598E-01 -0.11051724626E-01  0.10189844062E+01  0.10186790159E+01 0.  0.
     999903    2    3    3    0    0 -0.11134330108E+00  0.17985979913E-01  0.54655653958E-01  0.12699080213E+00  0.20459646794E-01 0.  0.
         14    1    1    2    0    0 -0.13841353478E-01  0.17565846598E-01  0.11051724626E-01  0.24945593799E-01  0.00000000000E+00 0. -1.
     999901    1    3    3    0    0  0.12518465456E+00 -0.35551826511E-01 -0.65707378584E-01  0.89199360407E+00  0.88000000000E+00 0. -1.
        -11    1    4    4    0    0 -0.52397425625E-01 -0.12295233015E-02  0.28893634530E-01  0.59850690698E-01  0.51100000000E-03 0. -1.
         11    1    4    4    0    0 -0.58945875454E-01  0.19215503214E-01  0.25762019428E-01  0.67140111430E-01  0.51100000000E-03 0.  1.
</event>
<event>
 8    1  0.1233916E+005  0.1043930E+01  0.7957747E-01            NaN
         13   -1    0    0    0    0  0.00000000000E+00  0.00000000000E+00  0.74505805969E-08  0.10566000000E+00  0.10566000000E+00 0. -1.
     999900   -1    0    0    0    0 -0.00000000000E+00 -0.00000000000E+00 -0.74505805969E-08  0.93827000000E+00  0.93827000000E+00 0.  1.
     999902    2    1    2    0    0  0.82342482302E-02  0.21219782210E-01 -0.29198913385E-02  0.10209820640E+01  0.10207241387E+01 0.  0.
     999903    2    3    3    0    0 -0.12498227822E+00 -0.30766602439E-01  0.72237815085E-02  0.12938118850E+00  0.10961533749E-01 0.  0.
         14    1    1    2    0    0 -0.82342482302E-02 -0.21219782210E-01  0.29198913385E-02  0.22947935994E-01  0.00000000000E+00 0.  1.
     999901    1    3    3    0    0  0.13321652645E+00  0.51986384649E-01 -0.10143672847E-01  0.89160087551E+00  0.88000000000E+00 0. -1.
        -11    1    4    4    0    0 -0.66877282892E-01 -0.19080323794E-01  0.87151507692E-02  0.70091687789E-01  0.51100000000E-03 0. -1.
         11    1    4    4    0    0 -0.58104995331E-01 -0.11686278645E-01 -0.14913692607E-02  0.59289500709E-01  0.51100000000E-03 0.  1.
</event>
<event>
 8    1  0.1233916E+005  0.1043930E+01  0.7957747E-01            NaN
         13   -1    0    0    0    0  0.00000000000E+00  0.00000000000E+00  0.74505805969E-08  0.10566000000E+00  0.10566000000E+00 0.  1.
     999900   -1    0    0    0    0 -0.00000000000E+00 -0.00000000000E+00 -0.74505805969E-08  0.93827000000E+00  0.93827000000E+00 0.  1.
     999902    2    1    2    0    0 -0.24403663561E-01  0.27808945425E-03 -0.38171057363E-03  0.10195217671E+01  0.10192295481E+01 0.  0.
     999903    2    3    3    0    0  0.78558337533E-01  0.79128552325E-01 -0.59747195898E-01  0.12803826756E+00  0.19782071475E-01 0.  0.
         14    1    1    2    0    0  0.24403663561E-01 -0.27808945425E-03  0.38171057363E-03  0.24408232871E-01  0.00000000000E+00 0.  1.
     999901    1    3    3    0    0 -0.10296200109E+00 -0.78850462871E-01  0.59365485325E-01  0.89148349957E+00  0.88000000000E+00 0. -1.
        -11    1    4    4    0    0  0.22231972684E-01  0.35745705947E-01 -0.20452824272E-01  0.46803795196E-01  0.51100000000E-03 0.  1.
         11    1    4    4    0    0  0.56326364849E-01  0.43382846378E-01 -0.39294371626E-01  0.81234472359E-01  0.51100000000E-03 0. -1.
</event>
<event>
 8    1  0.1233916E+005  0.1043930E+01  0.7957747E-01            NaN
         13   -1    0    0    0    0  0.00000000000E+00  0.00000000000E+00  0.74505805969E-08  0.10566000000E+00  0.10566000000E+00 0.  1.
     999900   -1    0    0    0    0 -0.00000000000E+00 -0.00000000000E+00 -0.74505805969E-08  0.93827000000E+00  0.93827000000E+00 0. -1.
     999902    2    1    2    0    0  0.58266134468E-02 -0.21840997504E-01 -0.87141450773E-02  0.10197036730E+01  0.10194158454E+01 0.  0.
     999903    2    3    3    0    0  0.16362607543E-01  0.56130053492E-01  0.11206235954E+00  0.12797644113E+00  0.20041936752E-01 0.  0.
         14    1    1    2    0    0 -0.58266134468E-02  0.21840997504E-01  0.87141450773E-02  0.24226327015E-01  0.00000000000E+00 0.  1.
     999901    1    3    3    0    0 -0.10535994096E-01 -0.77971050996E-01 -0.12077650461E+00  0.89172723185E+00  0.88000000000E+00 0. -1.
        -11    1    4    4    0    0 -0.29537055916E-02  0.23690268118E-01  0.48080430109E-01  0.53683722493E-01  0.51100000000E-03 0. -1.
         11    1    4    4    0    0  0.19316313134E-01  0.32439785373E-01  0.63981929427E-01  0.74292718636E-01  0.51100000000E-03 0.  1.
</event>
<event>
 7    1  0.1233916E+005  0.1043930E+01  0.7957747E-01            NaN
         13   -1    0    0    0    0  0.00000000000E+00  0.00000000000E+00  0.74505805969E-08  0.10566000000E+00  0.10566000000E+00 0.  1.
     999900   -1    0    0    0    0 -0.00000000000E+00 -0.00000000000E+00 -0.74505805969E-08  0.93827000000E+00  0.93827000000E+00 0. -1.
     999903    2    1    2    0    0  0.53968984441E-01  0.23608381095E-01  0.79218357344E-01  0.10107341504E+00  0.21685943563E-01 0.  0.
         14    1    1    2    0    0  0.19300748772E-01  0.49504268277E-01 -0.10219739070E-01  0.54107620050E-01  0.00000000000E+00 0. -1.
     999901    1    1    2    0    0 -0.73269733213E-01 -0.73112649372E-01 -0.68998618274E-01  0.88874896491E+00  0.88000000000E+00 0. -1.
        -11    1    3    3    0    0  0.59250642031E-02  0.83983833326E-02  0.25077387303E-01  0.27106746455E-01  0.51100000000E-03 0. -1.
         11    1    3    3    0    0  0.48043920238E-01  0.15209997762E-01  0.54140970041E-01  0.73966668586E-01  0.51100000000E-03 0.  1.
</event>
<event>
 8    1  0.1233916E+005  0.1043930E+01  0.7957747E-01            NaN
         13   -1    0    0    0    0  0.00000000000E+00  0.00000000000E+00  0.74505805969E-08  0.10566000000E+00  0.10566000000E+00 0.  1.
     999900   -1    0    0    0    0 -0.00000000000E+00 -0.00000000000E+00 -0.74505805969E-08  0.93827000000E+00  0.93827000000E+00 0.  1.
     999902    2    1    2    0    0  0.96894334534E-02 -0.21094216232E-01 -0.66519606588E-02  0.10197825434E+01  0.10194966092E+01 0.  0.
     999903    2    3    3    0    0  0.75074985355E-01 -0.91365531183E-02  0.10409852467E+00  0.13035355462E+00  0.20876214585E-01 0.  0.
         14    1    1    2    0    0 -0.96894334534E-02  0.21094216232E-01  0.66519606588E-02  0.24147456588E-01  0.00000000000E+00 0.  1.
     999901    1    3    3    0    0 -0.65385551902E-01 -0.11957663113E-01 -0.11075048532E+00  0.88942898879E+00  0.88000000000E+00 0.  1.
        -11    1    4    4    0    0  0.29389158513E-01  0.24514017800E-02  0.26996251074E-01  0.39984880915E-01  0.51100000000E-03 0.  1.
         11    1    4    4    0    0  0.45685826842E-01 -0.11587954898E-01  0.77102273592E-01  0.90368673704E-01  0.51100000000E-03 0. -1.
</event>
<event>
 7    1  0.1233916E+005  0.1043930E+01  0.7957747E-01            NaN
         13   -1    0    0    0    0  0.00000000000E+00  0.00000000000E+00  0.74505805969E-08  0.10566000000E+00  0.10566000000E+00 0. -1.
     999900   -1    0    0    0    0 -0.00000000000E+00 -0.00000000000E+00 -0.74505805969E-08  0.93827000000E+00  0.93827000000E+00 0.  1.
     999902    2    1    2    0    0 -0.49399315463E-02  0.58619031644E-02 -0.23006903666E-01  0.10196795887E+01  0.10193911816E+01 0.  0.
         14    1    1    2    0    0  0.49399315463E-02 -0.58619031644E-02  0.23006903666E-01  0.24250411310E-01  0.00000000000E+00 0. -1.
     999901    1    3    3    0    0 -0.10041347041E+00  0.67488884542E-01 -0.70161150653E-01  0.89104444425E+00  0.88000000000E+00 0. -1.
        -11    1    3    3    0    0  0.12602471518E-01 -0.19470571512E-01  0.22783099397E-01  0.32515476046E-01  0.51100000000E-03 0.  1.
         11    1    3    3    0    0  0.82871067344E-01 -0.42156409866E-01  0.24371147590E-01  0.96119668390E-01  0.51100000000E-03 0. -1.
</event>
<event>
 8    1  0.1233916E+005  0.1043930E+01  0.7957747E-01            NaN
         13   -1    0    0    0    0  0.00000000000E+00  0.00000000000E+00  0.74505805969E-08  0.10566000000E+00  0.10566000000E+00 0. -1.
     999900   -1    0    0    0    0 -0.00000000000E+00 -0.00000000000E+00 -0.74505805969E-08  0.93827000000E+00  0.93827000000E+00 0. -1.
     999902    2    1    2    0    0 -0.12635002035E-01  0.24172222479E-02  0.17760262068E-01  0.10220002679E+01  0.10217649605E+01 0.  0.
     999903    2    3    3    0    0  0.47592344944E-01 -0.11436387976E+00 -0.36864151988E-01  0.13056940369E+00  0.18581581918E-01 0.  0.
         14    1    1    2    0    0  0.12635002035E-01 -0.24172222479E-02 -0.17760262068E-01  0.21929732067E-01  0.00000000000E+00 0.  1.
     999901    1    3    3    0    0 -0.60227346979E-01  0.11678110201E+00  0.54624414055E-01  0.89143086424E+00  0.88000000000E+00 0.  1.
        -11    1    4    4    0    0  0.18973458509E-01 -0.60823048039E-01 -0.26371290515E-01  0.68957533199E-01  0.51100000000E-03 0. -1.
         11    1    4    4    0    0  0.28618886435E-01 -0.53540831726E-01 -0.10492861473E-01  0.61611870492E-01  0.51100000000E-03 0.  1.
</event>
<event>
 8    1  0.1233916E+005  0.1043930E+01  0.7957747E-01            NaN
         13   -1    0    0    0    0  0.00000000000E+00  0.00000000000E+00  0.74505805969E-08  0.10566000000E+00  0.10566000000E+00 0. -1.
     999900   -1    0    0    0    0 -0.00000000000E+00 -0.00000000000E+00 -0.74505805969E-08  0.93827000000E+00  0.93827000000E+00 0. -1.
     999902    2    1    2    0    0 -0.87169559275E-02  0.46344839363E-02  0.21758872677E-01  0.10200362288E+01  0.10197563414E+01 0.  0.
     999903    2    3    3    0    0 -0.11201924712E+00  0.63085578550E-01 -0.16559919031E-01  0.13124141354E+00  0.20542048679E-01 0.  0.
         14    1    1    2    0    0  0.87169559275E-02 -0.46344839363E-02 -0.21758872677E-01  0.23893771200E-01  0.00000000000E+00 0.  1.
     999901    1    3    3    0    0  0.10330229119E+00 -0.58451094614E-01  0.38318791708E-01  0.88879481526E+00  0.88000000000E+00 0. -1.
        -11    1    4    4    0    0 -0.82545957224E-01  0.49411641815E-01 -0.20923123935E-01  0.98454982795E-01  0.51100000000E-03 0.  1.
         11    1    4    4    0    0 -0.29473289898E-01  0.13673936735E-01  0.43632049043E-02  0.32786430749E-01  0.51100000000E-03 0. -1.
</event>
<event>
 8    1  0.1233916E+005  0.1043930E+01  0.7957747E-01            NaN
         13   -1    0    0    0    0  0.00000000000E+00  0.00000000000E+00  0.74505805969E-08  0.10566000000E+00  0.10566000000E+00 0. -1.
     999900   -1    0    0    0    0 -0.00000000000E+00 -0.00000000000E+00 -0.74505805969E-08  0.93827000000E+00  0.93827000000E+00 0.  1.
     999902    2    1    2    0    0 -0.10472933418E-01  0.41419028568E-02 -0.21161550055E-01  0.10199581646E+01  0.10196764235E+01 0.  0.
     999903    2    3    3    0    0  0.42759656139E-01 -0.52811332130E-01 -0.11132527813E+00  0.13192276131E+00  0.19821009221E-01 0.  0.
         14    1    1    2    0    0  0.10472933418E-01 -0.41419028568E-02  0.21161550055E-01  0.23971835440E-01  0.00000000000E+00 0. -1.
     999901    1    3    3    0    0 -0.53232589557E-01  0.56953234986E-01  0.90163728074E-01  0.88803540325E+00  0.88000000000E+00 0. -1.
        -11    1    4    4    0    0  0.47988850213E-02 -0.19219532594E-01 -0.36705397733E-01  0.41712912561E-01  0.51100000000E-03 0. -1.
         11    1    4    4    0    0  0.37960771118E-01 -0.33591799536E-01 -0.74619880396E-01  0.90209848748E-01  0.51100000000E-03 0.  1.
</event>
<event>
 8    1  0.1233916E+005  0.1043930E+01  0.7957747E-01            NaN
         13   -1    0    0    0    0  0.00000000000E+00  0.00000000000E+00  0.74505805969E-08  0.10566000000E+00  0.10566000000E+00 0. -1.
     999900   -1    0    0    0    0 -0.00000000000E+00 -0.00000000000E+00 -0.74505805969E-08  0.93827000000E+00  0.93827000000E+00 0.  1.
     999902    2    1    2    0    0  0.22759072651E-01 -0.52722060982E-02  0.35937068765E-02  0.10202934547E+01  0.10200196309E+01 0.  0.
     999903    2    3    3    0    0  0.27489592406E-01 -0.10651932141E+00  0.70241677582E-01  0.13197183040E+00  0.19509670064E-01 0.  0.
         14    1    1    2    0    0 -0.22759072651E-01  0.52722060982E-02 -0.35937068765E-02  0.23636545310E-01  0.00000000000E+00 0. -1.
     999901    1    3    3    0    0 -0.47305197556E-02  0.10124711531E+00 -0.66647970705E-01  0.88832162429E+00  0.88000000000E+00 0.  1.
        -11    1    4    4    0    0  0.20736544697E-01 -0.63232933908E-01  0.32113629092E-01  0.73891504999E-01  0.51100000000E-03 0. -1.
         11    1    4    4    0    0  0.67530477090E-02 -0.43286387503E-01  0.38128048490E-01  0.58080325404E-01  0.51100000000E-03 0.  1.
</event>
<event>
 8    1  0.1233916E+005  0.1043930E+01  0.7957747E-01            NaN
         13   -1    0    0    0    0  0.00000000000E+00  0.00000000000E+00  0.74505805969E-08  0.10566000000E+00  0.10566000000E+00 0. -1.
     999900   -1    0    0    0    0 -0.00000000000E+00 -0.00000000000E+00 -0.74505805969E-08  0.93827000000E+00  0.93827000000E+00 0. -1.
     999902    2    1    2    0    0 -0.75129191260E-02  0.12165326250E-01  0.19160165136E-01  0.10200228662E+01  0.10197426620E+01 0.  0.
     999903    2    3    3    0    0  0.10625592697E+00 -0.30714545251E-01  0.66408141881E-01  0.13040811534E+00  0.19040218759E-01 0.  0.
         14    1    1    2    0    0  0.75129191260E-02 -0.12165326250E-01 -0.19160165136E-01  0.23907133759E-01  0.00000000000E+00 0.  1.
     999901    1    3    3    0    0 -0.11376884610E+00  0.42879871500E-01 -0.47247976746E-01  0.88961475091E+00  0.88000000000E+00 0. -1.
        -11    1    4    4    0    0  0.56049155845E-01 -0.19093186693E-01  0.24908863887E-01  0.64239942950E-01  0.51100000000E-03 0. -1.
         11    1    4    4    0    0  0.50206771127E-01 -0.11621358558E-01  0.41499277994E-01  0.66168172385E-01  0.51100000000E-03 0.  1.
</event>
<event>
 8    1  0.1233916E+005  0.1043930E+01  0.7957747E-01            NaN
         13   -1    0    0    0    0  0.00000000000E+00  0.00000000000E+00  0.74505805969E-08  0.10566000000E+00  0.10566000000E+00 0.  1.
     999900   -1    0    0    0    0 -0.00000000000E+00 -0.00000000000E+00 -0.74505805969E-08  0.93827000000E+00  0.93827000000E+00 0.  1.
     999902    2    1    2    0    0  0.14544016972E-01  0.17285987190E-01 -0.89059879187E-02  0.10196472818E+01  0.10193580965E+01 0.  0.
     999903    2    3    3    0    0  0.36758919946E-01  0.24242171813E-01 -0.12315387000E+00  0.13195675634E+00  0.17515957224E-01 0.  0.
         14    1    1    2    0    0 -0.14544016972E-01 -0.17285987190E-01  0.89059879187E-02  0.24282718209E-01  0.00000000000E+00 0. -1.
     999901    1    3    3    0    0 -0.22214902975E-01 -0.69561846232E-02  0.11424788208E+00  0.88769052545E+00  0.88000000000E+00 0. -1.
        -11    1    4    4    0    0  0.15752699305E-01  0.13521406386E-01 -0.81328173646E-01  0.83937529840E-01  0.51100000000E-03 0.  1.
         11    1    4    4    0    0  0.21006220641E-01  0.10720765428E-01 -0.41825696354E-01  0.48019226498E-01  0.51100000000E-03 0. -1.
</event>
<event>
 8    1  0.1233916E+005  0.1043930E+01  0.7957747E-01            NaN
         13   -1    0    0    0    0  0.00000000000E+00  0.00000000000E+00  0.74505805969E-08  0.10566000000E+00  0.10566000000E+00 0.  1.
     999900   -1    0    0    0    0 -0.00000000000E+00 -0.00000000000E+00 -0.74505805969E-08  0.93827000000E+00  0.93827000000E+00 0.  1.
     999902    2    1    2    0    0 -0.21658869630E-02  0.11112940178E-01 -0.20822592278E-01  0.10202283365E+01  0.10199529840E+01 0.  0.
     999903    2    3    3    0    0  0.97246368753E-02  0.91869830233E-01 -0.94353352392E-01  0.13339699255E+00  0.18909474976E-01 0.  0.
         14    1    1    2    0    0  0.21658869630E-02 -0.11112940178E-01  0.20822592278E-01  0.23701663548E-01  0.00000000000E+00 0.  1.
     999901    1    3    3    0    0 -0.11890523838E-01 -0.80756890054E-01  0.73530760114E-01  0.88683134390E+00  0.88000000000E+00 0. -1.
        -11    1    4    4    0    0  0.27461166946E-02  0.16303352762E-01 -0.28338240842E-01  0.32812459268E-01  0.51100000000E-03 0. -1.
         11    1    4    4    0    0  0.69785201807E-02  0.75566477470E-01 -0.66015111550E-01  0.10058453328E+00  0.51100000000E-03 0.  1.
</event>
<event>
 8    1  0.1233916E+005  0.1043930E+01  0.7957747E-01            NaN
         13   -1    0    0    0    0  0.00000000000E+00  0.00000000000E+00  0.74505805969E-08  0.10566000000E+00  0.10566000000E+00 0.  1.
     999900   -1    0    0    0    0 -0.00000000000E+00 -0.00000000000E+00 -0.74505805969E-08  0.93827000000E+00  0.93827000000E+00 0. -1.
     999902    2    1    2    0    0  0.21128810432E-01 -0.60499129835E-02  0.16732378186E-02  0.10218884982E+01  0.10216507598E+01 0.  0.
     999903    2    3    3    0    0  0.68550232564E-01  0.82663947546E-01  0.76002543770E-01  0.13304442522E+00  0.19798227546E-01 0.  0.
         14    1    1    2    0    0 -0.21128810432E-01  0.60499129835E-02 -0.16732378186E-02  0.22041501813E-01  0.00000000000E+00 0.  1.
     999901    1    3    3    0    0 -0.47421422132E-01 -0.88713860529E-01 -0.74329305951E-01  0.88884407297E+00  0.88000000000E+00 0. -1.
        -11    1    4    4    0    0  0.11152828551E-01  0.25887514390E-01  0.23865536538E-01  0.36937432792E-01  0.51100000000E-03 0.  1.
         11    1    4    4    0    0  0.57397404014E-01  0.56776433155E-01  0.52137007231E-01  0.96106992427E-01  0.51100000000E-03 0. -1.
</event>
<event>
 8    1  0.1233916E+005  0.1043930E+01  0.7957747E-01            NaN
         13   -1    0    0    0    0  0.00000000000E+00  0.00000000000E+00  0.74505805969E-08  0.10566000000E+00  0.10566000000E+00 0. -1.
     999900   -1    0    0    0    0 -0.00000000000E+00 -0.00000000000E+00 -0.74505805969E-08  0.93827000000E+00  0.93827000000E+00 0. -1.
     999902    2    1    2    0    0 -0.21905621084E-01  0.12612690381E-01 -0.18139786212E-04  0.10186528063E+01  0.10183391396E+01 0.  0.
     999903    2    3    3    0    0 -0.43644877761E-01 -0.11813396337E+00 -0.16067497007E-01  0.12858266038E+00  0.20367312864E-01 0.  0.
         14    1    1    2    0    0  0.21905621084E-01 -0.12612690381E-01  0.18139786212E-04  0.25277193728E-01  0.00000000000E+00 0. -1.
     999901    1    3    3    0    0  0.21739256677E-01  0.13074665375E+00  0.16049357220E-01  0.89007014590E+00  0.88000000000E+00 0. -1.
        -11    1    4    4    0    0 -0.43653764283E-01 -0.11267424817E+00 -0.19068597207E-01  0.12233155708E+00  0.51100000000E-03 0.  1.
         11    1    4    4    0    0  0.88865225742E-05 -0.54597152029E-02  0.30011002007E-02  0.62511033012E-02  0.51100000000E-03 0. -1.
</event>
<event>
 8    1  0.1233916E+005  0.1043930E+01  0.7957747E-01            NaN
         13   -1    0    0    0    0  0.00000000000E+00  0.00000000000E+00  0.74505805969E-08  0.10566000000E+00  0.10566000000E+00 0. -1.
     999900   -1    0    0    0    0 -0.00000000000E+00 -0.00000000000E+00 -0.74505805969E-08  0.93827000000E+00  0.93827000000E+00 0.  1.
     999902    2    1    2    0    0  0.29009084503E-01 -0.57087892098E-02  0.22805997646E-01  0.10065906001E+01  0.10058978106E+01 0.  0.
     999903    2    3    3    0    0 -0.61792312868E-01 -0.67420496433E-01 -0.67511585082E-01  0.11518132577E+00  0.18577147704E-01 0.  0.
         14    1    1    2    0    0 -0.29009084503E-01  0.57087892098E-02 -0.22805997646E-01  0.37339399922E-01  0.00000000000E+00 0.  1.
     999901    1    3    3    0    0  0.90801397371E-01  0.61711707223E-01  0.90317582728E-01  0.89140927431E+00  0.88000000000E+00 0. -1.
        -11    1    4    4    0    0 -0.18248724451E-01 -0.87874932998E-02 -0.13556529430E-01  0.24377788944E-01  0.51100000000E-03 0. -1.
         11    1    4    4    0    0 -0.43543588417E-01 -0.58633003133E-01 -0.53955055652E-01  0.90803536825E-01  0.51100000000E-03 0.  1.
</event>
<event>
 8    1  0.1233916E+005  0.1043930E+01  0.7957747E-01            NaN
         13   -1    0    0    0    0  0.00000000000E+00  0.00000000000E+00  0.74505805969E-08  0.10566000000E+00  0.10566000000E+00 0.  1.
     999900   -1    0    0    0    0 -0.00000000000E+00 -0.00000000000E+00 -0.74505805969E-08  0.93827000000E+00  0.93827000000E+00 0. -1.
     999902    2    1    2    0    0  0.47860745316E-02 -0.10871891641E-01  0.20342603438E-01  0.10203731315E+01  0.10201011722E+01 0.  0.
     999903    2    3    3    0    0  0.64575557145E-01 -0.11357654121E+00  0.13627441019E-02  0.13218212599E+00  0.20015595568E-01 0.  0.
         14    1    1    2    0    0 -0.47860745316E-02  0.10871891641E-01 -0.20342603438E-01  0.23556868466E-01  0.00000000000E+00 0. -1.
     999901    1    3    3    0    0 -0.59789482613E-01  0.10270464957E+00  0.18979859336E-01  0.88819100555E+00  0.88000000000E+00 0. -1.
        -11    1    4    4    0    0  0.32487631273E-01 -0.72904525243E-01  0.67090459881E-02  0.80098616753E-01  0.51100000000E-03 0. -1.
         11    1    4    4    0    0  0.32087925872E-01 -0.40672015964E-01 -0.53463018862E-02  0.52083509235E-01  0.51100000000E-03 0.  1.
</event>
<event>
 8    1  0.1233916E+005  0.1043930E+01  0.7957747E-01            NaN
         13   -1    0    0    0    0  0.00000000000E+00  0.00000000000E+00  0.74505805969E-08  0.10566000000E+00  0.10566000000E+00 0.  1.
     999900   -1    0    0    0    0 -0.00000000000E+00 -0.00000000000E+00 -0.74505805969E-08  0.93827000000E+00  0.93827000000E+00 0.  1.
     999902    2    1    2    0    0 -0.20251792954E-01  0.71772249136E-02 -0.10085753085E-01  0.10201945815E+01  0.10199184350E+01 0.  0.
     999903    2    3    3    0    0  0.95710372669E-01  0.65031007873E-01 -0.57038912644E-01  0.12946517072E+00  0.10875911620E-01 0.  0.
         14    1    1    2    0    0  0.20251792954E-01 -0.71772249136E-02  0.10085753085E-01  0.23735418483E-01  0.00000000000E+00 0. -1.
     999901    1    3    3    0    0 -0.11596216562E+00 -0.57853782959E-01  0.46953159559E-01  0.89072941079E+00  0.88000000000E+00 0.  1.
        -11    1    4    4    0    0  0.54488887871E-01  0.41532465340E-01 -0.37906781741E-01  0.78301786708E-01  0.51100000000E-03 0. -1.
         11    1    4    4    0    0  0.41221484798E-01  0.23498542533E-01 -0.19132130903E-01  0.51163384016E-01  0.51100000000E-03 0.  1.
</event>
<event>
 8    1  0.1233916E+005  0.1043930E+01  0.7957747E-01            NaN
         13   -1    0    0    0    0  0.00000000000E+00  0.00000000000E+00  0.74505805969E-08  0.10566000000E+00  0.10566000000E+00 0. -1.
     999900   -1    0    0    0    0 -0.00000000000E+00 -0.00000000000E+00 -0.74505805969E-08  0.93827000000E+00  0.93827000000E+00 0.  1.
     999902    2    1    2    0    0 -0.62270913489E-02 -0.14311456182E-01 -0.17675517423E-01  0.10203499584E+01  0.10200774575E+01 0.  0.
     999903    2    3    3    0    0 -0.30097123430E-01 -0.17447547402E-02  0.12354910981E+00  0.12868180504E+00  0.19640351438E-01 0.  0.
         14    1    1    2    0    0  0.62270913489E-02  0.14311456182E-01  0.17675517423E-01  0.23580041579E-01  0.00000000000E+00 0.  1.
     999901    1    3    3    0    0  0.23870032081E-01 -0.12566701442E-01 -0.14122462724E+00  0.89166815338E+00  0.88000000000E+00 0.  1.
        -11    1    4    4    0    0  0.28562001089E-03 -0.61742831183E-04  0.35801931129E-01  0.35806770094E-01  0.51100000000E-03 0. -1.
         11    1    4    4    0    0 -0.30382743440E-01 -0.16830119090E-02  0.87747178684E-01  0.92875034945E-01  0.51100000000E-03 0.  1.
</event>
<event>
 8    1  0.1233916E+005  0.1043930E+01  0.7957747E-01            NaN
         13   -1    0    0    0    0  0.00000000000E+00  0.00000000000E+00  0.74505805969E-08  0.10566000000E+00  0.10566000000E+00 0. -1.
     999900   -1    0    0    0    0 -0.00000000000E+00 -0.00000000000E+00 -0.74505805969E-08  0.93827000000E+00  0.93827000000E+00 0.  1.
     999902    2    1    2    0    0  0.11285817588E-02  0.97032061432E-02  0.19698977107E-01  0.10219419213E+01  0.10217053464E+01 0.  0.
     999903    2    3    3    0    0  0.38235789806E-01 -0.19827360238E-01 -0.12057523024E+00  0.12957100486E+00  0.19878614559E-01 0.  0.
         14    1    1    2    0    0 -0.11285817588E-02 -0.97032061432E-02 -0.19698977107E-01  0.21988078709E-01  0.00000000000E+00 0. -1.
     999901    1    3    3    0    0 -0.37107208047E-01  0.29530566381E-01  0.14027420735E+00  0.89237091643E+00  0.88000000000E+00 0. -1.
        -11    1    4    4    0    0  0.21078705644E-01 -0.16594501593E-01 -0.94120046741E-01  0.97869983315E-01  0.51100000000E-03 0.  1.
         11    1    4    4    0    0  0.17157084162E-01 -0.32328586450E-02 -0.26455183503E-01  0.31701021547E-01  0.51100000000E-03 0. -1.
</event>
<event>
 8    1  0.1233916E+005  0.1043930E+01  0.7957747E-01            NaN
         13   -1    0    0    0    0  0.00000000000E+00  0.00000000000E+00  0.74505805969E-08  0.10566000000E+00  0.10566000000E+00 0.  1.
     999900   -1    0    0    0    0 -0.00000000000E+00 -0.00000000000E+00 -0.74505805969E-08  0.93827000000E+00  0.93827000000E+00 0.  1.
     999902    2    1    2    0    0  0.19666620585E-01 -0.85462571097E-02  0.18440081719E-02  0.10224075735E+01  0.10221810170E+01 0.  0.
     999903    2    3    3    0    0 -0.83661371751E-01  0.68892102691E-01 -0.68155084241E-01  0.13023424590E+00  0.23885065625E-01 0.  0.
         14    1    1    2    0    0 -0.19666620585E-01  0.85462571097E-02 -0.18440081719E-02  0.21522426488E-01  0.00000000000E+00 0. -1.
     999901    1    3    3    0    0  0.10332799234E+00 -0.77438359801E-01  0.69999092413E-01  0.89217332761E+00  0.88000000000E+00 0.  1.
        -11    1    4    4    0    0 -0.26599023510E-01  0.15374105438E-01 -0.85881989349E-02  0.31904379819E-01  0.51100000000E-03 0. -1.
         11    1    4    4    0    0 -0.57062348241E-01  0.53517997253E-01 -0.59566885306E-01  0.98329866078E-01  0.51100000000E-03 0.  1.
</event>
<event>
 7    1  0.1233916E+005  0.1043930E+01  0.7957747E-01            NaN
         13   -1    0    0    0    0  0.00000000000E+00  0.00000000000E+00  0.74505805969E-08  0.10566000000E+00  0.10566000000E+00 0. -1.
     999900   -1    0    0    0    0 -0.00000000000E+00 -0.00000000000E+00 -0.74505805969E-08  0.93827000000E+00  0.93827000000E+00 0. -1.
     999903    2    1    2    0    0  0.68621459421E-01  0.11515053735E-01 -0.80382868196E-01  0.10870189097E+00  0.22653795391E-01 0.  0.
         14    1    1    2    0    0  0.27692093025E-01 -0.36059128825E-01 -0.38940030254E-02  0.45631963000E-01  0.00000000000E+00 0.  1.
     999901    1    1    2    0    0 -0.96313552445E-01  0.24544075090E-01  0.84276871221E-01  0.88959614603E+00  0.88000000000E+00 0.  1.
        -11    1    3    3    0    0  0.60564789594E-01  0.89849916487E-02 -0.56310854525E-01  0.83186520975E-01  0.51100000000E-03 0. -1.
         11    1    3    3    0    0  0.80566698263E-02  0.25300620866E-02 -0.24072013671E-01  0.25515369996E-01  0.51100000000E-03 0.  1.
</event>
<event>
 8    1  0.1233916E+005  0.1043930E+01  0.7957747E-01            NaN
         13   -1    0    0    0    0  0.00000000000E+00  0.00000000000E+00  0.74505805969E-08  0.10566000000E+00  0.10566000000E+00 0.  1.
     999900   -1    0    0    0    0 -0.00000000000E+00 -0.00000000000E+00 -0.74505805969E-08  0.93827000000E+00  0.93827000000E+00 0. -1.
     999902    2    1    2    0    0 -0.23180227497E-01  0.33672615180E-03  0.37509323756E-02  0.10204458388E+01  0.10201755752E+01 0.  0.
     999903    2    3    3    0    0  0.12496675017E-01  0.12504988935E+00  0.25253691415E-01  0.13067700196E+00  0.25398586536E-01 0.  0.
         14    1    1    2    0    0  0.23180227497E-01 -0.33672615180E-03 -0.37509323756E-02  0.23484161151E-01  0.00000000000E+00 0.  1.
     999901    1    3    3    0    0 -0.35676902514E-01 -0.12471316320E+00 -0.21502759039E-01  0.88976883689E+00  0.88000000000E+00 0.  1.
        -11    1    4    4    0    0 -0.72104835561E-02  0.18689688480E-01  0.36233291582E-02  0.20363819970E-01  0.51100000000E-03 0. -1.
         11    1    4    4    0    0  0.19707158574E-01  0.10636020087E+00  0.21630362257E-01  0.11031318199E+00  0.51100000000E-03 0.  1.
</event>
<event>
 8    1  0.1233916E+005  0.1043930E+01  0.7957747E-01            NaN
         13   -1    0    0    0    0  0.00000000000E+00  0.00000000000E+00  0.74505805969E-08  0.10566000000E+00  0.10566000000E+00 0.  1.
     999900   -1    0    0    0    0 -0.00000000000E+00 -0.00000000000E+00 -0.74505805969E-08  0.93827000000E+00  0.93827000000E+00 0.  1.
     999902    2    1    2    0    0  0.16462975451E-02  0.50741010147E-02  0.23796357373E-01  0.10195430481E+01  0.10192513447E+01 0.  0.
     999903    2    3    3    0    0 -0.48626153270E-01 -0.56223438919E-01 -0.10138147438E+00  0.12715625012E+00  0.19103160243E-01 0.  0.
         14    1    1    2    0    0 -0.16462975451E-02 -0.50741010147E-02 -0.23796357373E-01  0.24386951859E-01  0.00000000000E+00 0. -1.
     999901    1    3    3    0    0  0.50272450815E-01  0.61297539934E-01  0.12517783176E+00  0.89238679802E+00  0.88000000000E+00 0. -1.
        -11    1    4    4    0    0 -0.14585645803E-01 -0.20245878049E-01 -0.20429877701E-01  0.32253335724E-01  0.51100000000E-03 0.  1.
         11    1    4    4    0    0 -0.34040507467E-01 -0.35977560870E-01 -0.80951596684E-01  0.94902914399E-01  0.51100000000E-03 0. -1.
</event>
<event>
 8    1  0.1233916E+005  0.1043930E+01  0.7957747E-01            NaN
         13   -1    0    0    0    0  0.00000000000E+00  0.00000000000E+00  0.74505805969E-08  0.10566000000E+00  0.10566000000E+00 0. -1.
     999900   -1    0    0    0    0 -0.00000000000E+00 -0.00000000000E+00 -0.74505805969E-08  0.93827000000E+00  0.93827000000E+00 0. -1.
     999902    2    1    2    0    0  0.10228354852E-01 -0.21787942017E-01  0.10189254108E-01  0.10177927744E+01  0.10174571132E+01 0.  0.
     999903    2    3    3    0    0  0.82469348913E-02  0.10401180393E+00  0.69349207619E-01  0.12687785022E+00  0.20055148670E-01 0.  0.
         14    1    1    2    0    0 -0.10228354852E-01  0.21787942017E-01 -0.10189254108E-01  0.26137225553E-01  0.00000000000E+00 0.  1.
     999901    1    3    3    0    0  0.19814199605E-02 -0.12579974595E+00 -0.59159953511E-01  0.89091492422E+00  0.88000000000E+00 0. -1.
        -11    1    4    4    0    0 -0.64436253759E-02  0.42399931145E-01  0.26879175766E-01  0.50616456612E-01  0.51100000000E-03 0.  1.
         11    1    4    4    0    0  0.14690560267E-01  0.61611872785E-01  0.42470031853E-01  0.76261393612E-01  0.51100000000E-03 0. -1.
</event>
<event>
 8    1  0.1233916E+005  0.1043930E+01  0.7957747E-01            NaN
         13   -1    0    0    0    0  0.00000000000E+00  0.00000000000E+00  0.74505805969E-08  0.10566000000E+00  0.10566000000E+00 0.  1.
     999900   -1    0    0    0    0 -0.00000000000E+00 -0.00000000000E+00 -0.74505805969E-08  0.93827000000E+00  0.93827000000E+00 0.  1.
     999902    2    1    2    0    0 -0.13990428444E-01 -0.95690411229E-02 -0.16347865537E-01  0.10203810861E+01  0.10201093126E+01 0.  0.
     999903    2    3    3    0    0 -0.81540784657E-01  0.84077984545E-01 -0.57223756288E-01  0.13189717831E+00  0.20107220459E-01 0.  0.
         14    1    1    2    0    0  0.13990428444E-01  0.95690411229E-02  0.16347865537E-01  0.23548913854E-01  0.00000000000E+00 0.  1.
     999901    1    3    3    0    0  0.67550356213E-01 -0.93647025668E-01  0.40875890751E-01  0.88848390784E+00  0.88000000000E+00 0. -1.
        -11    1    4    4    0    0 -0.54152407593E-01  0.51342227532E-01 -0.26048875101E-01  0.79039943010E-01  0.51100000000E-03 0. -1.
         11    1    4    4    0    0 -0.27388377064E-01  0.32735757013E-01 -0.31174881187E-01  0.52857235299E-01  0.51100000000E-03 0.  1.
</event>
<event>
 8    1  0.1233916E+005  0.1043930E+01  0.7957747E-01            NaN
         13   -1    0    0    0    0  0.00000000000E+00  0.00000000000E+00  0.74505805969E-08  0.10566000000E+00  0.10566000000E+00 0. -1.
     999900   -1    0    0    0    0 -0.00000000000E+00 -0.00000000000E+00 -0.74505805969E-08  0.93827000000E+00  0.93827000000E+00 0.  1.
     999902    2    1    2    0    0  0.20575677694E-02  0.23605163183E-01  0.40423975529E-02  0.10198929808E+01  0.10196096871E+01 0.  0.
     999903    2    3    3    0    0  0.47014025422E-01  0.76895711391E-01  0.94170750590E-01  0.13254632609E+00  0.24023515052E-01 0.  0.
         14    1    1    2    0    0 -0.20575677694E-02 -0.23605163183E-01 -0.40423975529E-02  0.24037019199E-01  0.00000000000E+00 0.  1.
     999901    1    3    3    0    0 -0.44956457653E-01 -0.53290548208E-01 -0.90128353037E-01  0.88734665472E+00  0.88000000000E+00 0.  1.
        -11    1    4    4    0    0  0.24269760582E-01  0.30896045487E-01  0.56788848560E-01  0.69056653172E-01  0.51100000000E-03 0. -1.
         11    1    4    4    0    0  0.22744264840E-01  0.45999665904E-01  0.37381902029E-01  0.63489672914E-01  0.51100000000E-03 0.  1.
</event>
<event>
 8    1  0.1233916E+005  0.1043930E+01  0.7957747E-01            NaN
         13   -1    0    0    0    0  0.00000000000E+00  0.00000000000E+00  0.74505805969E-08  0.10566000000E+00  0.10566000000E+00 0. -1.
     999900   -1    0    0    0    0 -0.00000000000E+00 -0.00000000000E+00 -0.74505805969E-08  0.93827000000E+00  0.93827000000E+00 0. -1.
     999902    2    1    2    0    0 -0.95113023610E-03  0.21543355968E-01 -0.10163726278E-01  0.10200904915E+01  0.10198118888E+01 0.  0.
     999903    2    3    3    0    0  0.12518251604E+00 -0.27202976633E-01 -0.99955367973E-03  0.12971423183E+00  0.20349903538E-01 0.  0.
         14    1    1    2    0    0  0.95113023610E-03 -0.21543355968E-01  0.10163726278E-01  0.23839508530E-01  0.00000000000E+00 0. -1.
     999901    1    3    3    0    0 -0.12613364627E+00  0.48746332601E-01 -0.91641725979E-02  0.89037625964E+00  0.88000000000E+00 0. -1.
        -11    1    4    4    0    0  0.38963769768E-01 -0.13588160389E-01 -0.83928133133E-02  0.42113108335E-01  0.51100000000E-03 0. -1.
         11    1    4    4    0    0  0.86218746268E-01 -0.13614816243E-01  0.73932596335E-02  0.87601123500E-01  0.51100000000E-03 0.  1.
</event>
<event>
 8    1  0.1233916E+005  0.1043930E+01  0.7957747E-01            NaN
         13   -1    0    0    0    0  0.00000000000E+00  0.00000000000E+00  0.74505805969E-08  0.10566000000E+00  0.10566000000E+00 0.  1.
     999900   -1    0    0    0    0 -0.00000000000E+00 -0.00000000000E+00 -0.74505805969E-08  0.93827000000E+00  0.93827000000E+00 0. -1.
     999902    2    1    2    0    0  0.16456947918E-01 -0.13554153699E-01 -0.11002952423E-01  0.10199381018E+01  0.10196558833E+01 0.  0.
     999903    2    3    3    0    0  0.23629267388E-01  0.78222262093E-01 -0.99978874491E-01  0.13067376125E+00  0.20069677895E-01 0.  0.
         14    1    1    2    0    0 -0.16456947918E-01  0.13554153699E-01  0.11002952423E-01  0.23991898201E-01  0.00000000000E+00 0. -1.
     999901    1    3    3    0    0 -0.71723194695E-02 -0.91776415792E-01  0.88975922067E-01  0.88926434055E+00  0.88000000000E+00 0.  1.
        -11    1    4    4    0    0  0.15769614105E-01  0.58889179461E-01 -0.86494973909E-01  0.10582182109E+00  0.51100000000E-03 0.  1.
         11    1    4    4    0    0  0.78596532829E-02  0.19333082632E-01 -0.13483900581E-01  0.24851940159E-01  0.51100000000E-03 0. -1.
</event>
<event>
 8    1  0.1233916E+005  0.1043930E+01  0.7957747E-01            NaN
         13   -1    0    0    0    0  0.00000000000E+00  0.00000000000E+00  0.74505805969E-08  0.10566000000E+00  0.10566000000E+00 0.  1.
     999900   -1    0    0    0    0 -0.00000000000E+00 -0.00000000000E+00 -0.74505805969E-08  0.93827000000E+00  0.93827000000E+00 0.  1.
     999902    2    1    2    0    0  0.11979890924E-01 -0.17926124567E-01 -0.49231759112E-02  0.10218143632E+01  0.10215750053E+01 0.  0.
     999903    2    3    3    0    0 -0.30350152247E-01  0.38406296767E-01  0.11915541534E+00  0.13032085734E+00  0.19731636538E-01 0.  0.
         14    1    1    2    0    0 -0.11979890924E-01  0.17926124567E-01  0.49231759112E-02  0.22115636767E-01  0.00000000000E+00 0. -1.
     999901    1    3    3    0    0  0.42330043171E-01 -0.56332421334E-01 -0.12407859125E+00  0.89149350590E+00  0.88000000000E+00 0.  1.
        -11    1    4    4    0    0 -0.17739830217E-01  0.12872770696E-01  0.71670380958E-01  0.74948745348E-01  0.51100000000E-03 0.  1.
         11    1    4    4    0    0 -0.12610322029E-01  0.25533526071E-01  0.47485034378E-01  0.55372111990E-01  0.51100000000E-03 0. -1.
</event>
<event>
 8    1  0.1233916E+005  0.1043930E+01  0.7957747E-01            NaN
         13   -1    0    0    0    0  0.00000000000E+00  0.00000000000E+00  0.74505805969E-08  0.10566000000E+00  0.10566000000E+00 0.  1.
     999900   -1    0    0    0    0 -0.00000000000E+00 -0.00000000000E+00 -0.74505805969E-08  0.93827000000E+00  0.93827000000E+00 0.  1.
     999902    2    1    2    0    0  0.19177509016E-01  0.43028601876E-02 -0.13303101373E-01  0.10201968172E+01  0.10199207234E+01 0.  0.
     999903    2    3    3    0    0 -0.42298416638E-01 -0.92233920368E-01  0.75978137243E-01  0.12830569215E+00  0.19834847710E-01 0.  0.
         14    1    1    2    0    0 -0.19177509016E-01 -0.43028601876E-02  0.13303101373E-01  0.23733182761E-01  0.00000000000E+00 0.  1.
     999901    1    3    3    0    0  0.61475925654E-01  0.96536780556E-01 -0.89281238616E-01  0.89189112508E+00  0.88000000000E+00 0.  1.
        -11    1    4    4    0    0 -0.37406019042E-01 -0.67285132139E-01  0.64377556752E-01  0.10035551904E+00  0.51100000000E-03 0.  1.
         11    1    4    4    0    0 -0.48923975958E-02 -0.24948788230E-01  0.11600580491E-01  0.27950173114E-01  0.51100000000E-03 0. -1.
</event>
<event>
 8    1  0.1233916E+005  0.1043930E+01  0.7957747E-01            NaN
         13   -1    0    0    0    0  0.00000000000E+00  0.00000000000E+00  0.74505805969E-08  0.10566000000E+00  0.10566000000E+00 0. -1.
     999900   -1    0    0    0    0 -0.00000000000E+00 -0.00000000000E+00 -0.74505805969E-08  0.93827000000E+00  0.93827000000E+00 0. -1.
     999902    2    1    2    0    0 -0.61127246955E-02  0.20724459948E-01 -0.78586349762E-02  0.10209381148E+01  0.10206791893E+01 0.  0.
     999903    2    3    3    0    0 -0.41075182489E-01 -0.11192686283E+00 -0.46456132973E-01  0.12947386211E+00  0.19761463500E-01 0.  0.
         14    1    1    2    0    0  0.61127246955E-02 -0.20724459948E-01  0.78586349762E-02  0.22991885243E-01  0.00000000000E+00 0. -1.
     999901    1    3    3    0    0  0.34962457794E-01  0.13265132278E+00  0.38597497997E-01  0.89146425264E+00  0.88000000000E+00 0.  1.
        -11    1    4    4    0    0 -0.23854875157E-01 -0.44656829951E-01 -0.12382967594E-01  0.52123761736E-01  0.51100000000E-03 0. -1.
         11    1    4    4    0    0 -0.17220307332E-01 -0.67270032881E-01 -0.34073165379E-01  0.77350100378E-01  0.51100000000E-03 0.  1.
</event>
<event>
 8    1  0.1233916E+005  0.1043930E+01  0.7957747E-01            NaN
         13   -1    0    0    0    0  0.00000000000E+00  0.00000000000E+00  0.74505805969E-08  0.10566000000E+00  0.10566000000E+00 0. -1.
     999900   -1    0    0    0    0 -0.00000000000E+00 -0.00000000000E+00 -0.74505805969E-08  0.93827000000E+00  0.93827000000E+00 0.  1.
     999902    2    1    2    0    0  0.72480780763E-02  0.18625331591E-01 -0.13700677207E-01  0.10196989008E+01  0.10194109584E+01 0.  0.
     999903    2    3    3    0    0  0.25307790416E-01  0.15824958825E-01 -0.12730277058E+00  0.13220837639E+00  0.19548550105E-01 0.  0.
         14    1    1    2    0    0 -0.72480780763E-02 -0.18625331591E-01  0.13700677207E-01  0.24231099204E-01  0.00000000000E+00 0.  1.
     999901    1    3    3    0    0 -0.18059712340E-01  0.28003727660E-02  0.11360209338E+00  0.88749052441E+00  0.88000000000E+00 0. -1.
        -11    1    4    4    0    0 -0.67232638796E-03 -0.16853708600E-02 -0.28357815921E-01  0.28420403631E-01  0.51100000000E-03 0.  1.
         11    1    4    4    0    0  0.25980116804E-01  0.17510329685E-01 -0.98944954662E-01  0.10378797276E+00  0.51100000000E-03 0. -1.
</event>
<event>
 8    1  0.1233916E+005  0.1043930E+01  0.7957747E-01            NaN
         13   -1    0    0    0    0  0.00000000000E+00  0.00000000000E+00  0.74505805969E-08  0.10566000000E+00  0.10566000000E+00 0. -1.
     999900   -1    0    0    0    0 -0.00000000000E+00 -0.00000000000E+00 -0.74505805969E-08  0.93827000000E+00  0.93827000000E+00 0.  1.
     999902    2    1    2    0    0  0.63722702055E-02 -0.21856164556E-01 -0.98590251860E-02  0.10191207651E+01  0.10188187453E+01 0.  0.
     999903    2    3    3    0    0 -0.70424178068E-01 -0.30039808693E-01 -0.10399058974E+00  0.13073716672E+00  0.20401202026E-01 0.  0.
         14    1    1    2    0    0 -0.63722702055E-02  0.21856164556E-01  0.98590251860E-02  0.24809234859E-01  0.00000000000E+00 0. -1.
     999901    1    3    3    0    0  0.76796448273E-01  0.81836441370E-02  0.94131564555E-01  0.88838359842E+00  0.88000000000E+00 0. -1.
        -11    1    4    4    0    0 -0.54120329737E-01 -0.13160469310E-01 -0.70766336362E-01  0.90057445703E-01  0.51100000000E-03 0.  1.
         11    1    4    4    0    0 -0.16303848331E-01 -0.16879339383E-01 -0.33224253379E-01  0.40679721017E-01  0.51100000000E-03 0. -1.
</event>
<event>
 8    1  0.1233916E+005  0.1043930E+01  0.7957747E-01            NaN
         13   -1    0    0    0    0  0.00000000000E+00  0.00000000000E+00  0.74505805969E-08  0.10566000000E+00  0.10566000000E+00 0. -1.
     999900   -1    0    0    0    0 -0.00000000000E+00 -0.00000000000E+00 -0.74505805969E-08  0.93827000000E+00  0.93827000000E+00 0. -1.
     999902    2    1    2    0    0  0.16333568471E-01 -0.14593436222E-01  0.46472022486E-02  0.10215391463E+01  0.10212937272E+01 0.  0.
     999903    2    3    3    0    0 -0.12548862101E+00 -0.32847730320E-02  0.26434015985E-01  0.12984632671E+00  0.20078038306E-01 0.  0.
         14    1    1    2    0    0 -0.16333568471E-01  0.14593436222E-01 -0.46472022486E-02  0.22390853679E-01  0.00000000000E+00 0.  1.
     999901    1    3    3    0    0  0.14182218948E+00 -0.11308663190E-01 -0.21786813736E-01  0.89169281961E+00  0.88000000000E+00 0.  1.
        -11    1    4    4    0    0 -0.47800708815E-01 -0.76657265553E-02  0.17684557814E-01  0.51542951341E-01  0.51100000000E-03 0. -1.
         11    1    4    4    0    0 -0.77687912195E-01  0.43809535232E-02  0.87494581705E-02  0.78303375369E-01  0.51100000000E-03 0.  1.
</event>
<event>
 8    1  0.1233916E+005  0.1043930E+01  0.7957747E-01            NaN
         13   -1    0    0    0    0  0.00000000000E+00  0.00000000000E+00  0.74505805969E-08  0.10566000000E+00  0.10566000000E+00 0.  1.
     999900   -1    0    0    0    0 -0.00000000000E+00 -0.00000000000E+00 -0.74505805969E-08  0.93827000000E+00  0.93827000000E+00 0.  1.
     999902    2    1    2    0    0 -0.15788422448E-01 -0.39726327136E-02 -0.17442914559E-01  0.10200697535E+01  0.10197906602E+01 0.  0.
     999903    2    3    3    0    0  0.82125415546E-01  0.64147253633E-01  0.70936412794E-01  0.12763580969E+00  0.19986776322E-01 0.  0.
         14    1    1    2    0    0  0.15788422448E-01  0.39726327136E-02  0.17442914559E-01  0.23860246486E-01  0.00000000000E+00 0. -1.
     999901    1    3    3    0    0 -0.97913837994E-01 -0.68119886346E-01 -0.88379327353E-01  0.89243394382E+00  0.88000000000E+00 0.  1.
        -11    1    4    4    0    0  0.89976582462E-02  0.12821352366E-01  0.17670114597E-01  0.23618615567E-01  0.51100000000E-03 0.  1.
         11    1    4    4    0    0  0.73127757300E-01  0.51325901266E-01  0.53266298197E-01  0.10401719412E+00  0.51100000000E-03 0. -1.
</event>
<event>
 8    1  0.1233916E+005  0.1043930E+01  0.7957747E-01            NaN
         13   -1    0    0    0    0  0.00000000000E+00  0.00000000000E+00  0.74505805969E-08  0.10566000000E+00  0.10566000000E+00 0.  1.
     999900   -1    0    0    0    0 -0.00000000000E+00 -0.00000000000E+00 -0.74505805969E-08  0.93827000000E+00  0.93827000000E+00 0.  1.
     999902    2    1    2    0    0  0.16020508872E-01  0.17905859258E-01  0.77172001074E-03  0.10198910306E+01  0.10196076903E+01 0.  0.
     999903    2    3    3    0    0  0.62531942909E-02  0.11464031648E+00 -0.62574207842E-01  0.13227305968E+00  0.19978143769E-01 0.  0.
         14    1    1    2    0    0 -0.16020508872E-01 -0.17905859258E-01 -0.77172001074E-03  0.24038969447E-01  0.00000000000E+00 0. -1.
     999901    1    3    3    0    0  0.97673145815E-02 -0.96734457218E-01  0.63345927853E-01  0.88761797088E+00  0.88000000000E+00 0. -1.
        -11    1    4    4    0    0 -0.13346328918E-02  0.93956590897E-01 -0.45548977932E-01  0.10442505796E+00  0.51100000000E-03 0. -1.
         11    1    4    4    0    0  0.75878271827E-02  0.20683725580E-01 -0.17025229910E-01  0.27848001718E-01  0.51100000000E-03 0.  1.
</event>
<event>
 8    1  0.1233916E+005  0.1043930E+01  0.7957747E-01            NaN
         13   -1    0    0    0    0  0.00000000000E+00  0.00000000000E+00  0.74505805969E-08  0.10566000000E+00  0.10566000000E+00 0. -1.
     999900   -1    0    0    0    0 -0.00000000000E+00 -0.00000000000E+00 -0.74505805969E-08  0.93827000000E+00  0.93827000000E+00 0. -1.
     999902    2    1    2    0    0  0.67762091280E-02 -0.74612517521E-02  0.95892616170E-02  0.10300180905E+01  0.10299241358E+01 0.  0.
     999903    2    3    3    0    0 -0.97439796356E-01 -0.50230416144E-01  0.84204470669E-01  0.13970488344E+00  0.20234943959E-01 0.  0.
         14    1    1    2    0    0 -0.67762091280E-02  0.74612517521E-02 -0.95892616170E-02  0.13911909510E-01  0.00000000000E+00 0.  1.
     999901    1    3    3    0    0  0.10421600548E+00  0.42769164392E-01 -0.74615209052E-01  0.89031320705E+00  0.88000000000E+00 0. -1.
        -11    1    4    4    0    0 -0.40877506654E-01 -0.27753856163E-01  0.47983531622E-01  0.68876175199E-01  0.51100000000E-03 0. -1.
         11    1    4    4    0    0 -0.56562289702E-01 -0.22476559981E-01  0.36220939048E-01  0.70828708243E-01  0.51100000000E-03 0.  1.
</event>
<event>
 8    1  0.1233916E+005  0.1043930E+01  0.7957747E-01            NaN
         13   -1    0    0    0    0  0.00000000000E+00  0.00000000000E+00  0.74505805969E-08  0.10566000000E+00  0.10566000000E+00 0.  1.
     999900   -1    0    0    0    0 -0.00000000000E+00 -0.00000000000E+00 -0.74505805969E-08  0.93827000000E+00  0.93827000000E+00 0.  1.
     999902    2    1    2    0    0  0.28090490186E-02 -0.18672425827E-01  0.78264927973E-02  0.10234897399E+01  0.10232856119E+01 0.  0.
     999903    2    3    3    0    0 -0.25410784464E-01  0.75245644749E-01 -0.10297685070E+00  0.13113647808E+00  0.16879842534E-01 0.  0.
         14    1    1    2    0    0 -0.28090490186E-02  0.18672425827E-01 -0.78264927973E-02  0.20440260081E-01  0.00000000000E+00 0.  1.
     999901    1    3    3    0    0  0.28219833482E-01 -0.93918070576E-01  0.11080334349E+00  0.89235326184E+00  0.88000000000E+00 0. -1.
        -11    1    4    4    0    0 -0.67584593492E-02  0.38366097871E-01 -0.59749426906E-01  0.71329442555E-01  0.51100000000E-03 0.  1.
         11    1    4    4    0    0 -0.18652325114E-01  0.36879546878E-01 -0.43227423789E-01  0.59807035527E-01  0.51100000000E-03 0. -1.
</event>
<event>
 8    1  0.1233916E+005  0.1043930E+01  0.7957747E-01            NaN
         13   -1    0    0    0    0  0.00000000000E+00  0.00000000000E+00  0.74505805969E-08  0.10566000000E+00  0.10566000000E+00 0.  1.
     999900   -1    0    0    0    0 -0.00000000000E+00 -0.00000000000E+00 -0.74505805969E-08  0.93827000000E+00  0.93827000000E+00 0. -1.
     999902    2    1    2    0    0 -0.12396674046E-01 -0.12353635680E-01 -0.17524080090E-01  0.10191634252E+01  0.10188624559E+01 0.  0.
     999903    2    3    3    0    0 -0.33299098951E-01 -0.11235944892E+00 -0.58191000372E-01  0.13231965521E+00  0.19718592170E-01 0.  0.
         14    1    1    2    0    0  0.12396674046E-01  0.12353635680E-01  0.17524080090E-01  0.24766574751E-01  0.00000000000E+00 0.  1.
     999901    1    3    3    0    0  0.20902424905E-01  0.10000581325E+00  0.40666920283E-01  0.88684377004E+00  0.88000000000E+00 0.  1.
        -11    1    4    4    0    0 -0.18705284807E-01 -0.46578788047E-01 -0.34433958460E-01  0.60872241554E-01  0.51100000000E-03 0. -1.
         11    1    4    4    0    0 -0.14593814145E-01 -0.65780660878E-01 -0.23757041913E-01  0.71447413657E-01  0.51100000000E-03 0.  1.
</event>
<event>
 8    1  0.1233916E+005  0.1043930E+01  0.7957747E-01            NaN
         13   -1    0    0    0    0  0.00000000000E+00  0.00000000000E+00  0.74505805969E-08  0.10566000000E+00  0.10566000000E+00 0. -1.
     999900   -1    0    0    0    0 -0.00000000000E+00 -0.00000000000E+00 -0.74505805969E-08  0.93827000000E+00  0.93827000000E+00 0. -1.
     999902    2    1    2    0    0 -0.15967635124E-01  0.18113853853E-01 -0.19276896334E-02  0.10197061882E+01  0.10194184210E+01 0.  0.
     999903    2    3    3    0    0  0.11369862890E-01  0.12887047022E+00 -0.61392348426E-02  0.13233247659E+00  0.27153678916E-01 0.  0.
         14    1    1    2    0    0  0.15967635124E-01 -0.18113853853E-01  0.19276896334E-02  0.24223811842E-01  0.00000000000E+00 0.  1.
     999901    1    3    3    0    0 -0.27337498014E-01 -0.11075661637E+00  0.42115452092E-02  0.88737371157E+00  0.88000000000E+00 0. -1.
        -11    1    4    4    0    0  0.90075837778E-03  0.21465537831E-01  0.91166811685E-02  0.23344285737E-01  0.51100000000E-03 0.  1.
         11    1    4    4    0    0  0.10469104512E-01  0.10740493239E+00 -0.15255916011E-01  0.10898819085E+00  0.51100000000E-03 0. -1.
</event>
<event>
 8    1  0.1233916E+005  0.1043930E+01  0.7957747E-01            NaN
         13   -1    0    0    0    0  0.00000000000E+00  0.00000000000E+00  0.74505805969E-08  0.10566000000E+00  0.10566000000E+00 0. -1.
     999900   -1    0    0    0    0 -0.00000000000E+00 -0.00000000000E+00 -0.74505805969E-08  0.93827000000E+00  0.93827000000E+00 0.  1.
     999902    2    1    2    0    0  0.11738742065E-01  0.20347851910E-01  0.10731724957E-02  0.10204143703E+01  0.10201433734E+01 0.  0.
     999903    2    3    3    0    0  0.10805089086E+00  0.74590563344E-01 -0.12263738399E-01  0.13339905194E+00  0.20153427108E-01 0.  0.
         14    1    1    2    0    0 -0.11738742065E-01 -0.20347851910E-01 -0.10731724957E-02  0.23515629735E-01  0.00000000000E+00 0. -1.
     999901    1    3    3    0    0 -0.96312148793E-01 -0.54242711434E-01  0.13336910895E-01  0.88701531832E+00  0.88000000000E+00 0. -1.
        -11    1    4    4    0    0  0.74646621118E-01  0.51716881132E-01  0.92167907108E-03  0.90817754055E-01  0.51100000000E-03 0. -1.
         11    1    4    4    0    0  0.33404269740E-01  0.22873682212E-01 -0.13185417470E-01  0.42581297886E-01  0.51100000000E-03 0.  1.
</event>
<event>
 7    1  0.1233916E+005  0.1043930E+01  0.7957747E-01            NaN
         13   -1    0    0    0    0  0.00000000000E+00  0.00000000000E+00  0.74505805969E-08  0.10566000000E+00  0.10566000000E+00 0. -1.
     999900   -1    0    0    0    0 -0.00000000000E+00 -0.00000000000E+00 -0.74505805969E-08  0.93827000000E+00  0.93827000000E+00 0.  1.
     999903    2    1    2    0    0 -0.85046565969E-01 -0.79140953160E-01  0.44121684215E-02  0.11818457728E+00  0.21258368407E-01 0.  0.
         14    1    1    2    0    0 -0.12175555095E-01  0.36718686320E-01 -0.73172668964E-02  0.39370654830E-01  0.00000000000E+00 0. -1.
     999901    1    1    2    0    0  0.97222121064E-01  0.42422266840E-01  0.29050984749E-02  0.88637476789E+00  0.88000000000E+00 0.  1.
        -11    1    3    3    0    0 -0.49311094891E-01 -0.44999942060E-01 -0.79642273405E-02  0.67232945071E-01  0.51100000000E-03 0.  1.
         11    1    3    3    0    0 -0.35735471077E-01 -0.34141011100E-01  0.12376395762E-01  0.50951632212E-01  0.51100000000E-03 0. -1.
</event>
<event>
 8    1  0.1233916E+005  0.1043930E+01  0.7957747E-01            NaN
         13   -1    0    0    0    0  0.00000000000E+00  0.00000000000E+00  0.74505805969E-08  0.10566000000E+00  0.10566000000E+00 0.  1.
     999900   -1    0    0    0    0 -0.00000000000E+00 -0.00000000000E+00 -0.74505805969E-08  0.93827000000E+00  0.93827000000E+00 0.  1.
     999902    2    1    2    0    0  0.19938888110E-02 -0.25969497203E-02 -0.23781482301E-01  0.10199241957E+01  0.10196416460E+01 0.  0.
     999903    2    3    3    0    0 -0.34284875531E-01  0.12311511424E+00  0.77552640809E-02  0.12969150805E+00  0.20662988469E-01 0.  0.
         14    1    1    2    0    0 -0.19938888110E-02  0.25969497203E-02  0.23781482301E-01  0.24005804316E-01  0.00000000000E+00 0.  1.
     999901    1    3    3    0    0  0.36278764342E-01 -0.12571206396E+00 -0.31536746382E-01  0.89023268764E+00  0.88000000000E+00 0. -1.
        -11    1    4    4    0    0 -0.21710773568E-02  0.14951487496E-01  0.74651604730E-02  0.16859724112E-01  0.51100000000E-03 0.  1.
         11    1    4    4    0    0 -0.32113798174E-01  0.10816362675E+00  0.29010360789E-03  0.11283178393E+00  0.51100000000E-03 0. -1.
</event>
<event>
 8    1  0.1233916E+005  0.1043930E+01  0.7957747E-01            NaN
         13   -1    0    0    0    0  0.00000000000E+00  0.00000000000E+00  0.74505805969E-08  0.10566000000E+00  0.10566000000E+00 0. -1.
     999900   -1    0    0    0    0 -0.00000000000E+00 -0.00000000000E+00 -0.74505805969E-08  0.93827000000E+00  0.93827000000E+00 0.  1.
     999902    2    1    2    0    0  0.21178240658E-01  0.86124263633E-02  0.63074851288E-02  0.10202134207E+01  0.10199377175E+01 0.  0.
     999903    2    3    3    0    0 -0.10963009768E+00  0.63526382049E-01 -0.11514929404E-01  0.12867317911E+00  0.19231065727E-01 0.  0.
         14    1    1    2    0    0 -0.21178240658E-01 -0.86124263633E-02 -0.63074851288E-02  0.23716579304E-01  0.00000000000E+00 0. -1.
     999901    1    3    3    0    0  0.13080833834E+00 -0.54913955685E-01  0.17822414533E-01  0.89154024159E+00  0.88000000000E+00 0. -1.
        -11    1    4    4    0    0 -0.28422048207E-01  0.90396347121E-02 -0.76853723628E-02  0.30803472034E-01  0.51100000000E-03 0.  1.
         11    1    4    4    0    0 -0.81208049475E-01  0.54486747337E-01 -0.38295570410E-02  0.97869707075E-01  0.51100000000E-03 0. -1.
</event>
<event>
 8    1  0.1233916E+005  0.1043930E+01  0.7957747E-01            NaN
         13   -1    0    0    0    0  0.00000000000E+00  0.00000000000E+00  0.74505805969E-08  0.10566000000E+00  0.10566000000E+00 0.  1.
     999900   -1    0    0    0    0 -0.00000000000E+00 -0.00000000000E+00 -0.74505805969E-08  0.93827000000E+00  0.93827000000E+00 0. -1.
     999902    2    1    2    0    0  0.19897194565E-01 -0.21495661396E-02  0.11966981564E-01  0.10206120320E+01  0.10203456239E+01 0.  0.
     999903    2    3    3    0    0  0.12474100735E+00 -0.17956527685E-01 -0.36956428604E-01  0.13289834772E+00  0.20333160386E-01 0.  0.
         14    1    1    2    0    0 -0.19897194565E-01  0.21495661396E-02 -0.11966981564E-01  0.23317968048E-01  0.00000000000E+00 0.  1.
     999901    1    3    3    0    0 -0.10484381278E+00  0.15806961546E-01  0.48923410168E-01  0.88771368423E+00  0.88000000000E+00 0.  1.
        -11    1    4    4    0    0  0.79593664915E-01 -0.30407403407E-02 -0.28521602951E-01  0.84605795028E-01  0.51100000000E-03 0. -1.
         11    1    4    4    0    0  0.45147342430E-01 -0.14915787345E-01 -0.84348256532E-02  0.48292552691E-01  0.51100000000E-03 0.  1.
</event>
<event>
 8    1  0.1233916E+005  0.1043930E+01  0.7957747E-01            NaN
         13   -1    0    0    0    0  0.00000000000E+00  0.00000000000E+00  0.74505805969E-08  0.10566000000E+00  0.10566000000E+00 0. -1.
     999900   -1    0    0    0    0 -0.00000000000E+00 -0.00000000000E+00 -0.74505805969E-08  0.93827000000E+00  0.93827000000E+00 0. -1.
     999902    2    1    2    0    0  0.53292035393E-02 -0.59214928899E-02  0.22099822720E-01  0.10204381577E+01  0.10201677152E+01 0.  0.
     999903    2    3    3    0    0 -0.11604803044E+00 -0.48148649428E-01  0.32153410529E-01  0.13104699503E+00  0.18815825462E-01 0.  0.
         14    1    1    2    0    0 -0.53292035393E-02  0.59214928899E-02 -0.22099822720E-01  0.23491842258E-01  0.00000000000E+00 0.  1.
     999901    1    3    3    0    0  0.12137723398E+00  0.42227156538E-01 -0.10053587809E-01  0.88939116271E+00  0.88000000000E+00 0.  1.
        -11    1    4    4    0    0 -0.65521617486E-01 -0.17182041731E-01  0.18773172711E-01  0.70292233217E-01  0.51100000000E-03 0. -1.
         11    1    4    4    0    0 -0.50526412954E-01 -0.30966607696E-01  0.13380237817E-01  0.60754761816E-01  0.51100000000E-03 0.  1.
</event>
<event>
 8    1  0.1233916E+005  0.1043930E+01  0.7957747E-01            NaN
         13   -1    0    0    0    0  0.00000000000E+00  0.00000000000E+00  0.74505805969E-08  0.10566000000E+00  0.10566000000E+00 0. -1.
     999900   -1    0    0    0    0 -0.00000000000E+00 -0.00000000000E+00 -0.74505805969E-08  0.93827000000E+00  0.93827000000E+00 0. -1.
     999902    2    1    2    0    0  0.10383575395E-01 -0.89215869674E-02  0.16928448859E-01  0.10221587866E+01  0.10219269051E+01 0.  0.
     999903    2    3    3    0    0  0.30600633786E-01  0.12259580367E+00  0.27600348077E-01  0.13209168637E+00  0.26838489661E-01 0.  0.
         14    1    1    2    0    0 -0.10383575395E-01  0.89215869674E-02 -0.16928448859E-01  0.21771213397E-01  0.00000000000E+00 0.  1.
     999901    1    3    3    0    0 -0.20217058391E-01 -0.13151739064E+00 -0.10671899219E-01  0.89006710024E+00  0.88000000000E+00 0. -1.
        -11    1    4    4    0    0 -0.83037548687E-03  0.50622896757E-01  0.10231035051E-01  0.51655613429E-01  0.51100000000E-03 0.  1.
         11    1    4    4    0    0  0.31431009273E-01  0.71972906914E-01  0.17369313027E-01  0.80436072937E-01  0.51100000000E-03 0. -1.
</event>
<event>
 8    1  0.1233916E+005  0.1043930E+01  0.7957747E-01            NaN
         13   -1    0    0    0    0  0.00000000000E+00  0.00000000000E+00  0.74505805969E-08  0.10566000000E+00  0.10566000000E+00 0. -1.
     999900   -1    0    0    0    0 -0.00000000000E+00 -0.00000000000E+00 -0.74505805969E-08  0.93827000000E+00  0.93827000000E+00 0.  1.
     999902    2    1    2    0    0  0.88209141072E-02  0.21988602076E-01 -0.38188456865E-02  0.10199322766E+01  0.10196499194E+01 0.  0.
     999903    2    3    3    0    0 -0.37256187347E-01 -0.11801269164E+00  0.22316639600E-01  0.12729207745E+00  0.19754029825E-01 0.  0.
         14    1    1    2    0    0 -0.88209141072E-02 -0.21988602076E-01  0.38188456865E-02  0.23997723419E-01  0.00000000000E+00 0.  1.
     999901    1    3    3    0    0  0.46077101454E-01  0.14000129371E+00 -0.26135485287E-01  0.89264019913E+00  0.88000000000E+00 0. -1.
        -11    1    4    4    0    0 -0.69689933242E-02 -0.47959436290E-01  0.14404738595E-01  0.50561170994E-01  0.51100000000E-03 0.  1.
         11    1    4    4    0    0 -0.30287194023E-01 -0.70053255347E-01  0.79119010053E-02  0.76730906453E-01  0.51100000000E-03 0. -1.
</event>
<event>
 8    1  0.1233916E+005  0.1043930E+01  0.7957747E-01            NaN
         13   -1    0    0    0    0  0.00000000000E+00  0.00000000000E+00  0.74505805969E-08  0.10566000000E+00  0.10566000000E+00 0.  1.
     999900   -1    0    0    0    0 -0.00000000000E+00 -0.00000000000E+00 -0.74505805969E-08  0.93827000000E+00  0.93827000000E+00 0. -1.
     999902    2    1    2    0    0 -0.11417869085E-01  0.20063502209E-01  0.27197915321E-02  0.10206854496E+01  0.10204207358E+01 0.  0.
     999903    2    3    3    0    0  0.90377278269E-01  0.35311912114E-01  0.85553380034E-01  0.13082244366E+00  0.19497368184E-01 0.  0.
         14    1    1    2    0    0  0.11417869085E-01 -0.20063502209E-01 -0.27197915321E-02  0.23244550357E-01  0.00000000000E+00 0.  1.
     999901    1    3    3    0    0 -0.10179514735E+00 -0.15248409906E-01 -0.82833588501E-01  0.88986300598E+00  0.88000000000E+00 0.  1.
        -11    1    4    4    0    0  0.61067862514E-01  0.26744220243E-01  0.69550328556E-01  0.96343377934E-01  0.51100000000E-03 0.  1.
         11    1    4    4    0    0  0.29309415755E-01  0.85676918713E-02  0.16003051477E-01  0.34479065728E-01  0.51100000000E-03 0. -1.
</event>
<event>
 8    1  0.1233916E+005  0.1043930E+01  0.7957747E-01            NaN
         13   -1    0    0    0    0  0.00000000000E+00  0.00000000000E+00  0.74505805969E-08  0.10566000000E+00  0.10566000000E+00 0. -1.
     999900   -1    0    0    0    0 -0.00000000000E+00 -0.00000000000E+00 -0.74505805969E-08  0.93827000000E+00  0.93827000000E+00 0. -1.
     999902    2    1    2    0    0  0.23766043847E-01  0.86351031707E-02  0.45925054834E-02  0.10182301760E+01  0.10179057964E+01 0.  0.
     999903    2    3    3    0    0 -0.12132791406E+00 -0.12265548826E-01 -0.23157710058E-01  0.12567252053E+00  0.19656969835E-01 0.  0.
         14    1    1    2    0    0 -0.23766043847E-01 -0.86351031707E-02 -0.45925054834E-02  0.25699823998E-01  0.00000000000E+00 0.  1.
     999901    1    3    3    0    0  0.14509395791E+00  0.20900651996E-01  0.27750215542E-01  0.89255765547E+00  0.88000000000E+00 0. -1.
        -11    1    4    4    0    0 -0.74825440494E-01 -0.69435644697E-02 -0.45031409896E-02  0.75283457894E-01  0.51100000000E-03 0. -1.
         11    1    4    4    0    0 -0.46502473568E-01 -0.53219843558E-02 -0.18654569069E-01  0.50389062638E-01  0.51100000000E-03 0.  1.
</event>
<event>
 8    1  0.1233916E+005  0.1043930E+01  0.7957747E-01            NaN
         13   -1    0    0    0    0  0.00000000000E+00  0.00000000000E+00  0.74505805969E-08  0.10566000000E+00  0.10566000000E+00 0. -1.
     999900   -1    0    0    0    0 -0.00000000000E+00 -0.00000000000E+00 -0.74505805969E-08  0.93827000000E+00  0.93827000000E+00 0.  1.
     999902    2    1    2    0    0  0.79780131660E-02  0.21303371520E-01  0.34925427853E-02  0.10209152181E+01  0.10206557707E+01 0.  0.
     999903    2    3    3    0    0 -0.17334645216E-01 -0.91195536102E-01 -0.87186854316E-01  0.12877201883E+00  0.19067499525E-01 0.  0.
         14    1    1    2    0    0 -0.79780131660E-02 -0.21303371520E-01 -0.34925427853E-02  0.23014781931E-01  0.00000000000E+00 0.  1.
     999901    1    3    3    0    0  0.25312658382E-01  0.11249890762E+00  0.90679397102E-01  0.89214319924E+00  0.88000000000E+00 0. -1.
        -11    1    4    4    0    0 -0.77281710560E-03 -0.50439317301E-01 -0.51849746899E-01  0.72342099434E-01  0.51100000000E-03 0.  1.
         11    1    4    4    0    0 -0.16561828111E-01 -0.40756218802E-01 -0.35337107417E-01  0.56429919395E-01  0.51100000000E-03 0. -1.
</event>
<event>
 8    1  0.1233916E+005  0.1043930E+01  0.7957747E-01            NaN
         13   -1    0    0    0    0  0.00000000000E+00  0.00000000000E+00  0.74505805969E-08  0.10566000000E+00  0.10566000000E+00 0. -1.
     999900   -1    0    0    0    0 -0.00000000000E+00 -0.00000000000E+00 -0.74505805969E-08  0.93827000000E+00  0.93827000000E+00 0.  1.
     999902    2    1    2    0    0  0.12077682631E-01 -0.75137396024E-02 -0.19140004187E-01  0.10200832715E+01  0.10198044981E+01 0.  0.
     999903    2    3    3    0    0 -0.98388824513E-01 -0.57430553571E-01 -0.60871339968E-01  0.13079364380E+00  0.20567643456E-01 0.  0.
         14    1    1    2    0    0 -0.12077682631E-01  0.75137396024E-02  0.19140004187E-01  0.23846728514E-01  0.00000000000E+00 0. -1.
     999901    1    3    3    0    0  0.11046650714E+00  0.49916813969E-01  0.41731335781E-01  0.88928962768E+00  0.88000000000E+00 0. -1.
        -11    1    4    4    0    0 -0.12768342459E-01 -0.12821075190E-01 -0.16678454665E-01  0.24613868229E-01  0.51100000000E-03 0.  1.
         11    1    4    4    0    0 -0.85620482054E-01 -0.44609478381E-01 -0.44192885303E-01  0.10617977557E+00  0.51100000000E-03 0. -1.
</event>
<event>
 8    1  0.1233916E+005  0.1043930E+01  0.7957747E-01            NaN
         13   -1    0    0    0    0  0.00000000000E+00  0.00000000000E+00  0.74505805969E-08  0.10566000000E+00  0.10566000000E+00 0.  1.
     999900   -1    0    0    0    0 -0.00000000000E+00 -0.00000000000E+00 -0.74505805969E-08  0.93827000000E+00  0.93827000000E+00 0.  1.
     999902    2    1    2    0    0 -0.12574254574E-02 -0.24906984484E-02 -0.20829372584E-01  0.10229145899E+01  0.10226986902E+01 0.  0.
     999903    2    3    3    0    0 -0.93818663036E-01  0.10091423471E-01 -0.94424452234E-01  0.13491564386E+00  0.19556978748E-01 0.  0.
         14    1    1    2    0    0  0.12574254574E-02  0.24906984484E-02  0.20829372584E-01  0.21015410055E-01  0.00000000000E+00 0.  1.
     999901    1    3    3    0    0  0.92561237578E-01 -0.12582121919E-01  0.73595079650E-01  0.88799894608E+00  0.88000000000E+00 0. -1.
        -11    1    4    4    0    0 -0.73977233377E-01  0.14561901814E-01 -0.67733063695E-01  0.10135437376E+00  0.51100000000E-03 0.  1.
         11    1    4    4    0    0 -0.19841429658E-01 -0.44704783427E-02 -0.26691388539E-01  0.33561270099E-01  0.51100000000E-03 0. -1.
</event>
<event>
 8    1  0.1233916E+005  0.1043930E+01  0.7957747E-01            NaN
         13   -1    0    0    0    0  0.00000000000E+00  0.00000000000E+00  0.74505805969E-08  0.10566000000E+00  0.10566000000E+00 0.  1.
     999900   -1    0    0    0    0 -0.00000000000E+00 -0.00000000000E+00 -0.74505805969E-08  0.93827000000E+00  0.93827000000E+00 0.  1.
     999902    2    1    2    0    0 -0.16662832605E-01 -0.10565544148E-01  0.90344524076E-02  0.10222297225E+01  0.10219993657E+01 0.  0.
     999903    2    3    3    0    0 -0.64661112263E-01  0.86697203613E-01 -0.72638905974E-01  0.13181722571E+00  0.20047587896E-01 0.  0.
         14    1    1    2    0    0  0.16662832605E-01  0.10565544148E-01 -0.90344524076E-02  0.21700277507E-01  0.00000000000E+00 0.  1.
     999901    1    3    3    0    0  0.47998279657E-01 -0.97262747760E-01  0.81673358382E-01  0.89041249678E+00  0.88000000000E+00 0. -1.
        -11    1    4    4    0    0 -0.34171497508E-01  0.59249079753E-01 -0.38817024630E-01  0.78645834064E-01  0.51100000000E-03 0.  1.
         11    1    4    4    0    0 -0.30489614755E-01  0.27448123860E-01 -0.33821881344E-01  0.53171391650E-01  0.51100000000E-03 0. -1.
</event>
<event>
 8    1  0.1233916E+005  0.1043930E+01  0.7957747E-01            NaN
         13   -1    0    0    0    0  0.00000000000E+00  0.00000000000E+00  0.74505805969E-08  0.10566000000E+00  0.10566000000E+00 0. -1.
     999900   -1    0    0    0    0 -0.00000000000E+00 -0.00000000000E+00 -0.74505805969E-08  0.93827000000E+00  0.93827000000E+00 0.  1.
     999902    2    1    2    0    0  0.44944652390E-03  0.23316865567E-01 -0.71456433228E-02  0.10195386400E+01  0.10192468298E+01 0.  0.
     999903    2    3    3    0    0  0.25356500932E-01 -0.10361152073E+00  0.66101557783E-01  0.12707220982E+00  0.19990777836E-01 0.  0.
         14    1    1    2    0    0 -0.44944652390E-03 -0.23316865567E-01  0.71456433228E-02  0.24391359957E-01  0.00000000000E+00 0. -1.
     999901    1    3    3    0    0 -0.24907054409E-01  0.12692838630E+00 -0.73247201106E-01  0.89246643022E+00  0.88000000000E+00 0.  1.
        -11    1    4    4    0    0  0.24430902926E-01 -0.59942273626E-01  0.42289802298E-01  0.77321624948E-01  0.51100000000E-03 0.  1.
         11    1    4    4    0    0  0.92559800603E-03 -0.43669247108E-01  0.23811755485E-01  0.49750584870E-01  0.51100000000E-03 0. -1.
</event>
<event>
 8    1  0.1233916E+005  0.1043930E+01  0.7957747E-01            NaN
         13   -1    0    0    0    0  0.00000000000E+00  0.00000000000E+00  0.74505805969E-08  0.10566000000E+00  0.10566000000E+00 0. -1.
     999900   -1    0    0    0    0 -0.00000000000E+00 -0.00000000000E+00 -0.74505805969E-08  0.93827000000E+00  0.93827000000E+00 0. -1.
     999902    2    1    2    0    0  0.50604577549E-02 -0.59433717362E-02 -0.22484452564E-01  0.10201291070E+01  0.10198514168E+01 0.  0.
     999903    2    3    3    0    0  0.81703242883E-02 -0.12824157684E+00  0.15045941989E-01  0.13087377092E+00  0.19720733099E-01 0.  0.
         14    1    1    2    0    0 -0.50604577549E-02  0.59433717362E-02  0.22484452564E-01  0.23800892995E-01  0.00000000000E+00 0. -1.
     999901    1    3    3    0    0 -0.31098665334E-02  0.12229820511E+00 -0.37530394552E-01  0.88925533609E+00  0.88000000000E+00 0. -1.
        -11    1    4    4    0    0  0.31823032994E-02 -0.10298645027E-01 -0.35680455605E-02  0.11365791385E-01  0.51100000000E-03 0. -1.
         11    1    4    4    0    0  0.49880209888E-02 -0.11794293182E+00  0.18613987549E-01  0.11950797953E+00  0.51100000000E-03 0.  1.
</event>
<event>
 8    1  0.1233916E+005  0.1043930E+01  0.7957747E-01            NaN
         13   -1    0    0    0    0  0.00000000000E+00  0.00000000000E+00  0.74505805969E-08  0.10566000000E+00  0.10566000000E+00 0.  1.
     999900   -1    0    0    0    0 -0.00000000000E+00 -0.00000000000E+00 -0.74505805969E-08  0.93827000000E+00  0.93827000000E+00 0.  1.
     999902    2    1    2    0    0  0.12565869599E-01  0.19016813110E-01  0.82285013272E-02  0.10196967894E+01  0.10194087963E+01 0.  0.
     999903    2    3    3    0    0 -0.68898576233E-01  0.53235671421E-01 -0.93538573464E-01  0.12943619630E+00  0.20572157595E-01 0.  0.
         14    1    1    2    0    0 -0.12565869599E-01 -0.19016813110E-01 -0.82285013272E-02  0.24233210553E-01  0.00000000000E+00 0. -1.
     999901    1    3    3    0    0  0.81464445832E-01 -0.34218858311E-01  0.10176707479E+00  0.89026059315E+00  0.88000000000E+00 0. -1.
        -11    1    4    4    0    0 -0.27491170922E-01  0.20134482142E-01 -0.51603464047E-01  0.61841252190E-01  0.51100000000E-03 0.  1.
         11    1    4    4    0    0 -0.41407405311E-01  0.33101189280E-01 -0.41935109417E-01  0.67594944110E-01  0.51100000000E-03 0. -1.
</event>
<event>
 8    1  0.1233916E+005  0.1043930E+01  0.7957747E-01            NaN
         13   -1    0    0    0    0  0.00000000000E+00  0.00000000000E+00  0.74505805969E-08  0.10566000000E+00  0.10566000000E+00 0.  1.
     999900   -1    0    0    0    0 -0.00000000000E+00 -0.00000000000E+00 -0.74505805969E-08  0.93827000000E+00  0.93827000000E+00 0.  1.
     999902    2    1    2    0    0 -0.17416195900E-01  0.11131480824E-01  0.11903826177E-01  0.10200776453E+01  0.10197987388E+01 0.  0.
     999903    2    3    3    0    0 -0.88583816436E-01  0.97168461356E-01 -0.56090558732E-02  0.13284943723E+00  0.18130335037E-01 0.  0.
         14    1    1    2    0    0  0.17416195900E-01 -0.11131480824E-01 -0.11903826177E-01  0.23852354656E-01  0.00000000000E+00 0. -1.
     999901    1    3    3    0    0  0.71167620536E-01 -0.86036980531E-01  0.17512882051E-01  0.88722820811E+00  0.88000000000E+00 0.  1.
        -11    1    4    4    0    0 -0.55693437197E-01  0.47969509252E-01 -0.47815304917E-02  0.73661095020E-01  0.51100000000E-03 0. -1.
         11    1    4    4    0    0 -0.32890379238E-01  0.49198952104E-01 -0.82752538147E-03  0.59188342212E-01  0.51100000000E-03 0.  1.
</event>
<event>
 8    1  0.1233916E+005  0.1043930E+01  0.7957747E-01            NaN
         13   -1    0    0    0    0  0.00000000000E+00  0.00000000000E+00  0.74505805969E-08  0.10566000000E+00  0.10566000000E+00 0.  1.
     999900   -1    0    0    0    0 -0.00000000000E+00 -0.00000000000E+00 -0.74505805969E-08  0.93827000000E+00  0.93827000000E+00 0. -1.
     999902    2    1    2    0    0  0.25560565824E-04 -0.22766207236E-01 -0.12891148170E-03  0.10211634134E+01  0.10209095942E+01 0.  0.
     999903    2    3    3    0    0  0.10215686425E+00 -0.70520326417E-01  0.43149476060E-01  0.13291554380E+00  0.19887763812E-01 0.  0.
         14    1    1    2    0    0 -0.25560565824E-04  0.22766207236E-01  0.12891148170E-03  0.22766586556E-01  0.00000000000E+00 0.  1.
     999901    1    3    3    0    0 -0.10213130368E+00  0.47754119181E-01 -0.43278387542E-01  0.88824786964E+00  0.88000000000E+00 0. -1.
        -11    1    4    4    0    0  0.95284115833E-01 -0.62929049288E-01  0.44539094750E-01  0.12256883803E+00  0.51100000000E-03 0.  1.
         11    1    4    4    0    0  0.68727484155E-02 -0.75912771294E-02 -0.13896186898E-02  0.10346705772E-01  0.51100000000E-03 0. -1.
</event>
<event>
 8    1  0.1233916E+005  0.1043930E+01  0.7957747E-01            NaN
         13   -1    0    0    0    0  0.00000000000E+00  0.00000000000E+00  0.74505805969E-08  0.10566000000E+00  0.10566000000E+00 0. -1.
     999900   -1    0    0    0    0 -0.00000000000E+00 -0.00000000000E+00 -0.74505805969E-08  0.93827000000E+00  0.93827000000E+00 0. -1.
     999902    2    1    2    0    0  0.18052324942E-01  0.58089418919E-02 -0.13947436514E-01  0.10203893707E+01  0.10201177906E+01 0.  0.
     999903    2    3    3    0    0  0.11169800233E+00  0.68555053520E-01 -0.13097101629E-01  0.13319868632E+00  0.19852377147E-01 0.  0.
         14    1    1    2    0    0 -0.18052324942E-01 -0.58089418919E-02  0.13947436514E-01  0.23540629283E-01  0.00000000000E+00 0. -1.
     999901    1    3    3    0    0 -0.93645677386E-01 -0.62746111628E-01 -0.85033488456E-03  0.88719068440E+00  0.88000000000E+00 0. -1.
        -11    1    4    4    0    0  0.34036827356E-01  0.14473170573E-01 -0.10794462560E-01  0.38532581355E-01  0.51100000000E-03 0. -1.
         11    1    4    4    0    0  0.77661174971E-01  0.54081882947E-01 -0.23026390694E-02  0.94666104962E-01  0.51100000000E-03 0.  1.
</event>
<event>
 7    1  0.1233916E+005  0.1043930E+01  0.7957747E-01            NaN
         13   -1    0    0    0    0  0.00000000000E+00  0.00000000000E+00  0.74505805969E-08  0.10566000000E+00  0.10566000000E+00 0. -1.
     999900   -1    0    0    0    0 -0.00000000000E+00 -0.00000000000E+00 -0.74505805969E-08  0.93827000000E+00  0.93827000000E+00 0. -1.
     999903    2    1    2    0    0  0.78195144112E-01 -0.26460985470E-01  0.12280981292E-01  0.85567457602E-01  0.18875989621E-01 0.  0.
         14    1    1    2    0    0  0.12385851786E-01  0.13033430243E-01 -0.69475440565E-01  0.71764311953E-01  0.00000000000E+00 0.  1.
     999901    1    1    2    0    0 -0.90580995898E-01  0.13427555227E-01  0.57194459273E-01  0.88659823045E+00  0.88000000000E+00 0. -1.
        -11    1    3    3    0    0  0.67036229488E-02 -0.97604653565E-03  0.65737322967E-02  0.94533753119E-02  0.51100000000E-03 0. -1.
         11    1    3    3    0    0  0.71491521163E-01 -0.25484938934E-01  0.57072489950E-02  0.76114082290E-01  0.51100000000E-03 0.  1.
</event>
<event>
 8    1  0.1233916E+005  0.1043930E+01  0.7957747E-01            NaN
         13   -1    0    0    0    0  0.00000000000E+00  0.00000000000E+00  0.74505805969E-08  0.10566000000E+00  0.10566000000E+00 0.  1.
     999900   -1    0    0    0    0 -0.00000000000E+00 -0.00000000000E+00 -0.74505805969E-08  0.93827000000E+00  0.93827000000E+00 0. -1.
     999902    2    1    2    0    0  0.61642362049E-02 -0.29207936872E-01  0.16769693227E-01  0.10096907828E+01  0.10091100797E+01 0.  0.
     999903    2    3    3    0    0  0.67609119258E-01 -0.14465272955E-02  0.10092941325E+00  0.12310800155E+00  0.19893419468E-01 0.  0.
         14    1    1    2    0    0 -0.61642362049E-02  0.29207936872E-01 -0.16769693227E-01  0.34239217211E-01  0.00000000000E+00 0. -1.
     999901    1    3    3    0    0 -0.61444883053E-01 -0.27761409577E-01 -0.84159720025E-01  0.88658278124E+00  0.88000000000E+00 0. -1.
        -11    1    4    4    0    0  0.77262963047E-02  0.62292752148E-02  0.11399853579E-01  0.15123402623E-01  0.51100000000E-03 0. -1.
         11    1    4    4    0    0  0.59882822953E-01 -0.76758025103E-02  0.89529559673E-01  0.10798459893E+00  0.51100000000E-03 0.  1.
</event>
<event>
 8    1  0.1233916E+005  0.1043930E+01  0.7957747E-01            NaN
         13   -1    0    0    0    0  0.00000000000E+00  0.00000000000E+00  0.74505805969E-08  0.10566000000E+00  0.10566000000E+00 0.  1.
     999900   -1    0    0    0    0 -0.00000000000E+00 -0.00000000000E+00 -0.74505805969E-08  0.93827000000E+00  0.93827000000E+00 0. -1.
     999902    2    1    2    0    0  0.77630904845E-02 -0.11976623582E-01 -0.20240737836E-01  0.10191632369E+01  0.10188622630E+01 0.  0.
     999903    2    3    3    0    0 -0.73196117947E-01  0.33374569443E-01  0.96299539284E-01  0.12664278317E+00  0.17124826841E-01 0.  0.
         14    1    1    2    0    0 -0.77630904845E-02  0.11976623582E-01  0.20240737836E-01  0.24766763099E-01  0.00000000000E+00 0.  1.
     999901    1    3    3    0    0  0.80959208431E-01 -0.45351193025E-01 -0.11654027712E+00  0.89252045373E+00  0.88000000000E+00 0. -1.
        -11    1    4    4    0    0 -0.35048444614E-01  0.25318877115E-01  0.49387794814E-01  0.65641864734E-01  0.51100000000E-03 0.  1.
         11    1    4    4    0    0 -0.38147673333E-01  0.80556923287E-02  0.46911744470E-01  0.61000918435E-01  0.51100000000E-03 0. -1.
</event>
<event>
 8    1  0.1233916E+005  0.1043930E+01  0.7957747E-01            NaN
         13   -1    0    0    0    0  0.00000000000E+00  0.00000000000E+00  0.74505805969E-08  0.10566000000E+00  0.10566000000E+00 0.  1.
     999900   -1    0    0    0    0 -0.00000000000E+00 -0.00000000000E+00 -0.74505805969E-08  0.93827000000E+00  0.93827000000E+00 0. -1.
     999902    2    1    2    0    0 -0.18155983832E-01 -0.10309361052E-01  0.10259705367E-01  0.10206666333E+01  0.10204014858E+01 0.  0.
     999903    2    3    3    0    0 -0.43623252772E-01 -0.88658336133E-01 -0.84808262757E-01  0.13172059322E+00  0.19864151065E-01 0.  0.
         14    1    1    2    0    0  0.18155983832E-01  0.10309361052E-01 -0.10259705367E-01  0.23263366661E-01  0.00000000000E+00 0. -1.
     999901    1    3    3    0    0  0.25467268940E-01  0.78348975081E-01  0.95067968124E-01  0.88894604012E+00  0.88000000000E+00 0. -1.
        -11    1    4    4    0    0 -0.10693915871E-01 -0.16097869551E-01 -0.76191012449E-02  0.20780112260E-01  0.51100000000E-03 0.  1.
         11    1    4    4    0    0 -0.32929336901E-01 -0.72560466582E-01 -0.77189161512E-01  0.11094048096E+00  0.51100000000E-03 0. -1.
</event>
<event>
 8    1  0.1233916E+005  0.1043930E+01  0.7957747E-01            NaN
         13   -1    0    0    0    0  0.00000000000E+00  0.00000000000E+00  0.74505805969E-08  0.10566000000E+00  0.10566000000E+00 0. -1.
     999900   -1    0    0    0    0 -0.00000000000E+00 -0.00000000000E+00 -0.74505805969E-08  0.93827000000E+00  0.93827000000E+00 0. -1.
     999902    2    1    2    0    0  0.14096333744E-01  0.19728378625E-02  0.18243456897E-01  0.10207908031E+01  0.10205285107E+01 0.  0.
     999903    2    3    3    0    0  0.35659850929E-01  0.52181588485E-02 -0.12258091275E+00  0.12932738798E+00  0.20015967655E-01 0.  0.
         14    1    1    2    0    0 -0.14096333744E-01 -0.19728378625E-02 -0.18243456897E-01  0.23139196913E-01  0.00000000000E+00 0.  1.
     999901    1    3    3    0    0 -0.21563517184E-01 -0.32453209860E-02  0.14082436965E+00  0.89146341510E+00  0.88000000000E+00 0.  1.
        -11    1    4    4    0    0  0.20408801705E-01  0.12198025909E-01 -0.82914998591E-01  0.86258154023E-01  0.51100000000E-03 0. -1.
         11    1    4    4    0    0  0.15251049223E-01 -0.69798670606E-02 -0.39665914161E-01  0.43069233959E-01  0.51100000000E-03 0.  1.
</event>
<event>
 8    1  0.1233916E+005  0.1043930E+01  0.7957747E-01            NaN
         13   -1    0    0    0    0  0.00000000000E+00  0.00000000000E+00  0.74505805969E-08  0.10566000000E+00  0.10566000000E+00 0.  1.
     999900   -1    0    0    0    0 -0.00000000000E+00 -0.00000000000E+00 -0.74505805969E-08  0.93827000000E+00  0.93827000000E+00 0. -1.
     999902    2    1    2    0    0 -0.68061584712E-02 -0.40299481670E-02  0.22771439518E-01  0.10198239275E+01  0.10195389842E+01 0.  0.
     999903    2    3    3    0    0 -0.77571480285E-01  0.94366896171E-01  0.42900821922E-01  0.13128869362E+00  0.21766830366E-01 0.  0.
         14    1    1    2    0    0  0.68061584712E-02  0.40299481670E-02 -0.22771439518E-01  0.24106072536E-01  0.00000000000E+00 0. -1.
     999901    1    3    3    0    0  0.70765321814E-01 -0.98396844338E-01 -0.20129382404E-01  0.88853523384E+00  0.88000000000E+00 0.  1.
        -11    1    4    4    0    0 -0.60627396311E-01  0.67691666894E-01  0.22327809177E-01  0.93576894231E-01  0.51100000000E-03 0. -1.
         11    1    4    4    0    0 -0.16944083974E-01  0.26675229278E-01  0.20573012744E-01  0.37711799389E-01  0.51100000000E-03 0.  1.
</event>
<event>
 8    1  0.1233916E+005  0.1043930E+01  0.7957747E-01            NaN
         13   -1    0    0    0    0  0.00000000000E+00  0.00000000000E+00  0.74505805969E-08  0.10566000000E+00  0.10566000000E+00 0. -1.
     999900   -1    0    0    0    0 -0.00000000000E+00 -0.00000000000E+00 -0.74505805969E-08  0.93827000000E+00  0.93827000000E+00 0.  1.
     999902    2    1    2    0    0 -0.33804708701E-02  0.21935709348E-01 -0.81070787695E-02  0.10203010420E+01  0.10200273961E+01 0.  0.
     999903    2    3    3    0    0 -0.21273195550E-01  0.20597348934E-01 -0.12707002616E+00  0.13211518106E+00  0.20756441990E-01 0.  0.
         14    1    1    2    0    0  0.33804708701E-02 -0.21935709348E-01  0.81070787695E-02  0.23628957956E-01  0.00000000000E+00 0. -1.
     999901    1    3    3    0    0  0.17892724680E-01  0.13383604143E-02  0.11896294739E+00  0.88818586099E+00  0.88000000000E+00 0. -1.
        -11    1    4    4    0    0 -0.23543262349E-01  0.11787986428E-01 -0.81702019556E-01  0.85841265989E-01  0.51100000000E-03 0.  1.
         11    1    4    4    0    0  0.22700667989E-02  0.88093625066E-02 -0.45368006609E-01  0.46273915068E-01  0.51100000000E-03 0. -1.
</event>
<event>
 8    1  0.1233916E+005  0.1043930E+01  0.7957747E-01            NaN
         13   -1    0    0    0    0  0.00000000000E+00  0.00000000000E+00  0.74505805969E-08  0.10566000000E+00  0.10566000000E+00 0. -1.
     999900   -1    0    0    0    0 -0.00000000000E+00 -0.00000000000E+00 -0.74505805969E-08  0.93827000000E+00  0.93827000000E+00 0. -1.
     999902    2    1    2    0    0 -0.30828529486E-01  0.22230330132E-03 -0.73834594351E-03  0.10130918288E+01  0.10126223683E+01 0.  0.
     999903    2    3    3    0    0 -0.49700304838E-01  0.96361025935E-01 -0.60158312570E-01  0.12566322302E+00  0.20412139257E-01 0.  0.
         14    1    1    2    0    0  0.30828529486E-01 -0.22230330132E-03  0.73834594351E-03  0.30838171213E-01  0.00000000000E+00 0.  1.
     999901    1    3    3    0    0  0.18871775351E-01 -0.96138722633E-01  0.59419966626E-01  0.88742860576E+00  0.88000000000E+00 0. -1.
        -11    1    4    4    0    0 -0.11803021461E-01  0.11920392946E-01 -0.15705241607E-01  0.22985273950E-01  0.51100000000E-03 0. -1.
         11    1    4    4    0    0 -0.37897283376E-01  0.84440632989E-01 -0.44453070962E-01  0.10267794907E+00  0.51100000000E-03 0.  1.
</event>
<event>
 8    1  0.1233916E+005  0.1043930E+01  0.7957747E-01            NaN
         13   -1    0    0    0    0  0.00000000000E+00  0.00000000000E+00  0.74505805969E-08  0.10566000000E+00  0.10566000000E+00 0. -1.
     999900   -1    0    0    0    0 -0.00000000000E+00 -0.00000000000E+00 -0.74505805969E-08  0.93827000000E+00  0.93827000000E+00 0. -1.
     999902    2    1    2    0    0  0.37557859586E-02 -0.15324308045E-02  0.23433448969E-01  0.10201480572E+01  0.10198708143E+01 0.  0.
     999903    2    3    3    0    0 -0.71964724941E-01  0.39321626878E-02 -0.10336490760E+00  0.12782452800E+00  0.21457453148E-01 0.  0.
         14    1    1    2    0    0 -0.37557859586E-02  0.15324308045E-02 -0.23433448969E-01  0.23781942791E-01  0.00000000000E+00 0.  1.
     999901    1    3    3    0    0  0.75720510900E-01 -0.54645934923E-02  0.12679835657E+00  0.89232352921E+00  0.88000000000E+00 0.  1.
        -11    1    4    4    0    0 -0.33526639404E-01 -0.74571812514E-02 -0.38764393889E-01  0.51793671974E-01  0.51100000000E-03 0. -1.
         11    1    4    4    0    0 -0.38438085537E-01  0.11389343939E-01 -0.64600513711E-01  0.76030856024E-01  0.51100000000E-03 0.  1.
</event>
<event>
 8    1  0.1233916E+005  0.1043930E+01  0.7957747E-01            NaN
         13   -1    0    0    0    0  0.00000000000E+00  0.00000000000E+00  0.74505805969E-08  0.10566000000E+00  0.10566000000E+00 0. -1.
     999900   -1    0    0    0    0 -0.00000000000E+00 -0.00000000000E+00 -0.74505805969E-08  0.93827000000E+00  0.93827000000E+00 0. -1.
     999902    2    1    2    0    0 -0.44511664632E-02 -0.12951252045E-01  0.18950988720E-01  0.10205486445E+01  0.10202807692E+01 0.  0.
     999903    2    3    3    0    0 -0.12042572067E+00  0.40301667420E-01  0.26718903708E-01  0.13130946903E+00  0.20042411154E-01 0.  0.
         14    1    1    2    0    0  0.44511664632E-02  0.12951252045E-01 -0.18950988720E-01  0.23381355518E-01  0.00000000000E+00 0.  1.
     999901    1    3    3    0    0  0.11597455421E+00 -0.53252919465E-01 -0.77679149876E-02  0.88923917545E+00  0.88000000000E+00 0.  1.
        -11    1    4    4    0    0 -0.10624768834E+00  0.30192975523E-01  0.27651951962E-01  0.11386429913E+00  0.51100000000E-03 0. -1.
         11    1    4    4    0    0 -0.14178032336E-01  0.10108691897E-01 -0.93304825412E-03  0.17445169900E-01  0.51100000000E-03 0.  1.
</event>
<event>
 8    1  0.1233916E+005  0.1043930E+01  0.7957747E-01            NaN
         13   -1    0    0    0    0  0.00000000000E+00  0.00000000000E+00  0.74505805969E-08  0.10566000000E+00  0.10566000000E+00 0. -1.
     999900   -1    0    0    0    0 -0.00000000000E+00 -0.00000000000E+00 -0.74505805969E-08  0.93827000000E+00  0.93827000000E+00 0.  1.
     999902    2    1    2    0    0  0.20822508143E-01  0.13896515837E-01 -0.21326400981E-03  0.10188953145E+01  0.10185877117E+01 0.  0.
     999903    2    3    3    0    0 -0.79506364025E-01  0.87465976284E-01  0.47318647006E-01  0.12887417390E+00  0.19948418913E-01 0.  0.
         14    1    1    2    0    0 -0.20822508143E-01 -0.13896515837E-01  0.21326400981E-03  0.25034685524E-01  0.00000000000E+00 0.  1.
     999901    1    3    3    0    0  0.10032887217E+00 -0.73569460446E-01 -0.47531911016E-01  0.89002114057E+00  0.88000000000E+00 0.  1.
        -11    1    4    4    0    0 -0.25029029698E-01  0.41173520080E-01  0.15467843908E-01  0.50608560537E-01  0.51100000000E-03 0. -1.
         11    1    4    4    0    0 -0.54477334327E-01  0.46292456203E-01  0.31850803098E-01  0.78265613367E-01  0.51100000000E-03 0.  1.
</event>
<event>
 8    1  0.1233916E+005  0.1043930E+01  0.7957747E-01            NaN
         13   -1    0    0    0    0  0.00000000000E+00  0.00000000000E+00  0.74505805969E-08  0.10566000000E+00  0.10566000000E+00 0.  1.
     999900   -1    0    0    0    0 -0.00000000000E+00 -0.00000000000E+00 -0.74505805969E-08  0.93827000000E+00  0.93827000000E+00 0.  1.
     999902    2    1    2    0    0 -0.15713345322E-01  0.10184276731E-01  0.14461450419E-01  0.10202707045E+01  0.10199963472E+01 0.  0.
     999903    2    3    3    0    0  0.57504152616E-01  0.91157241969E-01 -0.67942652813E-01  0.12970467142E+00  0.24304883992E-01 0.  0.
         14    1    1    2    0    0  0.15713345322E-01 -0.10184276731E-01 -0.14461450419E-01  0.23659295466E-01  0.00000000000E+00 0. -1.
     999901    1    3    3    0    0 -0.73217497938E-01 -0.80972965238E-01  0.82404103231E-01  0.89056603311E+00  0.88000000000E+00 0. -1.
        -11    1    4    4    0    0  0.35678926877E-01  0.41512535318E-01 -0.23432130522E-01  0.59544960101E-01  0.51100000000E-03 0. -1.
         11    1    4    4    0    0  0.21825225739E-01  0.49644706651E-01 -0.44510522291E-01  0.70159711321E-01  0.51100000000E-03 0.  1.
</event>
<event>
 8    1  0.1233916E+005  0.1043930E+01  0.7957747E-01            NaN
         13   -1    0    0    0    0  0.00000000000E+00  0.00000000000E+00  0.74505805969E-08  0.10566000000E+00  0.10566000000E+00 0. -1.
     999900   -1    0    0    0    0 -0.00000000000E+00 -0.00000000000E+00 -0.74505805969E-08  0.93827000000E+00  0.93827000000E+00 0.  1.
     999902    2    1    2    0    0 -0.18605428362E-01  0.56091010795E-02  0.14295792073E-01  0.10198054554E+01  0.10195200701E+01 0.  0.
     999903    2    3    3    0    0  0.99554948936E-01 -0.22166677199E-01  0.77134901304E-01  0.12925387227E+00  0.18820761489E-01 0.  0.
         14    1    1    2    0    0  0.18605428362E-01 -0.56091010795E-02 -0.14295792073E-01  0.24124544564E-01  0.00000000000E+00 0.  1.
     999901    1    3    3    0    0 -0.11816037730E+00  0.27775778279E-01 -0.62839109232E-01  0.89055158316E+00  0.88000000000E+00 0.  1.
        -11    1    4    4    0    0  0.26639311195E-01  0.47804154938E-03  0.26854260204E-01  0.37832444235E-01  0.51100000000E-03 0.  1.
         11    1    4    4    0    0  0.72915637741E-01 -0.22644718749E-01  0.50280641100E-01  0.91421428040E-01  0.51100000000E-03 0. -1.
</event>
<event>
 8    1  0.1233916E+005  0.1043930E+01  0.7957747E-01            NaN
         13   -1    0    0    0    0  0.00000000000E+00  0.00000000000E+00  0.74505805969E-08  0.10566000000E+00  0.10566000000E+00 0.  1.
     999900   -1    0    0    0    0 -0.00000000000E+00 -0.00000000000E+00 -0.74505805969E-08  0.93827000000E+00  0.93827000000E+00 0.  1.
     999902    2    1    2    0    0  0.49318119741E-02  0.22498567926E-01  0.58499746797E-02  0.10201659403E+01  0.10198891191E+01 0.  0.
     999903    2    3    3    0    0 -0.80605540685E-01  0.10391013840E+00 -0.77969597769E-02  0.13217341710E+00  0.10698109763E-01 0.  0.
         14    1    1    2    0    0 -0.49318119741E-02 -0.22498567926E-01 -0.58499746797E-02  0.23764059666E-01  0.00000000000E+00 0. -1.
     999901    1    3    3    0    0  0.85537352659E-01 -0.81411570479E-01  0.13646934457E-01  0.88799252324E+00  0.88000000000E+00 0. -1.
        -11    1    4    4    0    0 -0.57642575979E-01  0.79122603965E-01 -0.93827616161E-02  0.98343023953E-01  0.51100000000E-03 0. -1.
         11    1    4    4    0    0 -0.22962964706E-01  0.24787534440E-01  0.15858018392E-02  0.33830393142E-01  0.51100000000E-03 0.  1.
</event>
<event>
 8    1  0.1233916E+005  0.1043930E+01  0.7957747E-01            NaN
         13   -1    0    0    0    0  0.00000000000E+00  0.00000000000E+00  0.74505805969E-08  0.10566000000E+00  0.10566000000E+00 0.  1.
     999900   -1    0    0    0    0 -0.00000000000E+00 -0.00000000000E+00 -0.74505805969E-08  0.93827000000E+00  0.93827000000E+00 0.  1.
     999902    2    1    2    0    0  0.56625301132E-02  0.18680068269E-01 -0.13123002223E-01  0.10204093201E+01  0.10201382054E+01 0.  0.
     999903    2    3    3    0    0  0.25281280917E-01  0.11796859718E+00  0.50585139268E-01  0.13232045364E+00  0.19852280730E-01 0.  0.
         14    1    1    2    0    0 -0.56625301132E-02 -0.18680068269E-01  0.13123002223E-01  0.23520679947E-01  0.00000000000E+00 0. -1.
     999901    1    3    3    0    0 -0.19618750804E-01 -0.99288528915E-01 -0.63708141491E-01  0.88808886641E+00  0.88000000000E+00 0.  1.
        -11    1    4    4    0    0  0.13970839882E-01  0.29703748284E-01  0.18768838887E-01  0.37815703925E-01  0.51100000000E-03 0.  1.
         11    1    4    4    0    0  0.11310441035E-01  0.88264848899E-01  0.31816300380E-01  0.94504749714E-01  0.51100000000E-03 0. -1.
</event>
<event>
 8    1  0.1233916E+005  0.1043930E+01  0.7957747E-01            NaN
         13   -1    0    0    0    0  0.00000000000E+00  0.00000000000E+00  0.74505805969E-08  0.10566000000E+00  0.10566000000E+00 0.  1.
     999900   -1    0    0    0    0 -0.00000000000E+00 -0.00000000000E+00 -0.74505805969E-08  0.93827000000E+00  0.93827000000E+00 0. -1.
     999902    2    1    2    0    0  0.12548309174E-01  0.19074145007E-01  0.14294490555E-01  0.10169927483E+01  0.10166359400E+01 0.  0.
     999903    2    3    3    0    0  0.21991595499E-01 -0.59538284414E-01 -0.10616360015E+00  0.12526451537E+00  0.19800283601E-01 0.  0.
         14    1    1    2    0    0 -0.12548309174E-01 -0.19074145007E-01 -0.14294490555E-01  0.26937251736E-01  0.00000000000E+00 0.  1.
     999901    1    3    3    0    0 -0.94432863247E-02  0.78612429420E-01  0.12045809071E+00  0.89172823289E+00  0.88000000000E+00 0.  1.
        -11    1    4    4    0    0  0.87415963128E-02 -0.36305784346E-01 -0.44809526572E-01  0.58332497595E-01  0.51100000000E-03 0.  1.
         11    1    4    4    0    0  0.13249999186E-01 -0.23232500068E-01 -0.61354073582E-01  0.66932017779E-01  0.51100000000E-03 0. -1.
</event>
<event>
 8    1  0.1233916E+005  0.1043930E+01  0.7957747E-01            NaN
         13   -1    0    0    0    0  0.00000000000E+00  0.00000000000E+00  0.74505805969E-08  0.10566000000E+00  0.10566000000E+00 0. -1.
     999900   -1    0    0    0    0 -0.00000000000E+00 -0.00000000000E+00 -0.74505805969E-08  0.93827000000E+00  0.93827000000E+00 0. -1.
     999902    2    1    2    0    0 -0.22007358988E-01 -0.94536677745E-02 -0.15038072707E-02  0.10199308933E+01  0.10196485032E+01 0.  0.
     999903    2    3    3    0    0 -0.10936200866E+00  0.69425526654E-01  0.15644173548E-01  0.13192930811E+00  0.19510240455E-01 0.  0.
         14    1    1    2    0    0  0.22007358988E-01  0.94536677745E-02  0.15038072707E-02  0.23999106657E-01  0.00000000000E+00 0. -1.
     999901    1    3    3    0    0  0.87354649672E-01 -0.78879194429E-01 -0.17147980819E-01  0.88800158523E+00  0.88000000000E+00 0. -1.
        -11    1    4    4    0    0 -0.74790901054E-01  0.36389260367E-01  0.95348849608E-02  0.83719963586E-01  0.51100000000E-03 0.  1.
         11    1    4    4    0    0 -0.34571107605E-01  0.33036266287E-01  0.61092885874E-02  0.48209344522E-01  0.51100000000E-03 0. -1.
</event>
<event>
 8    1  0.1233916E+005  0.1043930E+01  0.7957747E-01            NaN
         13   -1    0    0    0    0  0.00000000000E+00  0.00000000000E+00  0.74505805969E-08  0.10566000000E+00  0.10566000000E+00 0. -1.
     999900   -1    0    0    0    0 -0.00000000000E+00 -0.00000000000E+00 -0.74505805969E-08  0.93827000000E+00  0.93827000000E+00 0.  1.
     999902    2    1    2    0    0 -0.39393909911E-02 -0.66003777057E-02 -0.22051211129E-01  0.10205774905E+01  0.10203102834E+01 0.  0.
     999903    2    3    3    0    0  0.96943825688E-01 -0.59530630800E-01 -0.64288786135E-01  0.13222899592E+00  0.20235068482E-01 0.  0.
         14    1    1    2    0    0  0.39393909911E-02  0.66003777057E-02  0.22051211129E-01  0.23352509490E-01  0.00000000000E+00 0. -1.
     999901    1    3    3    0    0 -0.10088321668E+00  0.52930253094E-01  0.42237575006E-01  0.88834849459E+00  0.88000000000E+00 0. -1.
        -11    1    4    4    0    0  0.48198757339E-01 -0.27014808897E-01 -0.19947752211E-01  0.58746013039E-01  0.51100000000E-03 0. -1.
         11    1    4    4    0    0  0.48745068350E-01 -0.32515821904E-01 -0.44341033924E-01  0.73482982880E-01  0.51100000000E-03 0.  1.
</event>
<event>
 8    1  0.1233916E+005  0.1043930E+01  0.7957747E-01            NaN
         13   -1    0    0    0    0  0.00000000000E+00  0.00000000000E+00  0.74505805969E-08  0.10566000000E+00  0.10566000000E+00 0.  1.
     999900   -1    0    0    0    0 -0.00000000000E+00 -0.00000000000E+00 -0.74505805969E-08  0.93827000000E+00  0.93827000000E+00 0. -1.
     999902    2    1    2    0    0 -0.54933126678E-02  0.18906787282E-01 -0.12953487840E-01  0.10203623116E+01  0.10200900994E+01 0.  0.
     999903    2    3    3    0    0  0.11634080471E+00  0.56977152576E-01 -0.61562794173E-03  0.13106757550E+00  0.19918624293E-01 0.  0.
         14    1    1    2    0    0  0.54933126678E-02 -0.18906787282E-01  0.12953487840E-01  0.23567688402E-01  0.00000000000E+00 0.  1.
     999901    1    3    3    0    0 -0.12183411737E+00 -0.38070365294E-01 -0.12337859898E-01  0.88929473610E+00  0.88000000000E+00 0.  1.
        -11    1    4    4    0    0  0.76990189627E-01  0.46501338558E-01 -0.51446633867E-02  0.90092133224E-01  0.51100000000E-03 0.  1.
         11    1    4    4    0    0  0.39350615079E-01  0.10475814018E-01  0.45290354450E-02  0.40975442274E-01  0.51100000000E-03 0. -1.
</event>
<event>
 8    1  0.1233916E+005  0.1043930E+01  0.7957747E-01            NaN
         13   -1    0    0    0    0  0.00000000000E+00  0.00000000000E+00  0.74505805969E-08  0.10566000000E+00  0.10566000000E+00 0. -1.
     999900   -1    0    0    0    0 -0.00000000000E+00 -0.00000000000E+00 -0.74505805969E-08  0.93827000000E+00  0.93827000000E+00 0.  1.
     999902    2    1    2    0    0 -0.20522090587E-01  0.11171142084E-01 -0.19640335208E-02  0.10204820140E+01  0.10202125920E+01 0.  0.
     999903    2    3    3    0    0  0.48947668677E-01  0.45010329596E-01 -0.11047141024E+00  0.13045673976E+00  0.19829887313E-01 0.  0.
         14    1    1    2    0    0  0.20522090587E-01 -0.11171142084E-01  0.19640335208E-02  0.23447985952E-01  0.00000000000E+00 0.  1.
     999901    1    3    3    0    0 -0.69469759264E-01 -0.33839187512E-01  0.10850737672E+00  0.89002527428E+00  0.88000000000E+00 0. -1.
        -11    1    4    4    0    0  0.22739349697E-01  0.24825701313E-01 -0.37875267530E-01  0.50677317232E-01  0.51100000000E-03 0.  1.
         11    1    4    4    0    0  0.26208318980E-01  0.20184628283E-01 -0.72596142706E-01  0.79779422532E-01  0.51100000000E-03 0. -1.
</event>
<event>
 8    1  0.1233916E+005  0.1043930E+01  0.7957747E-01            NaN
         13   -1    0    0    0    0  0.00000000000E+00  0.00000000000E+00  0.74505805969E-08  0.10566000000E+00  0.10566000000E+00 0. -1.
     999900   -1    0    0    0    0 -0.00000000000E+00 -0.00000000000E+00 -0.74505805969E-08  0.93827000000E+00  0.93827000000E+00 0. -1.
     999902    2    1    2    0    0 -0.78701468777E-02  0.17217420100E-01  0.14701965472E-01  0.10199607164E+01  0.10196790360E+01 0.  0.
     999903    2    3    3    0    0  0.47255838743E-01  0.11987836240E+00 -0.18481558505E-01  0.13165936573E+00  0.19715083411E-01 0.  0.
         14    1    1    2    0    0  0.78701468777E-02 -0.17217420100E-01 -0.14701965472E-01  0.23969283584E-01  0.00000000000E+00 0.  1.
     999901    1    3    3    0    0 -0.55125985620E-01 -0.10266094230E+00  0.33183523977E-01  0.88830135068E+00  0.88000000000E+00 0.  1.
        -11    1    4    4    0    0  0.14279703962E-01  0.61937431510E-01 -0.11865783942E-01  0.64662302131E-01  0.51100000000E-03 0.  1.
         11    1    4    4    0    0  0.32976134780E-01  0.57940930887E-01 -0.66157745625E-02  0.66997063601E-01  0.51100000000E-03 0. -1.
</event>
<event>
 8    1  0.1233916E+005  0.1043930E+01  0.7957747E-01            NaN
         13   -1    0    0    0    0  0.00000000000E+00  0.00000000000E+00  0.74505805969E-08  0.10566000000E+00  0.10566000000E+00 0.  1.
     999900   -1    0    0    0    0 -0.00000000000E+00 -0.00000000000E+00 -0.74505805969E-08  0.93827000000E+00  0.93827000000E+00 0.  1.
     999902    2    1    2    0    0  0.18681484715E-01  0.13577163847E-01  0.10355689609E-01  0.10186203663E+01  0.10183058839E+01 0.  0.
     999903    2    3    3    0    0  0.43012249998E-01  0.11512014207E+00 -0.40922359731E-01  0.13096480198E+00  0.19350428221E-01 0.  0.
         14    1    1    2    0    0 -0.18681484715E-01 -0.13577163847E-01 -0.10355689609E-01  0.25309633671E-01  0.00000000000E+00 0.  1.
     999901    1    3    3    0    0 -0.24330765283E-01 -0.10154297823E+00  0.51278049341E-01  0.88765556434E+00  0.88000000000E+00 0. -1.
        -11    1    4    4    0    0  0.40993742332E-01  0.94305397727E-01 -0.28802433463E-01  0.10678874587E+00  0.51100000000E-03 0.  1.
         11    1    4    4    0    0  0.20185076660E-02  0.20814744345E-01 -0.12119926268E-01  0.24176056112E-01  0.51100000000E-03 0. -1.
</event>
<event>
 8    1  0.1233916E+005  0.1043930E+01  0.7957747E-01            NaN
         13   -1    0    0    0    0  0.00000000000E+00  0.00000000000E+00  0.74505805969E-08  0.10566000000E+00  0.10566000000E+00 0. -1.
     999900   -1    0    0    0    0 -0.00000000000E+00 -0.00000000000E+00 -0.74505805969E-08  0.93827000000E+00  0.93827000000E+00 0. -1.
     999902    2    1    2    0    0 -0.17702124518E-02 -0.23847961128E-02  0.23343442402E-01  0.10203983786E+01  0.10201270086E+01 0.  0.
     999903    2    3    3    0    0  0.15652101682E-01  0.30429851013E-01 -0.12146859872E+00  0.12778935701E+00  0.20113059705E-01 0.  0.
         14    1    1    2    0    0  0.17702124518E-02  0.23847961128E-02 -0.23343442402E-01  0.23531621445E-01  0.00000000000E+00 0.  1.
     999901    1    3    3    0    0 -0.17422314134E-01 -0.32814647126E-01  0.14481204112E+00  0.89260902155E+00  0.88000000000E+00 0.  1.
        -11    1    4    4    0    0  0.63537027435E-03  0.18697727282E-01 -0.79828230341E-01  0.81992781275E-01  0.51100000000E-03 0.  1.
         11    1    4    4    0    0  0.15016731408E-01  0.11732123732E-01 -0.41640368374E-01  0.45796575732E-01  0.51100000000E-03 0. -1.
</event>
<event>
 8    1  0.1233916E+005  0.1043930E+01  0.7957747E-01            NaN
         13   -1    0    0    0    0  0.00000000000E+00  0.00000000000E+00  0.74505805969E-08  0.10566000000E+00  0.10566000000E+00 0. -1.
     999900   -1    0    0    0    0 -0.00000000000E+00 -0.00000000000E+00 -0.74505805969E-08  0.93827000000E+00  0.93827000000E+00 0. -1.
     999902    2    1    2    0    0 -0.13481262580E-01  0.18782499143E-01  0.25583798771E-02  0.10206690451E+01  0.10204039532E+01 0.  0.
     999903    2    3    3    0    0  0.80653262924E-01 -0.93743786436E-01  0.27170584314E-01  0.12818418000E+00  0.20002425734E-01 0.  0.
         14    1    1    2    0    0  0.13481262580E-01 -0.18782499143E-01 -0.25583798771E-02  0.23260954890E-01  0.00000000000E+00 0. -1.
     999901    1    3    3    0    0 -0.94134525504E-01  0.11252628558E+00 -0.24612204437E-01  0.89248486511E+00  0.88000000000E+00 0. -1.
        -11    1    4    4    0    0  0.45863430226E-01 -0.58768382314E-01  0.25612239440E-01  0.78825280983E-01  0.51100000000E-03 0.  1.
         11    1    4    4    0    0  0.34789832698E-01 -0.34975404123E-01  0.15583448736E-02  0.49358899020E-01  0.51100000000E-03 0. -1.
</event>
<event>
 8    1  0.1233916E+005  0.1043930E+01  0.7957747E-01            NaN
         13   -1    0    0    0    0  0.00000000000E+00  0.00000000000E+00  0.74505805969E-08  0.10566000000E+00  0.10566000000E+00 0.  1.
     999900   -1    0    0    0    0 -0.00000000000E+00 -0.00000000000E+00 -0.74505805969E-08  0.93827000000E+00  0.93827000000E+00 0.  1.
     999902    2    1    2    0    0 -0.14162242140E-02 -0.14918804037E-01  0.17989533343E-01  0.10205163349E+01  0.10202477101E+01 0.  0.
     999903    2    3    3    0    0 -0.12105061686E+00 -0.13789703897E-01 -0.41918926465E-01  0.13040247343E+00  0.20104748322E-01 0.  0.
         14    1    1    2    0    0  0.14162242140E-02  0.14918804037E-01 -0.17989533343E-01  0.23413665130E-01  0.00000000000E+00 0. -1.
     999901    1    3    3    0    0  0.11963439265E+00 -0.11291001399E-02  0.59908459808E-01  0.89011386144E+00  0.88000000000E+00 0. -1.
        -11    1    4    4    0    0 -0.87125770553E-01 -0.16621913957E-01 -0.23807166317E-01  0.91838065132E-01  0.51100000000E-03 0.  1.
         11    1    4    4    0    0 -0.33924846306E-01  0.28322100605E-02 -0.18111760149E-01  0.38564408299E-01  0.51100000000E-03 0. -1.
</event>
<event>
 8    1  0.1233916E+005  0.1043930E+01  0.7957747E-01            NaN
         13   -1    0    0    0    0  0.00000000000E+00  0.00000000000E+00  0.74505805969E-08  0.10566000000E+00  0.10566000000E+00 0.  1.
     999900   -1    0    0    0    0 -0.00000000000E+00 -0.00000000000E+00 -0.74505805969E-08  0.93827000000E+00  0.93827000000E+00 0. -1.
     999902    2    1    2    0    0 -0.12228917178E-01 -0.11508962831E-01  0.16425711648E-01  0.10204394350E+01  0.10201690222E+01 0.  0.
     999903    2    3    3    0    0 -0.43986172672E-01 -0.92351938708E-01  0.83801519749E-01  0.13360032358E+00  0.19044363463E-01 0.  0.
         14    1    1    2    0    0  0.12228917178E-01  0.11508962831E-01 -0.16425711648E-01  0.23490564998E-01  0.00000000000E+00 0. -1.
     999901    1    3    3    0    0  0.31757255494E-01  0.80842975877E-01 -0.67375808101E-01  0.88683911142E+00  0.88000000000E+00 0. -1.
        -11    1    4    4    0    0 -0.16795261994E-01 -0.52667510142E-01  0.37289149079E-01  0.66683500283E-01  0.51100000000E-03 0.  1.
         11    1    4    4    0    0 -0.27190910679E-01 -0.39684428566E-01  0.46512370670E-01  0.66916823299E-01  0.51100000000E-03 0. -1.
</event>
<event>
 8    1  0.1233916E+005  0.1043930E+01  0.7957747E-01            NaN
         13   -1    0    0    0    0  0.00000000000E+00  0.00000000000E+00  0.74505805969E-08  0.10566000000E+00  0.10566000000E+00 0. -1.
     999900   -1    0    0    0    0 -0.00000000000E+00 -0.00000000000E+00 -0.74505805969E-08  0.93827000000E+00  0.93827000000E+00 0.  1.
     999902    2    1    2    0    0  0.14542395383E-01 -0.15507596026E-01 -0.10946303646E-01  0.10200179034E+01  0.10197375814E+01 0.  0.
     999903    2    3    3    0    0 -0.19151120141E-01  0.10786569917E+00  0.62539471712E-01  0.12774194718E+00  0.20125731982E-01 0.  0.
         14    1    1    2    0    0 -0.14542395383E-01  0.15507596026E-01  0.10946303646E-01  0.23912096552E-01  0.00000000000E+00 0. -1.
     999901    1    3    3    0    0  0.33693515524E-01 -0.12337329519E+00 -0.73485775357E-01  0.89227595627E+00  0.88000000000E+00 0.  1.
        -11    1    4    4    0    0 -0.17780228341E-01  0.97162283815E-01  0.62592280698E-01  0.11693887566E+00  0.51100000000E-03 0.  1.
         11    1    4    4    0    0 -0.13708917994E-02  0.10703415353E-01 -0.52808986426E-04  0.10803071523E-01  0.51100000000E-03 0. -1.
</event>
<event>
 8    1  0.1233916E+005  0.1043930E+01  0.7957747E-01            NaN
         13   -1    0    0    0    0  0.00000000000E+00  0.00000000000E+00  0.74505805969E-08  0.10566000000E+00  0.10566000000E+00 0. -1.
     999900   -1    0    0    0    0 -0.00000000000E+00 -0.00000000000E+00 -0.74505805969E-08  0.93827000000E+00  0.93827000000E+00 0.  1.
     999902    2    1    2    0    0  0.88400617491E-02  0.64954182945E-02  0.20597523633E-01  0.10205934379E+01  0.10203265999E+01 0.  0.
     999903    2    3    3    0    0  0.67052654623E-01 -0.10132472451E+00  0.46686643831E-01  0.13172081972E+00  0.20198350090E-01 0.  0.
         14    1    1    2    0    0 -0.88400617491E-02 -0.64954182945E-02 -0.20597523633E-01  0.23336562094E-01  0.00000000000E+00 0.  1.
     999901    1    3    3    0    0 -0.58212592874E-01  0.10782014281E+00 -0.26089120198E-01  0.88887261818E+00  0.88000000000E+00 0.  1.
        -11    1    4    4    0    0  0.49420434743E-01 -0.71896826927E-01  0.23648255637E-01  0.90393773060E-01  0.51100000000E-03 0.  1.
         11    1    4    4    0    0  0.17632219880E-01 -0.29427897587E-01  0.23038388194E-01  0.41327046663E-01  0.51100000000E-03 0. -1.
</event>
<event>
 8    1  0.1233916E+005  0.1043930E+01  0.7957747E-01            NaN
         13   -1    0    0    0    0  0.00000000000E+00  0.00000000000E+00  0.74505805969E-08  0.10566000000E+00  0.10566000000E+00 0. -1.
     999900   -1    0    0    0    0 -0.00000000000E+00 -0.00000000000E+00 -0.74505805969E-08  0.93827000000E+00  0.93827000000E+00 0. -1.
     999902    2    1    2    0    0  0.11464024223E-01 -0.19655239843E-01  0.43714543470E-04  0.10211757869E+01  0.10209222465E+01 0.  0.
     999903    2    3    3    0    0 -0.17360633179E-01  0.55815416112E-01 -0.11452035579E+00  0.13008005295E+00  0.19727037881E-01 0.  0.
         14    1    1    2    0    0 -0.11464024223E-01  0.19655239843E-01 -0.43714543470E-04  0.22754213140E-01  0.00000000000E+00 0. -1.
     999901    1    3    3    0    0  0.28824657402E-01 -0.75470655955E-01  0.11456407034E+00  0.89109573391E+00  0.88000000000E+00 0.  1.
        -11    1    4    4    0    0 -0.11176886454E-01  0.34670288804E-01 -0.90101103503E-01  0.97187559337E-01  0.51100000000E-03 0. -1.
         11    1    4    4    0    0 -0.61837467251E-02  0.21145127308E-01 -0.24419252291E-01  0.32892493610E-01  0.51100000000E-03 0.  1.
</event>
<event>
 8    1  0.1233916E+005  0.1043930E+01  0.7957747E-01            NaN
         13   -1    0    0    0    0  0.00000000000E+00  0.00000000000E+00  0.74505805969E-08  0.10566000000E+00  0.10566000000E+00 0. -1.
     999900   -1    0    0    0    0 -0.00000000000E+00 -0.00000000000E+00 -0.74505805969E-08  0.93827000000E+00  0.93827000000E+00 0.  1.
     999902    2    1    2    0    0 -0.13490675720E-01  0.11384237329E-01  0.13416721443E-01  0.10217577740E+01  0.10215171761E+01 0.  0.
     999903    2    3    3    0    0  0.70099276278E-01  0.80681645697E-01 -0.73047304450E-01  0.13087874819E+00  0.19232824876E-01 0.  0.
         14    1    1    2    0    0  0.13490675720E-01 -0.11384237329E-01 -0.13416721443E-01  0.22172225987E-01  0.00000000000E+00 0.  1.
     999901    1    3    3    0    0 -0.83589951998E-01 -0.69297408368E-01  0.86464025893E-01  0.89087902583E+00  0.88000000000E+00 0.  1.
        -11    1    4    4    0    0  0.41822735602E-01  0.57228178616E-01 -0.56200084078E-01  0.90459472762E-01  0.51100000000E-03 0.  1.
         11    1    4    4    0    0  0.28276540675E-01  0.23453467081E-01 -0.16847220372E-01  0.40419275426E-01  0.51100000000E-03 0. -1.
</event>
<event>
 8    1  0.1233916E+005  0.1043930E+01  0.7957747E-01            NaN
         13   -1    0    0    0    0  0.00000000000E+00  0.00000000000E+00  0.74505805969E-08  0.10566000000E+00  0.10566000000E+00 0. -1.
     999900   -1    0    0    0    0 -0.00000000000E+00 -0.00000000000E+00 -0.74505805969E-08  0.93827000000E+00  0.93827000000E+00 0.  1.
     999902    2    1    2    0    0  0.75503770781E-02  0.21385874092E-01 -0.55373185583E-02  0.10205842145E+01  0.10203171630E+01 0.  0.
     999903    2    3    3    0    0 -0.79518103629E-01 -0.98425532063E-01  0.53407820994E-02  0.12814148441E+00  0.19519270159E-01 0.  0.
         14    1    1    2    0    0 -0.75503770781E-02 -0.21385874092E-01  0.55373185583E-02  0.23345785519E-01  0.00000000000E+00 0. -1.
     999901    1    3    3    0    0  0.87068480707E-01  0.11981140615E+00 -0.10878100658E-01  0.89244273007E+00  0.88000000000E+00 0. -1.
        -11    1    4    4    0    0 -0.10094548501E-01 -0.64316766060E-02  0.47541809749E-02  0.12889132288E-01  0.51100000000E-03 0.  1.
         11    1    4    4    0    0 -0.69423555128E-01 -0.91993855457E-01  0.58660112453E-03  0.11525235212E+00  0.51100000000E-03 0. -1.
</event>
<event>
 7    1  0.1233916E+005  0.1043930E+01  0.7957747E-01            NaN
         13   -1    0    0    0    0  0.00000000000E+00  0.00000000000E+00  0.74505805969E-08  0.10566000000E+00  0.10566000000E+00 0. -1.
     999900   -1    0    0    0    0 -0.00000000000E+00 -0.00000000000E+00 -0.74505805969E-08  0.93827000000E+00  0.93827000000E+00 0. -1.
     999903    2    1    2    0    0  0.56201384219E-01 -0.49101191242E-01 -0.24750444874E-01  0.81071357569E-01  0.19760008276E-01 0.  0.
         14    1    1    2    0    0  0.25992024681E-01 -0.49923703682E-01 -0.43133125697E-01  0.70911410004E-01  0.00000000000E+00 0.  1.
     999901    1    1    2    0    0 -0.82193408901E-01  0.99024894924E-01  0.67883570571E-01  0.89194723243E+00  0.88000000000E+00 0. -1.
        -11    1    3    3    0    0  0.22309153667E-01 -0.32362068896E-01 -0.14540669283E-01  0.41912933860E-01  0.51100000000E-03 0. -1.
         11    1    3    3    0    0  0.33892230553E-01 -0.16739122346E-01 -0.10209775591E-01  0.39158423709E-01  0.51100000000E-03 0.  1.
</event>
<event>
 8    1  0.1233916E+005  0.1043930E+01  0.7957747E-01            NaN
         13   -1    0    0    0    0  0.00000000000E+00  0.00000000000E+00  0.74505805969E-08  0.10566000000E+00  0.10566000000E+00 0.  1.
     999900   -1    0    0    0    0 -0.00000000000E+00 -0.00000000000E+00 -0.74505805969E-08  0.93827000000E+00  0.93827000000E+00 0. -1.
     999902    2    1    2    0    0  0.24186891836E-01 -0.50596590589E-02  0.70330167140E-02  0.10182381879E+01  0.10179140131E+01 0.  0.
     999903    2    3    3    0    0 -0.64087753740E-01  0.10581251092E+00  0.18127663788E-01  0.12683023282E+00  0.21301833654E-01 0.  0.
         14    1    1    2    0    0 -0.24186891836E-01  0.50596590589E-02 -0.70330167140E-02  0.25691812131E-01  0.00000000000E+00 0. -1.
     999901    1    3    3    0    0  0.88274645576E-01 -0.11087216998E+00 -0.11094647074E-01  0.89140795505E+00  0.88000000000E+00 0.  1.
        -11    1    4    4    0    0 -0.21537512787E-01  0.18667765307E-01  0.55027186116E-02  0.29032584310E-01  0.51100000000E-03 0. -1.
         11    1    4    4    0    0 -0.42550240954E-01  0.87144745610E-01  0.12624945176E-01  0.97797648512E-01  0.51100000000E-03 0.  1.
</event>
<event>
 8    1  0.1233916E+005  0.1043930E+01  0.7957747E-01            NaN
         13   -1    0    0    0    0  0.00000000000E+00  0.00000000000E+00  0.74505805969E-08  0.10566000000E+00  0.10566000000E+00 0. -1.
     999900   -1    0    0    0    0 -0.00000000000E+00 -0.00000000000E+00 -0.74505805969E-08  0.93827000000E+00  0.93827000000E+00 0.  1.
     999902    2    1    2    0    0 -0.17912838443E-01  0.11594560597E-01 -0.10243628464E-01  0.10202607047E+01  0.10199861126E+01 0.  0.
     999903    2    3    3    0    0 -0.48417362948E-01 -0.10296071134E+00 -0.61465075701E-01  0.13083556843E+00  0.19870614521E-01 0.  0.
         14    1    1    2    0    0  0.17912838443E-01 -0.11594560597E-01  0.10243628464E-01  0.23669295313E-01  0.00000000000E+00 0. -1.
     999901    1    3    3    0    0  0.30504524505E-01  0.11455527194E+00  0.51221447237E-01  0.88942513625E+00  0.88000000000E+00 0. -1.
        -11    1    4    4    0    0 -0.27214589814E-01 -0.73140552847E-01 -0.34222067259E-01  0.85214936355E-01  0.51100000000E-03 0. -1.
         11    1    4    4    0    0 -0.21202773134E-01 -0.29820158494E-01 -0.27243008442E-01  0.45620632077E-01  0.51100000000E-03 0.  1.
</event>
<event>
 8    1  0.1233916E+005  0.1043930E+01  0.7957747E-01            NaN
         13   -1    0    0    0    0  0.00000000000E+00  0.00000000000E+00  0.74505805969E-08  0.10566000000E+00  0.10566000000E+00 0.  1.
     999900   -1    0    0    0    0 -0.00000000000E+00 -0.00000000000E+00 -0.74505805969E-08  0.93827000000E+00  0.93827000000E+00 0.  1.
     999902    2    1    2    0    0 -0.22627624788E-01  0.10536843433E-01 -0.72675668183E-03  0.10189587636E+01  0.10186527373E+01 0.  0.
     999903    2    3    3    0    0 -0.11785115244E+00  0.55104333358E-01 -0.15994984836E-01  0.13256895082E+00  0.19831931191E-01 0.  0.
         14    1    1    2    0    0  0.22627624788E-01 -0.10536843433E-01  0.72675668183E-03  0.24971236420E-01  0.00000000000E+00 0. -1.
     999901    1    3    3    0    0  0.95223527653E-01 -0.44567489924E-01  0.15268228154E-01  0.88638981276E+00  0.88000000000E+00 0. -1.
        -11    1    4    4    0    0 -0.52950992873E-01  0.30847068217E-01 -0.15777674116E-01  0.63281477426E-01  0.51100000000E-03 0. -1.
         11    1    4    4    0    0 -0.64900159568E-01  0.24257265141E-01 -0.21731072003E-03  0.69287473392E-01  0.51100000000E-03 0.  1.
</event>
<event>
 8    1  0.1233916E+005  0.1043930E+01  0.7957747E-01            NaN
         13   -1    0    0    0    0  0.00000000000E+00  0.00000000000E+00  0.74505805969E-08  0.10566000000E+00  0.10566000000E+00 0.  1.
     999900   -1    0    0    0    0 -0.00000000000E+00 -0.00000000000E+00 -0.74505805969E-08  0.93827000000E+00  0.93827000000E+00 0.  1.
     999902    2    1    2    0    0 -0.20225799302E-01 -0.55747681072E-02  0.10896308959E-01  0.10202891340E+01  0.10200152089E+01 0.  0.
     999903    2    3    3    0    0 -0.10927805940E+00  0.15878292087E-01  0.72100568526E-01  0.13342020331E+00  0.20214950939E-01 0.  0.
         14    1    1    2    0    0  0.20225799302E-01  0.55747681072E-02 -0.10896308959E-01  0.23640866012E-01  0.00000000000E+00 0. -1.
     999901    1    3    3    0    0  0.89052260103E-01 -0.21453060194E-01 -0.61204259567E-01  0.88686893068E+00  0.88000000000E+00 0.  1.
        -11    1    4    4    0    0 -0.55165272903E-01  0.61809384263E-02  0.24418129557E-01  0.60645836678E-01  0.51100000000E-03 0. -1.
         11    1    4    4    0    0 -0.54112786501E-01  0.96973536608E-02  0.47682438970E-01  0.72774366628E-01  0.51100000000E-03 0.  1.
</event>
<event>
 8    1  0.1233916E+005  0.1043930E+01  0.7957747E-01            NaN
         13   -1    0    0    0    0  0.00000000000E+00  0.00000000000E+00  0.74505805969E-08  0.10566000000E+00  0.10566000000E+00 0. -1.
     999900   -1    0    0    0    0 -0.00000000000E+00 -0.00000000000E+00 -0.74505805969E-08  0.93827000000E+00  0.93827000000E+00 0. -1.
     999902    2    1    2    0    0  0.17476191438E-01  0.14123560602E-01  0.68541346320E-02  0.10204380569E+01  0.10201676120E+01 0.  0.
     999903    2    3    3    0    0 -0.57014031814E-01 -0.23858279251E-01  0.11275658048E+00  0.13015341610E+00  0.20150631957E-01 0.  0.
         14    1    1    2    0    0 -0.17476191438E-01 -0.14123560602E-01 -0.68541346320E-02  0.23491943147E-01  0.00000000000E+00 0.  1.
     999901    1    3    3    0    0  0.74490223252E-01  0.37981839853E-01 -0.10590244585E+00  0.89028464075E+00  0.88000000000E+00 0. -1.
        -11    1    4    4    0    0 -0.43760402321E-01 -0.12319751083E-01  0.94166048237E-01  0.10456698733E+00  0.51100000000E-03 0.  1.
         11    1    4    4    0    0 -0.13253629493E-01 -0.11538528169E-01  0.18590532247E-01  0.25586428771E-01  0.51100000000E-03 0. -1.
</event>
<event>
 8    1  0.1233916E+005  0.1043930E+01  0.7957747E-01            NaN
         13   -1    0    0    0    0  0.00000000000E+00  0.00000000000E+00  0.74505805969E-08  0.10566000000E+00  0.10566000000E+00 0. -1.
     999900   -1    0    0    0    0 -0.00000000000E+00 -0.00000000000E+00 -0.74505805969E-08  0.93827000000E+00  0.93827000000E+00 0. -1.
     999902    2    1    2    0    0  0.98569132234E-02  0.21785599756E-01  0.42090667731E-02  0.10196506397E+01  0.10193615353E+01 0.  0.
     999903    2    3    3    0    0 -0.68609712986E-01 -0.30936024865E-01 -0.10179084313E+00  0.12826264220E+00  0.20630057878E-01 0.  0.
         14    1    1    2    0    0 -0.98569132234E-02 -0.21785599756E-01 -0.42090667731E-02  0.24279360332E-01  0.00000000000E+00 0.  1.
     999901    1    3    3    0    0  0.78466626209E-01  0.52721624621E-01  0.10599990991E+00  0.89138799747E+00  0.88000000000E+00 0.  1.
        -11    1    4    4    0    0 -0.54816347981E-01 -0.29152792343E-01 -0.92932717545E-01  0.11176523797E+00  0.51100000000E-03 0.  1.
         11    1    4    4    0    0 -0.13793365005E-01 -0.17832325226E-02 -0.88581255877E-02  0.16497404229E-01  0.51100000000E-03 0. -1.
</event>
<event>
 8    1  0.1233916E+005  0.1043930E+01  0.7957747E-01            NaN
         13   -1    0    0    0    0  0.00000000000E+00  0.00000000000E+00  0.74505805969E-08  0.10566000000E+00  0.10566000000E+00 0. -1.
     999900   -1    0    0    0    0 -0.00000000000E+00 -0.00000000000E+00 -0.74505805969E-08  0.93827000000E+00  0.93827000000E+00 0.  1.
     999902    2    1    2    0    0 -0.96716934500E-02 -0.21545660018E-01  0.22374089065E-02  0.10202073712E+01  0.10199315257E+01 0.  0.
     999903    2    3    3    0    0  0.27038177763E-01 -0.25424537781E-01  0.12414497269E+00  0.13103690695E+00  0.19525023955E-01 0.  0.
         14    1    1    2    0    0  0.96716934500E-02  0.21545660018E-01 -0.22374089065E-02  0.23722628826E-01  0.00000000000E+00 0.  1.
     999901    1    3    3    0    0 -0.36709871213E-01  0.38788777626E-02 -0.12190756379E+00  0.88917046422E+00  0.88000000000E+00 0.  1.
        -11    1    4    4    0    0  0.99962350399E-02 -0.93356896414E-02  0.78912228857E-01  0.80090453865E-01  0.51100000000E-03 0. -1.
         11    1    4    4    0    0  0.17041942723E-01 -0.16088848139E-01  0.45232743835E-01  0.50946453087E-01  0.51100000000E-03 0.  1.
</event>
<event>
 8    1  0.1233916E+005  0.1043930E+01  0.7957747E-01            NaN
         13   -1    0    0    0    0  0.00000000000E+00  0.00000000000E+00  0.74505805969E-08  0.10566000000E+00  0.10566000000E+00 0. -1.
     999900   -1    0    0    0    0 -0.00000000000E+00 -0.00000000000E+00 -0.74505805969E-08  0.93827000000E+00  0.93827000000E+00 0.  1.
     999902    2    1    2    0    0  0.50823018315E-02 -0.10972815367E-01 -0.20045308892E-01  0.10205195989E+01  0.10202510500E+01 0.  0.
     999903    2    3    3    0    0  0.11777110124E+00  0.18714474757E-01 -0.53882712312E-01  0.13219247982E+00  0.18741429516E-01 0.  0.
         14    1    1    2    0    0 -0.50823018315E-02  0.10972815367E-01  0.20045308892E-01  0.23410401055E-01  0.00000000000E+00 0. -1.
     999901    1    3    3    0    0 -0.11268879941E+00 -0.29687290124E-01  0.33837403419E-01  0.88832711913E+00  0.88000000000E+00 0.  1.
        -11    1    4    4    0    0  0.85479651593E-01  0.18352777532E-01 -0.46644881888E-01  0.99093901966E-01  0.51100000000E-03 0.  1.
         11    1    4    4    0    0  0.32291449652E-01  0.36169722500E-03 -0.72378304236E-02  0.33098577851E-01  0.51100000000E-03 0. -1.
</event>
<event>
 8    1  0.1233916E+005  0.1043930E+01  0.7957747E-01            NaN
         13   -1    0    0    0    0  0.00000000000E+00  0.00000000000E+00  0.74505805969E-08  0.10566000000E+00  0.10566000000E+00 0. -1.
     999900   -1    0    0    0    0 -0.00000000000E+00 -0.00000000000E+00 -0.74505805969E-08  0.93827000000E+00  0.93827000000E+00 0. -1.
     999902    2    1    2    0    0 -0.14089982114E-01  0.11014677490E-01 -0.45692786581E-02  0.10254711532E+01  0.10253050069E+01 0.  0.
     999903    2    3    3    0    0 -0.45149263115E-01  0.67681960719E-01 -0.10826640282E+00  0.13702928487E+00  0.20883178969E-01 0.  0.
         14    1    1    2    0    0  0.14089982114E-01 -0.11014677490E-01  0.45692786581E-02  0.18458846758E-01  0.00000000000E+00 0.  1.
     999901    1    3    3    0    0  0.31059281001E-01 -0.56667283229E-01  0.10369712416E+00  0.88844186838E+00  0.88000000000E+00 0. -1.
        -11    1    4    4    0    0 -0.23142404068E-01  0.45042118843E-01 -0.79812926408E-01  0.94523688453E-01  0.51100000000E-03 0. -1.
         11    1    4    4    0    0 -0.22006859047E-01  0.22639841876E-01 -0.28453476415E-01  0.42505596412E-01  0.51100000000E-03 0.  1.
</event>
<event>
 8    1  0.1233916E+005  0.1043930E+01  0.7957747E-01            NaN
         13   -1    0    0    0    0  0.00000000000E+00  0.00000000000E+00  0.74505805969E-08  0.10566000000E+00  0.10566000000E+00 0.  1.
     999900   -1    0    0    0    0 -0.00000000000E+00 -0.00000000000E+00 -0.74505805969E-08  0.93827000000E+00  0.93827000000E+00 0. -1.
     999902    2    1    2    0    0  0.20327363573E-01  0.11433841632E-01 -0.88508564700E-02  0.10189846176E+01  0.10186792325E+01 0.  0.
     999903    2    3    3    0    0 -0.34550160964E-01  0.52539237587E-01 -0.11326646342E+00  0.13016302959E+00  0.12611004275E-01 0.  0.
         14    1    1    2    0    0 -0.20327363573E-01 -0.11433841632E-01  0.88508564700E-02  0.24945382430E-01  0.00000000000E+00 0.  1.
     999901    1    3    3    0    0  0.54877524537E-01 -0.41105395954E-01  0.10441560695E+00  0.88882158798E+00  0.88000000000E+00 0.  1.
        -11    1    4    4    0    0 -0.22646688349E-01  0.42369180986E-01 -0.78585525147E-01  0.92108446270E-01  0.51100000000E-03 0.  1.
         11    1    4    4    0    0 -0.11903472614E-01  0.10170056601E-01 -0.34680938273E-01  0.38054583325E-01  0.51100000000E-03 0. -1.
</event>
<event>
 8    1  0.1233916E+005  0.1043930E+01  0.7957747E-01            NaN
         13   -1    0    0    0    0  0.00000000000E+00  0.00000000000E+00  0.74505805969E-08  0.10566000000E+00  0.10566000000E+00 0.  1.
     999900   -1    0    0    0    0 -0.00000000000E+00 -0.00000000000E+00 -0.74505805969E-08  0.93827000000E+00  0.93827000000E+00 0. -1.
     999902    2    1    2    0    0  0.21974905248E-01 -0.10078481645E-01  0.20801295115E-02  0.10196648152E+01  0.10193760524E+01 0.  0.
     999903    2    3    3    0    0 -0.12352894358E+00  0.54107797327E-02 -0.22179662396E-01  0.12725245273E+00  0.20311889735E-01 0.  0.
         14    1    1    2    0    0 -0.21974905248E-01  0.10078481645E-01 -0.20801295115E-02  0.24265184766E-01  0.00000000000E+00 0.  1.
     999901    1    3    3    0    0  0.14550384882E+00 -0.15489261378E-01  0.24259791907E-01  0.89241236250E+00  0.88000000000E+00 0.  1.
        -11    1    4    4    0    0 -0.33759194102E-01 -0.72235702076E-02 -0.36220492934E-02  0.34716617276E-01  0.51100000000E-03 0.  1.
         11    1    4    4    0    0 -0.89769749473E-01  0.12634349940E-01 -0.18557613102E-01  0.92535835458E-01  0.51100000000E-03 0. -1.
</event>
<event>
 8    1  0.1233916E+005  0.1043930E+01  0.7957747E-01            NaN
         13   -1    0    0    0    0  0.00000000000E+00  0.00000000000E+00  0.74505805969E-08  0.10566000000E+00  0.10566000000E+00 0. -1.
     999900   -1    0    0    0    0 -0.00000000000E+00 -0.00000000000E+00 -0.74505805969E-08  0.93827000000E+00  0.93827000000E+00 0.  1.
     999902    2    1    2    0    0 -0.19522423021E-01 -0.15893490725E-01  0.87259231636E-02  0.10172866184E+01  0.10169376550E+01 0.  0.
     999903    2    3    3    0    0  0.82741430436E-01 -0.56596574419E-01 -0.74500101800E-01  0.12653344946E+00  0.20276393103E-01 0.  0.
         14    1    1    2    0    0  0.19522423021E-01  0.15893490725E-01 -0.87259231636E-02  0.26643381600E-01  0.00000000000E+00 0.  1.
     999901    1    3    3    0    0 -0.10226385346E+00  0.40703083694E-01  0.83226024964E-01  0.89075316894E+00  0.88000000000E+00 0. -1.
        -11    1    4    4    0    0  0.23757002583E-01 -0.27810708614E-01 -0.24585007419E-01  0.44073965060E-01  0.51100000000E-03 0.  1.
         11    1    4    4    0    0  0.58984427853E-01 -0.28785865805E-01 -0.49915094381E-01  0.82459484399E-01  0.51100000000E-03 0. -1.
</event>
<event>
 8    1  0.1233916E+005  0.1043930E+01  0.7957747E-01            NaN
         13   -1    0    0    0    0  0.00000000000E+00  0.00000000000E+00  0.74505805969E-08  0.10566000000E+00  0.10566000000E+00 0.  1.
     999900   -1    0    0    0    0 -0.00000000000E+00 -0.00000000000E+00 -0.74505805969E-08  0.93827000000E+00  0.93827000000E+00 0.  1.
     999902    2    1    2    0    0  0.19520580548E-01 -0.12989714320E-01  0.74423332821E-03  0.10204706815E+01  0.10202009959E+01 0.  0.
     999903    2    3    3    0    0 -0.31372198607E-01 -0.11425923545E+00 -0.54065253771E-01  0.13151080005E+00  0.18238726215E-01 0.  0.
         14    1    1    2    0    0 -0.19520580548E-01  0.12989714320E-01 -0.74423332821E-03  0.23459318539E-01  0.00000000000E+00 0.  1.
     999901    1    3    3    0    0  0.50892779155E-01  0.10126952113E+00  0.54809487099E-01  0.88895988141E+00  0.88000000000E+00 0. -1.
        -11    1    4    4    0    0 -0.27179854585E-01 -0.96922436177E-01 -0.38307899256E-01  0.10770542881E+00  0.51100000000E-03 0.  1.
         11    1    4    4    0    0 -0.41923440216E-02 -0.17336799273E-01 -0.15757354515E-01  0.23805371237E-01  0.51100000000E-03 0. -1.
</event>
<event>
 8    1  0.1233916E+005  0.1043930E+01  0.7957747E-01            NaN
         13   -1    0    0    0    0  0.00000000000E+00  0.00000000000E+00  0.74505805969E-08  0.10566000000E+00  0.10566000000E+00 0.  1.
     999900   -1    0    0    0    0 -0.00000000000E+00 -0.00000000000E+00 -0.74505805969E-08  0.93827000000E+00  0.93827000000E+00 0. -1.
     999902    2    1    2    0    0 -0.18981533816E-01  0.36985884708E-02 -0.17195158423E-01  0.10180523715E+01  0.10177234298E+01 0.  0.
     999903    2    3    3    0    0  0.40171397584E-01 -0.29065068209E-01  0.11374608650E+00  0.12579784723E+00  0.20697990214E-01 0.  0.
         14    1    1    2    0    0  0.18981533816E-01 -0.36985884708E-02  0.17195158423E-01  0.25877628482E-01  0.00000000000E+00 0.  1.
     999901    1    3    3    0    0 -0.59152931400E-01  0.32763656680E-01 -0.13094124492E+00  0.89225452429E+00  0.88000000000E+00 0. -1.
        -11    1    4    4    0    0  0.37990261693E-01 -0.20251200652E-01  0.80019259716E-01  0.90866463328E-01  0.51100000000E-03 0. -1.
         11    1    4    4    0    0  0.21811358909E-02 -0.88138675572E-02  0.33726826787E-01  0.34931383900E-01  0.51100000000E-03 0.  1.
</event>
<event>
 8    1  0.1233916E+005  0.1043930E+01  0.7957747E-01            NaN
         13   -1    0    0    0    0  0.00000000000E+00  0.00000000000E+00  0.74505805969E-08  0.10566000000E+00  0.10566000000E+00 0. -1.
     999900   -1    0    0    0    0 -0.00000000000E+00 -0.00000000000E+00 -0.74505805969E-08  0.93827000000E+00  0.93827000000E+00 0. -1.
     999902    2    1    2    0    0 -0.70570834759E-02  0.24358678367E-02 -0.22586850427E-01  0.10201413117E+01  0.10198639096E+01 0.  0.
     999903    2    3    3    0    0 -0.10101462062E+00 -0.39321734111E-01 -0.73999135117E-01  0.13266458573E+00  0.19335665391E-01 0.  0.
         14    1    1    2    0    0  0.70570834759E-02 -0.24358678367E-02  0.22586850427E-01  0.23788688310E-01  0.00000000000E+00 0. -1.
     999901    1    3    3    0    0  0.93957537143E-01  0.41757601948E-01  0.51412284691E-01  0.88747672596E+00  0.88000000000E+00 0.  1.
        -11    1    4    4    0    0 -0.77322013275E-01 -0.32390375747E-01 -0.66044758585E-01  0.10672394968E+00  0.51100000000E-03 0. -1.
         11    1    4    4    0    0 -0.23692607344E-01 -0.69313583649E-02 -0.79543765318E-02  0.25940636048E-01  0.51100000000E-03 0.  1.
</event>
<event>
 8    1  0.1233916E+005  0.1043930E+01  0.7957747E-01            NaN
         13   -1    0    0    0    0  0.00000000000E+00  0.00000000000E+00  0.74505805969E-08  0.10566000000E+00  0.10566000000E+00 0. -1.
     999900   -1    0    0    0    0 -0.00000000000E+00 -0.00000000000E+00 -0.74505805969E-08  0.93827000000E+00  0.93827000000E+00 0.  1.
     999902    2    1    2    0    0  0.79633444287E-02  0.21564733063E-01  0.23487092553E-01  0.10110651847E+01  0.10105309058E+01 0.  0.
     999903    2    3    3    0    0 -0.19966891240E-01  0.42797782017E-01  0.11459103980E+00  0.12566647813E+00  0.20751636849E-01 0.  0.
         14    1    1    2    0    0 -0.79633444287E-02 -0.21564733063E-01 -0.23487092553E-01  0.32864815277E-01  0.00000000000E+00 0.  1.
     999901    1    3    3    0    0  0.27930235669E-01 -0.21233048954E-01 -0.91103947247E-01  0.88539870659E+00  0.88000000000E+00 0.  1.
        -11    1    4    4    0    0  0.40739177771E-03  0.20823844928E-01  0.58014042415E-01  0.61641615196E-01  0.51100000000E-03 0. -1.
         11    1    4    4    0    0 -0.20374283018E-01  0.21973937089E-01  0.56576997385E-01  0.64024862934E-01  0.51100000000E-03 0.  1.
</event>
<event>
 8    1  0.1233916E+005  0.1043930E+01  0.7957747E-01            NaN
         13   -1    0    0    0    0  0.00000000000E+00  0.00000000000E+00  0.74505805969E-08  0.10566000000E+00  0.10566000000E+00 0.  1.
     999900   -1    0    0    0    0 -0.00000000000E+00 -0.00000000000E+00 -0.74505805969E-08  0.93827000000E+00  0.93827000000E+00 0.  1.
     999902    2    1    2    0    0 -0.81003391564E-02  0.26537494378E-01  0.32791986428E-02  0.10159906506E+01  0.10156064173E+01 0.  0.
     999903    2    3    3    0    0 -0.45653857090E-01  0.11289220985E+00 -0.40547700644E-01  0.12988219181E+00  0.19908340219E-01 0.  0.
         14    1    1    2    0    0  0.81003391564E-02 -0.26537494378E-01 -0.32791986428E-02  0.27939349421E-01  0.00000000000E+00 0.  1.
     999901    1    3    3    0    0  0.37553517933E-01 -0.86354715475E-01  0.43826899287E-01  0.88610845877E+00  0.88000000000E+00 0.  1.
        -11    1    4    4    0    0 -0.28098984742E-01  0.43889123163E-01 -0.14950562160E-01  0.54217972162E-01  0.51100000000E-03 0. -1.
         11    1    4    4    0    0 -0.17554872348E-01  0.69003086690E-01 -0.25597138484E-01  0.75664219652E-01  0.51100000000E-03 0.  1.
</event>
<event>
 8    1  0.1233916E+005  0.1043930E+01  0.7957747E-01            NaN
         13   -1    0    0    0    0  0.00000000000E+00  0.00000000000E+00  0.74505805969E-08  0.10566000000E+00  0.10566000000E+00 0. -1.
     999900   -1    0    0    0    0 -0.00000000000E+00 -0.00000000000E+00 -0.74505805969E-08  0.93827000000E+00  0.93827000000E+00 0.  1.
     999902    2    1    2    0    0 -0.33569341373E-02  0.22525102699E-01 -0.74597793742E-02  0.10199654936E+01  0.10196839268E+01 0.  0.
     999903    2    3    3    0    0  0.18508201258E-01 -0.11149810264E+00 -0.56771110583E-01  0.12818530146E+00  0.20835837089E-01 0.  0.
         14    1    1    2    0    0  0.33569341373E-02 -0.22525102699E-01  0.74597793742E-02  0.23964506394E-01  0.00000000000E+00 0. -1.
     999901    1    3    3    0    0 -0.21865135395E-01  0.13402320534E+00  0.49311331209E-01  0.89178019214E+00  0.88000000000E+00 0. -1.
        -11    1    4    4    0    0 -0.45007231005E-02 -0.15956736171E-01 -0.66841281338E-02  0.17883305834E-01  0.51100000000E-03 0. -1.
         11    1    4    4    0    0  0.23008924359E-01 -0.95541366472E-01 -0.50086982449E-01  0.11030199563E+00  0.51100000000E-03 0.  1.
</event>
<event>
 8    1  0.1233916E+005  0.1043930E+01  0.7957747E-01            NaN
         13   -1    0    0    0    0  0.00000000000E+00  0.00000000000E+00  0.74505805969E-08  0.10566000000E+00  0.10566000000E+00 0.  1.
     999900   -1    0    0    0    0 -0.00000000000E+00 -0.00000000000E+00 -0.74505805969E-08  0.93827000000E+00  0.93827000000E+00 0.  1.
     999902    2    1    2    0    0  0.26445970001E-02  0.12470633232E-01  0.19887124188E-01  0.10203078008E+01  0.10200343132E+01 0.  0.
     999903    2    3    3    0    0  0.24951408005E-01 -0.54087722223E-01 -0.11140388768E+00  0.12780293342E+00  0.19357405412E-01 0.  0.
         14    1    1    2    0    0 -0.26445970001E-02 -0.12470633232E-01 -0.19887124188E-01  0.23622199198E-01  0.00000000000E+00 0. -1.
     999901    1    3    3    0    0 -0.22306811005E-01  0.66558355455E-01  0.13129101187E+00  0.89250486738E+00  0.88000000000E+00 0. -1.
        -11    1    4    4    0    0 -0.19855929452E-03 -0.18177963078E-01 -0.41163801995E-01  0.45002194204E-01  0.51100000000E-03 0. -1.
         11    1    4    4    0    0  0.25149967300E-01 -0.35909759145E-01 -0.70240085685E-01  0.82800739218E-01  0.51100000000E-03 0.  1.
</event>
<event>
 8    1  0.1233916E+005  0.1043930E+01  0.7957747E-01            NaN
         13   -1    0    0    0    0  0.00000000000E+00  0.00000000000E+00  0.74505805969E-08  0.10566000000E+00  0.10566000000E+00 0. -1.
     999900   -1    0    0    0    0 -0.00000000000E+00 -0.00000000000E+00 -0.74505805969E-08  0.93827000000E+00  0.93827000000E+00 0.  1.
     999902    2    1    2    0    0 -0.55916073288E-02  0.17727889047E-01 -0.14729348466E-01  0.10202129633E+01  0.10199372494E+01 0.  0.
     999903    2    3    3    0    0  0.36813886468E-01 -0.29194921399E-01 -0.12107331709E+00  0.13155722812E+00  0.20998821069E-01 0.  0.
         14    1    1    2    0    0  0.55916073288E-02 -0.17727889047E-01  0.14729348466E-01  0.23717036678E-01  0.00000000000E+00 0. -1.
     999901    1    3    3    0    0 -0.42405493797E-01  0.46922810445E-01  0.10634396863E+00  0.88865573520E+00  0.88000000000E+00 0. -1.
        -11    1    4    4    0    0  0.77116528430E-02 -0.18946009341E-01 -0.43525523781E-01  0.48095251335E-01  0.51100000000E-03 0.  1.
         11    1    4    4    0    0  0.29102233625E-01 -0.10248912058E-01 -0.77547793311E-01  0.83461976785E-01  0.51100000000E-03 0. -1.
</event>
<event>
 8    1  0.1233916E+005  0.1043930E+01  0.7957747E-01            NaN
         13   -1    0    0    0    0  0.00000000000E+00  0.00000000000E+00  0.74505805969E-08  0.10566000000E+00  0.10566000000E+00 0.  1.
     999900   -1    0    0    0    0 -0.00000000000E+00 -0.00000000000E+00 -0.74505805969E-08  0.93827000000E+00  0.93827000000E+00 0.  1.
     999902    2    1    2    0    0 -0.20466907940E-01  0.14109369940E-02  0.57064001279E-02  0.10226356800E+01  0.10224139503E+01 0.  0.
     999903    2    3    3    0    0 -0.24190109649E-01 -0.78940939343E-01 -0.10161239218E+00  0.13247411628E+00  0.20186132151E-01 0.  0.
         14    1    1    2    0    0  0.20466907940E-01 -0.14109369940E-02 -0.57064001279E-02  0.21294320046E-01  0.00000000000E+00 0.  1.
     999901    1    3    3    0    0  0.37232017090E-02  0.80351876337E-01  0.10731879230E+00  0.89016156367E+00  0.88000000000E+00 0.  1.
        -11    1    4    4    0    0 -0.27217533725E-01 -0.61132305285E-01 -0.79406822933E-01  0.10384439099E+00  0.51100000000E-03 0.  1.
         11    1    4    4    0    0  0.30274240767E-02 -0.17808634058E-01 -0.22205569243E-01  0.28629725286E-01  0.51100000000E-03 0. -1.
</event>
<event>
 8    1  0.1233916E+005  0.1043930E+01  0.7957747E-01            NaN
         13   -1    0    0    0    0  0.00000000000E+00  0.00000000000E+00  0.74505805969E-08  0.10566000000E+00  0.10566000000E+00 0. -1.
     999900   -1    0    0    0    0 -0.00000000000E+00 -0.00000000000E+00 -0.74505805969E-08  0.93827000000E+00  0.93827000000E+00 0.  1.
     999902    2    1    2    0    0  0.62747225482E-02  0.20963021497E-01  0.79802125646E-02  0.10206382803E+01  0.10203724786E+01 0.  0.
     999903    2    3    3    0    0  0.35405863147E-01 -0.50437172921E-02 -0.12329265520E+00  0.13004435510E+00  0.20771163584E-01 0.  0.
         14    1    1    2    0    0 -0.62747225482E-02 -0.20963021497E-01 -0.79802125646E-02  0.23291719686E-01  0.00000000000E+00 0.  1.
     999901    1    3    3    0    0 -0.29131140599E-01  0.26006738790E-01  0.13127286777E+00  0.89059392521E+00  0.88000000000E+00 0. -1.
        -11    1    4    4    0    0  0.37296071944E-01 -0.29256435538E-02 -0.10375017620E+00  0.11029014714E+00  0.51100000000E-03 0.  1.
         11    1    4    4    0    0 -0.18902087970E-02 -0.21180737383E-02 -0.19542479002E-01  0.19754207962E-01  0.51100000000E-03 0. -1.
</event>
<event>
 8    1  0.1233916E+005  0.1043930E+01  0.7957747E-01            NaN
         13   -1    0    0    0    0  0.00000000000E+00  0.00000000000E+00  0.74505805969E-08  0.10566000000E+00  0.10566000000E+00 0.  1.
     999900   -1    0    0    0    0 -0.00000000000E+00 -0.00000000000E+00 -0.74505805969E-08  0.93827000000E+00  0.93827000000E+00 0. -1.
     999902    2    1    2    0    0  0.17247797330E-01  0.31771445595E-02 -0.16272630908E-01  0.10200055506E+01  0.10197249355E+01 0.  0.
     999903    2    3    3    0    0 -0.54683049513E-01 -0.10772951774E+00  0.38935710198E-01  0.12842140128E+00  0.19498253273E-01 0.  0.
         14    1    1    2    0    0 -0.17247797330E-01 -0.31771445595E-02  0.16272630908E-01  0.23924449355E-01  0.00000000000E+00 0. -1.
     999901    1    3    3    0    0  0.71930846843E-01  0.11090666230E+00 -0.55208341106E-01  0.89158414936E+00  0.88000000000E+00 0. -1.
        -11    1    4    4    0    0 -0.34917018724E-01 -0.52167254515E-01  0.13592896375E-01  0.64231211985E-01  0.51100000000E-03 0. -1.
         11    1    4    4    0    0 -0.19766030789E-01 -0.55562263229E-01  0.25342813823E-01  0.64190189295E-01  0.51100000000E-03 0.  1.
</event>
<event>
 8    1  0.1233916E+005  0.1043930E+01  0.7957747E-01            NaN
         13   -1    0    0    0    0  0.00000000000E+00  0.00000000000E+00  0.74505805969E-08  0.10566000000E+00  0.10566000000E+00 0. -1.
     999900   -1    0    0    0    0 -0.00000000000E+00 -0.00000000000E+00 -0.74505805969E-08  0.93827000000E+00  0.93827000000E+00 0.  1.
     999902    2    1    2    0    0  0.10514081744E-01 -0.11968113957E-01 -0.17519469702E-01  0.10202506105E+01  0.10199757815E+01 0.  0.
     999903    2    3    3    0    0 -0.53738428011E-01 -0.11384502746E+00 -0.33655243508E-01  0.13189952357E+00  0.20403430621E-01 0.  0.
         14    1    1    2    0    0 -0.10514081744E-01  0.11968113957E-01  0.17519469702E-01  0.23679389461E-01  0.00000000000E+00 0. -1.
     999901    1    3    3    0    0  0.64252509755E-01  0.10187691350E+00  0.16135773806E-01  0.88835108696E+00  0.88000000000E+00 0. -1.
        -11    1    4    4    0    0 -0.39309735583E-01 -0.60227383233E-01 -0.21356236189E-01  0.75026281714E-01  0.51100000000E-03 0.  1.
         11    1    4    4    0    0 -0.14428692428E-01 -0.53617644227E-01 -0.12299007319E-01  0.56873241860E-01  0.51100000000E-03 0. -1.
</event>
<event>
 8    1  0.1233916E+005  0.1043930E+01  0.7957747E-01            NaN
         13   -1    0    0    0    0  0.00000000000E+00  0.00000000000E+00  0.74505805969E-08  0.10566000000E+00  0.10566000000E+00 0.  1.
     999900   -1    0    0    0    0 -0.00000000000E+00 -0.00000000000E+00 -0.74505805969E-08  0.93827000000E+00  0.93827000000E+00 0. -1.
     999902    2    1    2    0    0 -0.96992242359E-02 -0.16129629692E-01 -0.92555477759E-02  0.10229560860E+01  0.10227410468E+01 0.  0.
     999903    2    3    3    0    0  0.38422674371E-01 -0.10443034210E+00  0.71022836772E-01  0.13359825475E+00  0.20548773005E-01 0.  0.
         14    1    1    2    0    0  0.96992242359E-02  0.16129629692E-01  0.92555477759E-02  0.20973914023E-01  0.00000000000E+00 0.  1.
     999901    1    3    3    0    0 -0.48121898607E-01  0.88300712410E-01 -0.80278384548E-01  0.88935783123E+00  0.88000000000E+00 0. -1.
        -11    1    4    4    0    0  0.22306109436E-01 -0.45725640938E-01  0.21984821821E-01  0.55425538056E-01  0.51100000000E-03 0. -1.
         11    1    4    4    0    0  0.16116564936E-01 -0.58704701164E-01  0.49038014951E-01  0.78172716695E-01  0.51100000000E-03 0.  1.
</event>
<event>
 8    1  0.1233916E+005  0.1043930E+01  0.7957747E-01            NaN
         13   -1    0    0    0    0  0.00000000000E+00  0.00000000000E+00  0.74505805969E-08  0.10566000000E+00  0.10566000000E+00 0. -1.
     999900   -1    0    0    0    0 -0.00000000000E+00 -0.00000000000E+00 -0.74505805969E-08  0.93827000000E+00  0.93827000000E+00 0.  1.
     999902    2    1    2    0    0 -0.18876090626E-01  0.14769226327E-01 -0.16573975960E-02  0.10199053499E+01  0.10196223512E+01 0.  0.
     999903    2    3    3    0    0 -0.10944517610E+00  0.87301989123E-02  0.71073829988E-01  0.13225166716E+00  0.19609977352E-01 0.  0.
         14    1    1    2    0    0  0.18876090626E-01 -0.14769226327E-01  0.16573975960E-02  0.24024650058E-01  0.00000000000E+00 0.  1.
     999901    1    3    3    0    0  0.90569085476E-01  0.60390274150E-02 -0.72731227584E-01  0.88765368279E+00  0.88000000000E+00 0.  1.
        -11    1    4    4    0    0 -0.74815290364E-01  0.14260231468E-02  0.38523522319E-01  0.84164625034E-01  0.51100000000E-03 0.  1.
         11    1    4    4    0    0 -0.34629885738E-01  0.73041757655E-02  0.32550307669E-01  0.48087042123E-01  0.51100000000E-03 0. -1.
</event>
<event>
 8    1  0.1233916E+005  0.1043930E+01  0.7957747E-01            NaN
         13   -1    0    0    0    0  0.00000000000E+00  0.00000000000E+00  0.74505805969E-08  0.10566000000E+00  0.10566000000E+00 0.  1.
     999900   -1    0    0    0    0 -0.00000000000E+00 -0.00000000000E+00 -0.74505805969E-08  0.93827000000E+00  0.93827000000E+00 0.  1.
     999902    2    1    2    0    0 -0.19141064521E-01 -0.14870117141E-01 -0.13943644868E-02  0.10196515118E+01  0.10193624285E+01 0.  0.
     999903    2    3    3    0    0  0.91301673220E-01 -0.84824123226E-01  0.31056225047E-01  0.12940199511E+00  0.15787964094E-01 0.  0.
         14    1    1    2    0    0  0.19141064521E-01  0.14870117141E-01  0.13943644868E-02  0.24278488155E-01  0.00000000000E+00 0.  1.
     999901    1    3    3    0    0 -0.11044273774E+00  0.69954006085E-01 -0.32450589534E-01  0.89024951674E+00  0.88000000000E+00 0. -1.
        -11    1    4    4    0    0  0.18962743772E-01 -0.12472967047E-01  0.83068088990E-03  0.22718092131E-01  0.51100000000E-03 0. -1.
         11    1    4    4    0    0  0.72338929447E-01 -0.72351156179E-01  0.30225544158E-01  0.10668390298E+00  0.51100000000E-03 0.  1.
</event>
<event>
 8    1  0.1233916E+005  0.1043930E+01  0.7957747E-01            NaN
         13   -1    0    0    0    0  0.00000000000E+00  0.00000000000E+00  0.74505805969E-08  0.10566000000E+00  0.10566000000E+00 0.  1.
     999900   -1    0    0    0    0 -0.00000000000E+00 -0.00000000000E+00 -0.74505805969E-08  0.93827000000E+00  0.93827000000E+00 0.  1.
     999902    2    1    2    0    0 -0.11037587799E-01 -0.80502086705E-02 -0.20228511460E-01  0.10195204347E+01  0.10192281834E+01 0.  0.
     999903    2    3    3    0    0  0.79031726126E-01  0.98548202941E-01  0.14887745612E-02  0.12825877657E+00  0.22143515556E-01 0.  0.
         14    1    1    2    0    0  0.11037587799E-01  0.80502086705E-02  0.20228511460E-01  0.24409565337E-01  0.00000000000E+00 0.  1.
     999901    1    3    3    0    0 -0.90069313924E-01 -0.10659841161E+00 -0.21717286021E-01  0.89126165809E+00  0.88000000000E+00 0. -1.
        -11    1    4    4    0    0  0.23022206855E-01  0.15372070621E-01 -0.32003979897E-02  0.27871602608E-01  0.51100000000E-03 0.  1.
         11    1    4    4    0    0  0.56009519271E-01  0.83176132319E-01  0.46891725509E-02  0.10038717397E+00  0.51100000000E-03 0. -1.
</event>
<event>
 8    1  0.1233916E+005  0.1043930E+01  0.7957747E-01            NaN
         13   -1    0    0    0    0  0.00000000000E+00  0.00000000000E+00  0.74505805969E-08  0.10566000000E+00  0.10566000000E+00 0.  1.
     999900   -1    0    0    0    0 -0.00000000000E+00 -0.00000000000E+00 -0.74505805969E-08  0.93827000000E+00  0.93827000000E+00 0.  1.
     999902    2    1    2    0    0 -0.17415895498E-01 -0.57796543108E-02  0.14549304032E-01  0.10205120567E+01  0.10202433327E+01 0.  0.
     999903    2    3    3    0    0 -0.53086732265E-01 -0.92626994277E-01 -0.73502162652E-01  0.13114827859E+00  0.19983539504E-01 0.  0.
         14    1    1    2    0    0  0.17415895498E-01  0.57796543108E-02 -0.14549304032E-01  0.23417943286E-01  0.00000000000E+00 0. -1.
     999901    1    3    3    0    0  0.35670836767E-01  0.86847339966E-01  0.88051466684E-01  0.88936377812E+00  0.88000000000E+00 0. -1.
        -11    1    4    4    0    0 -0.21594867861E-01 -0.35782852636E-01 -0.17322095894E-01  0.45244524397E-01  0.51100000000E-03 0. -1.
         11    1    4    4    0    0 -0.31491864403E-01 -0.56844141641E-01 -0.56180066757E-01  0.85903754193E-01  0.51100000000E-03 0.  1.
</event>
<event>
 8    1  0.1233916E+005  0.1043930E+01  0.7957747E-01            NaN
         13   -1    0    0    0    0  0.00000000000E+00  0.00000000000E+00  0.74505805969E-08  0.10566000000E+00  0.10566000000E+00 0. -1.
     999900   -1    0    0    0    0 -0.00000000000E+00 -0.00000000000E+00 -0.74505805969E-08  0.93827000000E+00  0.93827000000E+00 0.  1.
     999902    2    1    2    0    0  0.19281005070E-01  0.56580584103E-03  0.13394935128E-01  0.10204459292E+01  0.10201756677E+01 0.  0.
     999903    2    3    3    0    0 -0.14424473104E-01 -0.12740750986E+00  0.13963325868E-01  0.13055068154E+00  0.20193241138E-01 0.  0.
         14    1    1    2    0    0 -0.19281005070E-01 -0.56580584103E-03 -0.13394935128E-01  0.23484070768E-01  0.00000000000E+00 0. -1.
     999901    1    3    3    0    0  0.33705478174E-01  0.12797331571E+00 -0.56839073995E-03  0.88989524769E+00  0.88000000000E+00 0. -1.
        -11    1    4    4    0    0 -0.16185589822E-01 -0.55498943907E-01  0.43058621567E-02  0.57973335790E-01  0.51100000000E-03 0.  1.
         11    1    4    4    0    0  0.17611167179E-02 -0.71908565958E-01  0.96574637116E-02  0.72577345753E-01  0.51100000000E-03 0. -1.
</event>
<event>
 8    1  0.1233916E+005  0.1043930E+01  0.7957747E-01            NaN
         13   -1    0    0    0    0  0.00000000000E+00  0.00000000000E+00  0.74505805969E-08  0.10566000000E+00  0.10566000000E+00 0. -1.
     999900   -1    0    0    0    0 -0.00000000000E+00 -0.00000000000E+00 -0.74505805969E-08  0.93827000000E+00  0.93827000000E+00 0.  1.
     999902    2    1    2    0    0  0.18011999901E-01  0.66231900154E-03  0.15708412183E-01  0.10200213191E+01  0.10197410782E+01 0.  0.
     999903    2    3    3    0    0  0.88987851023E-01  0.23421597368E-01  0.94381564271E-01  0.13337312451E+00  0.20324906239E-01 0.  0.
         14    1    1    2    0    0 -0.18011999901E-01 -0.66231900154E-03 -0.15708412183E-01  0.23908680855E-01  0.00000000000E+00 0.  1.
     999901    1    3    3    0    0 -0.70975851122E-01 -0.22759278367E-01 -0.78673152088E-01  0.88664819464E+00  0.88000000000E+00 0.  1.
        -11    1    4    4    0    0  0.50044632627E-01  0.28186399747E-02  0.52384258828E-01  0.72503666666E-01  0.51100000000E-03 0. -1.
         11    1    4    4    0    0  0.38943218396E-01  0.20602957394E-01  0.41997305443E-01  0.60869457842E-01  0.51100000000E-03 0.  1.
</event>
<event>
 8    1  0.1233916E+005  0.1043930E+01  0.7957747E-01            NaN
         13   -1    0    0    0    0  0.00000000000E+00  0.00000000000E+00  0.74505805969E-08  0.10566000000E+00  0.10566000000E+00 0. -1.
     999900   -1    0    0    0    0 -0.00000000000E+00 -0.00000000000E+00 -0.74505805969E-08  0.93827000000E+00  0.93827000000E+00 0.  1.
     999902    2    1    2    0    0  0.92606208959E-02 -0.17483087905E-01 -0.13257577502E-01  0.10201144416E+01  0.10198364051E+01 0.  0.
     999903    2    3    3    0    0 -0.31422910993E-01  0.10840696603E+00  0.55571950627E-01  0.12756698659E+00  0.21109826001E-01 0.  0.
         14    1    1    2    0    0 -0.92606208959E-02  0.17483087905E-01  0.13257577502E-01  0.23815558430E-01  0.00000000000E+00 0.  1.
     999901    1    3    3    0    0  0.40683531888E-01 -0.12589005393E+00 -0.68829528129E-01  0.89254745498E+00  0.88000000000E+00 0.  1.
        -11    1    4    4    0    0 -0.24200804415E-01  0.62141946615E-01  0.41993409185E-01  0.78809948607E-01  0.51100000000E-03 0. -1.
         11    1    4    4    0    0 -0.72221065774E-02  0.46265019410E-01  0.13578541442E-01  0.48757037986E-01  0.51100000000E-03 0.  1.
</event>
<event>
 8    1  0.1233916E+005  0.1043930E+01  0.7957747E-01            NaN
         13   -1    0    0    0    0  0.00000000000E+00  0.00000000000E+00  0.74505805969E-08  0.10566000000E+00  0.10566000000E+00 0. -1.
     999900   -1    0    0    0    0 -0.00000000000E+00 -0.00000000000E+00 -0.74505805969E-08  0.93827000000E+00  0.93827000000E+00 0.  1.
     999902    2    1    2    0    0 -0.33710133113E-02  0.21869030176E-01 -0.68489709213E-02  0.10207669559E+01  0.10205041164E+01 0.  0.
     999903    2    3    3    0    0  0.47546437002E-01 -0.86374692252E-01  0.79795003698E-01  0.12845732992E+00  0.20317279881E-01 0.  0.
         14    1    1    2    0    0  0.33710133113E-02 -0.21869030176E-01  0.68489709213E-02  0.23163044149E-01  0.00000000000E+00 0. -1.
     999901    1    3    3    0    0 -0.50917450313E-01  0.10824372243E+00 -0.86643974619E-01  0.89230962593E+00  0.88000000000E+00 0.  1.
        -11    1    4    4    0    0  0.35554490527E-02 -0.24295496476E-01  0.20606257098E-01  0.32059184636E-01  0.51100000000E-03 0.  1.
         11    1    4    4    0    0  0.43990987949E-01 -0.62079195777E-01  0.59188746600E-01  0.96398145283E-01  0.51100000000E-03 0. -1.
</event>
<event>
 8    1  0.1233916E+005  0.1043930E+01  0.7957747E-01            NaN
         13   -1    0    0    0    0  0.00000000000E+00  0.00000000000E+00  0.74505805969E-08  0.10566000000E+00  0.10566000000E+00 0.  1.
     999900   -1    0    0    0    0 -0.00000000000E+00 -0.00000000000E+00 -0.74505805969E-08  0.93827000000E+00  0.93827000000E+00 0. -1.
     999902    2    1    2    0    0  0.31653323335E-02  0.12464441734E-01  0.20529285013E-01  0.10197053601E+01  0.10194175730E+01 0.  0.
     999903    2    3    3    0    0 -0.28434875218E-01 -0.76982376547E-01  0.99994444508E-01  0.13104681035E+00  0.20965427334E-01 0.  0.
         14    1    1    2    0    0 -0.31653323335E-02 -0.12464441734E-01 -0.20529285013E-01  0.24224639928E-01  0.00000000000E+00 0. -1.
     999901    1    3    3    0    0  0.31600207551E-01  0.89446818281E-01 -0.79465159495E-01  0.88865854972E+00  0.88000000000E+00 0. -1.
        -11    1    4    4    0    0 -0.21487329659E-02 -0.28541237529E-01  0.25198538123E-01  0.38137209358E-01  0.51100000000E-03 0. -1.
         11    1    4    4    0    0 -0.26286142252E-01 -0.48441139018E-01  0.74795906385E-01  0.92909600993E-01  0.51100000000E-03 0.  1.
</event>
<event>
 8    1  0.1233916E+005  0.1043930E+01  0.7957747E-01            NaN
         13   -1    0    0    0    0  0.00000000000E+00  0.00000000000E+00  0.74505805969E-08  0.10566000000E+00  0.10566000000E+00 0.  1.
     999900   -1    0    0    0    0 -0.00000000000E+00 -0.00000000000E+00 -0.74505805969E-08  0.93827000000E+00  0.93827000000E+00 0.  1.
     999902    2    1    2    0    0 -0.86159795415E-02  0.16167030859E-01 -0.12036435532E-01  0.10220100600E+01  0.10217749649E+01 0.  0.
     999903    2    3    3    0    0  0.25866170047E-01  0.45019574585E-01 -0.12191487284E+00  0.13403778625E+00  0.20176002434E-01 0.  0.
         14    1    1    2    0    0  0.86159795415E-02 -0.16167030859E-01  0.12036435532E-01  0.21919940022E-01  0.00000000000E+00 0.  1.
     999901    1    3    3    0    0 -0.34482149588E-01 -0.28852543726E-01  0.10987843731E+00  0.88797227373E+00  0.88000000000E+00 0. -1.
        -11    1    4    4    0    0  0.47579061851E-02  0.21029681318E-01 -0.31799343298E-01  0.38423228948E-01  0.51100000000E-03 0.  1.
         11    1    4    4    0    0  0.21108263862E-01  0.23989893267E-01 -0.90115529545E-01  0.95614557304E-01  0.51100000000E-03 0. -1.
</event>
<event>
 8    1  0.1233916E+005  0.1043930E+01  0.7957747E-01            NaN
         13   -1    0    0    0    0  0.00000000000E+00  0.00000000000E+00  0.74505805969E-08  0.10566000000E+00  0.10566000000E+00 0. -1.
     999900   -1    0    0    0    0 -0.00000000000E+00 -0.00000000000E+00 -0.74505805969E-08  0.93827000000E+00  0.93827000000E+00 0. -1.
     999902    2    1    2    0    0  0.91244600551E-02 -0.19804735365E-01 -0.10175140091E-01  0.10198672323E+01  0.10195833241E+01 0.  0.
     999903    2    3    3    0    0 -0.35634708244E-01 -0.12532615543E+00 -0.13167588379E-01  0.13242872287E+00  0.19685110907E-01 0.  0.
         14    1    1    2    0    0 -0.91244600551E-02  0.19804735365E-01  0.10175140091E-01  0.24062767714E-01  0.00000000000E+00 0. -1.
     999901    1    3    3    0    0  0.44759168299E-01  0.10552142007E+00  0.29924482880E-02  0.88743850941E+00  0.88000000000E+00 0. -1.
        -11    1    4    4    0    0 -0.11433289273E-01 -0.70042882241E-01 -0.12562391515E-01  0.72074962767E-01  0.51100000000E-03 0. -1.
         11    1    4    4    0    0 -0.24201418970E-01 -0.55283273191E-01 -0.60519686400E-03  0.60353760108E-01  0.51100000000E-03 0.  1.
</event>
<event>
 8    1  0.1233916E+005  0.1043930E+01  0.7957747E-01            NaN
         13   -1    0    0    0    0  0.00000000000E+00  0.00000000000E+00  0.74505805969E-08  0.10566000000E+00  0.10566000000E+00 0.  1.
     999900   -1    0    0    0    0 -0.00000000000E+00 -0.00000000000E+00 -0.74505805969E-08  0.93827000000E+00  0.93827000000E+00 0.  1.
     999902    2    1    2    0    0 -0.82979019924E-02 -0.20011903546E-01  0.12290443509E-01  0.10190224417E+01  0.10187179934E+01 0.  0.
     999903    2    3    3    0    0  0.57420357382E-01  0.78105540571E-01 -0.78790337570E-01  0.12647461037E+00  0.19756944692E-01 0.  0.
         14    1    1    2    0    0  0.82979019924E-02  0.20011903546E-01 -0.12290443509E-01  0.24907558344E-01  0.00000000000E+00 0. -1.
     999901    1    3    3    0    0 -0.65718259375E-01 -0.98117444117E-01  0.91080781079E-01  0.89254783129E+00  0.88000000000E+00 0. -1.
        -11    1    4    4    0    0  0.18486450329E-01  0.29709478694E-01 -0.40417696542E-01  0.53462634473E-01  0.51100000000E-03 0. -1.
         11    1    4    4    0    0  0.38933907053E-01  0.48396061878E-01 -0.38372641028E-01  0.73011975896E-01  0.51100000000E-03 0.  1.
</event>
<event>
 8    1  0.1233916E+005  0.1043930E+01  0.7957747E-01            NaN
         13   -1    0    0    0    0  0.00000000000E+00  0.00000000000E+00  0.74505805969E-08  0.10566000000E+00  0.10566000000E+00 0.  1.
     999900   -1    0    0    0    0 -0.00000000000E+00 -0.00000000000E+00 -0.74505805969E-08  0.93827000000E+00  0.93827000000E+00 0.  1.
     999902    2    1    2    0    0  0.18277153961E-01  0.50325397520E-02 -0.22859830608E-02  0.10248353271E+01  0.10246574263E+01 0.  0.
     999903    2    3    3    0    0  0.10119117779E+00 -0.61342717537E-02 -0.89381535513E-01  0.13658701259E+00  0.19740044747E-01 0.  0.
         14    1    1    2    0    0 -0.18277153961E-01 -0.50325397520E-02  0.22859830608E-02  0.19094672865E-01  0.00000000000E+00 0.  1.
     999901    1    3    3    0    0 -0.82914023827E-01  0.11166811506E-01  0.87095552452E-01  0.88824831454E+00  0.88000000000E+00 0. -1.
        -11    1    4    4    0    0  0.73055112661E-01  0.38095703938E-02 -0.58828082377E-01  0.93875272089E-01  0.51100000000E-03 0.  1.
         11    1    4    4    0    0  0.28136065127E-01 -0.99438421475E-02 -0.30553453136E-01  0.42711740506E-01  0.51100000000E-03 0. -1.
</event>
<event>
 8    1  0.1233916E+005  0.1043930E+01  0.7957747E-01            NaN
         13   -1    0    0    0    0  0.00000000000E+00  0.00000000000E+00  0.74505805969E-08  0.10566000000E+00  0.10566000000E+00 0. -1.
     999900   -1    0    0    0    0 -0.00000000000E+00 -0.00000000000E+00 -0.74505805969E-08  0.93827000000E+00  0.93827000000E+00 0.  1.
     999902    2    1    2    0    0 -0.20654822706E-01  0.15156481372E-01 -0.25472174047E-02  0.10181845354E+01  0.10178589879E+01 0.  0.
     999903    2    3    3    0    0  0.10735952141E+00 -0.20081602572E-01 -0.60138108683E-01  0.12636274517E+00  0.20533232847E-01 0.  0.
         14    1    1    2    0    0  0.20654822706E-01 -0.15156481372E-01  0.25472174047E-02  0.25745464554E-01  0.00000000000E+00 0.  1.
     999901    1    3    3    0    0 -0.12801434411E+00  0.35238083944E-01  0.57590891278E-01  0.89182179028E+00  0.88000000000E+00 0. -1.
        -11    1    4    4    0    0  0.78853645158E-01 -0.20835231341E-01 -0.51908896329E-01  0.96678843905E-01  0.51100000000E-03 0.  1.
         11    1    4    4    0    0  0.28505876251E-01  0.75362876928E-03 -0.82292123539E-02  0.29683901262E-01  0.51100000000E-03 0. -1.
</event>
<event>
 8    1  0.1233916E+005  0.1043930E+01  0.7957747E-01            NaN
         13   -1    0    0    0    0  0.00000000000E+00  0.00000000000E+00  0.74505805969E-08  0.10566000000E+00  0.10566000000E+00 0.  1.
     999900   -1    0    0    0    0 -0.00000000000E+00 -0.00000000000E+00 -0.74505805969E-08  0.93827000000E+00  0.93827000000E+00 0. -1.
     999902    2    1    2    0    0 -0.16289035369E-01 -0.12206444756E-01 -0.12745680160E-01  0.10199137070E+01  0.10196309074E+01 0.  0.
     999903    2    3    3    0    0  0.57832194407E-01  0.11107471160E+00  0.15506158978E-01  0.12778682890E+00  0.20171227188E-01 0.  0.
         14    1    1    2    0    0  0.16289035369E-01  0.12206444756E-01  0.12745680160E-01  0.24016293003E-01  0.00000000000E+00 0. -1.
     999901    1    3    3    0    0 -0.74121229776E-01 -0.12328115636E+00 -0.28251839138E-01  0.89212687810E+00  0.88000000000E+00 0.  1.
        -11    1    4    4    0    0  0.27914342066E-01  0.45794944608E-01  0.16014644294E-01  0.55974256561E-01  0.51100000000E-03 0. -1.
         11    1    4    4    0    0  0.29917852341E-01  0.65279766991E-01 -0.50848531650E-03  0.71812572335E-01  0.51100000000E-03 0.  1.
</event>
<event>
 8    1  0.1233916E+005  0.1043930E+01  0.7957747E-01            NaN
         13   -1    0    0    0    0  0.00000000000E+00  0.00000000000E+00  0.74505805969E-08  0.10566000000E+00  0.10566000000E+00 0.  1.
     999900   -1    0    0    0    0 -0.00000000000E+00 -0.00000000000E+00 -0.74505805969E-08  0.93827000000E+00  0.93827000000E+00 0.  1.
     999902    2    1    2    0    0  0.20785008260E-01  0.11424515804E-01  0.27493035937E-02  0.10200533419E+01  0.10197738600E+01 0.  0.
     999903    2    3    3    0    0 -0.47963199546E-01 -0.79671632030E-01  0.86730689814E-01  0.12871855778E+00  0.19955377731E-01 0.  0.
         14    1    1    2    0    0 -0.20785008260E-01 -0.11424515804E-01 -0.27493035937E-02  0.23876658057E-01  0.00000000000E+00 0.  1.
     999901    1    3    3    0    0  0.68748207806E-01  0.91096147834E-01 -0.83981386220E-01  0.89133478416E+00  0.88000000000E+00 0.  1.
        -11    1    4    4    0    0 -0.22484627933E-01 -0.29040705089E-01  0.46268791318E-01  0.59076079900E-01  0.51100000000E-03 0. -1.
         11    1    4    4    0    0 -0.25478571613E-01 -0.50630926941E-01  0.40461898496E-01  0.69642477880E-01  0.51100000000E-03 0.  1.
</event>
<event>
 8    1  0.1233916E+005  0.1043930E+01  0.7957747E-01            NaN
         13   -1    0    0    0    0  0.00000000000E+00  0.00000000000E+00  0.74505805969E-08  0.10566000000E+00  0.10566000000E+00 0. -1.
     999900   -1    0    0    0    0 -0.00000000000E+00 -0.00000000000E+00 -0.74505805969E-08  0.93827000000E+00  0.93827000000E+00 0. -1.
     999902    2    1    2    0    0 -0.14448111094E-01  0.12232543232E-01 -0.14477730754E-01  0.10200975071E+01  0.10198190704E+01 0.  0.
     999903    2    3    3    0    0 -0.26868557689E-01  0.15384626585E-02  0.12462520134E+00  0.12902048658E+00  0.19762562834E-01 0.  0.
         14    1    1    2    0    0  0.14448111094E-01 -0.12232543232E-01  0.14477730754E-01  0.23832492859E-01  0.00000000000E+00 0. -1.
     999901    1    3    3    0    0  0.12420446595E-01  0.10694080574E-01 -0.13910293209E+00  0.89107702056E+00  0.88000000000E+00 0. -1.
        -11    1    4    4    0    0  0.30358672733E-02  0.13706475455E-02  0.16123770730E-01  0.16472166474E-01  0.51100000000E-03 0. -1.
         11    1    4    4    0    0 -0.29904424962E-01  0.16781511303E-03  0.10850143061E+00  0.11254832011E+00  0.51100000000E-03 0.  1.
</event>
<event>
 8    1  0.1233916E+005  0.1043930E+01  0.7957747E-01            NaN
         13   -1    0    0    0    0  0.00000000000E+00  0.00000000000E+00  0.74505805969E-08  0.10566000000E+00  0.10566000000E+00 0.  1.
     999900   -1    0    0    0    0 -0.00000000000E+00 -0.00000000000E+00 -0.74505805969E-08  0.93827000000E+00  0.93827000000E+00 0. -1.
     999902    2    1    2    0    0  0.12157381894E-01 -0.67466377892E-02  0.20183841648E-01  0.10194206850E+01  0.10191260111E+01 0.  0.
     999903    2    3    3    0    0  0.53287286457E-01  0.11067919420E+00 -0.33987790393E-01  0.12901905612E+00  0.20033173002E-01 0.  0.
         14    1    1    2    0    0 -0.12157381894E-01  0.67466377892E-02 -0.20183841648E-01  0.24509314957E-01  0.00000000000E+00 0. -1.
     999901    1    3    3    0    0 -0.41129904563E-01 -0.11742583199E+00  0.54171632041E-01  0.89040162892E+00  0.88000000000E+00 0.  1.
        -11    1    4    4    0    0  0.46693993637E-01  0.10166508239E+00 -0.36269360973E-01  0.11760886738E+00  0.51100000000E-03 0. -1.
         11    1    4    4    0    0  0.65932928205E-02  0.90141118049E-02  0.22815705796E-02  0.11410188743E-01  0.51100000000E-03 0.  1.
</event>
<event>
 8    1  0.1233916E+005  0.1043930E+01  0.7957747E-01            NaN
         13   -1    0    0    0    0  0.00000000000E+00  0.00000000000E+00  0.74505805969E-08  0.10566000000E+00  0.10566000000E+00 0. -1.
     999900   -1    0    0    0    0 -0.00000000000E+00 -0.00000000000E+00 -0.74505805969E-08  0.93827000000E+00  0.93827000000E+00 0.  1.
     999902    2    1    2    0    0 -0.41584212606E-02  0.21973708655E-01  0.37898000701E-02  0.10212474313E+01  0.10209955029E+01 0.  0.
     999903    2    3    3    0    0 -0.66609445759E-01 -0.44327934020E-01  0.10197446309E+00  0.13111470728E+00  0.19760853806E-01 0.  0.
         14    1    1    2    0    0  0.41584212606E-02 -0.21973708655E-01 -0.37898000701E-02  0.22682568726E-01  0.00000000000E+00 0.  1.
     999901    1    3    3    0    0  0.62451024499E-01  0.66301642675E-01 -0.98184663017E-01  0.89013272400E+00  0.88000000000E+00 0.  1.
        -11    1    4    4    0    0 -0.11955829888E-01 -0.65989278879E-02  0.31187168503E-01  0.34049791744E-01  0.51100000000E-03 0. -1.
         11    1    4    4    0    0 -0.54653615872E-01 -0.37729006132E-01  0.70787294584E-01  0.97064915531E-01  0.51100000000E-03 0.  1.
</event>
<event>
 8    1  0.1233916E+005  0.1043930E+01  0.7957747E-01            NaN
         13   -1    0    0    0    0  0.00000000000E+00  0.00000000000E+00  0.74505805969E-08  0.10566000000E+00  0.10566000000E+00 0. -1.
     999900   -1    0    0    0    0 -0.00000000000E+00 -0.00000000000E+00 -0.74505805969E-08  0.93827000000E+00  0.93827000000E+00 0. -1.
     999902    2    1    2    0    0  0.39201020477E-02 -0.24525587724E-01  0.18045472073E-01  0.10132296626E+01  0.10127644536E+01 0.  0.
     999903    2    3    3    0    0 -0.62124400974E-01 -0.21086305546E-01  0.10612556464E+00  0.12636337746E+00  0.20024839956E-01 0.  0.
         14    1    1    2    0    0 -0.39201020477E-02  0.24525587724E-01 -0.18045472073E-01  0.30700337386E-01  0.00000000000E+00 0.  1.
     999901    1    3    3    0    0  0.66044503022E-01 -0.34392821787E-02 -0.88080092562E-01  0.88686628516E+00  0.88000000000E+00 0. -1.
        -11    1    4    4    0    0 -0.23800205773E-01 -0.18424806060E-01  0.43788784392E-01  0.53137952846E-01  0.51100000000E-03 0. -1.
         11    1    4    4    0    0 -0.38324195202E-01 -0.26614994860E-02  0.62336780243E-01  0.73225424611E-01  0.51100000000E-03 0.  1.
</event>
<event>
 8    1  0.1331755E+005  0.1043930E+01  0.7957747E-01            NaN
         13   -1    0    0    0    0  0.00000000000E+00  0.00000000000E+00  0.74505805969E-08  0.10566000000E+00  0.10566000000E+00 0. -1.
     999900   -1    0    0    0    0 -0.00000000000E+00 -0.00000000000E+00 -0.74505805969E-08  0.93827000000E+00  0.93827000000E+00 0.  1.
     999902    2    1    2    0    0  0.54420703420E-02  0.97326468425E-02  0.20017941200E-01  0.10210158447E+01  0.10207586867E+01 0.  0.
     999903    2    3    3    0    0 -0.77132394377E-01 -0.50663238528E-01 -0.87449763441E-01  0.12859469257E+00  0.19312271505E-01 0.  0.
         14    1    1    2    0    0 -0.54420703420E-02 -0.97326468425E-02 -0.20017941200E-01  0.22914155320E-01  0.00000000000E+00 0.  1.
     999901    1    3    3    0    0  0.82574464719E-01  0.60395885370E-01  0.10746770464E+00  0.89242115211E+00  0.88000000000E+00 0.  1.
        -11    1    4    4    0    0 -0.23558594695E-01 -0.25825196897E-01 -0.37269850966E-01  0.51100402061E-01  0.51100000000E-03 0. -1.
         11    1    4    4    0    0 -0.53573799682E-01 -0.24838041631E-01 -0.50179912475E-01  0.77494290509E-01  0.51100000000E-03 0.  1.
</event>
<event>
 8    1  0.1233916E+005  0.1043930E+01  0.7957747E-01            NaN
         13   -1    0    0    0    0  0.00000000000E+00  0.00000000000E+00  0.74505805969E-08  0.10566000000E+00  0.10566000000E+00 0. -1.
     999900   -1    0    0    0    0 -0.00000000000E+00 -0.00000000000E+00 -0.74505805969E-08  0.93827000000E+00  0.93827000000E+00 0. -1.
     999902    2    1    2    0    0  0.14107946050E-01 -0.25720415335E-01 -0.37844895462E-02  0.10143513545E+01  0.10139200038E+01 0.  0.
     999903    2    3    3    0    0 -0.10579667193E+00  0.36056791090E-01  0.46730893459E-01  0.12264212806E+00  0.19086309176E-01 0.  0.
         14    1    1    2    0    0 -0.14107946050E-01  0.25720415335E-01  0.37844895462E-02  0.29578645471E-01  0.00000000000E+00 0.  1.
     999901    1    3    3    0    0  0.11990461798E+00 -0.61777206426E-01 -0.50515383006E-01  0.89170922647E+00  0.88000000000E+00 0. -1.
        -11    1    4    4    0    0 -0.95705605541E-01  0.28999036033E-01  0.35955899673E-01  0.10627132664E+00  0.51100000000E-03 0.  1.
         11    1    4    4    0    0 -0.10091066384E-01  0.70577550576E-02  0.10774993786E-01  0.16370801426E-01  0.51100000000E-03 0. -1.
</event>
<event>
 8    1  0.1233916E+005  0.1043930E+01  0.7957747E-01            NaN
         13   -1    0    0    0    0  0.00000000000E+00  0.00000000000E+00  0.74505805969E-08  0.10566000000E+00  0.10566000000E+00 0. -1.
     999900   -1    0    0    0    0 -0.00000000000E+00 -0.00000000000E+00 -0.74505805969E-08  0.93827000000E+00  0.93827000000E+00 0. -1.
     999902    2    1    2    0    0 -0.14905037027E-01  0.43711622781E-02  0.17311168967E-01  0.10206718023E+01  0.10204067739E+01 0.  0.
     999903    2    3    3    0    0 -0.57714470543E-01  0.29305758425E-01 -0.11070329930E+00  0.13003041221E+00  0.21515111832E-01 0.  0.
         14    1    1    2    0    0  0.14905037027E-01 -0.43711622781E-02 -0.17311168967E-01  0.23258197682E-01  0.00000000000E+00 0.  1.
     999901    1    3    3    0    0  0.42809433517E-01 -0.24934596147E-01  0.12801446827E+00  0.89064139011E+00  0.88000000000E+00 0.  1.
        -11    1    4    4    0    0 -0.15754719209E-01  0.19566205111E-01 -0.39922664363E-01  0.47171260431E-01  0.51100000000E-03 0. -1.
         11    1    4    4    0    0 -0.41959751335E-01  0.97395533144E-02 -0.70780634937E-01  0.82859151781E-01  0.51100000000E-03 0.  1.
</event>
<event>
 8    1  0.1233916E+005  0.1043930E+01  0.7957747E-01            NaN
         13   -1    0    0    0    0  0.00000000000E+00  0.00000000000E+00  0.74505805969E-08  0.10566000000E+00  0.10566000000E+00 0.  1.
     999900   -1    0    0    0    0 -0.00000000000E+00 -0.00000000000E+00 -0.74505805969E-08  0.93827000000E+00  0.93827000000E+00 0.  1.
     999902    2    1    2    0    0 -0.22104173715E-01 -0.11839806997E-02  0.81409112118E-02  0.10203446075E+01  0.10200719814E+01 0.  0.
     999903    2    3    3    0    0  0.10230559435E+00  0.39491278472E-01 -0.62470432966E-01  0.12786590798E+00  0.20521688979E-01 0.  0.
         14    1    1    2    0    0  0.22104173715E-01  0.11839806997E-02 -0.81409112118E-02  0.23585392540E-01  0.00000000000E+00 0. -1.
     999901    1    3    3    0    0 -0.12440976806E+00 -0.40675259172E-01  0.70611344178E-01  0.89247869948E+00  0.88000000000E+00 0.  1.
        -11    1    4    4    0    0  0.12521426543E-01  0.12340039950E-01 -0.12568411345E-01  0.21616863634E-01  0.51100000000E-03 0.  1.
         11    1    4    4    0    0  0.89784167805E-01  0.27151238522E-01 -0.49902021621E-01  0.10624904435E+00  0.51100000000E-03 0. -1.
</event>
<event>
 8    1  0.1233916E+005  0.1043930E+01  0.7957747E-01            NaN
         13   -1    0    0    0    0  0.00000000000E+00  0.00000000000E+00  0.74505805969E-08  0.10566000000E+00  0.10566000000E+00 0. -1.
     999900   -1    0    0    0    0 -0.00000000000E+00 -0.00000000000E+00 -0.74505805969E-08  0.93827000000E+00  0.93827000000E+00 0.  1.
     999902    2    1    2    0    0 -0.20473160061E-01 -0.12434869045E-01  0.85317730343E-03  0.10199611835E+01  0.10196795142E+01 0.  0.
     999903    2    3    3    0    0  0.59718688800E-01 -0.62872088609E-01 -0.94469718085E-01  0.12975834141E+00  0.19836285271E-01 0.  0.
         14    1    1    2    0    0  0.20473160061E-01  0.12434869045E-01 -0.85317730343E-03  0.23968816461E-01  0.00000000000E+00 0. -1.
     999901    1    3    3    0    0 -0.80191848861E-01  0.50437219565E-01  0.95322895389E-01  0.89020284212E+00  0.88000000000E+00 0. -1.
        -11    1    4    4    0    0 -0.80391903116E-03 -0.51446962081E-02 -0.43308043389E-02  0.67919932349E-02  0.51100000000E-03 0.  1.
         11    1    4    4    0    0  0.60522607831E-01 -0.57727392401E-01 -0.90138913746E-01  0.12296634818E+00  0.51100000000E-03 0. -1.
</event>
<event>
 8    1  0.1233916E+005  0.1043930E+01  0.7957747E-01            NaN
         13   -1    0    0    0    0  0.00000000000E+00  0.00000000000E+00  0.74505805969E-08  0.10566000000E+00  0.10566000000E+00 0.  1.
     999900   -1    0    0    0    0 -0.00000000000E+00 -0.00000000000E+00 -0.74505805969E-08  0.93827000000E+00  0.93827000000E+00 0. -1.
     999902    2    1    2    0    0  0.64741275208E-02 -0.22797688731E-01  0.32216432264E-02  0.10200128947E+01  0.10197324539E+01 0.  0.
     999903    2    3    3    0    0 -0.30687106505E-01 -0.59570649743E-01 -0.11142368413E+00  0.13103777751E+00  0.16288061109E-01 0.  0.
         14    1    1    2    0    0 -0.64741275208E-02  0.22797688731E-01 -0.32216432264E-02  0.23917105254E-01  0.00000000000E+00 0. -1.
     999901    1    3    3    0    0  0.37161234026E-01  0.36772961011E-01  0.11464532735E+00  0.88897511723E+00  0.88000000000E+00 0.  1.
        -11    1    4    4    0    0 -0.32009562075E-02 -0.44982459975E-03 -0.26106444562E-02  0.41862929054E-02  0.51100000000E-03 0.  1.
         11    1    4    4    0    0 -0.27486150298E-01 -0.59120825143E-01 -0.10881303967E+00  0.12685148461E+00  0.51100000000E-03 0. -1.
</event>
<event>
 8    1  0.1233916E+005  0.1043930E+01  0.7957747E-01            NaN
         13   -1    0    0    0    0  0.00000000000E+00  0.00000000000E+00  0.74505805969E-08  0.10566000000E+00  0.10566000000E+00 0.  1.
     999900   -1    0    0    0    0 -0.00000000000E+00 -0.00000000000E+00 -0.74505805969E-08  0.93827000000E+00  0.93827000000E+00 0. -1.
     999902    2    1    2    0    0  0.13486577068E-03  0.22294719488E-01 -0.15525801466E-01  0.10167615768E+01  0.10163985345E+01 0.  0.
     999903    2    3    3    0    0  0.61537247516E-01  0.11039172804E+00  0.18978439330E-01  0.12956268255E+00  0.21287111095E-01 0.  0.
         14    1    1    2    0    0 -0.13486577068E-03 -0.22294719488E-01  0.15525801466E-01  0.27168423159E-01  0.00000000000E+00 0.  1.
     999901    1    3    3    0    0 -0.61402381745E-01 -0.88097008550E-01 -0.34504240796E-01  0.88719889429E+00  0.88000000000E+00 0.  1.
        -11    1    4    4    0    0  0.13603471199E-01  0.11923469185E-01 -0.14593327426E-02  0.18155283505E-01  0.51100000000E-03 0. -1.
         11    1    4    4    0    0  0.47933776317E-01  0.98468258853E-01  0.20437772073E-01  0.11140739904E+00  0.51100000000E-03 0.  1.
</event>
<event>
 8    1  0.1233916E+005  0.1043930E+01  0.7957747E-01            NaN
         13   -1    0    0    0    0  0.00000000000E+00  0.00000000000E+00  0.74505805969E-08  0.10566000000E+00  0.10566000000E+00 0.  1.
     999900   -1    0    0    0    0 -0.00000000000E+00 -0.00000000000E+00 -0.74505805969E-08  0.93827000000E+00  0.93827000000E+00 0.  1.
     999902    2    1    2    0    0 -0.12729117053E-02 -0.92861503705E-02  0.21324226798E-01  0.10206367490E+01  0.10203709119E+01 0.  0.
     999903    2    3    3    0    0  0.60754186054E-01  0.10661490281E+00  0.43736768895E-01  0.13059026875E+00  0.91161788144E-02 0.  0.
         14    1    1    2    0    0  0.12729117053E-02  0.92861503705E-02 -0.21324226798E-01  0.23293250985E-01  0.00000000000E+00 0. -1.
     999901    1    3    3    0    0 -0.62027097759E-01 -0.11590105318E+00 -0.22412542097E-01  0.89004648026E+00  0.88000000000E+00 0. -1.
        -11    1    4    4    0    0  0.16372129049E-01  0.25735357531E-01  0.70810054807E-02  0.31317040033E-01  0.51100000000E-03 0.  1.
         11    1    4    4    0    0  0.44382057005E-01  0.80879545275E-01  0.36655763415E-01  0.99273228719E-01  0.51100000000E-03 0. -1.
</event>
<event>
 8    1  0.1233916E+005  0.1043930E+01  0.7957747E-01            NaN
         13   -1    0    0    0    0  0.00000000000E+00  0.00000000000E+00  0.74505805969E-08  0.10566000000E+00  0.10566000000E+00 0.  1.
     999900   -1    0    0    0    0 -0.00000000000E+00 -0.00000000000E+00 -0.74505805969E-08  0.93827000000E+00  0.93827000000E+00 0.  1.
     999902    2    1    2    0    0  0.16191323791E-01  0.92694207331E-02  0.14559371934E-01  0.10202644884E+01  0.10199899852E+01 0.  0.
     999903    2    3    3    0    0 -0.12260808637E+00 -0.31042047034E-01 -0.86878527567E-03  0.12834054620E+00  0.21775892249E-01 0.  0.
         14    1    1    2    0    0 -0.16191323791E-01 -0.92694207331E-02 -0.14559371934E-01  0.23665511571E-01  0.00000000000E+00 0. -1.
     999901    1    3    3    0    0  0.13879941016E+00  0.40311467768E-01  0.15428157209E-01  0.89192394223E+00  0.88000000000E+00 0. -1.
        -11    1    4    4    0    0 -0.92007336163E-01 -0.18102554614E-01 -0.87829758138E-02  0.94183088591E-01  0.51100000000E-03 0.  1.
         11    1    4    4    0    0 -0.30600750204E-01 -0.12939492420E-01  0.79141905381E-02  0.34157457605E-01  0.51100000000E-03 0. -1.
</event>
<event>
 8    1  0.1233916E+005  0.1043930E+01  0.7957747E-01            NaN
         13   -1    0    0    0    0  0.00000000000E+00  0.00000000000E+00  0.74505805969E-08  0.10566000000E+00  0.10566000000E+00 0.  1.
     999900   -1    0    0    0    0 -0.00000000000E+00 -0.00000000000E+00 -0.74505805969E-08  0.93827000000E+00  0.93827000000E+00 0. -1.
     999902    2    1    2    0    0 -0.10925721502E-01 -0.31359412241E-02  0.19679432545E-01  0.10212036808E+01  0.10209507687E+01 0.  0.
     999903    2    3    3    0    0 -0.98554884583E-01 -0.77935942794E-01  0.40091419496E-01  0.13345903305E+00  0.20418499706E-01 0.  0.
         14    1    1    2    0    0  0.10925721502E-01  0.31359412241E-02 -0.19679432545E-01  0.22726319170E-01  0.00000000000E+00 0. -1.
     999901    1    3    3    0    0  0.87629163081E-01  0.74800001570E-01 -0.20411986950E-01  0.88774464778E+00  0.88000000000E+00 0. -1.
        -11    1    4    4    0    0 -0.71578046659E-01 -0.45357525497E-01  0.22748450339E-01  0.87740953930E-01  0.51100000000E-03 0. -1.
         11    1    4    4    0    0 -0.26976837924E-01 -0.32578417297E-01  0.17342969157E-01  0.45718079117E-01  0.51100000000E-03 0.  1.
</event>
<event>
 8    1  0.1233916E+005  0.1043930E+01  0.7957747E-01            NaN
         13   -1    0    0    0    0  0.00000000000E+00  0.00000000000E+00  0.74505805969E-08  0.10566000000E+00  0.10566000000E+00 0. -1.
     999900   -1    0    0    0    0 -0.00000000000E+00 -0.00000000000E+00 -0.74505805969E-08  0.93827000000E+00  0.93827000000E+00 0.  1.
     999902    2    1    2    0    0  0.35954442169E-02 -0.56698580762E-02 -0.22909744583E-01  0.10200567743E+01  0.10197773737E+01 0.  0.
     999903    2    3    3    0    0 -0.32830930962E-01 -0.10413238398E+00  0.66222185448E-01  0.12934568151E+00  0.20579214259E-01 0.  0.
         14    1    1    2    0    0 -0.35954442169E-02  0.56698580762E-02  0.22909744583E-01  0.23873225727E-01  0.00000000000E+00 0. -1.
     999901    1    3    3    0    0  0.36426375179E-01  0.98462525903E-01 -0.89131930031E-01  0.89071109276E+00  0.88000000000E+00 0. -1.
        -11    1    4    4    0    0 -0.22642294927E-01 -0.92490500312E-01  0.52944390504E-01  0.10895198839E+00  0.51100000000E-03 0.  1.
         11    1    4    4    0    0 -0.10188636035E-01 -0.11641883667E-01  0.13277794944E-01  0.20393693122E-01  0.51100000000E-03 0. -1.
</event>
<event>
 8    1  0.1233916E+005  0.1043930E+01  0.7957747E-01            NaN
         13   -1    0    0    0    0  0.00000000000E+00  0.00000000000E+00  0.74505805969E-08  0.10566000000E+00  0.10566000000E+00 0. -1.
     999900   -1    0    0    0    0 -0.00000000000E+00 -0.00000000000E+00 -0.74505805969E-08  0.93827000000E+00  0.93827000000E+00 0. -1.
     999902    2    1    2    0    0 -0.75234644559E-02  0.16218058066E-01 -0.14820537951E-01  0.10207076773E+01  0.10204434753E+01 0.  0.
     999903    2    3    3    0    0 -0.45794639517E-02 -0.39289044802E-01 -0.12449691158E+00  0.13215907847E+00  0.20048453723E-01 0.  0.
         14    1    1    2    0    0  0.75234644559E-02 -0.16218058066E-01  0.14820537951E-01  0.23222322666E-01  0.00000000000E+00 0. -1.
     999901    1    3    3    0    0 -0.29440005043E-02  0.55507102868E-01  0.10967637363E+00  0.88854859886E+00  0.88000000000E+00 0.  1.
        -11    1    4    4    0    0 -0.11262982942E-01 -0.14518778832E-01 -0.44504403225E-01  0.48151352535E-01  0.51100000000E-03 0. -1.
         11    1    4    4    0    0  0.66835189903E-02 -0.24770265970E-01 -0.79992508360E-01  0.84007725936E-01  0.51100000000E-03 0.  1.
</event>
<event>
 8    1  0.1233916E+005  0.1043930E+01  0.7957747E-01            NaN
         13   -1    0    0    0    0  0.00000000000E+00  0.00000000000E+00  0.74505805969E-08  0.10566000000E+00  0.10566000000E+00 0. -1.
     999900   -1    0    0    0    0 -0.00000000000E+00 -0.00000000000E+00 -0.74505805969E-08  0.93827000000E+00  0.93827000000E+00 0.  1.
     999902    2    1    2    0    0  0.22037521989E-01  0.11262191053E-01 -0.12394529640E-02  0.10191504607E+01  0.10188491724E+01 0.  0.
     999903    2    3    3    0    0  0.60473915693E-01  0.84929887438E-01 -0.78348497210E-01  0.13187931246E+00  0.19582792960E-01 0.  0.
         14    1    1    2    0    0 -0.22037521989E-01 -0.11262191053E-01  0.12394529640E-02  0.24779539269E-01  0.00000000000E+00 0. -1.
     999901    1    3    3    0    0 -0.38436393704E-01 -0.73667696385E-01  0.77109044246E-01  0.88727114827E+00  0.88000000000E+00 0. -1.
        -11    1    4    4    0    0  0.20135297888E-01  0.17255390741E-01 -0.26936039799E-01  0.37801985288E-01  0.51100000000E-03 0.  1.
         11    1    4    4    0    0  0.40338617805E-01  0.67674496697E-01 -0.51412457411E-01  0.94077327171E-01  0.51100000000E-03 0. -1.
</event>
<event>
 8    1  0.1233916E+005  0.1043930E+01  0.7957747E-01            NaN
         13   -1    0    0    0    0  0.00000000000E+00  0.00000000000E+00  0.74505805969E-08  0.10566000000E+00  0.10566000000E+00 0. -1.
     999900   -1    0    0    0    0 -0.00000000000E+00 -0.00000000000E+00 -0.74505805969E-08  0.93827000000E+00  0.93827000000E+00 0. -1.
     999902    2    1    2    0    0  0.11956557682E-01  0.16193672619E-01 -0.13369779893E-01  0.10197650394E+01  0.10194786856E+01 0.  0.
     999903    2    3    3    0    0  0.67744116912E-01 -0.10649095514E+00 -0.20827899907E-01  0.12947329332E+00  0.19998584127E-01 0.  0.
         14    1    1    2    0    0 -0.11956557682E-01 -0.16193672619E-01  0.13369779893E-01  0.24164960561E-01  0.00000000000E+00 0.  1.
     999901    1    3    3    0    0 -0.55787559229E-01  0.12268462775E+00  0.74581200146E-02  0.89029174612E+00  0.88000000000E+00 0.  1.
        -11    1    4    4    0    0  0.51496129874E-01 -0.67897644641E-01 -0.20252830676E-01  0.87592121855E-01  0.51100000000E-03 0. -1.
         11    1    4    4    0    0  0.16247987038E-01 -0.38593310495E-01 -0.57506923111E-03  0.41881171466E-01  0.51100000000E-03 0.  1.
</event>
<event>
 8    1  0.1233916E+005  0.1043930E+01  0.7957747E-01            NaN
         13   -1    0    0    0    0  0.00000000000E+00  0.00000000000E+00  0.74505805969E-08  0.10566000000E+00  0.10566000000E+00 0. -1.
     999900   -1    0    0    0    0 -0.00000000000E+00 -0.00000000000E+00 -0.74505805969E-08  0.93827000000E+00  0.93827000000E+00 0.  1.
     999902    2    1    2    0    0  0.18368272351E-01  0.11280825570E-01  0.87111177424E-02  0.10206806123E+01  0.10204157870E+01 0.  0.
     999903    2    3    3    0    0 -0.46686465502E-01 -0.43015573782E-01 -0.11010954943E+00  0.12866123538E+00  0.19990872092E-01 0.  0.
         14    1    1    2    0    0 -0.18368272351E-01 -0.11280825570E-01 -0.87111177424E-02  0.23249387670E-01  0.00000000000E+00 0.  1.
     999901    1    3    3    0    0  0.65054737853E-01  0.54296399352E-01  0.11882066717E+00  0.89201937695E+00  0.88000000000E+00 0.  1.
        -11    1    4    4    0    0 -0.18570261813E-01 -0.49442314045E-02 -0.31596810539E-01  0.36985397189E-01  0.51100000000E-03 0.  1.
         11    1    4    4    0    0 -0.28116203689E-01 -0.38071342378E-01 -0.78512738888E-01  0.91675838196E-01  0.51100000000E-03 0. -1.
</event>
<event>
 8    1  0.1233916E+005  0.1043930E+01  0.7957747E-01            NaN
         13   -1    0    0    0    0  0.00000000000E+00  0.00000000000E+00  0.74505805969E-08  0.10566000000E+00  0.10566000000E+00 0. -1.
     999900   -1    0    0    0    0 -0.00000000000E+00 -0.00000000000E+00 -0.74505805969E-08  0.93827000000E+00  0.93827000000E+00 0. -1.
     999902    2    1    2    0    0  0.10050143756E-01  0.18981112023E-01  0.83195969812E-02  0.10208973341E+01  0.10206374788E+01 0.  0.
     999903    2    3    3    0    0  0.12549685661E+00  0.49760315076E-02  0.36961803118E-01  0.13278446869E+00  0.22165701602E-01 0.  0.
         14    1    1    2    0    0 -0.10050143756E-01 -0.18981112023E-01 -0.83195969812E-02  0.23032665870E-01  0.00000000000E+00 0. -1.
     999901    1    3    3    0    0 -0.11544671285E+00  0.14005080516E-01 -0.28642206137E-01  0.88811286544E+00  0.88000000000E+00 0. -1.
        -11    1    4    4    0    0  0.70810747566E-01 -0.52361738310E-02  0.12890947879E-01  0.72166593002E-01  0.51100000000E-03 0. -1.
         11    1    4    4    0    0  0.54686109041E-01  0.10212205339E-01  0.24070855239E-01  0.60617875687E-01  0.51100000000E-03 0.  1.
</event>
<event>
 8    1  0.1233916E+005  0.1043930E+01  0.7957747E-01            NaN
         13   -1    0    0    0    0  0.00000000000E+00  0.00000000000E+00  0.74505805969E-08  0.10566000000E+00  0.10566000000E+00 0.  1.
     999900   -1    0    0    0    0 -0.00000000000E+00 -0.00000000000E+00 -0.74505805969E-08  0.93827000000E+00  0.93827000000E+00 0. -1.
     999902    2    1    2    0    0 -0.18724757728E-01  0.11744215103E-01 -0.82488199460E-02  0.10203379214E+01  0.10200651390E+01 0.  0.
     999903    2    3    3    0    0 -0.12797923153E+00  0.29269704006E-01 -0.13745345020E-01  0.13339153377E+00  0.19208526651E-01 0.  0.
         14    1    1    2    0    0  0.18724757728E-01 -0.11744215103E-01  0.82488199460E-02  0.23592078562E-01  0.00000000000E+00 0.  1.
     999901    1    3    3    0    0  0.10925447380E+00 -0.17525488903E-01  0.54965250737E-02  0.88694638767E+00  0.88000000000E+00 0. -1.
        -11    1    4    4    0    0 -0.29069851531E-01  0.78071391762E-02  0.48279497953E-02  0.30488980147E-01  0.51100000000E-03 0. -1.
         11    1    4    4    0    0 -0.98909380001E-01  0.21462564830E-01 -0.18573294815E-01  0.10290255362E+00  0.51100000000E-03 0.  1.
</event>
<event>
 8    1  0.1233916E+005  0.1043930E+01  0.7957747E-01            NaN
         13   -1    0    0    0    0  0.00000000000E+00  0.00000000000E+00  0.74505805969E-08  0.10566000000E+00  0.10566000000E+00 0. -1.
     999900   -1    0    0    0    0 -0.00000000000E+00 -0.00000000000E+00 -0.74505805969E-08  0.93827000000E+00  0.93827000000E+00 0. -1.
     999902    2    1    2    0    0 -0.13905936242E-01 -0.72177680213E-03  0.18527216100E-01  0.10207534221E+01  0.10204902719E+01 0.  0.
     999903    2    3    3    0    0  0.91312165884E-01  0.89873150381E-01  0.28492864552E-02  0.12972924328E+00  0.20160935774E-01 0.  0.
         14    1    1    2    0    0  0.13905936242E-01  0.72177680213E-03 -0.18527216100E-01  0.23176577852E-01  0.00000000000E+00 0.  1.
     999901    1    3    3    0    0 -0.10521810213E+00 -0.90594927183E-01  0.15677929644E-01  0.89102417887E+00  0.88000000000E+00 0.  1.
        -11    1    4    4    0    0  0.12782830934E-01  0.22139431203E-01  0.47417867227E-02  0.26005784799E-01  0.51100000000E-03 0.  1.
         11    1    4    4    0    0  0.78529334950E-01  0.67733719178E-01 -0.18925002675E-02  0.10372345848E+00  0.51100000000E-03 0. -1.
</event>
<event>
 8    1  0.1233916E+005  0.1043930E+01  0.7957747E-01            NaN
         13   -1    0    0    0    0  0.00000000000E+00  0.00000000000E+00  0.74505805969E-08  0.10566000000E+00  0.10566000000E+00 0.  1.
     999900   -1    0    0    0    0 -0.00000000000E+00 -0.00000000000E+00 -0.74505805969E-08  0.93827000000E+00  0.93827000000E+00 0.  1.
     999902    2    1    2    0    0  0.12937437873E-01 -0.15187515279E-01  0.11857018964E-01  0.10207216649E+01  0.10204577847E+01 0.  0.
     999903    2    3    3    0    0 -0.86148571631E-01  0.90459173320E-01 -0.22103604382E-01  0.12823492325E+00  0.18740004883E-01 0.  0.
         14    1    1    2    0    0 -0.12937437873E-01  0.15187515279E-01 -0.11857018964E-01  0.23208335093E-01  0.00000000000E+00 0.  1.
     999901    1    3    3    0    0  0.99086009504E-01 -0.10564668860E+00  0.33960623346E-01  0.89248674165E+00  0.88000000000E+00 0.  1.
        -11    1    4    4    0    0 -0.30404418945E-01  0.45012747871E-01 -0.11626916488E-01  0.55551979895E-01  0.51100000000E-03 0. -1.
         11    1    4    4    0    0 -0.55744152686E-01  0.45446425449E-01 -0.10476687894E-01  0.72682943357E-01  0.51100000000E-03 0.  1.
</event>
<event>
 8    1  0.1233916E+005  0.1043930E+01  0.7957747E-01            NaN
         13   -1    0    0    0    0  0.00000000000E+00  0.00000000000E+00  0.74505805969E-08  0.10566000000E+00  0.10566000000E+00 0.  1.
     999900   -1    0    0    0    0 -0.00000000000E+00 -0.00000000000E+00 -0.74505805969E-08  0.93827000000E+00  0.93827000000E+00 0.  1.
     999902    2    1    2    0    0 -0.11736060572E-01 -0.18361882429E-01  0.93361477893E-02  0.10202222481E+01  0.10199467526E+01 0.  0.
     999903    2    3    3    0    0  0.36656728831E-01  0.11916289230E+00 -0.19560466888E-01  0.12775939730E+00  0.19908316477E-01 0.  0.
         14    1    1    2    0    0  0.11736060572E-01  0.18361882429E-01 -0.93361477893E-02  0.23707751889E-01  0.00000000000E+00 0.  1.
     999901    1    3    3    0    0 -0.48392789403E-01 -0.13752477473E+00  0.28896614677E-01  0.89246285081E+00  0.88000000000E+00 0.  1.
        -11    1    4    4    0    0  0.21412388857E-01  0.48499455700E-01 -0.59336598865E-03  0.53021701255E-01  0.51100000000E-03 0.  1.
         11    1    4    4    0    0  0.15244339975E-01  0.70663436599E-01 -0.18967100899E-01  0.74737696049E-01  0.51100000000E-03 0. -1.
</event>
<event>
 8    1  0.1233916E+005  0.1043930E+01  0.7957747E-01            NaN
         13   -1    0    0    0    0  0.00000000000E+00  0.00000000000E+00  0.74505805969E-08  0.10566000000E+00  0.10566000000E+00 0. -1.
     999900   -1    0    0    0    0 -0.00000000000E+00 -0.00000000000E+00 -0.74505805969E-08  0.93827000000E+00  0.93827000000E+00 0. -1.
     999902    2    1    2    0    0 -0.93654515749E-02  0.18673341198E-01 -0.10185358241E-01  0.10206889398E+01  0.10204243064E+01 0.  0.
     999903    2    3    3    0    0 -0.10804755297E+00 -0.58597349110E-01  0.39113255071E-01  0.13044219315E+00  0.19426682888E-01 0.  0.
         14    1    1    2    0    0  0.93654515749E-02 -0.18673341198E-01  0.10185358241E-01  0.23241060156E-01  0.00000000000E+00 0.  1.
     999901    1    3    3    0    0  0.98682101392E-01  0.77270690308E-01 -0.49298613312E-01  0.89024674669E+00  0.88000000000E+00 0.  1.
        -11    1    4    4    0    0 -0.72141936951E-01 -0.46215052349E-01  0.33734344565E-01  0.92079081527E-01  0.51100000000E-03 0.  1.
         11    1    4    4    0    0 -0.35905616016E-01 -0.12382296761E-01  0.53789105065E-02  0.38363111628E-01  0.51100000000E-03 0. -1.
</event>
<event>
 8    1  0.1233916E+005  0.1043930E+01  0.7957747E-01            NaN
         13   -1    0    0    0    0  0.00000000000E+00  0.00000000000E+00  0.74505805969E-08  0.10566000000E+00  0.10566000000E+00 0.  1.
     999900   -1    0    0    0    0 -0.00000000000E+00 -0.00000000000E+00 -0.74505805969E-08  0.93827000000E+00  0.93827000000E+00 0. -1.
     999902    2    1    2    0    0 -0.22385408868E-01 -0.58171214183E-02  0.45471393052E-02  0.10203583665E+01  0.10200860621E+01 0.  0.
     999903    2    3    3    0    0  0.10296411956E+00 -0.16543333493E-01 -0.71361627804E-01  0.12817581966E+00  0.21477127866E-01 0.  0.
         14    1    1    2    0    0  0.22385408868E-01  0.58171214183E-02 -0.45471393052E-02  0.23571633538E-01  0.00000000000E+00 0. -1.
     999901    1    3    3    0    0 -0.12534952843E+00  0.10726212075E-01  0.75908767109E-01  0.89218254681E+00  0.88000000000E+00 0.  1.
        -11    1    4    4    0    0  0.40914657702E-01 -0.12559360460E-01 -0.18765496439E-01  0.46734909090E-01  0.51100000000E-03 0.  1.
         11    1    4    4    0    0  0.62049461859E-01 -0.39839730328E-02 -0.52596131365E-01  0.81440910565E-01  0.51100000000E-03 0. -1.
</event>
<event>
 8    1  0.1233916E+005  0.1043930E+01  0.7957747E-01            NaN
         13   -1    0    0    0    0  0.00000000000E+00  0.00000000000E+00  0.74505805969E-08  0.10566000000E+00  0.10566000000E+00 0.  1.
     999900   -1    0    0    0    0 -0.00000000000E+00 -0.00000000000E+00 -0.74505805969E-08  0.93827000000E+00  0.93827000000E+00 0. -1.
     999902    2    1    2    0    0  0.13368744331E-01 -0.54550515320E-03 -0.19723281962E-01  0.10200966462E+01  0.10198181891E+01 0.  0.
     999903    2    3    3    0    0 -0.69677352103E-01  0.10686968154E+00 -0.11905838050E-01  0.12964968604E+00  0.19779531931E-01 0.  0.
         14    1    1    2    0    0 -0.13368744331E-01  0.54550515320E-03  0.19723281962E-01  0.23833353776E-01  0.00000000000E+00 0.  1.
     999901    1    3    3    0    0  0.83046096434E-01 -0.10741518669E+00 -0.78174439119E-02  0.89044696018E+00  0.88000000000E+00 0.  1.
        -11    1    4    4    0    0 -0.28785267900E-01  0.42403521636E-01  0.48720007023E-02  0.51484442379E-01  0.51100000000E-03 0.  1.
         11    1    4    4    0    0 -0.40892084203E-01  0.64466159902E-01 -0.16777838753E-01  0.78165243665E-01  0.51100000000E-03 0. -1.
</event>
<event>
 8    1  0.1233916E+005  0.1043930E+01  0.7957747E-01            NaN
         13   -1    0    0    0    0  0.00000000000E+00  0.00000000000E+00  0.74505805969E-08  0.10566000000E+00  0.10566000000E+00 0.  1.
     999900   -1    0    0    0    0 -0.00000000000E+00 -0.00000000000E+00 -0.74505805969E-08  0.93827000000E+00  0.93827000000E+00 0. -1.
     999902    2    1    2    0    0 -0.48229024846E-02  0.16389149767E-01 -0.16002416140E-01  0.10205218403E+01  0.10202533433E+01 0.  0.
     999903    2    3    3    0    0 -0.19766989812E-01 -0.12512549239E+00  0.84364220486E-04  0.12894542507E+00  0.24078886958E-01 0.  0.
         14    1    1    2    0    0  0.48229024846E-02 -0.16389149767E-01  0.16002416140E-01  0.23408159705E-01  0.00000000000E+00 0.  1.
     999901    1    3    3    0    0  0.14944087328E-01  0.14151464215E+00 -0.16086780361E-01  0.89157641523E+00  0.88000000000E+00 0. -1.
        -11    1    4    4    0    0 -0.24226784792E-01 -0.94624819830E-01 -0.44754644678E-02  0.97780798383E-01  0.51100000000E-03 0.  1.
         11    1    4    4    0    0  0.44597949800E-02 -0.30500672556E-01  0.45598286883E-02  0.31164626683E-01  0.51100000000E-03 0. -1.
</event>
<event>
 8    1  0.1233916E+005  0.1043930E+01  0.7957747E-01            NaN
         13   -1    0    0    0    0  0.00000000000E+00  0.00000000000E+00  0.74505805969E-08  0.10566000000E+00  0.10566000000E+00 0.  1.
     999900   -1    0    0    0    0 -0.00000000000E+00 -0.00000000000E+00 -0.74505805969E-08  0.93827000000E+00  0.93827000000E+00 0.  1.
     999902    2    1    2    0    0  0.98492076425E-02 -0.19713621052E-01  0.74708391452E-02  0.10206609823E+01  0.10203957044E+01 0.  0.
     999903    2    3    3    0    0  0.10633684966E+00  0.43979990936E-01  0.60087595217E-01  0.13154048189E+00  0.21227672460E-01 0.  0.
         14    1    1    2    0    0 -0.98492076425E-02  0.19713621052E-01 -0.74708391452E-02  0.23269017678E-01  0.00000000000E+00 0. -1.
     999901    1    3    3    0    0 -0.96487642019E-01 -0.63693611988E-01 -0.52616756072E-01  0.88912050043E+00  0.88000000000E+00 0.  1.
        -11    1    4    4    0    0  0.27195654370E-01  0.10615334140E-01  0.26129096421E-01  0.39182645856E-01  0.51100000000E-03 0.  1.
         11    1    4    4    0    0  0.79141195291E-01  0.33364656796E-01  0.33958498797E-01  0.92357836033E-01  0.51100000000E-03 0. -1.
</event>
<event>
 8    1  0.1233916E+005  0.1043930E+01  0.7957747E-01            NaN
         13   -1    0    0    0    0  0.00000000000E+00  0.00000000000E+00  0.74505805969E-08  0.10566000000E+00  0.10566000000E+00 0. -1.
     999900   -1    0    0    0    0 -0.00000000000E+00 -0.00000000000E+00 -0.74505805969E-08  0.93827000000E+00  0.93827000000E+00 0.  1.
     999902    2    1    2    0    0 -0.18181954911E-01 -0.88223117549E-02  0.10200120603E-01  0.10212924399E+01  0.10210415215E+01 0.  0.
     999903    2    3    3    0    0  0.12347519337E+00  0.27945218039E-01  0.15015113619E-01  0.12919279123E+00  0.20934781596E-01 0.  0.
         14    1    1    2    0    0  0.18181954911E-01  0.88223117549E-02 -0.10200120603E-01  0.22637560147E-01  0.00000000000E+00 0.  1.
     999901    1    3    3    0    0 -0.14165714828E+00 -0.36767529794E-01 -0.48149930155E-02  0.89209964862E+00  0.88000000000E+00 0. -1.
        -11    1    4    4    0    0  0.42315389906E-01  0.15607352105E-01  0.13511952802E-01  0.47085195679E-01  0.51100000000E-03 0.  1.
         11    1    4    4    0    0  0.81159803466E-01  0.12337865934E-01  0.15031608166E-02  0.82107595555E-01  0.51100000000E-03 0. -1.
</event>
<event>
 8    1  0.1233916E+005  0.1043930E+01  0.7957747E-01            NaN
         13   -1    0    0    0    0  0.00000000000E+00  0.00000000000E+00  0.74505805969E-08  0.10566000000E+00  0.10566000000E+00 0.  1.
     999900   -1    0    0    0    0 -0.00000000000E+00 -0.00000000000E+00 -0.74505805969E-08  0.93827000000E+00  0.93827000000E+00 0. -1.
     999902    2    1    2    0    0  0.23826690718E-01 -0.12732206629E-02 -0.80713864674E-02  0.10187411223E+01  0.10184296709E+01 0.  0.
     999903    2    3    3    0    0  0.43492312825E-02 -0.11593218752E+00  0.52687785900E-01  0.12901210334E+00  0.20222069890E-01 0.  0.
         14    1    1    2    0    0 -0.23826690718E-01  0.12732206629E-02  0.80713864674E-02  0.25188877722E-01  0.00000000000E+00 0.  1.
     999901    1    3    3    0    0  0.19477459435E-01  0.11465896686E+00 -0.60759172367E-01  0.88972901893E+00  0.88000000000E+00 0. -1.
        -11    1    4    4    0    0  0.53312977505E-02 -0.68010952989E-01  0.41283199611E-01  0.79740053632E-01  0.51100000000E-03 0.  1.
         11    1    4    4    0    0 -0.98206646799E-03 -0.47921234529E-01  0.11404586289E-01  0.49272049711E-01  0.51100000000E-03 0. -1.
</event>
<event>
 8    1  0.1233916E+005  0.1043930E+01  0.7957747E-01            NaN
         13   -1    0    0    0    0  0.00000000000E+00  0.00000000000E+00  0.74505805969E-08  0.10566000000E+00  0.10566000000E+00 0. -1.
     999900   -1    0    0    0    0 -0.00000000000E+00 -0.00000000000E+00 -0.74505805969E-08  0.93827000000E+00  0.93827000000E+00 0. -1.
     999902    2    1    2    0    0 -0.35869121603E-04  0.13521553412E-01 -0.19484101259E-01  0.10202136787E+01  0.10199379816E+01 0.  0.
     999903    2    3    3    0    0 -0.63961566146E-02  0.89622814842E-01 -0.96742134356E-01  0.13353410924E+00  0.19978939201E-01 0.  0.
         14    1    1    2    0    0  0.35869121603E-04 -0.13521553412E-01  0.19484101259E-01  0.23716321282E-01  0.00000000000E+00 0. -1.
     999901    1    3    3    0    0  0.63602874930E-02 -0.76101261430E-01  0.77258033098E-01  0.88667956948E+00  0.88000000000E+00 0.  1.
        -11    1    4    4    0    0 -0.13473751785E-01  0.65307071020E-01 -0.68554730728E-01  0.95637689948E-01  0.51100000000E-03 0. -1.
         11    1    4    4    0    0  0.70775951704E-02  0.24315743822E-01 -0.28187403628E-01  0.37896419294E-01  0.51100000000E-03 0.  1.
</event>
<event>
 8    1  0.1233916E+005  0.1043930E+01  0.7957747E-01            NaN
         13   -1    0    0    0    0  0.00000000000E+00  0.00000000000E+00  0.74505805969E-08  0.10566000000E+00  0.10566000000E+00 0. -1.
     999900   -1    0    0    0    0 -0.00000000000E+00 -0.00000000000E+00 -0.74505805969E-08  0.93827000000E+00  0.93827000000E+00 0. -1.
     999902    2    1    2    0    0 -0.16389531079E-01  0.92164916575E-02  0.13635684837E-01  0.10207030254E+01  0.10204387163E+01 0.  0.
     999903    2    3    3    0    0 -0.13023600738E+00  0.88801288901E-02  0.18190069111E-01  0.13335761594E+00  0.20324881469E-01 0.  0.
         14    1    1    2    0    0  0.16389531079E-01 -0.92164916575E-02 -0.13635684837E-01  0.23226974586E-01  0.00000000000E+00 0.  1.
     999901    1    3    3    0    0  0.11384647630E+00  0.33636276737E-03 -0.45543842743E-02  0.88734540948E+00  0.88000000000E+00 0.  1.
        -11    1    4    4    0    0 -0.52874279530E-01  0.92114801264E-02  0.15824727272E-01  0.55957340146E-01  0.51100000000E-03 0.  1.
         11    1    4    4    0    0 -0.77361727849E-01 -0.33135123625E-03  0.23653418394E-02  0.77400275790E-01  0.51100000000E-03 0. -1.
</event>
<event>
 8    1  0.1233916E+005  0.1043930E+01  0.7957747E-01            NaN
         13   -1    0    0    0    0  0.00000000000E+00  0.00000000000E+00  0.74505805969E-08  0.10566000000E+00  0.10566000000E+00 0. -1.
     999900   -1    0    0    0    0 -0.00000000000E+00 -0.00000000000E+00 -0.74505805969E-08  0.93827000000E+00  0.93827000000E+00 0. -1.
     999902    2    1    2    0    0 -0.24225872897E-01  0.74542315096E-03  0.19069258285E-02  0.10196177615E+01  0.10193278642E+01 0.  0.
     999903    2    3    3    0    0  0.10953711907E+00  0.83059014829E-02  0.61416526998E-01  0.12749047718E+00  0.20358377359E-01 0.  0.
         14    1    1    2    0    0  0.24225872897E-01 -0.74542315096E-03 -0.19069258285E-02  0.24312238469E-01  0.00000000000E+00 0.  1.
     999901    1    3    3    0    0 -0.13376299197E+00 -0.75604783320E-02 -0.59509601170E-01  0.89212728435E+00  0.88000000000E+00 0. -1.
        -11    1    4    4    0    0  0.65233283333E-01  0.14749076972E-01  0.38952939183E-01  0.77398379298E-01  0.51100000000E-03 0.  1.
         11    1    4    4    0    0  0.44303835739E-01 -0.64431754893E-02  0.22463587815E-01  0.50092097881E-01  0.51100000000E-03 0. -1.
</event>
<event>
 8    1  0.1233916E+005  0.1043930E+01  0.7957747E-01            NaN
         13   -1    0    0    0    0  0.00000000000E+00  0.00000000000E+00  0.74505805969E-08  0.10566000000E+00  0.10566000000E+00 0.  1.
     999900   -1    0    0    0    0 -0.00000000000E+00 -0.00000000000E+00 -0.74505805969E-08  0.93827000000E+00  0.93827000000E+00 0.  1.
     999902    2    1    2    0    0 -0.46149747787E-02  0.20742074677E-01 -0.97361587574E-02  0.10205564157E+01  0.10202887205E+01 0.  0.
     999903    2    3    3    0    0  0.10489085176E+00 -0.62041514121E-01  0.35959322413E-01  0.12874212698E+00  0.20741796777E-01 0.  0.
         14    1    1    2    0    0  0.46149747787E-02 -0.20742074677E-01  0.97361587574E-02  0.23373584267E-01  0.00000000000E+00 0. -1.
     999901    1    3    3    0    0 -0.10950582654E+00  0.82783588798E-01 -0.45695481170E-01  0.89181428875E+00  0.88000000000E+00 0.  1.
        -11    1    4    4    0    0  0.37027157469E-01 -0.14672645011E-01  0.19543185114E-01  0.44367714695E-01  0.51100000000E-03 0.  1.
         11    1    4    4    0    0  0.67863694294E-01 -0.47368869110E-01  0.16416137299E-01  0.84374412287E-01  0.51100000000E-03 0. -1.
</event>
<event>
 8    1  0.1233916E+005  0.1043930E+01  0.7957747E-01            NaN
         13   -1    0    0    0    0  0.00000000000E+00  0.00000000000E+00  0.74505805969E-08  0.10566000000E+00  0.10566000000E+00 0.  1.
     999900   -1    0    0    0    0 -0.00000000000E+00 -0.00000000000E+00 -0.74505805969E-08  0.93827000000E+00  0.93827000000E+00 0. -1.
     999902    2    1    2    0    0 -0.17676250118E-01 -0.31228798805E-02  0.14833541856E-01  0.10206440351E+01  0.10203783662E+01 0.  0.
     999903    2    3    3    0    0 -0.10260668451E+00 -0.45483724954E-01  0.70238467484E-01  0.13380846655E+00  0.19348448577E-01 0.  0.
         14    1    1    2    0    0  0.17676250118E-01  0.31228798805E-02 -0.14833541856E-01  0.23285964893E-01  0.00000000000E+00 0. -1.
     999901    1    3    3    0    0  0.84930434395E-01  0.42360845074E-01 -0.55404925628E-01  0.88683556856E+00  0.88000000000E+00 0.  1.
        -11    1    4    4    0    0 -0.26983537751E-01 -0.75457335626E-02  0.92491527606E-02  0.29510292312E-01  0.51100000000E-03 0. -1.
         11    1    4    4    0    0 -0.75623146762E-01 -0.37937991392E-01  0.60989314723E-01  0.10429817423E+00  0.51100000000E-03 0.  1.
</event>
<event>
 8    1  0.1233916E+005  0.1043930E+01  0.7957747E-01            NaN
         13   -1    0    0    0    0  0.00000000000E+00  0.00000000000E+00  0.74505805969E-08  0.10566000000E+00  0.10566000000E+00 0.  1.
     999900   -1    0    0    0    0 -0.00000000000E+00 -0.00000000000E+00 -0.74505805969E-08  0.93827000000E+00  0.93827000000E+00 0. -1.
     999902    2    1    2    0    0 -0.67546739666E-02 -0.10986384187E-01 -0.19319392193E-01  0.10207014578E+01  0.10204371126E+01 0.  0.
     999903    2    3    3    0    0  0.89964220504E-01  0.10597245320E-01  0.87275456747E-01  0.12874694134E+00  0.27439150420E-01 0.  0.
         14    1    1    2    0    0  0.67546739666E-02  0.10986384187E-01  0.19319392193E-01  0.23228542197E-01  0.00000000000E+00 0.  1.
     999901    1    3    3    0    0 -0.96718894471E-01 -0.21583629507E-01 -0.10659484894E+00  0.89195451646E+00  0.88000000000E+00 0. -1.
        -11    1    4    4    0    0  0.35397280677E-01 -0.64595461805E-02  0.45120700130E-01  0.57713359956E-01  0.51100000000E-03 0. -1.
         11    1    4    4    0    0  0.54566939827E-01  0.17056791501E-01  0.42154756617E-01  0.71033581388E-01  0.51100000000E-03 0.  1.
</event>
<event>
 8    1  0.1233916E+005  0.1043930E+01  0.7957747E-01            NaN
         13   -1    0    0    0    0  0.00000000000E+00  0.00000000000E+00  0.74505805969E-08  0.10566000000E+00  0.10566000000E+00 0.  1.
     999900   -1    0    0    0    0 -0.00000000000E+00 -0.00000000000E+00 -0.74505805969E-08  0.93827000000E+00  0.93827000000E+00 0.  1.
     999902    2    1    2    0    0 -0.18633073630E-01  0.29645976207E-02  0.14630260049E-01  0.10200548083E+01  0.10197753611E+01 0.  0.
     999903    2    3    3    0    0 -0.76563620055E-01 -0.97731664389E-01 -0.36548741808E-01  0.13094571729E+00  0.19937507605E-01 0.  0.
         14    1    1    2    0    0  0.18633073630E-01 -0.29645976207E-02 -0.14630260049E-01  0.23875191749E-01  0.00000000000E+00 0. -1.
     999901    1    3    3    0    0  0.57930546426E-01  0.10069626201E+00  0.51179001857E-01  0.88910909096E+00  0.88000000000E+00 0. -1.
        -11    1    4    4    0    0 -0.31015573162E-01 -0.33662007499E-01 -0.22806343720E-01  0.51141831824E-01  0.51100000000E-03 0.  1.
         11    1    4    4    0    0 -0.45548046893E-01 -0.64069656890E-01 -0.13742398088E-01  0.79803885469E-01  0.51100000000E-03 0. -1.
</event>
<event>
 8    1  0.1233916E+005  0.1043930E+01  0.7957747E-01            NaN
         13   -1    0    0    0    0  0.00000000000E+00  0.00000000000E+00  0.74505805969E-08  0.10566000000E+00  0.10566000000E+00 0.  1.
     999900   -1    0    0    0    0 -0.00000000000E+00 -0.00000000000E+00 -0.74505805969E-08  0.93827000000E+00  0.93827000000E+00 0. -1.
     999902    2    1    2    0    0 -0.18785796587E-01 -0.14217400997E-01  0.56228400741E-02  0.10197089972E+01  0.10194212976E+01 0.  0.
     999903    2    3    3    0    0  0.81623917598E-01  0.48823617140E-02  0.97669023248E-01  0.12902419806E+00  0.20535437745E-01 0.  0.
         14    1    1    2    0    0  0.18785796587E-01  0.14217400997E-01 -0.56228400741E-02  0.24221002767E-01  0.00000000000E+00 0. -1.
     999901    1    3    3    0    0 -0.10040971418E+00 -0.19099762711E-01 -0.92046183174E-01  0.89068479917E+00  0.88000000000E+00 0. -1.
        -11    1    4    4    0    0  0.28873347086E-01 -0.55559380679E-02  0.44966326355E-01  0.53728672481E-01  0.51100000000E-03 0. -1.
         11    1    4    4    0    0  0.52750570511E-01  0.10438299782E-01  0.52702696893E-01  0.75295525580E-01  0.51100000000E-03 0.  1.
</event>
<event>
 8    1  0.1233916E+005  0.1043930E+01  0.7957747E-01            NaN
         13   -1    0    0    0    0  0.00000000000E+00  0.00000000000E+00  0.74505805969E-08  0.10566000000E+00  0.10566000000E+00 0. -1.
     999900   -1    0    0    0    0 -0.00000000000E+00 -0.00000000000E+00 -0.74505805969E-08  0.93827000000E+00  0.93827000000E+00 0.  1.
     999902    2    1    2    0    0  0.11235524890E-01  0.88336164365E-02 -0.18565905197E-01  0.10205000483E+01  0.10202310454E+01 0.  0.
     999903    2    3    3    0    0 -0.12545974862E+00  0.13383443728E-01  0.18992346390E-01  0.12914326176E+00  0.19950131479E-01 0.  0.
         14    1    1    2    0    0 -0.11235524890E-01 -0.88336164365E-02  0.18565905197E-01  0.23429951658E-01  0.00000000000E+00 0. -1.
     999901    1    3    3    0    0  0.13669527351E+00 -0.45498272919E-02 -0.37558251587E-01  0.89135678658E+00  0.88000000000E+00 0.  1.
        -11    1    4    4    0    0 -0.28196586267E-01  0.11443513686E-01  0.55171870052E-02  0.30930599025E-01  0.51100000000E-03 0.  1.
         11    1    4    4    0    0 -0.97263162353E-01  0.19399300423E-02  0.13475159385E-01  0.98212662732E-01  0.51100000000E-03 0. -1.
</event>
<event>
 8    1  0.1233916E+005  0.1043930E+01  0.7957747E-01            NaN
         13   -1    0    0    0    0  0.00000000000E+00  0.00000000000E+00  0.74505805969E-08  0.10566000000E+00  0.10566000000E+00 0. -1.
     999900   -1    0    0    0    0 -0.00000000000E+00 -0.00000000000E+00 -0.74505805969E-08  0.93827000000E+00  0.93827000000E+00 0. -1.
     999902    2    1    2    0    0  0.14886252429E-01  0.18334372372E-01 -0.54709673547E-02  0.10196878630E+01  0.10193996551E+01 0.  0.
     999903    2    3    3    0    0 -0.57665575106E-01 -0.68234798930E-01 -0.90122011964E-01  0.12843941929E+00  0.19834340152E-01 0.  0.
         14    1    1    2    0    0 -0.14886252429E-01 -0.18334372372E-01  0.54709673547E-02  0.24242136982E-01  0.00000000000E+00 0. -1.
     999901    1    3    3    0    0  0.72551827535E-01  0.86569171301E-01  0.84651044609E-01  0.89124844373E+00  0.88000000000E+00 0.  1.
        -11    1    4    4    0    0 -0.45290507081E-01 -0.59204365957E-01 -0.82929623623E-01  0.11150771532E+00  0.51100000000E-03 0.  1.
         11    1    4    4    0    0 -0.12375068025E-01 -0.90304329730E-02 -0.71923883412E-02  0.16931703971E-01  0.51100000000E-03 0. -1.
</event>
<event>
 8    1  0.1233916E+005  0.1043930E+01  0.7957747E-01            NaN
         13   -1    0    0    0    0  0.00000000000E+00  0.00000000000E+00  0.74505805969E-08  0.10566000000E+00  0.10566000000E+00 0.  1.
     999900   -1    0    0    0    0 -0.00000000000E+00 -0.00000000000E+00 -0.74505805969E-08  0.93827000000E+00  0.93827000000E+00 0. -1.
     999902    2    1    2    0    0  0.19049068283E-01  0.12328149091E-01  0.83007146484E-02  0.10197690371E+01  0.10194827792E+01 0.  0.
     999903    2    3    3    0    0 -0.72586707387E-01 -0.95795770038E-02 -0.10369394336E+00  0.12768167188E+00  0.13768698526E-01 0.  0.
         14    1    1    2    0    0 -0.19049068283E-01 -0.12328149091E-01 -0.83007146484E-02  0.24160962856E-01  0.00000000000E+00 0. -1.
     999901    1    3    3    0    0  0.91635775670E-01  0.21907726095E-01  0.11199465801E+00  0.89208736527E+00  0.88000000000E+00 0.  1.
        -11    1    4    4    0    0 -0.24301238912E-01 -0.94198035167E-02 -0.40186319757E-01  0.47900775856E-01  0.51100000000E-03 0. -1.
         11    1    4    4    0    0 -0.48285468475E-01 -0.15977348705E-03 -0.63507623603E-01  0.79780896022E-01  0.51100000000E-03 0.  1.
</event>
<event>
 8    1  0.1233916E+005  0.1043930E+01  0.7957747E-01            NaN
         13   -1    0    0    0    0  0.00000000000E+00  0.00000000000E+00  0.74505805969E-08  0.10566000000E+00  0.10566000000E+00 0. -1.
     999900   -1    0    0    0    0 -0.00000000000E+00 -0.00000000000E+00 -0.74505805969E-08  0.93827000000E+00  0.93827000000E+00 0.  1.
     999902    2    1    2    0    0 -0.15540105046E-01  0.76960557659E-02  0.17517519646E-01  0.10192807072E+01  0.10189826164E+01 0.  0.
     999903    2    3    3    0    0  0.56978094012E-01  0.10842641864E+00  0.39919961554E-01  0.13028837622E+00  0.19459347181E-01 0.  0.
         14    1    1    2    0    0  0.15540105046E-01 -0.76960557659E-02 -0.17517519646E-01  0.24649292763E-01  0.00000000000E+00 0.  1.
     999901    1    3    3    0    0 -0.72518199058E-01 -0.10073036287E+00 -0.22402441909E-01  0.88899233101E+00  0.88000000000E+00 0.  1.
        -11    1    4    4    0    0  0.24692740394E-01  0.53901994279E-01  0.28937049070E-01  0.65975528382E-01  0.51100000000E-03 0.  1.
         11    1    4    4    0    0  0.32285353618E-01  0.54524424358E-01  0.10982912485E-01  0.64312847841E-01  0.51100000000E-03 0. -1.
</event>
<event>
 8    1  0.1233916E+005  0.1043930E+01  0.7957747E-01            NaN
         13   -1    0    0    0    0  0.00000000000E+00  0.00000000000E+00  0.74505805969E-08  0.10566000000E+00  0.10566000000E+00 0.  1.
     999900   -1    0    0    0    0 -0.00000000000E+00 -0.00000000000E+00 -0.74505805969E-08  0.93827000000E+00  0.93827000000E+00 0.  1.
     999902    2    1    2    0    0 -0.10534430751E-01  0.30647873261E-02  0.21566603843E-01  0.10197331912E+01  0.10194460730E+01 0.  0.
     999903    2    3    3    0    0  0.36149363535E-02 -0.12674978642E+00  0.77565620039E-02  0.12999011293E+00  0.27544311295E-01 0.  0.
         14    1    1    2    0    0  0.10534430751E-01 -0.30647873261E-02 -0.21566603843E-01  0.24196808755E-01  0.00000000000E+00 0. -1.
     999901    1    3    3    0    0 -0.14149367105E-01  0.12981457374E+00  0.13810041839E-01  0.88974307831E+00  0.88000000000E+00 0. -1.
        -11    1    4    4    0    0 -0.93325555618E-02 -0.78809786006E-01  0.11490806245E-01  0.80189642179E-01  0.51100000000E-03 0.  1.
         11    1    4    4    0    0  0.12947491915E-01 -0.47940000412E-01 -0.37342442414E-02  0.49800470755E-01  0.51100000000E-03 0. -1.
</event>
<event>
 8    1  0.1233916E+005  0.1043930E+01  0.7957747E-01            NaN
         13   -1    0    0    0    0  0.00000000000E+00  0.00000000000E+00  0.74505805969E-08  0.10566000000E+00  0.10566000000E+00 0.  1.
     999900   -1    0    0    0    0 -0.00000000000E+00 -0.00000000000E+00 -0.74505805969E-08  0.93827000000E+00  0.93827000000E+00 0. -1.
     999902    2    1    2    0    0  0.12551378501E-01  0.12871261412E-01  0.28121353626E-02  0.10257334460E+01  0.10255720295E+01 0.  0.
     999903    2    3    3    0    0 -0.80106449229E-01  0.10298222445E+00 -0.30797192216E-01  0.13565758091E+00  0.20787747559E-01 0.  0.
         14    1    1    2    0    0 -0.12551378501E-01 -0.12871261412E-01 -0.28121353626E-02  0.18196554012E-01  0.00000000000E+00 0.  1.
     999901    1    3    3    0    0  0.92657827729E-01 -0.90110963038E-01  0.33609327578E-01  0.89007586508E+00  0.88000000000E+00 0. -1.
        -11    1    4    4    0    0 -0.23729835196E-01  0.38773833522E-01 -0.19495916658E-01  0.49465817812E-01  0.51100000000E-03 0.  1.
         11    1    4    4    0    0 -0.56376614033E-01  0.64208390928E-01 -0.11301275558E-01  0.86191763096E-01  0.51100000000E-03 0. -1.
</event>
<event>
 8    1  0.1233916E+005  0.1043930E+01  0.7957747E-01            NaN
         13   -1    0    0    0    0  0.00000000000E+00  0.00000000000E+00  0.74505805969E-08  0.10566000000E+00  0.10566000000E+00 0. -1.
     999900   -1    0    0    0    0 -0.00000000000E+00 -0.00000000000E+00 -0.74505805969E-08  0.93827000000E+00  0.93827000000E+00 0.  1.
     999902    2    1    2    0    0  0.20812057396E-01 -0.57993656569E-02  0.10667167254E-01  0.10198351285E+01  0.10195504531E+01 0.  0.
     999903    2    3    3    0    0 -0.10939413957E+00  0.34771207342E-01 -0.51084576907E-01  0.12719135688E+00  0.19796278303E-01 0.  0.
         14    1    1    2    0    0 -0.20812057396E-01  0.57993656569E-02 -0.10667167254E-01  0.24094871494E-01  0.00000000000E+00 0. -1.
     999901    1    3    3    0    0  0.13020619696E+00 -0.40570572998E-01  0.61751744161E-01  0.89264377163E+00  0.88000000000E+00 0. -1.
        -11    1    4    4    0    0 -0.70044051706E-01  0.13594819391E-01 -0.25994116156E-01  0.75940394319E-01  0.51100000000E-03 0.  1.
         11    1    4    4    0    0 -0.39350087862E-01  0.21176387951E-01 -0.25090460751E-01  0.51250962558E-01  0.51100000000E-03 0. -1.
</event>
<event>
 8    1  0.1233916E+005  0.1043930E+01  0.7957747E-01            NaN
         13   -1    0    0    0    0  0.00000000000E+00  0.00000000000E+00  0.74505805969E-08  0.10566000000E+00  0.10566000000E+00 0. -1.
     999900   -1    0    0    0    0 -0.00000000000E+00 -0.00000000000E+00 -0.74505805969E-08  0.93827000000E+00  0.93827000000E+00 0. -1.
     999902    2    1    2    0    0  0.49370510182E-02 -0.51841127364E-02  0.21755214962E-01  0.10210271863E+01  0.10207702858E+01 0.  0.
     999903    2    3    3    0    0  0.89863499522E-01  0.93672881912E-01  0.17382678809E-02  0.13120367277E+00  0.19008546016E-01 0.  0.
         14    1    1    2    0    0 -0.49370510182E-02  0.51841127364E-02 -0.21755214962E-01  0.22902813706E-01  0.00000000000E+00 0.  1.
     999901    1    3    3    0    0 -0.84926448504E-01 -0.98856994648E-01  0.20016947081E-01  0.88982351352E+00  0.88000000000E+00 0.  1.
        -11    1    4    4    0    0  0.21959492465E-01  0.18551172109E-01  0.76985678083E-02  0.29763977611E-01  0.51100000000E-03 0. -1.
         11    1    4    4    0    0  0.67904007057E-01  0.75121709803E-01 -0.59602999273E-02  0.10143969516E+00  0.51100000000E-03 0.  1.
</event>
<event>
 8    1  0.1233916E+005  0.1043930E+01  0.7957747E-01            NaN
         13   -1    0    0    0    0  0.00000000000E+00  0.00000000000E+00  0.74505805969E-08  0.10566000000E+00  0.10566000000E+00 0. -1.
     999900   -1    0    0    0    0 -0.00000000000E+00 -0.00000000000E+00 -0.74505805969E-08  0.93827000000E+00  0.93827000000E+00 0.  1.
     999902    2    1    2    0    0  0.17623628983E-02  0.37874714227E-02  0.22863837240E-01  0.10206876697E+01  0.10204230070E+01 0.  0.
     999903    2    3    3    0    0 -0.16369350445E-01  0.10425216598E+00 -0.72885665167E-01  0.12962657133E+00  0.18821744382E-01 0.  0.
         14    1    1    2    0    0 -0.17623628983E-02 -0.37874714227E-02 -0.22863837240E-01  0.23242330264E-01  0.00000000000E+00 0.  1.
     999901    1    3    3    0    0  0.18131713343E-01 -0.10046469456E+00  0.95749502408E-01  0.89106109841E+00  0.88000000000E+00 0. -1.
        -11    1    4    4    0    0 -0.18809842432E-01  0.90145810943E-01 -0.68062683003E-01  0.11451142887E+00  0.51100000000E-03 0. -1.
         11    1    4    4    0    0  0.24404919874E-02  0.14106355040E-01 -0.48229821639E-02  0.15115142461E-01  0.51100000000E-03 0.  1.
</event>
<event>
 8    1  0.1233916E+005  0.1043930E+01  0.7957747E-01            NaN
         13   -1    0    0    0    0  0.00000000000E+00  0.00000000000E+00  0.74505805969E-08  0.10566000000E+00  0.10566000000E+00 0. -1.
     999900   -1    0    0    0    0 -0.00000000000E+00 -0.00000000000E+00 -0.74505805969E-08  0.93827000000E+00  0.93827000000E+00 0. -1.
     999902    2    1    2    0    0  0.73719960326E-02 -0.21801526190E-01 -0.32539352283E-03  0.10209135113E+01  0.10206540251E+01 0.  0.
     999903    2    3    3    0    0  0.43779081074E-01 -0.10809807712E+00  0.62244155028E-01  0.13373398105E+00  0.20214861749E-01 0.  0.
         14    1    1    2    0    0 -0.73719960326E-02  0.21801526190E-01  0.32539352283E-03  0.23016488669E-01  0.00000000000E+00 0.  1.
     999901    1    3    3    0    0 -0.36407085041E-01  0.86296550930E-01 -0.62569548551E-01  0.88717953028E+00  0.88000000000E+00 0. -1.
        -11    1    4    4    0    0  0.13402264517E-01 -0.59599839890E-01  0.34020673086E-01  0.69924451570E-01  0.51100000000E-03 0. -1.
         11    1    4    4    0    0  0.30376816556E-01 -0.48498237230E-01  0.28223481942E-01  0.63809529480E-01  0.51100000000E-03 0.  1.
</event>
<event>
 8    1  0.1233916E+005  0.1043930E+01  0.7957747E-01            NaN
         13   -1    0    0    0    0  0.00000000000E+00  0.00000000000E+00  0.74505805969E-08  0.10566000000E+00  0.10566000000E+00 0. -1.
     999900   -1    0    0    0    0 -0.00000000000E+00 -0.00000000000E+00 -0.74505805969E-08  0.93827000000E+00  0.93827000000E+00 0.  1.
     999902    2    1    2    0    0  0.17699536395E-01 -0.14507544609E-01  0.62438256307E-02  0.10202081156E+01  0.10199322877E+01 0.  0.
     999903    2    3    3    0    0  0.83113787550E-01  0.75789461350E-01  0.64747454434E-01  0.13124509722E+00  0.19521745690E-01 0.  0.
         14    1    1    2    0    0 -0.17699536395E-01  0.14507544609E-01 -0.62438256307E-02  0.23721884362E-01  0.00000000000E+00 0. -1.
     999901    1    3    3    0    0 -0.65414251155E-01 -0.90297005959E-01 -0.58503628803E-01  0.88896301842E+00  0.88000000000E+00 0.  1.
        -11    1    4    4    0    0  0.62194802305E-01  0.44325725093E-01  0.43219092446E-01  0.87755993594E-01  0.51100000000E-03 0.  1.
         11    1    4    4    0    0  0.20918985245E-01  0.31463736257E-01  0.21528361988E-01  0.43489103622E-01  0.51100000000E-03 0. -1.
</event>
<event>
 8    1  0.1233916E+005  0.1043930E+01  0.7957747E-01            NaN
         13   -1    0    0    0    0  0.00000000000E+00  0.00000000000E+00  0.74505805969E-08  0.10566000000E+00  0.10566000000E+00 0.  1.
     999900   -1    0    0    0    0 -0.00000000000E+00 -0.00000000000E+00 -0.74505805969E-08  0.93827000000E+00  0.93827000000E+00 0.  1.
     999902    2    1    2    0    0 -0.26263395003E-02  0.20812813633E-01  0.12515194625E-01  0.10195025366E+01  0.10192098514E+01 0.  0.
     999903    2    3    3    0    0  0.62608556338E-01  0.61198313273E-01 -0.93504386391E-01  0.12982465572E+00  0.21125957578E-01 0.  0.
         14    1    1    2    0    0  0.26263395003E-02 -0.20812813633E-01 -0.12515194625E-01  0.24427463376E-01  0.00000000000E+00 0. -1.
     999901    1    3    3    0    0 -0.65234895838E-01 -0.40385499640E-01  0.10601958102E+00  0.88967788091E+00  0.88000000000E+00 0. -1.
        -11    1    4    4    0    0  0.41977247727E-01  0.53292442567E-01 -0.67557464597E-01  0.95741557880E-01  0.51100000000E-03 0. -1.
         11    1    4    4    0    0  0.20631308611E-01  0.79058707057E-02 -0.25946921793E-01  0.34083097837E-01  0.51100000000E-03 0.  1.
</event>
<event>
 8    1  0.1233916E+005  0.1043930E+01  0.7957747E-01            NaN
         13   -1    0    0    0    0  0.00000000000E+00  0.00000000000E+00  0.74505805969E-08  0.10566000000E+00  0.10566000000E+00 0. -1.
     999900   -1    0    0    0    0 -0.00000000000E+00 -0.00000000000E+00 -0.74505805969E-08  0.93827000000E+00  0.93827000000E+00 0. -1.
     999902    2    1    2    0    0  0.85906259731E-02 -0.87516890752E-02  0.21571346719E-01  0.10191164167E+01  0.10188142897E+01 0.  0.
     999903    2    3    3    0    0  0.70053748195E-01  0.64744201830E-01  0.88042748250E-01  0.13142401019E+00  0.20528166722E-01 0.  0.
         14    1    1    2    0    0 -0.85906259731E-02  0.87516890752E-02 -0.21571346719E-01  0.24813583287E-01  0.00000000000E+00 0.  1.
     999901    1    3    3    0    0 -0.61463122222E-01 -0.73495890905E-01 -0.66471401531E-01  0.88769240652E+00  0.88000000000E+00 0. -1.
        -11    1    4    4    0    0  0.53105731611E-01  0.35871947501E-01  0.58348352658E-01  0.86670679739E-01  0.51100000000E-03 0. -1.
         11    1    4    4    0    0  0.16948016584E-01  0.28872254329E-01  0.29694395591E-01  0.44753330454E-01  0.51100000000E-03 0.  1.
</event>
<event>
 8    1  0.1233916E+005  0.1043930E+01  0.7957747E-01            NaN
         13   -1    0    0    0    0  0.00000000000E+00  0.00000000000E+00  0.74505805969E-08  0.10566000000E+00  0.10566000000E+00 0. -1.
     999900   -1    0    0    0    0 -0.00000000000E+00 -0.00000000000E+00 -0.74505805969E-08  0.93827000000E+00  0.93827000000E+00 0.  1.
     999902    2    1    2    0    0 -0.11247624662E-01 -0.51956440073E-02 -0.20761229678E-01  0.10197528944E+01  0.10194662492E+01 0.  0.
     999903    2    3    3    0    0 -0.91494861057E-01  0.80819990122E-01 -0.45030648330E-01  0.13159338568E+00  0.19643814843E-01 0.  0.
         14    1    1    2    0    0  0.11247624662E-01  0.51956440073E-02  0.20761229678E-01  0.24177105595E-01  0.00000000000E+00 0. -1.
     999901    1    3    3    0    0  0.80247236395E-01 -0.86015634129E-01  0.24269418652E-01  0.88815950873E+00  0.88000000000E+00 0.  1.
        -11    1    4    4    0    0 -0.40227505298E-01  0.24296900771E-01 -0.21921580726E-01  0.51859506285E-01  0.51100000000E-03 0.  1.
         11    1    4    4    0    0 -0.51267355759E-01  0.56523089351E-01 -0.23109067604E-01  0.79733879392E-01  0.51100000000E-03 0. -1.
</event>
<event>
 8    1  0.1233916E+005  0.1043930E+01  0.7957747E-01            NaN
         13   -1    0    0    0    0  0.00000000000E+00  0.00000000000E+00  0.74505805969E-08  0.10566000000E+00  0.10566000000E+00 0. -1.
     999900   -1    0    0    0    0 -0.00000000000E+00 -0.00000000000E+00 -0.74505805969E-08  0.93827000000E+00  0.93827000000E+00 0. -1.
     999902    2    1    2    0    0 -0.27999757253E-03 -0.90508728260E-02 -0.21531979341E-01  0.10205714292E+01  0.10203040817E+01 0.  0.
     999903    2    3    3    0    0 -0.11787614326E+00  0.38877202676E-01  0.32163735216E-01  0.12983623637E+00  0.20413730066E-01 0.  0.
         14    1    1    2    0    0  0.27999757253E-03  0.90508728260E-02  0.21531979341E-01  0.23358570845E-01  0.00000000000E+00 0. -1.
     999901    1    3    3    0    0  0.11759614568E+00 -0.47928075502E-01 -0.53695714558E-01  0.89073519278E+00  0.88000000000E+00 0. -1.
        -11    1    4    4    0    0 -0.62015137383E-01  0.30062067599E-01  0.13086444207E-01  0.70150704315E-01  0.51100000000E-03 0. -1.
         11    1    4    4    0    0 -0.55861005873E-01  0.88151350775E-02  0.19077291009E-01  0.59685532056E-01  0.51100000000E-03 0.  1.
</event>
<event>
 8    1  0.1233916E+005  0.1043930E+01  0.7957747E-01            NaN
         13   -1    0    0    0    0  0.00000000000E+00  0.00000000000E+00  0.74505805969E-08  0.10566000000E+00  0.10566000000E+00 0.  1.
     999900   -1    0    0    0    0 -0.00000000000E+00 -0.00000000000E+00 -0.74505805969E-08  0.93827000000E+00  0.93827000000E+00 0. -1.
     999902    2    1    2    0    0 -0.41788288911E-02  0.15661674125E-01 -0.17482346181E-01  0.10200892140E+01  0.10198105812E+01 0.  0.
     999903    2    3    3    0    0  0.16402633435E-01 -0.12342849270E+00 -0.26586068088E-01  0.12888073739E+00  0.19994655814E-01 0.  0.
         14    1    1    2    0    0  0.41788288911E-02 -0.15661674125E-01  0.17482346181E-01  0.23840785962E-01  0.00000000000E+00 0.  1.
     999901    1    3    3    0    0 -0.20581462326E-01  0.13909016682E+00  0.91037219077E-02  0.89120847665E+00  0.88000000000E+00 0. -1.
        -11    1    4    4    0    0  0.99773655153E-02 -0.83445677329E-01 -0.27333474558E-01  0.88374820169E-01  0.51100000000E-03 0.  1.
         11    1    4    4    0    0  0.64252679200E-02 -0.39982815366E-01  0.74740647001E-03  0.40505917220E-01  0.51100000000E-03 0. -1.
</event>
<event>
 8    1  0.1233916E+005  0.1043930E+01  0.7957747E-01            NaN
         13   -1    0    0    0    0  0.00000000000E+00  0.00000000000E+00  0.74505805969E-08  0.10566000000E+00  0.10566000000E+00 0. -1.
     999900   -1    0    0    0    0 -0.00000000000E+00 -0.00000000000E+00 -0.74505805969E-08  0.93827000000E+00  0.93827000000E+00 0. -1.
     999902    2    1    2    0    0 -0.18038721911E-01 -0.46488262075E-02  0.13493702255E-01  0.10209281072E+01  0.10206689536E+01 0.  0.
     999903    2    3    3    0    0  0.48084623270E-01  0.11190231826E+00 -0.38463749829E-01  0.12926895543E+00  0.19918407545E-01 0.  0.
         14    1    1    2    0    0  0.18038721911E-01  0.46488262075E-02 -0.13493702255E-01  0.23001892831E-01  0.00000000000E+00 0.  1.
     999901    1    3    3    0    0 -0.66123345181E-01 -0.11655114447E+00  0.51957452083E-01  0.89165915174E+00  0.88000000000E+00 0.  1.
        -11    1    4    4    0    0  0.20465809227E-01  0.59875284926E-01 -0.29002990364E-01  0.69608430979E-01  0.51100000000E-03 0. -1.
         11    1    4    4    0    0  0.27618814043E-01  0.52027033337E-01 -0.94607594646E-02  0.59660524450E-01  0.51100000000E-03 0.  1.
</event>
<event>
 8    1  0.1233916E+005  0.1043930E+01  0.7957747E-01            NaN
         13   -1    0    0    0    0  0.00000000000E+00  0.00000000000E+00  0.74505805969E-08  0.10566000000E+00  0.10566000000E+00 0. -1.
     999900   -1    0    0    0    0 -0.00000000000E+00 -0.00000000000E+00 -0.74505805969E-08  0.93827000000E+00  0.93827000000E+00 0. -1.
     999902    2    1    2    0    0 -0.17035947272E-01  0.15511274303E-01 -0.14300140718E-01  0.10168132680E+01  0.10164516244E+01 0.  0.
     999903    2    3    3    0    0 -0.80040444063E-01 -0.60145688396E-01  0.75373891307E-01  0.12679361954E+00  0.19272310359E-01 0.  0.
         14    1    1    2    0    0  0.17035947272E-01 -0.15511274303E-01  0.14300140718E-01  0.27116732003E-01  0.00000000000E+00 0.  1.
     999901    1    3    3    0    0  0.63004496791E-01  0.75656962700E-01 -0.89674032025E-01  0.89001964846E+00  0.88000000000E+00 0. -1.
        -11    1    4    4    0    0 -0.17731311606E-01 -0.17516869552E-01  0.97743220323E-02  0.26777576858E-01  0.51100000000E-03 0.  1.
         11    1    4    4    0    0 -0.62309132458E-01 -0.42628818844E-01  0.65599569275E-01  0.10001604268E+00  0.51100000000E-03 0. -1.
</event>
<event>
 7    1  0.1233916E+005  0.1043930E+01  0.7957747E-01            NaN
         13   -1    0    0    0    0  0.00000000000E+00  0.00000000000E+00  0.74505805969E-08  0.10566000000E+00  0.10566000000E+00 0. -1.
     999900   -1    0    0    0    0 -0.00000000000E+00 -0.00000000000E+00 -0.74505805969E-08  0.93827000000E+00  0.93827000000E+00 0.  1.
     999903    2    1    2    0    0 -0.10299818214E+00 -0.38145778185E-01 -0.20831194991E-01  0.11371011829E+00  0.20792460161E-01 0.  0.
         14    1    1    2    0    0  0.23204960349E-01 -0.20456248187E-01 -0.30157439828E-01  0.43201845466E-01  0.00000000000E+00 0.  1.
     999901    1    1    2    0    0  0.79793221791E-01  0.58602026372E-01  0.50988634820E-01  0.88701803624E+00  0.88000000000E+00 0. -1.
        -11    1    3    3    0    0 -0.31943818603E-02 -0.61301540186E-02 -0.56447939151E-03  0.69543239603E-02  0.51100000000E-03 0. -1.
         11    1    3    3    0    0 -0.99803800280E-01 -0.32015624167E-01 -0.20266715600E-01  0.10675579433E+00  0.51100000000E-03 0.  1.
</event>
<event>
 8    1  0.1233916E+005  0.1043930E+01  0.7957747E-01            NaN
         13   -1    0    0    0    0  0.00000000000E+00  0.00000000000E+00  0.74505805969E-08  0.10566000000E+00  0.10566000000E+00 0.  1.
     999900   -1    0    0    0    0 -0.00000000000E+00 -0.00000000000E+00 -0.74505805969E-08  0.93827000000E+00  0.93827000000E+00 0.  1.
     999902    2    1    2    0    0 -0.14557379313E-01 -0.18891416117E-01  0.59315565807E-03  0.10200730360E+01  0.10197940204E+01 0.  0.
     999903    2    3    3    0    0 -0.97109305891E-01  0.83361466713E-01 -0.14882249594E-01  0.13017980605E+00  0.18599707716E-01 0.  0.
         14    1    1    2    0    0  0.14557379313E-01  0.18891416117E-01 -0.59315565807E-03  0.23856963952E-01  0.00000000000E+00 0.  1.
     999901    1    3    3    0    0  0.82551926578E-01 -0.10225288283E+00  0.15475405252E-01  0.88989323000E+00  0.88000000000E+00 0.  1.
        -11    1    4    4    0    0 -0.27867069862E-01  0.32974929711E-01  0.46835744704E-03  0.43178699052E-01  0.51100000000E-03 0. -1.
         11    1    4    4    0    0 -0.69242236029E-01  0.50386537002E-01 -0.15350607041E-01  0.87001106998E-01  0.51100000000E-03 0.  1.
</event>
<event>
 8    1  0.1233916E+005  0.1043930E+01  0.7957747E-01            NaN
         13   -1    0    0    0    0  0.00000000000E+00  0.00000000000E+00  0.74505805969E-08  0.10566000000E+00  0.10566000000E+00 0.  1.
     999900   -1    0    0    0    0 -0.00000000000E+00 -0.00000000000E+00 -0.74505805969E-08  0.93827000000E+00  0.93827000000E+00 0. -1.
     999902    2    1    2    0    0 -0.23478261675E-01 -0.24924692415E-02 -0.61657634162E-02  0.10195279957E+01  0.10192359277E+01 0.  0.
     999903    2    3    3    0    0 -0.17530078096E-01  0.12039098036E+00  0.40497094616E-01  0.12974535632E+00  0.19812900446E-01 0.  0.
         14    1    1    2    0    0  0.23478261675E-01  0.24924692415E-02  0.61657634162E-02  0.24402004276E-01  0.00000000000E+00 0. -1.
     999901    1    3    3    0    0 -0.59481835788E-02 -0.12288344960E+00 -0.46662858033E-01  0.88978263941E+00  0.88000000000E+00 0. -1.
        -11    1    4    4    0    0 -0.18394293240E-01  0.59646586714E-01  0.23001442582E-01  0.66523625970E-01  0.51100000000E-03 0.  1.
         11    1    4    4    0    0  0.86421514413E-03  0.60744393641E-01  0.17495652035E-01  0.63221730345E-01  0.51100000000E-03 0. -1.
</event>
<event>
 7    1  0.1233916E+005  0.1043930E+01  0.7957747E-01            NaN
         13   -1    0    0    0    0  0.00000000000E+00  0.00000000000E+00  0.74505805969E-08  0.10566000000E+00  0.10566000000E+00 0.  1.
     999900   -1    0    0    0    0 -0.00000000000E+00 -0.00000000000E+00 -0.74505805969E-08  0.93827000000E+00  0.93827000000E+00 0. -1.
     999902    2    1    2    0    0 -0.30866527668E-02 -0.28854154650E-02  0.22956781516E-01  0.10205876165E+01  0.10203206438E+01 0.  0.
         14    1    1    2    0    0  0.30866527668E-02  0.28854154650E-02 -0.22956781516E-01  0.23342383454E-01  0.00000000000E+00 0. -1.
     999901    1    3    3    0    0  0.95551778861E-01  0.41847264180E-01  0.85514562026E-01  0.89027752767E+00  0.88000000000E+00 0.  1.
        -11    1    3    3    0    0 -0.35585521005E-01 -0.31239286442E-01 -0.40025148933E-01  0.62003999796E-01  0.51100000000E-03 0.  1.
         11    1    3    3    0    0 -0.63052910623E-01 -0.13493393203E-01 -0.22532631577E-01  0.68306089076E-01  0.51100000000E-03 0. -1.
</event>
<event>
 8    1  0.1233916E+005  0.1043930E+01  0.7957747E-01            NaN
         13   -1    0    0    0    0  0.00000000000E+00  0.00000000000E+00  0.74505805969E-08  0.10566000000E+00  0.10566000000E+00 0. -1.
     999900   -1    0    0    0    0 -0.00000000000E+00 -0.00000000000E+00 -0.74505805969E-08  0.93827000000E+00  0.93827000000E+00 0. -1.
     999902    2    1    2    0    0 -0.10463632713E-01  0.56308033226E-02  0.19749488653E-01  0.10208814456E+01  0.10206212276E+01 0.  0.
     999903    2    3    3    0    0  0.95062586095E-01 -0.45483080660E-01 -0.70045775894E-01  0.12857454692E+00  0.22790293829E-01 0.  0.
         14    1    1    2    0    0  0.10463632713E-01 -0.56308033226E-02 -0.19749488653E-01  0.23048554351E-01  0.00000000000E+00 0.  1.
     999901    1    3    3    0    0 -0.10552621881E+00  0.51113883982E-01  0.89795264547E-01  0.89230689873E+00  0.88000000000E+00 0.  1.
        -11    1    4    4    0    0  0.19918617128E-01 -0.19814491225E-01 -0.14118160454E-01  0.31447558672E-01  0.51100000000E-03 0. -1.
         11    1    4    4    0    0  0.75143968967E-01 -0.25668589434E-01 -0.55927615440E-01  0.97126988244E-01  0.51100000000E-03 0.  1.
</event>
<event>
 8    1  0.1233916E+005  0.1043930E+01  0.7957747E-01            NaN
         13   -1    0    0    0    0  0.00000000000E+00  0.00000000000E+00  0.74505805969E-08  0.10566000000E+00  0.10566000000E+00 0. -1.
     999900   -1    0    0    0    0 -0.00000000000E+00 -0.00000000000E+00 -0.74505805969E-08  0.93827000000E+00  0.93827000000E+00 0.  1.
     999902    2    1    2    0    0 -0.23163431144E-02  0.97190315358E-02  0.20544829112E-01  0.10210845404E+01  0.10208289395E+01 0.  0.
     999903    2    3    3    0    0 -0.12336161613E+00  0.38875797870E-01  0.19826615751E-01  0.13231989725E+00  0.19648015773E-01 0.  0.
         14    1    1    2    0    0  0.23163431144E-02 -0.97190315358E-02 -0.20544829112E-01  0.22845459564E-01  0.00000000000E+00 0.  1.
     999901    1    3    3    0    0  0.12104527301E+00 -0.29156766334E-01  0.71821336128E-03  0.88876464318E+00  0.88000000000E+00 0.  1.
        -11    1    4    4    0    0 -0.11433441638E+00  0.40999652498E-01  0.17264065271E-01  0.12268512275E+00  0.51100000000E-03 0.  1.
         11    1    4    4    0    0 -0.90271997463E-02 -0.21238546286E-02  0.25625504798E-02  0.96347745020E-02  0.51100000000E-03 0. -1.
</event>
<event>
 8    1  0.1233916E+005  0.1043930E+01  0.7957747E-01            NaN
         13   -1    0    0    0    0  0.00000000000E+00  0.00000000000E+00  0.74505805969E-08  0.10566000000E+00  0.10566000000E+00 0. -1.
     999900   -1    0    0    0    0 -0.00000000000E+00 -0.00000000000E+00 -0.74505805969E-08  0.93827000000E+00  0.93827000000E+00 0. -1.
     999902    2    1    2    0    0  0.44690019830E-02  0.24999736271E-01  0.17866951405E-01  0.10128786434E+01  0.10124025679E+01 0.  0.
     999903    2    3    3    0    0 -0.88780152427E-01 -0.78813620227E-01  0.19988938269E-01  0.12188082042E+00  0.19023000136E-01 0.  0.
         14    1    1    2    0    0 -0.44690019830E-02 -0.24999736271E-01 -0.17866951405E-01  0.31051356570E-01  0.00000000000E+00 0. -1.
     999901    1    3    3    0    0  0.93249154410E-01  0.10381335650E+00 -0.21219868640E-02  0.89099782301E+00  0.88000000000E+00 0. -1.
        -11    1    4    4    0    0 -0.23681039251E-01 -0.33000281153E-01  0.72275433352E-02  0.41259043613E-01  0.51100000000E-03 0.  1.
         11    1    4    4    0    0 -0.65099113176E-01 -0.45813339074E-01  0.12761394934E-01  0.80621776804E-01  0.51100000000E-03 0. -1.
</event>
<event>
 8    1  0.1233916E+005  0.1043930E+01  0.7957747E-01            NaN
         13   -1    0    0    0    0  0.00000000000E+00  0.00000000000E+00  0.74505805969E-08  0.10566000000E+00  0.10566000000E+00 0.  1.
     999900   -1    0    0    0    0 -0.00000000000E+00 -0.00000000000E+00 -0.74505805969E-08  0.93827000000E+00  0.93827000000E+00 0.  1.
     999902    2    1    2    0    0  0.58759165476E-02  0.18615745905E-01  0.12697554243E-01  0.10206426585E+01  0.10203769578E+01 0.  0.
     999903    2    3    3    0    0 -0.54705802248E-01 -0.97749482432E-02 -0.11397718111E+00  0.12905830200E+00  0.24020264106E-01 0.  0.
         14    1    1    2    0    0 -0.58759165476E-02 -0.18615745905E-01 -0.12697554243E-01  0.23287341510E-01  0.00000000000E+00 0.  1.
     999901    1    3    3    0    0  0.60581718795E-01  0.28390694148E-01  0.12667473535E+00  0.89158435649E+00  0.88000000000E+00 0.  1.
        -11    1    4    4    0    0 -0.36711085992E-01 -0.12777757455E-01 -0.55215822126E-01  0.67527942766E-01  0.51100000000E-03 0.  1.
         11    1    4    4    0    0 -0.17994716256E-01  0.30028092114E-02 -0.58761358985E-01  0.61530359230E-01  0.51100000000E-03 0. -1.
</event>
<event>
 8    1  0.1233916E+005  0.1043930E+01  0.7957747E-01            NaN
         13   -1    0    0    0    0  0.00000000000E+00  0.00000000000E+00  0.74505805969E-08  0.10566000000E+00  0.10566000000E+00 0.  1.
     999900   -1    0    0    0    0 -0.00000000000E+00 -0.00000000000E+00 -0.74505805969E-08  0.93827000000E+00  0.93827000000E+00 0.  1.
     999902    2    1    2    0    0 -0.14272637679E-01 -0.21089679457E-02 -0.18381615864E-01  0.10205625069E+01  0.10202949528E+01 0.  0.
     999903    2    3    3    0    0 -0.10233811902E+00 -0.17720695211E-01 -0.81978465457E-01  0.13374583232E+00  0.19502954182E-01 0.  0.
         14    1    1    2    0    0  0.14272637679E-01  0.21089679457E-02  0.18381615864E-01  0.23367493103E-01  0.00000000000E+00 0.  1.
     999901    1    3    3    0    0  0.88065481336E-01  0.15611727265E-01  0.63596849592E-01  0.88681667458E+00  0.88000000000E+00 0. -1.
        -11    1    4    4    0    0 -0.79650409896E-01 -0.20377956780E-01 -0.57946820433E-01  0.10058600319E+00  0.51100000000E-03 0. -1.
         11    1    4    4    0    0 -0.22687709119E-01  0.26572615688E-02 -0.24031645023E-01  0.33159829126E-01  0.51100000000E-03 0.  1.
</event>
<event>
 8    1  0.1233916E+005  0.1043930E+01  0.7957747E-01            NaN
         13   -1    0    0    0    0  0.00000000000E+00  0.00000000000E+00  0.74505805969E-08  0.10566000000E+00  0.10566000000E+00 0. -1.
     999900   -1    0    0    0    0 -0.00000000000E+00 -0.00000000000E+00 -0.74505805969E-08  0.93827000000E+00  0.93827000000E+00 0. -1.
     999902    2    1    2    0    0  0.92767717436E-02  0.59509899819E-02  0.20607467909E-01  0.10205603507E+01  0.10202927467E+01 0.  0.
     999903    2    3    3    0    0 -0.23569918995E-01  0.29929771692E-01 -0.12084353465E+00  0.12833713131E+00  0.20394290641E-01 0.  0.
         14    1    1    2    0    0 -0.92767717436E-02 -0.59509899819E-02 -0.20607467909E-01  0.23369649321E-01  0.00000000000E+00 0.  1.
     999901    1    3    3    0    0  0.32846690738E-01 -0.23978781710E-01  0.14145100256E+00  0.89222321937E+00  0.88000000000E+00 0.  1.
        -11    1    4    4    0    0 -0.19299993062E-01  0.13680171890E-01 -0.47192552893E-01  0.52792376388E-01  0.51100000000E-03 0.  1.
         11    1    4    4    0    0 -0.42699259331E-02  0.16249599802E-01 -0.73650981755E-01  0.75544754918E-01  0.51100000000E-03 0. -1.
</event>
<event>
 8    1  0.1233916E+005  0.1043930E+01  0.7957747E-01            NaN
         13   -1    0    0    0    0  0.00000000000E+00  0.00000000000E+00  0.74505805969E-08  0.10566000000E+00  0.10566000000E+00 0. -1.
     999900   -1    0    0    0    0 -0.00000000000E+00 -0.00000000000E+00 -0.74505805969E-08  0.93827000000E+00  0.93827000000E+00 0.  1.
     999902    2    1    2    0    0  0.13204748145E-01  0.15399619404E-01 -0.10585234280E-01  0.10210485482E+01  0.10207921321E+01 0.  0.
     999903    2    3    3    0    0 -0.11431729669E+00  0.44934989141E-02  0.56726446091E-01  0.12924606016E+00  0.19950401645E-01 0.  0.
         14    1    1    2    0    0 -0.13204748145E-01 -0.15399619404E-01  0.10585234280E-01  0.22881451792E-01  0.00000000000E+00 0. -1.
     999901    1    3    3    0    0  0.12752204483E+00  0.10906120490E-01 -0.67311680371E-01  0.89180248805E+00  0.88000000000E+00 0.  1.
        -11    1    4    4    0    0 -0.87402246971E-01 -0.48637917915E-02  0.40541070824E-01  0.96470973825E-01  0.51100000000E-03 0.  1.
         11    1    4    4    0    0 -0.26915049715E-01  0.93572907056E-02  0.16185375267E-01  0.32775086331E-01  0.51100000000E-03 0. -1.
</event>
<event>
 8    1  0.1233916E+005  0.1043930E+01  0.7957747E-01            NaN
         13   -1    0    0    0    0  0.00000000000E+00  0.00000000000E+00  0.74505805969E-08  0.10566000000E+00  0.10566000000E+00 0. -1.
     999900   -1    0    0    0    0 -0.00000000000E+00 -0.00000000000E+00 -0.74505805969E-08  0.93827000000E+00  0.93827000000E+00 0. -1.
     999902    2    1    2    0    0 -0.14924110042E-01  0.18769239419E-01 -0.13314209955E-01  0.10165022477E+01  0.10161321459E+01 0.  0.
     999903    2    3    3    0    0 -0.70968499113E-01 -0.19025586527E-02  0.10317960712E+00  0.12681741239E+00  0.19911734357E-01 0.  0.
         14    1    1    2    0    0  0.14924110042E-01 -0.18769239419E-01  0.13314209955E-01  0.27427752289E-01  0.00000000000E+00 0.  1.
     999901    1    3    3    0    0  0.56044389071E-01  0.20671798072E-01 -0.11649381707E+00  0.88968483532E+00  0.88000000000E+00 0. -1.
        -11    1    4    4    0    0 -0.20097267060E-01  0.83613107004E-02  0.28167479887E-01  0.35601681198E-01  0.51100000000E-03 0.  1.
         11    1    4    4    0    0 -0.50871232053E-01 -0.10263869353E-01  0.75012127230E-01  0.91215731194E-01  0.51100000000E-03 0. -1.
</event>
<event>
 8    1  0.1233916E+005  0.1043930E+01  0.7957747E-01            NaN
         13   -1    0    0    0    0  0.00000000000E+00  0.00000000000E+00  0.74505805969E-08  0.10566000000E+00  0.10566000000E+00 0.  1.
     999900   -1    0    0    0    0 -0.00000000000E+00 -0.00000000000E+00 -0.74505805969E-08  0.93827000000E+00  0.93827000000E+00 0. -1.
     999902    2    1    2    0    0 -0.15066508259E-01 -0.17278686563E-01  0.58127861955E-02  0.10202796054E+01  0.10200054569E+01 0.  0.
     999903    2    3    3    0    0 -0.49104164281E-01  0.59453936553E-01  0.10389694177E+00  0.13086015485E+00  0.19591225013E-01 0.  0.
         14    1    1    2    0    0  0.15066508259E-01  0.17278686563E-01 -0.58127861955E-02  0.23650394581E-01  0.00000000000E+00 0. -1.
     999901    1    3    3    0    0  0.34037656022E-01 -0.76732623117E-01 -0.98084155570E-01  0.88941945057E+00  0.88000000000E+00 0. -1.
        -11    1    4    4    0    0 -0.23013002170E-01  0.36571408688E-01  0.70527505172E-01  0.82713096357E-01  0.51100000000E-03 0. -1.
         11    1    4    4    0    0 -0.26091162111E-01  0.22882527865E-01  0.33369436594E-01  0.48147058492E-01  0.51100000000E-03 0.  1.
</event>
<event>
 8    1  0.1233916E+005  0.1043930E+01  0.7957747E-01            NaN
         13   -1    0    0    0    0  0.00000000000E+00  0.00000000000E+00  0.74505805969E-08  0.10566000000E+00  0.10566000000E+00 0.  1.
     999900   -1    0    0    0    0 -0.00000000000E+00 -0.00000000000E+00 -0.74505805969E-08  0.93827000000E+00  0.93827000000E+00 0.  1.
     999902    2    1    2    0    0 -0.21643715421E-01  0.89147846264E-02 -0.30971648369E-02  0.10203182184E+01  0.10200449747E+01 0.  0.
     999903    2    3    3    0    0 -0.79484075085E-01 -0.92077168883E-01 -0.45855595519E-01  0.13162639029E+00  0.20660294277E-01 0.  0.
         14    1    1    2    0    0  0.21643715421E-01 -0.89147846264E-02  0.30971648369E-02  0.23611781639E-01  0.00000000000E+00 0. -1.
     999901    1    3    3    0    0  0.57840359664E-01  0.10099195351E+00  0.42758430682E-01  0.88869182807E+00  0.88000000000E+00 0. -1.
        -11    1    4    4    0    0 -0.62730858812E-01 -0.58327206717E-01 -0.30321854775E-01  0.90867484222E-01  0.51100000000E-03 0.  1.
         11    1    4    4    0    0 -0.16753216273E-01 -0.33749962165E-01 -0.15533740744E-01  0.40758906071E-01  0.51100000000E-03 0. -1.
</event>
<event>
 8    1  0.1233916E+005  0.1043930E+01  0.7957747E-01            NaN
         13   -1    0    0    0    0  0.00000000000E+00  0.00000000000E+00  0.74505805969E-08  0.10566000000E+00  0.10566000000E+00 0.  1.
     999900   -1    0    0    0    0 -0.00000000000E+00 -0.00000000000E+00 -0.74505805969E-08  0.93827000000E+00  0.93827000000E+00 0.  1.
     999902    2    1    2    0    0  0.21257480810E-01  0.12737801347E-02 -0.70425068431E-02  0.10215001113E+01  0.10212538261E+01 0.  0.
     999903    2    3    3    0    0 -0.59968473528E-01  0.87287532463E-01 -0.74704146866E-01  0.13100916870E+00  0.19166679010E-01 0.  0.
         14    1    1    2    0    0 -0.21257480810E-01 -0.12737801347E-02  0.70425068431E-02  0.22429888739E-01  0.00000000000E+00 0. -1.
     999901    1    3    3    0    0  0.81225954338E-01 -0.86013752328E-01  0.67661640023E-01  0.89049094256E+00  0.88000000000E+00 0. -1.
        -11    1    4    4    0    0 -0.54575673994E-02  0.17293866243E-01 -0.71511476479E-02  0.19500330387E-01  0.51100000000E-03 0.  1.
         11    1    4    4    0    0 -0.54510906129E-01  0.69993666220E-01 -0.67552999218E-01  0.11150883832E+00  0.51100000000E-03 0. -1.
</event>
<event>
 8    1  0.1233916E+005  0.1043930E+01  0.7957747E-01            NaN
         13   -1    0    0    0    0  0.00000000000E+00  0.00000000000E+00  0.74505805969E-08  0.10566000000E+00  0.10566000000E+00 0. -1.
     999900   -1    0    0    0    0 -0.00000000000E+00 -0.00000000000E+00 -0.74505805969E-08  0.93827000000E+00  0.93827000000E+00 0. -1.
     999902    2    1    2    0    0  0.21906706327E-01  0.36453526643E-02 -0.95858190440E-02  0.10197415667E+01  0.10194546496E+01 0.  0.
     999903    2    3    3    0    0  0.69240827933E-02 -0.12530847110E+00  0.25446279677E-01  0.12952765107E+00  0.19487005648E-01 0.  0.
         14    1    1    2    0    0 -0.21906706327E-01 -0.36453526643E-02  0.95858190440E-02  0.24188433287E-01  0.00000000000E+00 0. -1.
     999901    1    3    3    0    0  0.14982623533E-01  0.12895382377E+00 -0.35032098721E-01  0.89021391565E+00  0.88000000000E+00 0.  1.
        -11    1    4    4    0    0  0.14160725853E-02 -0.67657577353E-01  0.40826736449E-02  0.67797362632E-01  0.51100000000E-03 0.  1.
         11    1    4    4    0    0  0.55080102079E-02 -0.57650893748E-01  0.21363606032E-01  0.61730288433E-01  0.51100000000E-03 0. -1.
</event>
<event>
 8    1  0.1233916E+005  0.1043930E+01  0.7957747E-01            NaN
         13   -1    0    0    0    0  0.00000000000E+00  0.00000000000E+00  0.74505805969E-08  0.10566000000E+00  0.10566000000E+00 0. -1.
     999900   -1    0    0    0    0 -0.00000000000E+00 -0.00000000000E+00 -0.74505805969E-08  0.93827000000E+00  0.93827000000E+00 0.  1.
     999902    2    1    2    0    0 -0.18652724009E-01  0.83156301457E-02  0.90485215565E-02  0.10215928211E+01  0.10213485902E+01 0.  0.
     999903    2    3    3    0    0 -0.64827033525E-01  0.32936562199E-01 -0.10862530246E+00  0.13221922920E+00  0.19877294359E-01 0.  0.
         14    1    1    2    0    0  0.18652724009E-01 -0.83156301457E-02 -0.90485215565E-02  0.22337178874E-01  0.00000000000E+00 0.  1.
     999901    1    3    3    0    0  0.46174309515E-01 -0.24620932053E-01  0.11767382402E+00  0.88937359192E+00  0.88000000000E+00 0. -1.
        -11    1    4    4    0    0 -0.14441365426E-03  0.45619966642E-02 -0.47849804874E-02  0.66324828030E-02  0.51100000000E-03 0. -1.
         11    1    4    4    0    0 -0.64682619871E-01  0.28374565535E-01 -0.10384032197E+00  0.12558674640E+00  0.51100000000E-03 0.  1.
</event>
<event>
 8    1  0.1233916E+005  0.1043930E+01  0.7957747E-01            NaN
         13   -1    0    0    0    0  0.00000000000E+00  0.00000000000E+00  0.74505805969E-08  0.10566000000E+00  0.10566000000E+00 0.  1.
     999900   -1    0    0    0    0 -0.00000000000E+00 -0.00000000000E+00 -0.74505805969E-08  0.93827000000E+00  0.93827000000E+00 0. -1.
     999902    2    1    2    0    0 -0.64429473262E-02 -0.15793689087E-01 -0.16910201901E-01  0.10199111092E+01  0.10196282478E+01 0.  0.
     999903    2    3    3    0    0  0.90892586885E-01  0.83537318528E-01  0.27925282784E-01  0.12786230116E+00  0.18138376524E-01 0.  0.
         14    1    1    2    0    0  0.64429473262E-02  0.15793689087E-01  0.16910201901E-01  0.24018890765E-01  0.00000000000E+00 0.  1.
     999901    1    3    3    0    0 -0.97335534211E-01 -0.99331007615E-01 -0.44835484685E-01  0.89204880807E+00  0.88000000000E+00 0.  1.
        -11    1    4    4    0    0  0.36050899719E-01  0.45137157615E-01  0.11038796936E-01  0.58814509493E-01  0.51100000000E-03 0. -1.
         11    1    4    4    0    0  0.54841687166E-01  0.38400160913E-01  0.16886485848E-01  0.69047791672E-01  0.51100000000E-03 0.  1.
</event>
<event>
 8    1  0.1233916E+005  0.1043930E+01  0.7957747E-01            NaN
         13   -1    0    0    0    0  0.00000000000E+00  0.00000000000E+00  0.74505805969E-08  0.10566000000E+00  0.10566000000E+00 0. -1.
     999900   -1    0    0    0    0 -0.00000000000E+00 -0.00000000000E+00 -0.74505805969E-08  0.93827000000E+00  0.93827000000E+00 0. -1.
     999902    2    1    2    0    0 -0.11958530831E-01  0.18764330931E-01  0.69282115874E-02  0.10206253504E+01  0.10203592501E+01 0.  0.
     999903    2    3    3    0    0  0.12657786423E+00  0.10276793163E-01  0.16064174978E-01  0.12970008036E+00  0.20892221951E-01 0.  0.
         14    1    1    2    0    0  0.11958530831E-01 -0.18764330931E-01 -0.69282115874E-02  0.23304649552E-01  0.00000000000E+00 0.  1.
     999901    1    3    3    0    0 -0.13853639506E+00  0.84875377683E-02 -0.91359633906E-02  0.89092527009E+00  0.88000000000E+00 0.  1.
        -11    1    4    4    0    0  0.56052516720E-01  0.11310632764E-01 -0.74756531427E-03  0.57189465980E-01  0.51100000000E-03 0. -1.
         11    1    4    4    0    0  0.70525347507E-01 -0.10338396015E-02  0.16811740292E-01  0.72510614381E-01  0.51100000000E-03 0.  1.
</event>
<event>
 8    1  0.1233916E+005  0.1043930E+01  0.7957747E-01            NaN
         13   -1    0    0    0    0  0.00000000000E+00  0.00000000000E+00  0.74505805969E-08  0.10566000000E+00  0.10566000000E+00 0.  1.
     999900   -1    0    0    0    0 -0.00000000000E+00 -0.00000000000E+00 -0.74505805969E-08  0.93827000000E+00  0.93827000000E+00 0. -1.
     999902    2    1    2    0    0 -0.14328325451E-01  0.17849104707E-01 -0.52364622220E-03  0.10210353357E+01  0.10207786200E+01 0.  0.
     999903    2    3    3    0    0  0.10384890280E+00 -0.71685896252E-01  0.13967462123E-01  0.12851510291E+00  0.19939391760E-01 0.  0.
         14    1    1    2    0    0  0.14328325451E-01 -0.17849104707E-01  0.52364622220E-03  0.22894664322E-01  0.00000000000E+00 0.  1.
     999901    1    3    3    0    0 -0.11817722825E+00  0.89535000959E-01 -0.14491108346E-01  0.89252023277E+00  0.88000000000E+00 0. -1.
        -11    1    4    4    0    0  0.27414807819E-01 -0.11782456831E-01 -0.27643787082E-02  0.29971668078E-01  0.51100000000E-03 0.  1.
         11    1    4    4    0    0  0.76434094983E-01 -0.59903439421E-01  0.16731840832E-01  0.98543434835E-01  0.51100000000E-03 0. -1.
</event>
<event>
 8    1  0.1233916E+005  0.1043930E+01  0.7957747E-01            NaN
         13   -1    0    0    0    0  0.00000000000E+00  0.00000000000E+00  0.74505805969E-08  0.10566000000E+00  0.10566000000E+00 0. -1.
     999900   -1    0    0    0    0 -0.00000000000E+00 -0.00000000000E+00 -0.74505805969E-08  0.93827000000E+00  0.93827000000E+00 0.  1.
     999902    2    1    2    0    0 -0.28638907845E-01  0.80514275944E-03 -0.15054319024E-01  0.10115653925E+01  0.10110475140E+01 0.  0.
     999903    2    3    3    0    0 -0.10004675985E+00  0.62282061150E-01  0.36537663934E-01  0.12503269399E+00  0.20242637733E-01 0.  0.
         14    1    1    2    0    0  0.28638907845E-01 -0.80514275944E-03  0.15054319024E-01  0.32364607501E-01  0.00000000000E+00 0.  1.
     999901    1    3    3    0    0  0.71407852006E-01 -0.61476918390E-01 -0.51591982958E-01  0.88653269851E+00  0.88000000000E+00 0.  1.
        -11    1    4    4    0    0 -0.66177516744E-01  0.39218235058E-01  0.33609099069E-01  0.83948593465E-01  0.51100000000E-03 0.  1.
         11    1    4    4    0    0 -0.33869243107E-01  0.23063826091E-01  0.29285648647E-02  0.41084100523E-01  0.51100000000E-03 0. -1.
</event>
<event>
 8    1  0.1233916E+005  0.1043930E+01  0.7957747E-01            NaN
         13   -1    0    0    0    0  0.00000000000E+00  0.00000000000E+00  0.74505805969E-08  0.10566000000E+00  0.10566000000E+00 0. -1.
     999900   -1    0    0    0    0 -0.00000000000E+00 -0.00000000000E+00 -0.74505805969E-08  0.93827000000E+00  0.93827000000E+00 0. -1.
     999902    2    1    2    0    0 -0.74160270217E-02 -0.12203162720E-01 -0.18852856350E-01  0.10202795279E+01  0.10200053776E+01 0.  0.
     999903    2    3    3    0    0  0.11478801421E+00 -0.11479941018E-01  0.54627865325E-01  0.12880111135E+00  0.17246604392E-01 0.  0.
         14    1    1    2    0    0  0.74160270217E-02  0.12203162720E-01  0.18852856350E-01  0.23650472082E-01  0.00000000000E+00 0. -1.
     999901    1    3    3    0    0 -0.12220404123E+00 -0.72322170221E-03 -0.73480721675E-01  0.89147841657E+00  0.88000000000E+00 0. -1.
        -11    1    4    4    0    0  0.50373666399E-01 -0.10462821893E-01  0.31623490470E-01  0.60392741111E-01  0.51100000000E-03 0. -1.
         11    1    4    4    0    0  0.64414347814E-01 -0.10171191244E-02  0.23004374854E-01  0.68408370241E-01  0.51100000000E-03 0.  1.
</event>
<event>
 8    1  0.1233916E+005  0.1043930E+01  0.7957747E-01            NaN
         13   -1    0    0    0    0  0.00000000000E+00  0.00000000000E+00  0.74505805969E-08  0.10566000000E+00  0.10566000000E+00 0.  1.
     999900   -1    0    0    0    0 -0.00000000000E+00 -0.00000000000E+00 -0.74505805969E-08  0.93827000000E+00  0.93827000000E+00 0. -1.
     999902    2    1    2    0    0  0.57490632483E-02  0.20187659748E-01  0.14789193866E-01  0.10182528976E+01  0.10179290986E+01 0.  0.
     999903    2    3    3    0    0 -0.14295860346E-01  0.12516146597E+00 -0.28482538116E-01  0.13073177571E+00  0.20242974459E-01 0.  0.
         14    1    1    2    0    0 -0.57490632483E-02 -0.20187659748E-01 -0.14789193866E-01  0.25677102437E-01  0.00000000000E+00 0. -1.
     999901    1    3    3    0    0  0.20044923594E-01 -0.10497380622E+00  0.43271731982E-01  0.88752112186E+00  0.88000000000E+00 0. -1.
        -11    1    4    4    0    0 -0.81617961894E-02  0.84717424582E-01 -0.28704846023E-01  0.89821413099E-01  0.51100000000E-03 0.  1.
         11    1    4    4    0    0 -0.61340641562E-02  0.40444041388E-01  0.22230790652E-03  0.40910362607E-01  0.51100000000E-03 0. -1.
</event>
<event>
 8    1  0.1233916E+005  0.1043930E+01  0.7957747E-01            NaN
         13   -1    0    0    0    0  0.00000000000E+00  0.00000000000E+00  0.74505805969E-08  0.10566000000E+00  0.10566000000E+00 0. -1.
     999900   -1    0    0    0    0 -0.00000000000E+00 -0.00000000000E+00 -0.74505805969E-08  0.93827000000E+00  0.93827000000E+00 0. -1.
     999902    2    1    2    0    0 -0.95901915846E-02  0.20227376272E-01  0.69554112143E-02  0.10204886632E+01  0.10202193957E+01 0.  0.
     999903    2    3    3    0    0  0.12314245230E+00 -0.24699668193E-01 -0.21885463510E-01  0.12893485657E+00  0.19263607055E-01 0.  0.
         14    1    1    2    0    0  0.95901915846E-02 -0.20227376272E-01 -0.69554112143E-02  0.23441336793E-01  0.00000000000E+00 0. -1.
     999901    1    3    3    0    0 -0.13273264389E+00  0.44927044465E-01  0.28840874724E-01  0.89155380664E+00  0.88000000000E+00 0.  1.
        -11    1    4    4    0    0  0.53512249829E-01 -0.18348917745E-01 -0.37338377400E-02  0.56696087426E-01  0.51100000000E-03 0.  1.
         11    1    4    4    0    0  0.69630202475E-01 -0.63507504479E-02 -0.18151625770E-01  0.72238769142E-01  0.51100000000E-03 0. -1.
</event>
<event>
 8    1  0.1442890E+005  0.1043930E+01  0.7957747E-01            NaN
         13   -1    0    0    0    0  0.00000000000E+00  0.00000000000E+00  0.74505805969E-08  0.10566000000E+00  0.10566000000E+00 0. -1.
     999900   -1    0    0    0    0 -0.00000000000E+00 -0.00000000000E+00 -0.74505805969E-08  0.93827000000E+00  0.93827000000E+00 0.  1.
     999902    2    1    2    0    0  0.15110738809E-01 -0.12522573759E-01  0.11900345594E-01  0.10209785838E+01  0.10207205793E+01 0.  0.
     999903    2    3    3    0    0 -0.72344988655E-01  0.44190828650E-01 -0.94355282257E-01  0.12847918730E+00  0.20429281915E-01 0.  0.
         14    1    1    2    0    0 -0.15110738809E-01  0.12522573759E-01 -0.11900345594E-01  0.22951416212E-01  0.00000000000E+00 0.  1.
     999901    1    3    3    0    0  0.87455727464E-01 -0.56713402410E-01  0.10625562785E+00  0.89249939649E+00  0.88000000000E+00 0. -1.
        -11    1    4    4    0    0 -0.52392541559E-01  0.25462586050E-01 -0.52213079896E-01  0.78229077284E-01  0.51100000000E-03 0. -1.
         11    1    4    4    0    0 -0.19952447096E-01  0.18728242600E-01 -0.42142202360E-01  0.50250110017E-01  0.51100000000E-03 0.  1.
</event>
<event>
 8    1  0.1233916E+005  0.1043930E+01  0.7957747E-01            NaN
         13   -1    0    0    0    0  0.00000000000E+00  0.00000000000E+00  0.74505805969E-08  0.10566000000E+00  0.10566000000E+00 0. -1.
     999900   -1    0    0    0    0 -0.00000000000E+00 -0.00000000000E+00 -0.74505805969E-08  0.93827000000E+00  0.93827000000E+00 0.  1.
     999902    2    1    2    0    0 -0.13938155954E-01 -0.60351413739E-02 -0.14316997928E-01  0.10230572534E+01  0.10228443049E+01 0.  0.
     999903    2    3    3    0    0  0.72944562254E-01  0.88390193270E-01  0.59642849575E-01  0.13068131823E+00  0.19662197248E-01 0.  0.
         14    1    1    2    0    0  0.13938155954E-01  0.60351413739E-02  0.14316997928E-01  0.20872746644E-01  0.00000000000E+00 0. -1.
     999901    1    3    3    0    0 -0.86882718209E-01 -0.94425334643E-01 -0.73959847503E-01  0.89237593512E+00  0.88000000000E+00 0.  1.
        -11    1    4    4    0    0  0.35179677362E-01  0.49526902788E-01  0.41333784271E-01  0.73479702247E-01  0.51100000000E-03 0.  1.
         11    1    4    4    0    0  0.37764884893E-01  0.38863290481E-01  0.18309065303E-01  0.57201615985E-01  0.51100000000E-03 0. -1.
</event>
<event>
 8    1  0.1233916E+005  0.1043930E+01  0.7957747E-01            NaN
         13   -1    0    0    0    0  0.00000000000E+00  0.00000000000E+00  0.74505805969E-08  0.10566000000E+00  0.10566000000E+00 0. -1.
     999900   -1    0    0    0    0 -0.00000000000E+00 -0.00000000000E+00 -0.74505805969E-08  0.93827000000E+00  0.93827000000E+00 0.  1.
     999902    2    1    2    0    0 -0.61675802567E-02  0.14454679827E-01  0.20648002717E-01  0.10179816507E+01  0.10176508853E+01 0.  0.
     999903    2    3    3    0    0 -0.80975442331E-01  0.78965501149E-01  0.64358232920E-01  0.13137663914E+00  0.18035147225E-01 0.  0.
         14    1    1    2    0    0  0.61675802567E-02 -0.14454679827E-01 -0.20648002717E-01  0.25948349299E-01  0.00000000000E+00 0.  1.
     999901    1    3    3    0    0  0.74807862074E-01 -0.64510821322E-01 -0.43710230203E-01  0.88660501156E+00  0.88000000000E+00 0.  1.
        -11    1    4    4    0    0 -0.18684420371E-01  0.13460689429E-01  0.20794145635E-01  0.31031521687E-01  0.51100000000E-03 0. -1.
         11    1    4    4    0    0 -0.62291021960E-01  0.65504811720E-01  0.43564087286E-01  0.10034511746E+00  0.51100000000E-03 0.  1.
</event>
<event>
 8    1  0.1233916E+005  0.1043930E+01  0.7957747E-01            NaN
         13   -1    0    0    0    0  0.00000000000E+00  0.00000000000E+00  0.74505805969E-08  0.10566000000E+00  0.10566000000E+00 0. -1.
     999900   -1    0    0    0    0 -0.00000000000E+00 -0.00000000000E+00 -0.74505805969E-08  0.93827000000E+00  0.93827000000E+00 0. -1.
     999902    2    1    2    0    0 -0.19469615875E-01  0.17223298031E-02 -0.16349639901E-01  0.10184477888E+01  0.10181289483E+01 0.  0.
     999903    2    3    3    0    0  0.56616329621E-01  0.40426204094E-01  0.10345022019E+00  0.12623757397E+00  0.19856743624E-01 0.  0.
         14    1    1    2    0    0  0.19469615875E-01 -0.17223298031E-02  0.16349639901E-01  0.25482211190E-01  0.00000000000E+00 0.  1.
     999901    1    3    3    0    0 -0.76085945496E-01 -0.38703874291E-01 -0.11979986009E+00  0.89221021484E+00  0.88000000000E+00 0. -1.
        -11    1    4    4    0    0  0.29168883465E-01  0.32258445645E-01  0.67028957111E-01  0.79903524894E-01  0.51100000000E-03 0.  1.
         11    1    4    4    0    0  0.27447446156E-01  0.81677584489E-02  0.36421263078E-01  0.46334049076E-01  0.51100000000E-03 0. -1.
</event>
<event>
 8    1  0.1233916E+005  0.1043930E+01  0.7957747E-01            NaN
         13   -1    0    0    0    0  0.00000000000E+00  0.00000000000E+00  0.74505805969E-08  0.10566000000E+00  0.10566000000E+00 0.  1.
     999900   -1    0    0    0    0 -0.00000000000E+00 -0.00000000000E+00 -0.74505805969E-08  0.93827000000E+00  0.93827000000E+00 0. -1.
     999902    2    1    2    0    0  0.17040236529E-01 -0.26272502475E-02 -0.16413559432E-01  0.10201250207E+01  0.10198472341E+01 0.  0.
     999903    2    3    3    0    0 -0.81584163512E-02  0.12172235346E+00  0.38087806468E-01  0.12935670353E+00  0.19989613731E-01 0.  0.
         14    1    1    2    0    0 -0.17040236529E-01  0.26272502475E-02  0.16413559432E-01  0.23804979270E-01  0.00000000000E+00 0. -1.
     999901    1    3    3    0    0  0.25198652880E-01 -0.12434960371E+00 -0.54501365900E-01  0.89076831720E+00  0.88000000000E+00 0.  1.
        -11    1    4    4    0    0  0.54124560174E-02  0.25054029336E-01  0.39360634256E-02  0.25937478336E-01  0.51100000000E-03 0. -1.
         11    1    4    4    0    0 -0.13570872369E-01  0.96668324121E-01  0.34151743042E-01  0.10341922519E+00  0.51100000000E-03 0.  1.
</event>
<event>
 8    1  0.1233916E+005  0.1043930E+01  0.7957747E-01            NaN
         13   -1    0    0    0    0  0.00000000000E+00  0.00000000000E+00  0.74505805969E-08  0.10566000000E+00  0.10566000000E+00 0. -1.
     999900   -1    0    0    0    0 -0.00000000000E+00 -0.00000000000E+00 -0.74505805969E-08  0.93827000000E+00  0.93827000000E+00 0. -1.
     999902    2    1    2    0    0  0.57593501197E-02 -0.15742449042E-01 -0.18049625816E-01  0.10192970179E+01  0.10189993262E+01 0.  0.
     999903    2    3    3    0    0  0.26742048498E-01  0.32181769813E-01 -0.12314704990E+00  0.13150060376E+00  0.19401273811E-01 0.  0.
         14    1    1    2    0    0 -0.57593501197E-02  0.15742449042E-01  0.18049625816E-01  0.24632982112E-01  0.00000000000E+00 0. -1.
     999901    1    3    3    0    0 -0.20982698378E-01 -0.47924218855E-01  0.10509742408E+00  0.88779641412E+00  0.88000000000E+00 0.  1.
        -11    1    4    4    0    0  0.30652197981E-02  0.91616420514E-02 -0.54137035600E-01  0.54994645213E-01  0.51100000000E-03 0.  1.
         11    1    4    4    0    0  0.23676828699E-01  0.23020127762E-01 -0.69010014298E-01  0.76505958551E-01  0.51100000000E-03 0. -1.
</event>
<event>
 8    1  0.1233916E+005  0.1043930E+01  0.7957747E-01            NaN
         13   -1    0    0    0    0  0.00000000000E+00  0.00000000000E+00  0.74505805969E-08  0.10566000000E+00  0.10566000000E+00 0. -1.
     999900   -1    0    0    0    0 -0.00000000000E+00 -0.00000000000E+00 -0.74505805969E-08  0.93827000000E+00  0.93827000000E+00 0. -1.
     999902    2    1    2    0    0 -0.87194598795E-02  0.15718084611E-01 -0.14966750811E-01  0.10205400279E+01  0.10202719529E+01 0.  0.
     999903    2    3    3    0    0  0.42397648991E-01 -0.11711650386E+00  0.23490489684E-01  0.12827496300E+00  0.19718694493E-01 0.  0.
         14    1    1    2    0    0  0.87194598795E-02 -0.15718084611E-01  0.14966750811E-01  0.23389972088E-01  0.00000000000E+00 0. -1.
     999901    1    3    3    0    0 -0.51117108871E-01  0.13283458847E+00 -0.38457240494E-01  0.89226506491E+00  0.88000000000E+00 0. -1.
        -11    1    4    4    0    0  0.16756822745E-01 -0.70492014111E-01  0.82694860198E-02  0.72928462770E-01  0.51100000000E-03 0.  1.
         11    1    4    4    0    0  0.25640826246E-01 -0.46624489744E-01  0.15221003664E-01  0.55346500233E-01  0.51100000000E-03 0. -1.
</event>
<event>
 8    1  0.1233916E+005  0.1043930E+01  0.7957747E-01            NaN
         13   -1    0    0    0    0  0.00000000000E+00  0.00000000000E+00  0.74505805969E-08  0.10566000000E+00  0.10566000000E+00 0. -1.
     999900   -1    0    0    0    0 -0.00000000000E+00 -0.00000000000E+00 -0.74505805969E-08  0.93827000000E+00  0.93827000000E+00 0. -1.
     999902    2    1    2    0    0  0.17012455103E-01  0.20719457162E-01  0.13700529939E-01  0.10138231228E+01  0.10133759916E+01 0.  0.
     999903    2    3    3    0    0  0.86935029363E-01 -0.37648194755E-01 -0.78179452729E-01  0.12436380367E+00  0.19474160725E-01 0.  0.
         14    1    1    2    0    0 -0.17012455103E-01 -0.20719457162E-01 -0.13700529939E-01  0.30106877194E-01  0.00000000000E+00 0. -1.
     999901    1    3    3    0    0 -0.69922574260E-01  0.58367651917E-01  0.91879982668E-01  0.88945931914E+00  0.88000000000E+00 0.  1.
        -11    1    4    4    0    0  0.14861701410E-01 -0.15108455560E-01 -0.16851943965E-01  0.27081077058E-01  0.51100000000E-03 0.  1.
         11    1    4    4    0    0  0.72073327953E-01 -0.22539739195E-01 -0.61327508764E-01  0.97282726613E-01  0.51100000000E-03 0. -1.
</event>
<event>
 8    1  0.1251503E+005  0.1043930E+01  0.7957747E-01            NaN
         13   -1    0    0    0    0  0.00000000000E+00  0.00000000000E+00  0.74505805969E-08  0.10566000000E+00  0.10566000000E+00 0.  1.
     999900   -1    0    0    0    0 -0.00000000000E+00 -0.00000000000E+00 -0.74505805969E-08  0.93827000000E+00  0.93827000000E+00 0.  1.
     999902    2    1    2    0    0 -0.63096638176E-02  0.21119432468E-01 -0.79162969456E-02  0.10205097087E+01  0.10202409302E+01 0.  0.
     999903    2    3    3    0    0 -0.11313012797E-01 -0.10391291959E+00  0.71386093321E-01  0.12812694800E+00  0.19866085915E-01 0.  0.
         14    1    1    2    0    0  0.63096638176E-02 -0.21119432468E-01  0.79162969456E-02  0.23420291257E-01  0.00000000000E+00 0.  1.
     999901    1    3    3    0    0  0.50033489793E-02  0.12503235205E+00 -0.79302390266E-01  0.89238276074E+00  0.88000000000E+00 0. -1.
        -11    1    4    4    0    0 -0.15411608853E-01 -0.52732315574E-01  0.33981701230E-01  0.64600556752E-01  0.51100000000E-03 0. -1.
         11    1    4    4    0    0  0.40985960564E-02 -0.51180604013E-01  0.37404392091E-01  0.63526391252E-01  0.51100000000E-03 0.  1.
</event>
<event>
 8    1  0.1233916E+005  0.1043930E+01  0.7957747E-01            NaN
         13   -1    0    0    0    0  0.00000000000E+00  0.00000000000E+00  0.74505805969E-08  0.10566000000E+00  0.10566000000E+00 0.  1.
     999900   -1    0    0    0    0 -0.00000000000E+00 -0.00000000000E+00 -0.74505805969E-08  0.93827000000E+00  0.93827000000E+00 0.  1.
     999902    2    1    2    0    0 -0.23044202078E-01  0.24742345391E-02 -0.43249980278E-02  0.10203532595E+01  0.10200808357E+01 0.  0.
     999903    2    3    3    0    0 -0.88524438891E-01 -0.23737116972E-03 -0.97343025272E-01  0.13302729478E+00  0.19594998398E-01 0.  0.
         14    1    1    2    0    0  0.23044202078E-01 -0.24742345391E-02  0.43249980278E-02  0.23576740528E-01  0.00000000000E+00 0. -1.
     999901    1    3    3    0    0  0.65480236813E-01  0.27116057088E-02  0.93018027244E-01  0.88732596469E+00  0.88000000000E+00 0.  1.
        -11    1    4    4    0    0 -0.22097794878E-01  0.82434369693E-02 -0.28275680278E-01  0.36824475661E-01  0.51100000000E-03 0. -1.
         11    1    4    4    0    0 -0.66426644013E-01 -0.84808081390E-02 -0.69067344994E-01  0.96202819122E-01  0.51100000000E-03 0.  1.
</event>
<event>
 8    1  0.1233916E+005  0.1043930E+01  0.7957747E-01            NaN
         13   -1    0    0    0    0  0.00000000000E+00  0.00000000000E+00  0.74505805969E-08  0.10566000000E+00  0.10566000000E+00 0. -1.
     999900   -1    0    0    0    0 -0.00000000000E+00 -0.00000000000E+00 -0.74505805969E-08  0.93827000000E+00  0.93827000000E+00 0. -1.
     999902    2    1    2    0    0  0.21921558350E-01 -0.81882656573E-02  0.67535585595E-02  0.10195740363E+01  0.10192830826E+01 0.  0.
     999903    2    3    3    0    0  0.75875870646E-02 -0.12627951021E+00  0.33020997692E-01  0.13118167752E+00  0.10684570722E-01 0.  0.
         14    1    1    2    0    0 -0.21921558350E-01  0.81882656573E-02 -0.67535585595E-02  0.24355963708E-01  0.00000000000E+00 0.  1.
     999901    1    3    3    0    0  0.14333971285E-01  0.11809124455E+00 -0.26267439132E-01  0.88839235878E+00  0.88000000000E+00 0. -1.
        -11    1    4    4    0    0  0.79235650441E-02 -0.56710484291E-01  0.12046494240E-01  0.58517015098E-01  0.51100000000E-03 0.  1.
         11    1    4    4    0    0 -0.33597797946E-03 -0.69569025917E-01  0.20974503452E-01  0.72664662418E-01  0.51100000000E-03 0. -1.
</event>
<event>
 8    1  0.1233916E+005  0.1043930E+01  0.7957747E-01            NaN
         13   -1    0    0    0    0  0.00000000000E+00  0.00000000000E+00  0.74505805969E-08  0.10566000000E+00  0.10566000000E+00 0.  1.
     999900   -1    0    0    0    0 -0.00000000000E+00 -0.00000000000E+00 -0.74505805969E-08  0.93827000000E+00  0.93827000000E+00 0. -1.
     999902    2    1    2    0    0 -0.19435046213E-01 -0.41491105989E-02  0.11821119071E-01  0.10208069596E+01  0.10205450376E+01 0.  0.
     999903    2    3    3    0    0 -0.97480315112E-01 -0.76624953247E-01  0.46233613063E-01  0.13371731844E+00  0.19208825530E-01 0.  0.
         14    1    1    2    0    0  0.19435046213E-01  0.41491105989E-02 -0.11821119071E-01  0.23123040374E-01  0.00000000000E+00 0. -1.
     999901    1    3    3    0    0  0.78045268899E-01  0.72475842648E-01 -0.34412493993E-01  0.88708964119E+00  0.88000000000E+00 0. -1.
        -11    1    4    4    0    0 -0.46084098557E-01 -0.24456558688E-01  0.17181143163E-01  0.54930139304E-01  0.51100000000E-03 0.  1.
         11    1    4    4    0    0 -0.51396216555E-01 -0.52168394559E-01  0.29052469901E-01  0.78787179131E-01  0.51100000000E-03 0. -1.
</event>
<event>
 8    1  0.1233916E+005  0.1043930E+01  0.7957747E-01            NaN
         13   -1    0    0    0    0  0.00000000000E+00  0.00000000000E+00  0.74505805969E-08  0.10566000000E+00  0.10566000000E+00 0.  1.
     999900   -1    0    0    0    0 -0.00000000000E+00 -0.00000000000E+00 -0.74505805969E-08  0.93827000000E+00  0.93827000000E+00 0. -1.
     999902    2    1    2    0    0 -0.45149043652E-02 -0.39060665413E-02 -0.22880108400E-01  0.10202838359E+01  0.10200097866E+01 0.  0.
     999903    2    3    3    0    0  0.83592087727E-01 -0.88511579698E-01 -0.45790046803E-01  0.13155114255E+00  0.19673277539E-01 0.  0.
         14    1    1    2    0    0  0.45149043652E-02  0.39060665413E-02  0.22880108400E-01  0.23646164121E-01  0.00000000000E+00 0.  1.
     999901    1    3    3    0    0 -0.88106992092E-01  0.84605513157E-01  0.22909938403E-01  0.88873269333E+00  0.88000000000E+00 0.  1.
        -11    1    4    4    0    0  0.65109619910E-01 -0.78683641590E-01 -0.34755023699E-01  0.10788211553E+00  0.51100000000E-03 0.  1.
         11    1    4    4    0    0  0.18482467817E-01 -0.98279381081E-02 -0.11035023104E-01  0.23669027017E-01  0.51100000000E-03 0. -1.
</event>
<event>
 8    1  0.1233916E+005  0.1043930E+01  0.7957747E-01            NaN
         13   -1    0    0    0    0  0.00000000000E+00  0.00000000000E+00  0.74505805969E-08  0.10566000000E+00  0.10566000000E+00 0.  1.
     999900   -1    0    0    0    0 -0.00000000000E+00 -0.00000000000E+00 -0.74505805969E-08  0.93827000000E+00  0.93827000000E+00 0. -1.
     999902    2    1    2    0    0  0.82733342852E-02  0.10980972000E-01  0.19283218493E-01  0.10202472569E+01  0.10199723491E+01 0.  0.
     999903    2    3    3    0    0  0.12799736724E+00 -0.21780721250E-02 -0.10085275501E-01  0.13155748370E+00  0.28593508303E-01 0.  0.
         14    1    1    2    0    0 -0.82733342852E-02 -0.10980972000E-01 -0.19283218493E-01  0.23682743120E-01  0.00000000000E+00 0. -1.
     999901    1    3    3    0    0 -0.11972403296E+00  0.13159044125E-01  0.29368493994E-01  0.88868977318E+00  0.88000000000E+00 0. -1.
        -11    1    4    4    0    0  0.39501561616E-01 -0.29015694477E-02  0.98979646313E-02  0.40829196663E-01  0.51100000000E-03 0. -1.
         11    1    4    4    0    0  0.88495805627E-01  0.72349732271E-03 -0.19983240132E-01  0.90728287040E-01  0.51100000000E-03 0.  1.
</event>
<event>
 8    1  0.1233916E+005  0.1043930E+01  0.7957747E-01            NaN
         13   -1    0    0    0    0  0.00000000000E+00  0.00000000000E+00  0.74505805969E-08  0.10566000000E+00  0.10566000000E+00 0. -1.
     999900   -1    0    0    0    0 -0.00000000000E+00 -0.00000000000E+00 -0.74505805969E-08  0.93827000000E+00  0.93827000000E+00 0.  1.
     999902    2    1    2    0    0 -0.24554671528E-02 -0.23779351919E-01 -0.16118144775E-01  0.10150980475E+01  0.10146885061E+01 0.  0.
     999903    2    3    3    0    0 -0.52163993277E-01  0.10649695231E+00 -0.30495040361E-01  0.12400346878E+00  0.19601778905E-01 0.  0.
         14    1    1    2    0    0  0.24554671528E-02  0.23779351919E-01  0.16118144775E-01  0.28831952546E-01  0.00000000000E+00 0. -1.
     999901    1    3    3    0    0  0.49708526124E-01 -0.13027630423E+00  0.14376895586E-01  0.89109457867E+00  0.88000000000E+00 0. -1.
        -11    1    4    4    0    0 -0.19146433275E-01  0.41182765279E-01 -0.19939280601E-02  0.45462544290E-01  0.51100000000E-03 0.  1.
         11    1    4    4    0    0 -0.33017560002E-01  0.65314187035E-01 -0.28501112301E-01  0.78540924491E-01  0.51100000000E-03 0. -1.
</event>
<event>
 8    1  0.1233916E+005  0.1043930E+01  0.7957747E-01            NaN
         13   -1    0    0    0    0  0.00000000000E+00  0.00000000000E+00  0.74505805969E-08  0.10566000000E+00  0.10566000000E+00 0. -1.
     999900   -1    0    0    0    0 -0.00000000000E+00 -0.00000000000E+00 -0.74505805969E-08  0.93827000000E+00  0.93827000000E+00 0.  1.
     999902    2    1    2    0    0  0.19180152093E-01 -0.62148344624E-02  0.15636044188E-02  0.10237075555E+01  0.10235077977E+01 0.  0.
     999903    2    3    3    0    0  0.48373176448E-01  0.11439280236E+00  0.45065506913E-01  0.13393744463E+00  0.21969563687E-01 0.  0.
         14    1    1    2    0    0 -0.19180152093E-01  0.62148344624E-02 -0.15636044188E-02  0.20222444474E-01  0.00000000000E+00 0. -1.
     999901    1    3    3    0    0 -0.29193024355E-01 -0.12060763682E+00 -0.43501902494E-01  0.88977011090E+00  0.88000000000E+00 0. -1.
        -11    1    4    4    0    0  0.20474629280E-01  0.28997913813E-01  0.19634660573E-01  0.40569329135E-01  0.51100000000E-03 0. -1.
         11    1    4    4    0    0  0.27898547169E-01  0.85394888546E-01  0.25430846340E-01  0.93368115491E-01  0.51100000000E-03 0.  1.
</event>
<event>
 8    1  0.1233916E+005  0.1043930E+01  0.7957747E-01            NaN
         13   -1    0    0    0    0  0.00000000000E+00  0.00000000000E+00  0.74505805969E-08  0.10566000000E+00  0.10566000000E+00 0.  1.
     999900   -1    0    0    0    0 -0.00000000000E+00 -0.00000000000E+00 -0.74505805969E-08  0.93827000000E+00  0.93827000000E+00 0.  1.
     999902    2    1    2    0    0  0.91305258510E-02  0.14373473505E-01 -0.22359748771E-01  0.10158244559E+01  0.10154355734E+01 0.  0.
     999903    2    3    3    0    0  0.11035897750E+00  0.54602646348E-01 -0.28183999732E-01  0.12908914723E+00  0.26629254390E-01 0.  0.
         14    1    1    2    0    0 -0.91305258510E-02 -0.14373473505E-01  0.22359748771E-01  0.28105544080E-01  0.00000000000E+00 0.  1.
     999901    1    3    3    0    0 -0.10122845165E+00 -0.40229172843E-01  0.58242509605E-02  0.88673530869E+00  0.88000000000E+00 0.  1.
        -11    1    4    4    0    0  0.25740617720E-01  0.74536164113E-02 -0.16607645145E-01  0.31531108393E-01  0.51100000000E-03 0.  1.
         11    1    4    4    0    0  0.84618359782E-01  0.47149029937E-01 -0.11576354587E-01  0.97558038842E-01  0.51100000000E-03 0. -1.
</event>
<event>
 8    1  0.1233916E+005  0.1043930E+01  0.7957747E-01            NaN
         13   -1    0    0    0    0  0.00000000000E+00  0.00000000000E+00  0.74505805969E-08  0.10566000000E+00  0.10566000000E+00 0. -1.
     999900   -1    0    0    0    0 -0.00000000000E+00 -0.00000000000E+00 -0.74505805969E-08  0.93827000000E+00  0.93827000000E+00 0. -1.
     999902    2    1    2    0    0 -0.21831533288E-01 -0.87297168745E-02 -0.11235034693E-01  0.10178714159E+01  0.10175377975E+01 0.  0.
     999903    2    3    3    0    0 -0.38528162492E-01  0.10979171836E+00  0.48748507112E-01  0.12774550718E+00  0.20096191998E-01 0.  0.
         14    1    1    2    0    0  0.21831533288E-01  0.87297168745E-02  0.11235034693E-01  0.26058584132E-01  0.00000000000E+00 0.  1.
     999901    1    3    3    0    0  0.16696629204E-01 -0.11852143523E+00 -0.59983541806E-01  0.89012590869E+00  0.88000000000E+00 0.  1.
        -11    1    4    4    0    0 -0.18970953308E-01  0.79653658673E-01  0.29906677894E-01  0.87173808642E-01  0.51100000000E-03 0.  1.
         11    1    4    4    0    0 -0.19557209184E-01  0.30138059686E-01  0.18841829219E-01  0.40571698535E-01  0.51100000000E-03 0. -1.
</event>
<event>
 8    1  0.1233916E+005  0.1043930E+01  0.7957747E-01            NaN
         13   -1    0    0    0    0  0.00000000000E+00  0.00000000000E+00  0.74505805969E-08  0.10566000000E+00  0.10566000000E+00 0.  1.
     999900   -1    0    0    0    0 -0.00000000000E+00 -0.00000000000E+00 -0.74505805969E-08  0.93827000000E+00  0.93827000000E+00 0.  1.
     999902    2    1    2    0    0  0.20817832426E-02  0.23508362706E-01  0.68323534167E-02  0.10193605476E+01  0.10190644082E+01 0.  0.
     999903    2    3    3    0    0  0.51180261101E-01 -0.11456832682E+00  0.81094571588E-02  0.12724090107E+00  0.19472107560E-01 0.  0.
         14    1    1    2    0    0 -0.20817832426E-02 -0.23508362706E-01 -0.68323534167E-02  0.24569452411E-01  0.00000000000E+00 0.  1.
     999901    1    3    3    0    0 -0.49098477859E-01  0.13807668952E+00 -0.12771037421E-02  0.89211964652E+00  0.88000000000E+00 0. -1.
        -11    1    4    4    0    0  0.40023444913E-01 -0.67391570205E-01  0.76885899436E-02  0.78758335518E-01  0.51100000000E-03 0.  1.
         11    1    4    4    0    0  0.11156816189E-01 -0.47176756612E-01  0.42086721522E-03  0.48482565548E-01  0.51100000000E-03 0. -1.
</event>
<event>
 8    1  0.1233916E+005  0.1043930E+01  0.7957747E-01            NaN
         13   -1    0    0    0    0  0.00000000000E+00  0.00000000000E+00  0.74505805969E-08  0.10566000000E+00  0.10566000000E+00 0. -1.
     999900   -1    0    0    0    0 -0.00000000000E+00 -0.00000000000E+00 -0.74505805969E-08  0.93827000000E+00  0.93827000000E+00 0. -1.
     999902    2    1    2    0    0  0.87620021407E-02  0.21598028016E-01 -0.28882310194E-02  0.10204440601E+01  0.10201737550E+01 0.  0.
     999903    2    3    3    0    0 -0.91918386341E-01 -0.81641619993E-01  0.29721204546E-01  0.12811097157E+00  0.20364851476E-01 0.  0.
         14    1    1    2    0    0 -0.87620021407E-02 -0.21598028016E-01  0.28882310194E-02  0.23485939924E-01  0.00000000000E+00 0.  1.
     999901    1    3    3    0    0  0.10068038848E+00  0.10323964801E+00 -0.32609435565E-01  0.89233308850E+00  0.88000000000E+00 0.  1.
        -11    1    4    4    0    0 -0.38809240984E-01 -0.43728287031E-01  0.64192694270E-02  0.58819966112E-01  0.51100000000E-03 0.  1.
         11    1    4    4    0    0 -0.53109145356E-01 -0.37913332962E-01  0.23301935119E-01  0.69291005463E-01  0.51100000000E-03 0. -1.
</event>
<event>
 8    1  0.1233916E+005  0.1043930E+01  0.7957747E-01            NaN
         13   -1    0    0    0    0  0.00000000000E+00  0.00000000000E+00  0.74505805969E-08  0.10566000000E+00  0.10566000000E+00 0. -1.
     999900   -1    0    0    0    0 -0.00000000000E+00 -0.00000000000E+00 -0.74505805969E-08  0.93827000000E+00  0.93827000000E+00 0.  1.
     999902    2    1    2    0    0 -0.44131536518E-02 -0.18742831192E-01  0.73996030508E-02  0.10233017725E+01  0.10230938343E+01 0.  0.
     999903    2    3    3    0    0  0.23543249742E-02 -0.69921890762E-01  0.11416660650E+00  0.13534665651E+00  0.19750689528E-01 0.  0.
         14    1    1    2    0    0  0.44131536518E-02  0.18742831192E-01 -0.73996030508E-02  0.20628227543E-01  0.00000000000E+00 0.  1.
     999901    1    3    3    0    0 -0.67674786260E-02  0.51179059570E-01 -0.10676700345E+00  0.88795511594E+00  0.88000000000E+00 0.  1.
        -11    1    4    4    0    0 -0.30967614095E-02 -0.49528834907E-02  0.19778254655E-01  0.20629141143E-01  0.51100000000E-03 0. -1.
         11    1    4    4    0    0  0.54510863837E-02 -0.64969007271E-01  0.94388351840E-01  0.11471751537E+00  0.51100000000E-03 0.  1.
</event>
<event>
 8    1  0.1233916E+005  0.1043930E+01  0.7957747E-01            NaN
         13   -1    0    0    0    0  0.00000000000E+00  0.00000000000E+00  0.74505805969E-08  0.10566000000E+00  0.10566000000E+00 0. -1.
     999900   -1    0    0    0    0 -0.00000000000E+00 -0.00000000000E+00 -0.74505805969E-08  0.93827000000E+00  0.93827000000E+00 0.  1.
     999902    2    1    2    0    0 -0.42255207822E-02 -0.13365773130E-01  0.17648693535E-01  0.10213916926E+01  0.10211429941E+01 0.  0.
     999903    2    3    3    0    0  0.41363466686E-01 -0.45774966161E-01 -0.11279245069E+00  0.13001993868E+00  0.19410399760E-01 0.  0.
         14    1    1    2    0    0  0.42255207822E-02  0.13365773130E-01 -0.17648693535E-01  0.22538307407E-01  0.00000000000E+00 0.  1.
     999901    1    3    3    0    0 -0.45588987468E-01  0.32409193031E-01  0.13044114422E+00  0.89137175391E+00  0.88000000000E+00 0. -1.
        -11    1    4    4    0    0  0.10291122364E-01 -0.15513218874E-02 -0.14646936077E-01  0.17975195592E-01  0.51100000000E-03 0. -1.
         11    1    4    4    0    0  0.31072344322E-01 -0.44223644274E-01 -0.98145514609E-01  0.11204474309E+00  0.51100000000E-03 0.  1.
</event>
<event>
 8    1  0.1233916E+005  0.1043930E+01  0.7957747E-01            NaN
         13   -1    0    0    0    0  0.00000000000E+00  0.00000000000E+00  0.74505805969E-08  0.10566000000E+00  0.10566000000E+00 0.  1.
     999900   -1    0    0    0    0 -0.00000000000E+00 -0.00000000000E+00 -0.74505805969E-08  0.93827000000E+00  0.93827000000E+00 0.  1.
     999902    2    1    2    0    0  0.65494147743E-02  0.18266300320E-02 -0.24088133495E-01  0.10189006255E+01  0.10185931549E+01 0.  0.
     999903    2    3    3    0    0  0.10308081572E+00 -0.44468227362E-01 -0.65463367842E-01  0.13144728298E+00  0.19744818539E-01 0.  0.
         14    1    1    2    0    0 -0.65494147743E-02 -0.18266300320E-02  0.24088133495E-01  0.25029374472E-01  0.00000000000E+00 0.  1.
     999901    1    3    3    0    0 -0.96531400943E-01  0.46294857394E-01  0.41375234346E-01  0.88745334255E+00  0.88000000000E+00 0. -1.
        -11    1    4    4    0    0  0.44404642139E-01 -0.27512622110E-01 -0.23125170637E-01  0.57129250449E-01  0.51100000000E-03 0. -1.
         11    1    4    4    0    0  0.58676173578E-01 -0.16955605252E-01 -0.42338197205E-01  0.74318032527E-01  0.51100000000E-03 0.  1.
</event>
<event>
 8    1  0.1233916E+005  0.1043930E+01  0.7957747E-01            NaN
         13   -1    0    0    0    0  0.00000000000E+00  0.00000000000E+00  0.74505805969E-08  0.10566000000E+00  0.10566000000E+00 0.  1.
     999900   -1    0    0    0    0 -0.00000000000E+00 -0.00000000000E+00 -0.74505805969E-08  0.93827000000E+00  0.93827000000E+00 0. -1.
     999902    2    1    2    0    0 -0.39994071227E-02  0.39758663076E-02  0.23522590364E-01  0.10197408490E+01  0.10194539146E+01 0.  0.
     999903    2    3    3    0    0 -0.48129701424E-01  0.10826879322E+00  0.54410104074E-01  0.13194665211E+00  0.20269677669E-01 0.  0.
         14    1    1    2    0    0  0.39994071227E-02 -0.39758663076E-02 -0.23522590364E-01  0.24189151032E-01  0.00000000000E+00 0. -1.
     999901    1    3    3    0    0  0.44130294302E-01 -0.10429292691E+00 -0.30887513710E-01  0.88779419686E+00  0.88000000000E+00 0. -1.
        -11    1    4    4    0    0 -0.40293589733E-01  0.84732407410E-01  0.51315746329E-01  0.10694260695E+00  0.51100000000E-03 0.  1.
         11    1    4    4    0    0 -0.78361116912E-02  0.23536385807E-01  0.30943577452E-02  0.25004045155E-01  0.51100000000E-03 0. -1.
</event>
<event>
 8    1  0.1233916E+005  0.1043930E+01  0.7957747E-01            NaN
         13   -1    0    0    0    0  0.00000000000E+00  0.00000000000E+00  0.74505805969E-08  0.10566000000E+00  0.10566000000E+00 0. -1.
     999900   -1    0    0    0    0 -0.00000000000E+00 -0.00000000000E+00 -0.74505805969E-08  0.93827000000E+00  0.93827000000E+00 0. -1.
     999902    2    1    2    0    0  0.20521134064E-01 -0.12303872994E-01  0.25616793048E-03  0.10200016098E+01  0.10197209011E+01 0.  0.
     999903    2    3    3    0    0  0.84094608224E-01  0.97546062448E-01  0.11949884327E-01  0.13081921126E+00  0.19588998631E-01 0.  0.
         14    1    1    2    0    0 -0.20521134064E-01  0.12303872994E-01 -0.25616793048E-03  0.23928390166E-01  0.00000000000E+00 0.  1.
     999901    1    3    3    0    0 -0.63573474160E-01 -0.10984993544E+00 -0.11693716397E-01  0.88918239858E+00  0.88000000000E+00 0. -1.
        -11    1    4    4    0    0  0.41697632996E-01  0.35712469518E-01  0.28501415397E-04  0.54902959938E-01  0.51100000000E-03 0. -1.
         11    1    4    4    0    0  0.42396975228E-01  0.61833592930E-01  0.11921382912E-01  0.75916251321E-01  0.51100000000E-03 0.  1.
</event>
<event>
 8    1  0.1233916E+005  0.1043930E+01  0.7957747E-01            NaN
         13   -1    0    0    0    0  0.00000000000E+00  0.00000000000E+00  0.74505805969E-08  0.10566000000E+00  0.10566000000E+00 0.  1.
     999900   -1    0    0    0    0 -0.00000000000E+00 -0.00000000000E+00 -0.74505805969E-08  0.93827000000E+00  0.93827000000E+00 0. -1.
     999902    2    1    2    0    0  0.22351212190E-01 -0.36258125411E-02  0.74786467838E-02  0.10200835462E+01  0.10198047793E+01 0.  0.
     999903    2    3    3    0    0  0.17429944468E-01 -0.32092272667E-01 -0.12313265876E+00  0.12997463633E+00  0.19950877322E-01 0.  0.
         14    1    1    2    0    0 -0.22351212190E-01  0.36258125411E-02 -0.74786467838E-02  0.23846453838E-01  0.00000000000E+00 0.  1.
     999901    1    3    3    0    0  0.49212677222E-02  0.28466460126E-01  0.13061130555E+00  0.89010890983E+00  0.88000000000E+00 0.  1.
        -11    1    4    4    0    0  0.14386945965E-01 -0.26810634950E-01 -0.67938578554E-01  0.74442635214E-01  0.51100000000E-03 0.  1.
         11    1    4    4    0    0  0.30429985034E-02 -0.52816377173E-02 -0.55194080207E-01  0.55532001114E-01  0.51100000000E-03 0. -1.
</event>
<event>
 8    1  0.1233916E+005  0.1043930E+01  0.7957747E-01            NaN
         13   -1    0    0    0    0  0.00000000000E+00  0.00000000000E+00  0.74505805969E-08  0.10566000000E+00  0.10566000000E+00 0. -1.
     999900   -1    0    0    0    0 -0.00000000000E+00 -0.00000000000E+00 -0.74505805969E-08  0.93827000000E+00  0.93827000000E+00 0.  1.
     999902    2    1    2    0    0 -0.40865298534E-03 -0.48555749925E-02 -0.22246279280E-01  0.10211563190E+01  0.10209023397E+01 0.  0.
     999903    2    3    3    0    0  0.10397359113E+00  0.45314334878E-01  0.59861016036E-01  0.12977857599E+00  0.19880667662E-01 0.  0.
         14    1    1    2    0    0  0.40865298534E-03  0.48555749925E-02  0.22246279280E-01  0.22773681028E-01  0.00000000000E+00 0. -1.
     999901    1    3    3    0    0 -0.10438224412E+00 -0.50169909870E-01 -0.82107295316E-01  0.89137774298E+00  0.88000000000E+00 0.  1.
        -11    1    4    4    0    0  0.48642070896E-01  0.11578830639E-01  0.21169230786E-01  0.54300256289E-01  0.51100000000E-03 0. -1.
         11    1    4    4    0    0  0.55331520234E-01  0.33735504239E-01  0.38691785250E-01  0.75478319698E-01  0.51100000000E-03 0.  1.
</event>
<event>
 8    1  0.1233916E+005  0.1043930E+01  0.7957747E-01            NaN
         13   -1    0    0    0    0  0.00000000000E+00  0.00000000000E+00  0.74505805969E-08  0.10566000000E+00  0.10566000000E+00 0. -1.
     999900   -1    0    0    0    0 -0.00000000000E+00 -0.00000000000E+00 -0.74505805969E-08  0.93827000000E+00  0.93827000000E+00 0. -1.
     999902    2    1    2    0    0 -0.37851234763E-02  0.35782790513E-02 -0.21877184502E-01  0.10214412819E+01  0.10211936887E+01 0.  0.
     999903    2    3    3    0    0 -0.65661315536E-01 -0.60788725949E-01  0.91654698270E-01  0.12966705996E+00  0.20156516677E-01 0.  0.
         14    1    1    2    0    0  0.37851234763E-02 -0.35782790513E-02  0.21877184502E-01  0.22488718115E-01  0.00000000000E+00 0. -1.
     999901    1    3    3    0    0  0.61876192060E-01  0.64367005000E-01 -0.11353188277E+00  0.89177422192E+00  0.88000000000E+00 0. -1.
        -11    1    4    4    0    0 -0.34476386583E-01 -0.42358789222E-01  0.63688674661E-01  0.83901112372E-01  0.51100000000E-03 0.  1.
         11    1    4    4    0    0 -0.31184928953E-01 -0.18429936726E-01  0.27966023609E-01  0.45765947593E-01  0.51100000000E-03 0. -1.
</event>
<event>
 8    1  0.1233916E+005  0.1043930E+01  0.7957747E-01            NaN
         13   -1    0    0    0    0  0.00000000000E+00  0.00000000000E+00  0.74505805969E-08  0.10566000000E+00  0.10566000000E+00 0. -1.
     999900   -1    0    0    0    0 -0.00000000000E+00 -0.00000000000E+00 -0.74505805969E-08  0.93827000000E+00  0.93827000000E+00 0.  1.
     999902    2    1    2    0    0 -0.98215028810E-02 -0.13198573006E-01 -0.16689914466E-01  0.10204946102E+01  0.10202254810E+01 0.  0.
     999903    2    3    3    0    0 -0.58167106715E-01  0.68850256562E-01 -0.94271812813E-01  0.13196309206E+00  0.20082650324E-01 0.  0.
         14    1    1    2    0    0  0.98215028810E-02  0.13198573006E-01  0.16689914466E-01  0.23435389758E-01  0.00000000000E+00 0. -1.
     999901    1    3    3    0    0  0.48345603833E-01 -0.82048829568E-01  0.77581898347E-01  0.88853151818E+00  0.88000000000E+00 0. -1.
        -11    1    4    4    0    0 -0.18440555169E-01  0.19906409482E-01 -0.16160289229E-01  0.31586947975E-01  0.51100000000E-03 0.  1.
         11    1    4    4    0    0 -0.39726551545E-01  0.48943847080E-01 -0.78111523584E-01  0.10037614409E+00  0.51100000000E-03 0. -1.
</event>
<event>
 8    1  0.1233916E+005  0.1043930E+01  0.7957747E-01            NaN
         13   -1    0    0    0    0  0.00000000000E+00  0.00000000000E+00  0.74505805969E-08  0.10566000000E+00  0.10566000000E+00 0.  1.
     999900   -1    0    0    0    0 -0.00000000000E+00 -0.00000000000E+00 -0.74505805969E-08  0.93827000000E+00  0.93827000000E+00 0.  1.
     999902    2    1    2    0    0  0.16246360049E-01  0.17094793058E-01  0.31855381435E-03  0.10203444612E+01  0.10200718317E+01 0.  0.
     999903    2    3    3    0    0 -0.89969901361E-01 -0.87540099723E-01  0.12696343109E-01  0.12771712313E+00  0.19814494758E-01 0.  0.
         14    1    1    2    0    0 -0.16246360049E-01 -0.17094793058E-01 -0.31855381435E-03  0.23585538812E-01  0.00000000000E+00 0.  1.
     999901    1    3    3    0    0  0.10621626141E+00  0.10463489278E+00 -0.12377789295E-01  0.89262733805E+00  0.88000000000E+00 0. -1.
        -11    1    4    4    0    0 -0.47989634019E-01 -0.32945018484E-01  0.55205353661E-02  0.58473213080E-01  0.51100000000E-03 0.  1.
         11    1    4    4    0    0 -0.41980267342E-01 -0.54595081239E-01  0.71758077432E-02  0.69243910053E-01  0.51100000000E-03 0. -1.
</event>
<event>
 8    1  0.1233916E+005  0.1043930E+01  0.7957747E-01            NaN
         13   -1    0    0    0    0  0.00000000000E+00  0.00000000000E+00  0.74505805969E-08  0.10566000000E+00  0.10566000000E+00 0.  1.
     999900   -1    0    0    0    0 -0.00000000000E+00 -0.00000000000E+00 -0.74505805969E-08  0.93827000000E+00  0.93827000000E+00 0.  1.
     999902    2    1    2    0    0 -0.33758405100E-02  0.65752970643E-02 -0.22484512910E-01  0.10202617903E+01  0.10199872237E+01 0.  0.
     999903    2    3    3    0    0 -0.12317959791E+00 -0.36183493099E-01  0.10426871013E-01  0.13050653538E+00  0.20994704682E-01 0.  0.
         14    1    1    2    0    0  0.33758405100E-02 -0.65752970643E-02  0.22484512910E-01  0.23668209722E-01  0.00000000000E+00 0.  1.
     999901    1    3    3    0    0  0.11980375740E+00  0.42758790163E-01 -0.32911383924E-01  0.88975525490E+00  0.88000000000E+00 0.  1.
        -11    1    4    4    0    0 -0.82649404350E-01 -0.22020872767E-01 -0.27966636746E-02  0.85579935297E-01  0.51100000000E-03 0. -1.
         11    1    4    4    0    0 -0.40530193558E-01 -0.14162620331E-01  0.13223534688E-01  0.44926600085E-01  0.51100000000E-03 0.  1.
</event>
<event>
 8    1  0.1233916E+005  0.1043930E+01  0.7957747E-01            NaN
         13   -1    0    0    0    0  0.00000000000E+00  0.00000000000E+00  0.74505805969E-08  0.10566000000E+00  0.10566000000E+00 0. -1.
     999900   -1    0    0    0    0 -0.00000000000E+00 -0.00000000000E+00 -0.74505805969E-08  0.93827000000E+00  0.93827000000E+00 0.  1.
     999902    2    1    2    0    0 -0.70752923985E-02 -0.17941788010E-02 -0.26635834474E-01  0.10163121341E+01  0.10159368127E+01 0.  0.
     999903    2    3    3    0    0  0.82707487858E-01  0.83634071813E-02 -0.96433920771E-01  0.12893628528E+00  0.20361469935E-01 0.  0.
         14    1    1    2    0    0  0.70752923985E-02  0.17941788010E-02  0.26635834474E-01  0.27617865924E-01  0.00000000000E+00 0. -1.
     999901    1    3    3    0    0 -0.89782780257E-01 -0.10157585982E-01  0.69798086297E-01  0.88737584880E+00  0.88000000000E+00 0. -1.
        -11    1    4    4    0    0  0.33742995647E-01 -0.53602147999E-02 -0.31640226285E-01  0.46569160378E-01  0.51100000000E-03 0. -1.
         11    1    4    4    0    0  0.48964492211E-01  0.13723621981E-01 -0.64793694485E-01  0.82367124897E-01  0.51100000000E-03 0.  1.
</event>
<event>
 8    1  0.1233916E+005  0.1043930E+01  0.7957747E-01            NaN
         13   -1    0    0    0    0  0.00000000000E+00  0.00000000000E+00  0.74505805969E-08  0.10566000000E+00  0.10566000000E+00 0.  1.
     999900   -1    0    0    0    0 -0.00000000000E+00 -0.00000000000E+00 -0.74505805969E-08  0.93827000000E+00  0.93827000000E+00 0.  1.
     999902    2    1    2    0    0 -0.41184921092E-02 -0.23965668264E-01 -0.18296203403E-01  0.10134986627E+01  0.10130416936E+01 0.  0.
     999903    2    3    3    0    0  0.40075187246E-01  0.71311572216E-01 -0.91327656705E-01  0.12424930112E+00  0.20144155107E-01 0.  0.
         14    1    1    2    0    0  0.41184921092E-02  0.23965668264E-01  0.18296203403E-01  0.30431337328E-01  0.00000000000E+00 0.  1.
     999901    1    3    3    0    0 -0.44193679355E-01 -0.95277240481E-01  0.73031453302E-01  0.88924936155E+00  0.88000000000E+00 0.  1.
        -11    1    4    4    0    0  0.21608421351E-01  0.55964248754E-01 -0.60923763652E-01  0.85503725711E-01  0.51100000000E-03 0.  1.
         11    1    4    4    0    0  0.18466765895E-01  0.15347323462E-01 -0.30403893052E-01  0.38745575410E-01  0.51100000000E-03 0. -1.
</event>
<event>
 8    1  0.1233916E+005  0.1043930E+01  0.7957747E-01            NaN
         13   -1    0    0    0    0  0.00000000000E+00  0.00000000000E+00  0.74505805969E-08  0.10566000000E+00  0.10566000000E+00 0.  1.
     999900   -1    0    0    0    0 -0.00000000000E+00 -0.00000000000E+00 -0.74505805969E-08  0.93827000000E+00  0.93827000000E+00 0. -1.
     999902    2    1    2    0    0  0.39257371929E-03  0.42252269682E-02 -0.22905293920E-01  0.10206349545E+01  0.10203690759E+01 0.  0.
     999903    2    3    3    0    0  0.91289423908E-01 -0.39539097034E-01 -0.85445090727E-01  0.13266604757E+00  0.20057854715E-01 0.  0.
         14    1    1    2    0    0 -0.39257371929E-03 -0.42252269682E-02  0.22905293920E-01  0.23295045538E-01  0.00000000000E+00 0.  1.
     999901    1    3    3    0    0 -0.90896850189E-01  0.43764324002E-01  0.62539796807E-01  0.88796890690E+00  0.88000000000E+00 0.  1.
        -11    1    4    4    0    0  0.49799514785E-01 -0.23675977667E-01 -0.34378675201E-01  0.64982290056E-01  0.51100000000E-03 0. -1.
         11    1    4    4    0    0  0.41489909123E-01 -0.15863119367E-01 -0.51066415526E-01  0.67683757510E-01  0.51100000000E-03 0.  1.
</event>
<event>
 8    1  0.1233916E+005  0.1043930E+01  0.7957747E-01            NaN
         13   -1    0    0    0    0  0.00000000000E+00  0.00000000000E+00  0.74505805969E-08  0.10566000000E+00  0.10566000000E+00 0. -1.
     999900   -1    0    0    0    0 -0.00000000000E+00 -0.00000000000E+00 -0.74505805969E-08  0.93827000000E+00  0.93827000000E+00 0.  1.
     999902    2    1    2    0    0 -0.16534064535E-01  0.16396107656E-01 -0.37935219362E-02  0.10203376613E+01  0.10200648728E+01 0.  0.
     999903    2    3    3    0    0 -0.92477200396E-01  0.89556880276E-01 -0.34881606877E-01  0.13349701747E+00  0.56797691443E-02 0.  0.
         14    1    1    2    0    0  0.16534064535E-01 -0.16396107656E-01  0.37935219362E-02  0.23592338693E-01  0.00000000000E+00 0. -1.
     999901    1    3    3    0    0  0.75943135861E-01 -0.73160772620E-01  0.31088084940E-01  0.88684064384E+00  0.88000000000E+00 0.  1.
        -11    1    4    4    0    0 -0.19077185572E-01  0.17790600909E-01 -0.48375247351E-02  0.26535019439E-01  0.51100000000E-03 0.  1.
         11    1    4    4    0    0 -0.73400014824E-01  0.71766279367E-01 -0.30044082142E-01  0.10696199803E+00  0.51100000000E-03 0. -1.
</event>
<event>
 8    1  0.1233916E+005  0.1043930E+01  0.7957747E-01            NaN
         13   -1    0    0    0    0  0.00000000000E+00  0.00000000000E+00  0.74505805969E-08  0.10566000000E+00  0.10566000000E+00 0.  1.
     999900   -1    0    0    0    0 -0.00000000000E+00 -0.00000000000E+00 -0.74505805969E-08  0.93827000000E+00  0.93827000000E+00 0.  1.
     999902    2    1    2    0    0  0.20219632457E-01 -0.11654391881E-01  0.18942122568E-02  0.10205153374E+01  0.10202466895E+01 0.  0.
     999903    2    3    3    0    0 -0.16038978340E-01 -0.11693565560E+00 -0.53904489476E-01  0.13174521721E+00  0.22801576598E-01 0.  0.
         14    1    1    2    0    0 -0.20219632457E-01  0.11654391881E-01 -0.18942122568E-02  0.23414662647E-01  0.00000000000E+00 0.  1.
     999901    1    3    3    0    0  0.36258610797E-01  0.10528126372E+00  0.55798701733E-01  0.88877012014E+00  0.88000000000E+00 0. -1.
        -11    1    4    4    0    0 -0.77907551000E-02 -0.97951899034E-01 -0.51387501427E-01  0.11088826274E+00  0.51100000000E-03 0.  1.
         11    1    4    4    0    0 -0.82482232400E-02 -0.18983756564E-01 -0.25169880485E-02  0.20856954469E-01  0.51100000000E-03 0. -1.
</event>
<event>
 8    1  0.1233916E+005  0.1043930E+01  0.7957747E-01            NaN
         13   -1    0    0    0    0  0.00000000000E+00  0.00000000000E+00  0.74505805969E-08  0.10566000000E+00  0.10566000000E+00 0. -1.
     999900   -1    0    0    0    0 -0.00000000000E+00 -0.00000000000E+00 -0.74505805969E-08  0.93827000000E+00  0.93827000000E+00 0. -1.
     999902    2    1    2    0    0 -0.18193205602E-01  0.13862585754E-01  0.78604190592E-02  0.10197442562E+01  0.10194574037E+01 0.  0.
     999903    2    3    3    0    0 -0.12085691037E+00 -0.13780193265E-01 -0.46314184203E-01  0.13169085291E+00  0.20029742144E-01 0.  0.
         14    1    1    2    0    0  0.18193205602E-01 -0.13862585754E-01 -0.78604190592E-02  0.24185743769E-01  0.00000000000E+00 0. -1.
     999901    1    3    3    0    0  0.10266370477E+00  0.27642779019E-01  0.54174603262E-01  0.88805340332E+00  0.88000000000E+00 0.  1.
        -11    1    4    4    0    0 -0.61525048032E-01 -0.28586015960E-03 -0.15337494698E-01  0.63410670364E-01  0.51100000000E-03 0.  1.
         11    1    4    4    0    0 -0.59331862342E-01 -0.13494333106E-01 -0.30976689505E-01  0.68280182547E-01  0.51100000000E-03 0. -1.
</event>
<event>
 8    1  0.1233916E+005  0.1043930E+01  0.7957747E-01            NaN
         13   -1    0    0    0    0  0.00000000000E+00  0.00000000000E+00  0.74505805969E-08  0.10566000000E+00  0.10566000000E+00 0. -1.
     999900   -1    0    0    0    0 -0.00000000000E+00 -0.00000000000E+00 -0.74505805969E-08  0.93827000000E+00  0.93827000000E+00 0. -1.
     999902    2    1    2    0    0  0.21517454322E-02  0.13705091753E-02 -0.23268984024E-01  0.10205215844E+01  0.10202530815E+01 0.  0.
     999903    2    3    3    0    0  0.12667323754E+00 -0.26731450137E-01 -0.46104147383E-02  0.13111534182E+00  0.20231099843E-01 0.  0.
         14    1    1    2    0    0 -0.21517454322E-02 -0.13705091753E-02  0.23268984024E-01  0.23408415608E-01  0.00000000000E+00 0. -1.
     999901    1    3    3    0    0 -0.12452149211E+00  0.28101959312E-01 -0.18658569285E-01  0.88940624257E+00  0.88000000000E+00 0. -1.
        -11    1    4    4    0    0  0.69571674384E-02  0.28290105382E-02  0.13976691147E-02  0.76563750787E-02  0.51100000000E-03 0. -1.
         11    1    4    4    0    0  0.11971607010E+00 -0.29560460675E-01 -0.60080838530E-02  0.12345896674E+00  0.51100000000E-03 0.  1.
</event>
<event>
 8    1  0.1233916E+005  0.1043930E+01  0.7957747E-01            NaN
         13   -1    0    0    0    0  0.00000000000E+00  0.00000000000E+00  0.74505805969E-08  0.10566000000E+00  0.10566000000E+00 0.  1.
     999900   -1    0    0    0    0 -0.00000000000E+00 -0.00000000000E+00 -0.74505805969E-08  0.93827000000E+00  0.93827000000E+00 0. -1.
     999902    2    1    2    0    0  0.20342486224E-01 -0.88277187269E-02 -0.78800756838E-02  0.10203961742E+01  0.10201247529E+01 0.  0.
     999903    2    3    3    0    0 -0.73793318116E-01  0.74753126733E-01 -0.72404241631E-01  0.12909898731E+00  0.19765893918E-01 0.  0.
         14    1    1    2    0    0 -0.20342486224E-01  0.88277187269E-02  0.78800756838E-02  0.23533825793E-01  0.00000000000E+00 0.  1.
     999901    1    3    3    0    0  0.94135804339E-01 -0.83580845460E-01  0.64524165947E-01  0.89129718690E+00  0.88000000000E+00 0. -1.
        -11    1    4    4    0    0 -0.39246748452E-01  0.26761359417E-01 -0.27939832777E-01  0.55112367020E-01  0.51100000000E-03 0.  1.
         11    1    4    4    0    0 -0.34546569663E-01  0.47991767316E-01 -0.44464408854E-01  0.73986620286E-01  0.51100000000E-03 0. -1.
</event>
<event>
 8    1  0.1233916E+005  0.1043930E+01  0.7957747E-01            NaN
         13   -1    0    0    0    0  0.00000000000E+00  0.00000000000E+00  0.74505805969E-08  0.10566000000E+00  0.10566000000E+00 0.  1.
     999900   -1    0    0    0    0 -0.00000000000E+00 -0.00000000000E+00 -0.74505805969E-08  0.93827000000E+00  0.93827000000E+00 0.  1.
     999902    2    1    2    0    0 -0.11661146447E-01 -0.13735988324E-01  0.19087372775E-01  0.10176814284E+01  0.10173428636E+01 0.  0.
     999903    2    3    3    0    0  0.50995150969E-01 -0.11636779884E+00 -0.11057133050E-01  0.12899262383E+00  0.19361476714E-01 0.  0.
         14    1    1    2    0    0  0.11661146447E-01  0.13735988324E-01 -0.19087372775E-01  0.26248571602E-01  0.00000000000E+00 0. -1.
     999901    1    3    3    0    0 -0.62656297415E-01  0.10263181052E+00  0.30144505825E-01  0.88868880457E+00  0.88000000000E+00 0. -1.
        -11    1    4    4    0    0  0.32628042930E-01 -0.56738382710E-01  0.90959018146E-03  0.65459313572E-01  0.51100000000E-03 0. -1.
         11    1    4    4    0    0  0.18367108039E-01 -0.59629416134E-01 -0.11966723232E-01  0.63533310256E-01  0.51100000000E-03 0.  1.
</event>
<event>
 8    1  0.1233916E+005  0.1043930E+01  0.7957747E-01            NaN
         13   -1    0    0    0    0  0.00000000000E+00  0.00000000000E+00  0.74505805969E-08  0.10566000000E+00  0.10566000000E+00 0. -1.
     999900   -1    0    0    0    0 -0.00000000000E+00 -0.00000000000E+00 -0.74505805969E-08  0.93827000000E+00  0.93827000000E+00 0.  1.
     999902    2    1    2    0    0  0.94916354041E-02  0.13164404288E-01  0.16214820744E-01  0.10209884853E+01  0.10207307060E+01 0.  0.
     999903    2    3    3    0    0  0.61435925902E-01 -0.24181876455E-01 -0.10999065108E+00  0.12968563271E+00  0.19007468673E-01 0.  0.
         14    1    1    2    0    0 -0.94916354041E-02 -0.13164404288E-01 -0.16214820744E-01  0.22941514655E-01  0.00000000000E+00 0. -1.
     999901    1    3    3    0    0 -0.51944290498E-01  0.37346280743E-01  0.12620547182E+00  0.89130285264E+00  0.88000000000E+00 0. -1.
        -11    1    4    4    0    0  0.42166951437E-01 -0.13727637896E-01 -0.56153440323E-01  0.71553964368E-01  0.51100000000E-03 0. -1.
         11    1    4    4    0    0  0.19268974465E-01 -0.10454238559E-01 -0.53837210758E-01  0.58131668340E-01  0.51100000000E-03 0.  1.
</event>
<event>
 8    1  0.1233916E+005  0.1043930E+01  0.7957747E-01            NaN
         13   -1    0    0    0    0  0.00000000000E+00  0.00000000000E+00  0.74505805969E-08  0.10566000000E+00  0.10566000000E+00 0. -1.
     999900   -1    0    0    0    0 -0.00000000000E+00 -0.00000000000E+00 -0.74505805969E-08  0.93827000000E+00  0.93827000000E+00 0. -1.
     999902    2    1    2    0    0 -0.48971748955E-02  0.88309485618E-02  0.21374331359E-01  0.10202904142E+01  0.10200165192E+01 0.  0.
     999903    2    3    3    0    0  0.60657327686E-01  0.50609000695E-01  0.10505199448E+00  0.13290957730E+00  0.19709181613E-01 0.  0.
         14    1    1    2    0    0  0.48971748955E-02 -0.88309485618E-02 -0.21374331359E-01  0.23639585772E-01  0.00000000000E+00 0.  1.
     999901    1    3    3    0    0 -0.65554502582E-01 -0.41778052133E-01 -0.83677663119E-01  0.88738083693E+00  0.88000000000E+00 0. -1.
        -11    1    4    4    0    0  0.21481558930E-01  0.74572393074E-02  0.35549806464E-01  0.42203289597E-01  0.51100000000E-03 0.  1.
         11    1    4    4    0    0  0.39175768756E-01  0.43151761387E-01  0.69502188014E-01  0.90706287699E-01  0.51100000000E-03 0. -1.
</event>
<event>
 8    1  0.1233916E+005  0.1043930E+01  0.7957747E-01            NaN
         13   -1    0    0    0    0  0.00000000000E+00  0.00000000000E+00  0.74505805969E-08  0.10566000000E+00  0.10566000000E+00 0.  1.
     999900   -1    0    0    0    0 -0.00000000000E+00 -0.00000000000E+00 -0.74505805969E-08  0.93827000000E+00  0.93827000000E+00 0. -1.
     999902    2    1    2    0    0 -0.11815663107E-01 -0.12701713182E-01  0.15734697965E-01  0.10205094079E+01  0.10202406224E+01 0.  0.
     999903    2    3    3    0    0  0.95791794071E-01  0.17045562788E-01  0.84959595105E-01  0.13075868349E+00  0.20324406175E-01 0.  0.
         14    1    1    2    0    0  0.11815663107E-01  0.12701713182E-01 -0.15734697965E-01  0.23420592061E-01  0.00000000000E+00 0. -1.
     999901    1    3    3    0    0 -0.10760745718E+00 -0.29747275970E-01 -0.69224897140E-01  0.88975072445E+00  0.88000000000E+00 0. -1.
        -11    1    4    4    0    0  0.80958402710E-01  0.67636733477E-02  0.71708562832E-01  0.10836230595E+00  0.51100000000E-03 0.  1.
         11    1    4    4    0    0  0.14833391361E-01  0.10281889440E-01  0.13251032273E-01  0.22396377542E-01  0.51100000000E-03 0. -1.
</event>
<event>
 8    1  0.1233916E+005  0.1043930E+01  0.7957747E-01            NaN
         13   -1    0    0    0    0  0.00000000000E+00  0.00000000000E+00  0.74505805969E-08  0.10566000000E+00  0.10566000000E+00 0. -1.
     999900   -1    0    0    0    0 -0.00000000000E+00 -0.00000000000E+00 -0.74505805969E-08  0.93827000000E+00  0.93827000000E+00 0.  1.
     999902    2    1    2    0    0  0.21752354639E-01 -0.47418217407E-02  0.99486340152E-02  0.10195450636E+01  0.10192534089E+01 0.  0.
     999903    2    3    3    0    0 -0.10881194008E+00  0.20161491382E-01 -0.58670387958E-01  0.12692208592E+00  0.20505546397E-01 0.  0.
         14    1    1    2    0    0 -0.21752354639E-01  0.47418217407E-02 -0.99486340152E-02  0.24384936427E-01  0.00000000000E+00 0.  1.
     999901    1    3    3    0    0  0.13056429472E+00 -0.24903313123E-01  0.68619021973E-01  0.89262297765E+00  0.88000000000E+00 0.  1.
        -11    1    4    4    0    0 -0.37418047259E-01  0.12352183558E-01 -0.11709587178E-01  0.41110366724E-01  0.51100000000E-03 0. -1.
         11    1    4    4    0    0 -0.71393892818E-01  0.78093078247E-02 -0.46960800780E-01  0.85811719195E-01  0.51100000000E-03 0.  1.
</event>
<event>
 8    1  0.1233916E+005  0.1043930E+01  0.7957747E-01            NaN
         13   -1    0    0    0    0  0.00000000000E+00  0.00000000000E+00  0.74505805969E-08  0.10566000000E+00  0.10566000000E+00 0. -1.
     999900   -1    0    0    0    0 -0.00000000000E+00 -0.00000000000E+00 -0.74505805969E-08  0.93827000000E+00  0.93827000000E+00 0.  1.
     999902    2    1    2    0    0 -0.70761102888E-02  0.11527169567E-01  0.21781263767E-01  0.10182907639E+01  0.10179679315E+01 0.  0.
     999903    2    3    3    0    0 -0.69276374697E-01  0.89732055390E-01 -0.57762619674E-01  0.12907082125E+00  0.21718628219E-01 0.  0.
         14    1    1    2    0    0  0.70761102888E-02 -0.11527169567E-01 -0.21781263767E-01  0.25639236071E-01  0.00000000000E+00 0. -1.
     999901    1    3    3    0    0  0.62200264409E-01 -0.78204885823E-01  0.79543883441E-01  0.88921994268E+00  0.88000000000E+00 0. -1.
        -11    1    4    4    0    0 -0.57131890564E-02  0.78648450336E-02 -0.12825444715E-01  0.16101225721E-01  0.51100000000E-03 0. -1.
         11    1    4    4    0    0 -0.63563185641E-01  0.81867210356E-01 -0.44937174959E-01  0.11296959553E+00  0.51100000000E-03 0.  1.
</event>
<event>
 8    1  0.1233916E+005  0.1043930E+01  0.7957747E-01            NaN
         13   -1    0    0    0    0  0.00000000000E+00  0.00000000000E+00  0.74505805969E-08  0.10566000000E+00  0.10566000000E+00 0. -1.
     999900   -1    0    0    0    0 -0.00000000000E+00 -0.00000000000E+00 -0.74505805969E-08  0.93827000000E+00  0.93827000000E+00 0. -1.
     999902    2    1    2    0    0 -0.34153810367E-02 -0.21463116011E-01 -0.91009756877E-02  0.10203682103E+01  0.10200961360E+01 0.  0.
     999903    2    3    3    0    0  0.44124810746E-01  0.78857395852E-01 -0.90808577407E-01  0.12963794408E+00  0.19857265957E-01 0.  0.
         14    1    1    2    0    0  0.34153810367E-02  0.21463116011E-01  0.91009756877E-02  0.23561789724E-01  0.00000000000E+00 0. -1.
     999901    1    3    3    0    0 -0.47540191782E-01 -0.10032051186E+00  0.81707601720E-01  0.89073026619E+00  0.88000000000E+00 0.  1.
        -11    1    4    4    0    0  0.27629146602E-01  0.65092849211E-01 -0.64967813369E-01  0.96028780349E-01  0.51100000000E-03 0.  1.
         11    1    4    4    0    0  0.16495664144E-01  0.13764546641E-01 -0.25840764039E-01  0.33609163734E-01  0.51100000000E-03 0. -1.
</event>
<event>
 7    1  0.1233916E+005  0.1043930E+01  0.7957747E-01            NaN
         13   -1    0    0    0    0  0.00000000000E+00  0.00000000000E+00  0.74505805969E-08  0.10566000000E+00  0.10566000000E+00 0. -1.
     999900   -1    0    0    0    0 -0.00000000000E+00 -0.00000000000E+00 -0.74505805969E-08  0.93827000000E+00  0.93827000000E+00 0.  1.
     999903    2    1    2    0    0 -0.85723394600E-01 -0.27582516137E-01  0.34821511824E-01  0.98563845188E-01  0.19824185084E-01 0.  0.
         14    1    1    2    0    0  0.79439203382E-02 -0.37935220684E-01 -0.45078991350E-01  0.59449998316E-01  0.00000000000E+00 0.  1.
     999901    1    1    2    0    0  0.77779474262E-01  0.65517736821E-01  0.10257479525E-01  0.88591615650E+00  0.88000000000E+00 0. -1.
        -11    1    3    3    0    0 -0.13039577993E-01 -0.12270204777E-01  0.60743885551E-02  0.18914223136E-01  0.51100000000E-03 0.  1.
         11    1    3    3    0    0 -0.72683816607E-01 -0.15312311360E-01  0.28747123269E-01  0.79649622051E-01  0.51100000000E-03 0. -1.
</event>
<event>
 8    1  0.1233916E+005  0.1043930E+01  0.7957747E-01            NaN
         13   -1    0    0    0    0  0.00000000000E+00  0.00000000000E+00  0.74505805969E-08  0.10566000000E+00  0.10566000000E+00 0.  1.
     999900   -1    0    0    0    0 -0.00000000000E+00 -0.00000000000E+00 -0.74505805969E-08  0.93827000000E+00  0.93827000000E+00 0. -1.
     999902    2    1    2    0    0 -0.90252074268E-03 -0.19305913605E-01  0.81422344898E-02  0.10229579036E+01  0.10227429021E+01 0.  0.
     999903    2    3    3    0    0 -0.27233644055E-01  0.72997177054E-01  0.10607105497E+00  0.13233832014E+00  0.13860124467E-01 0.  0.
         14    1    1    2    0    0  0.90252074268E-03  0.19305913605E-01 -0.81422344898E-02  0.20972096374E-01  0.00000000000E+00 0. -1.
     999901    1    3    3    0    0  0.26331123312E-01 -0.92303090659E-01 -0.97928820479E-01  0.89061958348E+00  0.88000000000E+00 0. -1.
        -11    1    4    4    0    0 -0.24466278867E-01  0.50968757650E-01  0.70031064991E-01  0.90005690058E-01  0.51100000000E-03 0. -1.
         11    1    4    4    0    0 -0.27673651884E-02  0.22028419403E-01  0.36039989977E-01  0.42332630087E-01  0.51100000000E-03 0.  1.
</event>
<event>
 8    1  0.1233916E+005  0.1043930E+01  0.7957747E-01            NaN
         13   -1    0    0    0    0  0.00000000000E+00  0.00000000000E+00  0.74505805969E-08  0.10566000000E+00  0.10566000000E+00 0.  1.
     999900   -1    0    0    0    0 -0.00000000000E+00 -0.00000000000E+00 -0.74505805969E-08  0.93827000000E+00  0.93827000000E+00 0. -1.
     999902    2    1    2    0    0 -0.24547886617E-01  0.29250348067E-02  0.37510669360E-03  0.10192056138E+01  0.10189056816E+01 0.  0.
     999903    2    3    3    0    0 -0.72466721885E-01  0.38047026484E-01 -0.10077124996E+00  0.13142165671E+00  0.20440279575E-01 0.  0.
         14    1    1    2    0    0  0.24547886617E-01 -0.29250348067E-02 -0.37510669360E-03  0.24724386161E-01  0.00000000000E+00 0.  1.
     999901    1    3    3    0    0  0.47918835268E-01 -0.35121991677E-01  0.10114635665E+00  0.88778395713E+00  0.88000000000E+00 0.  1.
        -11    1    4    4    0    0 -0.45910829894E-01  0.34420487807E-01 -0.72504452306E-01  0.92464755489E-01  0.51100000000E-03 0. -1.
         11    1    4    4    0    0 -0.26555891991E-01  0.36265386772E-02 -0.28266797652E-01  0.38956901221E-01  0.51100000000E-03 0.  1.
</event>
<event>
 7    1  0.1233916E+005  0.1043930E+01  0.7957747E-01            NaN
         13   -1    0    0    0    0  0.00000000000E+00  0.00000000000E+00  0.74505805969E-08  0.10566000000E+00  0.10566000000E+00 0. -1.
     999900   -1    0    0    0    0 -0.00000000000E+00 -0.00000000000E+00 -0.74505805969E-08  0.93827000000E+00  0.93827000000E+00 0.  1.
     999903    2    1    2    0    0  0.79736866916E-01 -0.39482282743E-01  0.60161287114E-01  0.10917648985E+00  0.19578224428E-01 0.  0.
         14    1    1    2    0    0  0.59758272254E-02  0.45602100272E-01  0.12286458673E-01  0.47604822518E-01  0.00000000000E+00 0. -1.
     999901    1    1    2    0    0 -0.85712694142E-01 -0.61198175292E-02 -0.72447745787E-01  0.88714868764E+00  0.88000000000E+00 0.  1.
        -11    1    3    3    0    0  0.53989799280E-01 -0.17820982908E-01  0.43725100883E-01  0.71726086094E-01  0.51100000000E-03 0. -1.
         11    1    3    3    0    0  0.25747067636E-01 -0.21661299835E-01  0.16436186231E-01  0.37450403752E-01  0.51100000000E-03 0.  1.
</event>
<event>
 8    1  0.1233916E+005  0.1043930E+01  0.7957747E-01            NaN
         13   -1    0    0    0    0  0.00000000000E+00  0.00000000000E+00  0.74505805969E-08  0.10566000000E+00  0.10566000000E+00 0.  1.
     999900   -1    0    0    0    0 -0.00000000000E+00 -0.00000000000E+00 -0.74505805969E-08  0.93827000000E+00  0.93827000000E+00 0. -1.
     999902    2    1    2    0    0 -0.10890601748E-02  0.49720675260E-02 -0.22463804091E-01  0.10208967631E+01  0.10206368947E+01 0.  0.
     999903    2    3    3    0    0 -0.93631799695E-01 -0.85607560801E-01  0.22829321256E-01  0.13026760632E+00  0.18785711807E-01 0.  0.
         14    1    1    2    0    0  0.10890601748E-02 -0.49720675260E-02  0.22463804091E-01  0.23033236893E-01  0.00000000000E+00 0.  1.
     999901    1    3    3    0    0  0.92542739521E-01  0.90579628327E-01 -0.45293125347E-01  0.89062915678E+00  0.88000000000E+00 0. -1.
        -11    1    4    4    0    0 -0.39618551621E-01 -0.24814435428E-01  0.11638705293E-01  0.48177862345E-01  0.51100000000E-03 0.  1.
         11    1    4    4    0    0 -0.54013248074E-01 -0.60793125373E-01  0.11190615963E-01  0.82089743980E-01  0.51100000000E-03 0. -1.
</event>
<event>
 8    1  0.1233916E+005  0.1043930E+01  0.7957747E-01            NaN
         13   -1    0    0    0    0  0.00000000000E+00  0.00000000000E+00  0.74505805969E-08  0.10566000000E+00  0.10566000000E+00 0. -1.
     999900   -1    0    0    0    0 -0.00000000000E+00 -0.00000000000E+00 -0.74505805969E-08  0.93827000000E+00  0.93827000000E+00 0.  1.
     999902    2    1    2    0    0 -0.12622986379E-01  0.19631047966E-01  0.96485540078E-02  0.10186750515E+01  0.10183619436E+01 0.  0.
     999903    2    3    3    0    0 -0.10678068005E+00  0.71027994699E-01 -0.20330938340E-01  0.13165414567E+00  0.21734243870E-01 0.  0.
         14    1    1    2    0    0  0.12622986379E-01 -0.19631047966E-01 -0.96485540078E-02  0.25254948502E-01  0.00000000000E+00 0. -1.
     999901    1    3    3    0    0  0.94157693669E-01 -0.51396946732E-01  0.29979492348E-01  0.88702090583E+00  0.88000000000E+00 0. -1.
        -11    1    4    4    0    0 -0.99324173391E-01  0.67396909905E-01 -0.24264345770E-01  0.12246082835E+00  0.51100000000E-03 0.  1.
         11    1    4    4    0    0 -0.74565066573E-02  0.36310847936E-02  0.39334074303E-02  0.91933173186E-02  0.51100000000E-03 0. -1.
</event>
<event>
 8    1  0.1233916E+005  0.1043930E+01  0.7957747E-01            NaN
         13   -1    0    0    0    0  0.00000000000E+00  0.00000000000E+00  0.74505805969E-08  0.10566000000E+00  0.10566000000E+00 0.  1.
     999900   -1    0    0    0    0 -0.00000000000E+00 -0.00000000000E+00 -0.74505805969E-08  0.93827000000E+00  0.93827000000E+00 0.  1.
     999902    2    1    2    0    0  0.20886822524E-01 -0.60273017981E-02  0.71891820474E-03  0.10221790330E+01  0.10219475872E+01 0.  0.
     999903    2    3    3    0    0  0.58060820358E-01  0.10279820416E+00 -0.57112658631E-01  0.13281443502E+00  0.20959215941E-01 0.  0.
         14    1    1    2    0    0 -0.20886822524E-01  0.60273017981E-02 -0.71891820474E-03  0.21750967002E-01  0.00000000000E+00 0. -1.
     999901    1    3    3    0    0 -0.37173997834E-01 -0.10882550596E+00  0.57831576835E-01  0.88936459798E+00  0.88000000000E+00 0.  1.
        -11    1    4    4    0    0  0.34458845935E-01  0.41179779380E-01 -0.29669892361E-01  0.61349408527E-01  0.51100000000E-03 0.  1.
         11    1    4    4    0    0  0.23601974424E-01  0.61618424785E-01 -0.27442766269E-01  0.71465026490E-01  0.51100000000E-03 0. -1.
</event>
<event>
 8    1  0.1233916E+005  0.1043930E+01  0.7957747E-01            NaN
         13   -1    0    0    0    0  0.00000000000E+00  0.00000000000E+00  0.74505805969E-08  0.10566000000E+00  0.10566000000E+00 0.  1.
     999900   -1    0    0    0    0 -0.00000000000E+00 -0.00000000000E+00 -0.74505805969E-08  0.93827000000E+00  0.93827000000E+00 0.  1.
     999902    2    1    2    0    0 -0.43640657947E-02  0.41770466694E-02  0.23012084191E-01  0.10201382197E+01  0.10198607447E+01 0.  0.
     999903    2    3    3    0    0  0.13116121228E-01 -0.11674284649E+00 -0.47953858705E-01  0.12886758601E+00  0.22502384676E-01 0.  0.
         14    1    1    2    0    0  0.43640657947E-02 -0.41770466694E-02 -0.23012084191E-01  0.23791780260E-01  0.00000000000E+00 0. -1.
     999901    1    3    3    0    0 -0.17480187023E-01  0.12091989316E+00  0.70965942895E-01  0.89127063373E+00  0.88000000000E+00 0. -1.
        -11    1    4    4    0    0  0.52488531369E-02 -0.66477428914E-01 -0.15326208758E-01  0.68424796749E-01  0.51100000000E-03 0. -1.
         11    1    4    4    0    0  0.78672680911E-02 -0.50265417578E-01 -0.32627649947E-01  0.60442789260E-01  0.51100000000E-03 0.  1.
</event>
<event>
 7    1  0.1233916E+005  0.1043930E+01  0.7957747E-01            NaN
         13   -1    0    0    0    0  0.00000000000E+00  0.00000000000E+00  0.74505805969E-08  0.10566000000E+00  0.10566000000E+00 0. -1.
     999900   -1    0    0    0    0 -0.00000000000E+00 -0.00000000000E+00 -0.74505805969E-08  0.93827000000E+00  0.93827000000E+00 0. -1.
     999903    2    1    2    0    0 -0.14310894020E-01  0.40141777933E-02  0.11039964129E+00  0.11308189414E+00  0.19455556383E-01 0.  0.
         14    1    1    2    0    0 -0.37209346452E-01  0.66636016380E-02  0.14471596638E-01  0.40476736027E-01  0.00000000000E+00 0. -1.
     999901    1    1    2    0    0  0.51520240471E-01 -0.10677779431E-01 -0.12487123793E+00  0.89037136983E+00  0.88000000000E+00 0. -1.
        -11    1    3    3    0    0  0.13021423426E-02  0.81174173625E-02  0.42134015297E-01  0.42931624770E-01  0.51100000000E-03 0. -1.
         11    1    3    3    0    0 -0.15613036362E-01 -0.41032395692E-02  0.68265625996E-01  0.70150269372E-01  0.51100000000E-03 0.  1.
</event>
<event>
 8    1  0.1233916E+005  0.1043930E+01  0.7957747E-01            NaN
         13   -1    0    0    0    0  0.00000000000E+00  0.00000000000E+00  0.74505805969E-08  0.10566000000E+00  0.10566000000E+00 0.  1.
     999900   -1    0    0    0    0 -0.00000000000E+00 -0.00000000000E+00 -0.74505805969E-08  0.93827000000E+00  0.93827000000E+00 0. -1.
     999902    2    1    2    0    0  0.11233097649E-01  0.18919576000E-01  0.92539746053E-02  0.10200601679E+01  0.10197808477E+01 0.  0.
     999903    2    3    3    0    0 -0.61518551354E-01  0.88504265347E-01 -0.71154059265E-01  0.13067820083E+00  0.19908663371E-01 0.  0.
         14    1    1    2    0    0 -0.11233097649E-01 -0.18919576000E-01 -0.92539746053E-02  0.23869832107E-01  0.00000000000E+00 0.  1.
     999901    1    3    3    0    0  0.72751649003E-01 -0.69584689347E-01  0.80408033870E-01  0.88938196706E+00  0.88000000000E+00 0.  1.
        -11    1    4    4    0    0 -0.33877598908E-01  0.42419668124E-01 -0.24707986656E-01  0.59647847213E-01  0.51100000000E-03 0.  1.
         11    1    4    4    0    0 -0.27640952446E-01  0.46084597223E-01 -0.46446072608E-01  0.71030353618E-01  0.51100000000E-03 0. -1.
</event>
<event>
 8    1  0.1233916E+005  0.1043930E+01  0.7957747E-01            NaN
         13   -1    0    0    0    0  0.00000000000E+00  0.00000000000E+00  0.74505805969E-08  0.10566000000E+00  0.10566000000E+00 0. -1.
     999900   -1    0    0    0    0 -0.00000000000E+00 -0.00000000000E+00 -0.74505805969E-08  0.93827000000E+00  0.93827000000E+00 0. -1.
     999902    2    1    2    0    0  0.13685788475E-02 -0.13081500951E-01  0.19746464262E-01  0.10202040327E+01  0.10199281086E+01 0.  0.
     999903    2    3    3    0    0  0.11295237308E+00  0.23715642343E-01  0.59824173870E-01  0.13149080800E+00  0.19754253517E-01 0.  0.
         14    1    1    2    0    0 -0.13685788475E-02  0.13081500951E-01 -0.19746464262E-01  0.23725967337E-01  0.00000000000E+00 0.  1.
     999901    1    3    3    0    0 -0.11158379423E+00 -0.36797143294E-01 -0.40077709607E-01  0.88871322467E+00  0.88000000000E+00 0.  1.
        -11    1    4    4    0    0  0.84148001405E-01  0.23591142098E-01  0.51771169351E-01  0.10157727710E+00  0.51100000000E-03 0.  1.
         11    1    4    4    0    0  0.28804371676E-01  0.12450024516E-03  0.80530045184E-02  0.29913530897E-01  0.51100000000E-03 0. -1.
</event>
<event>
 8    1  0.1233916E+005  0.1043930E+01  0.7957747E-01            NaN
         13   -1    0    0    0    0  0.00000000000E+00  0.00000000000E+00  0.74505805969E-08  0.10566000000E+00  0.10566000000E+00 0. -1.
     999900   -1    0    0    0    0 -0.00000000000E+00 -0.00000000000E+00 -0.74505805969E-08  0.93827000000E+00  0.93827000000E+00 0.  1.
     999902    2    1    2    0    0 -0.78951378707E-02 -0.19955926959E-01  0.97450997279E-02  0.10203601211E+01  0.10200878578E+01 0.  0.
     999903    2    3    3    0    0  0.12415612161E+00 -0.32950457061E-01  0.83115565271E-02  0.13041155630E+00  0.20919294668E-01 0.  0.
         14    1    1    2    0    0  0.78951378707E-02  0.19955926959E-01 -0.97450997279E-02  0.23569878903E-01  0.00000000000E+00 0. -1.
     999901    1    3    3    0    0 -0.13205125948E+00  0.12994530102E-01  0.14335432008E-02  0.88994856480E+00  0.88000000000E+00 0.  1.
        -11    1    4    4    0    0  0.27151731632E-01 -0.58367788663E-02  0.10417143085E-01  0.29665847522E-01  0.51100000000E-03 0.  1.
         11    1    4    4    0    0  0.97004389981E-01 -0.27113678195E-01 -0.21055865577E-02  0.10074570877E+00  0.51100000000E-03 0. -1.
</event>
<event>
 8    1  0.1233916E+005  0.1043930E+01  0.7957747E-01            NaN
         13   -1    0    0    0    0  0.00000000000E+00  0.00000000000E+00  0.74505805969E-08  0.10566000000E+00  0.10566000000E+00 0. -1.
     999900   -1    0    0    0    0 -0.00000000000E+00 -0.00000000000E+00 -0.74505805969E-08  0.93827000000E+00  0.93827000000E+00 0.  1.
     999902    2    1    2    0    0  0.11186334773E-01  0.16065387986E-01 -0.13703855424E-01  0.10200338407E+01  0.10197538966E+01 0.  0.
     999903    2    3    3    0    0  0.80829694768E-01 -0.64195883959E-01  0.75268672348E-01  0.12918695144E+00  0.19218332717E-01 0.  0.
         14    1    1    2    0    0 -0.11186334773E-01 -0.16065387986E-01  0.13703855424E-01  0.23896159320E-01  0.00000000000E+00 0. -1.
     999901    1    3    3    0    0 -0.69643359995E-01  0.80261271945E-01 -0.88972527772E-01  0.89084688924E+00  0.88000000000E+00 0.  1.
        -11    1    4    4    0    0  0.46902829757E-01 -0.48817258278E-01  0.46798580197E-01  0.82300476150E-01  0.51100000000E-03 0. -1.
         11    1    4    4    0    0  0.33926865011E-01 -0.15378625681E-01  0.28470092150E-01  0.46886475293E-01  0.51100000000E-03 0.  1.
</event>
<event>
 8    1  0.1233916E+005  0.1043930E+01  0.7957747E-01            NaN
         13   -1    0    0    0    0  0.00000000000E+00  0.00000000000E+00  0.74505805969E-08  0.10566000000E+00  0.10566000000E+00 0. -1.
     999900   -1    0    0    0    0 -0.00000000000E+00 -0.00000000000E+00 -0.74505805969E-08  0.93827000000E+00  0.93827000000E+00 0.  1.
     999902    2    1    2    0    0  0.16327007828E-01 -0.98542967041E-03  0.17575921618E-01  0.10199205169E+01  0.10196378796E+01 0.  0.
     999903    2    3    3    0    0  0.73665209135E-01 -0.10206503887E+00 -0.30116719094E-01  0.13100019165E+00  0.20253351529E-01 0.  0.
         14    1    1    2    0    0 -0.16327007828E-01  0.98542967041E-03 -0.17575921618E-01  0.24009483064E-01  0.00000000000E+00 0.  1.
     999901    1    3    3    0    0 -0.57338201306E-01  0.10107960920E+00  0.47692640712E-01  0.88892032528E+00  0.88000000000E+00 0. -1.
        -11    1    4    4    0    0  0.53027996912E-01 -0.74105255419E-01 -0.12321986219E-01  0.91954607294E-01  0.51100000000E-03 0. -1.
         11    1    4    4    0    0  0.20637212223E-01 -0.27959783448E-01 -0.17794732875E-01  0.39045584359E-01  0.51100000000E-03 0.  1.
</event>
<event>
 8    1  0.1233916E+005  0.1043930E+01  0.7957747E-01            NaN
         13   -1    0    0    0    0  0.00000000000E+00  0.00000000000E+00  0.74505805969E-08  0.10566000000E+00  0.10566000000E+00 0.  1.
     999900   -1    0    0    0    0 -0.00000000000E+00 -0.00000000000E+00 -0.74505805969E-08  0.93827000000E+00  0.93827000000E+00 0. -1.
     999902    2    1    2    0    0 -0.94469443557E-02 -0.17840013668E-01  0.12629471593E-01  0.10201179359E+01  0.10198399819E+01 0.  0.
     999903    2    3    3    0    0  0.81727736079E-01  0.32115776257E-01  0.93998042503E-01  0.13027005694E+00  0.20586641607E-01 0.  0.
         14    1    1    2    0    0  0.94469443557E-02  0.17840013668E-01 -0.12629471593E-01  0.23812064128E-01  0.00000000000E+00 0. -1.
     999901    1    3    3    0    0 -0.91174680435E-01 -0.49955789924E-01 -0.81368570911E-01  0.88984787893E+00  0.88000000000E+00 0. -1.
        -11    1    4    4    0    0  0.66679665435E-01  0.17087570244E-01  0.74132496110E-01  0.10116348620E+00  0.51100000000E-03 0.  1.
         11    1    4    4    0    0  0.15048070645E-01  0.15028206013E-01  0.19865546393E-01  0.29106570746E-01  0.51100000000E-03 0. -1.
</event>
<event>
 8    1  0.1233916E+005  0.1043930E+01  0.7957747E-01            NaN
         13   -1    0    0    0    0  0.00000000000E+00  0.00000000000E+00  0.74505805969E-08  0.10566000000E+00  0.10566000000E+00 0.  1.
     999900   -1    0    0    0    0 -0.00000000000E+00 -0.00000000000E+00 -0.74505805969E-08  0.93827000000E+00  0.93827000000E+00 0.  1.
     999902    2    1    2    0    0  0.91319984350E-02 -0.19608898940E-01  0.10859470411E-01  0.10197260662E+01  0.10194387768E+01 0.  0.
     999903    2    3    3    0    0 -0.67715121039E-01 -0.84089399959E-01  0.73402600736E-01  0.13182130897E+00  0.18235978217E-01 0.  0.
         14    1    1    2    0    0 -0.91319984350E-02  0.19608898940E-01 -0.10859470411E-01  0.24203933785E-01  0.00000000000E+00 0.  1.
     999901    1    3    3    0    0  0.76847119474E-01  0.64480501019E-01 -0.62543130325E-01  0.88790475724E+00  0.88000000000E+00 0.  1.
        -11    1    4    4    0    0 -0.40299230603E-01 -0.63146439683E-01  0.52556567086E-01  0.91509314808E-01  0.51100000000E-03 0.  1.
         11    1    4    4    0    0 -0.27415890436E-01 -0.20942960276E-01  0.20846033649E-01  0.40311994164E-01  0.51100000000E-03 0. -1.
</event>
<event>
 7    1  0.1233916E+005  0.1043930E+01  0.7957747E-01            NaN
         13   -1    0    0    0    0  0.00000000000E+00  0.00000000000E+00  0.74505805969E-08  0.10566000000E+00  0.10566000000E+00 0. -1.
     999900   -1    0    0    0    0 -0.00000000000E+00 -0.00000000000E+00 -0.74505805969E-08  0.93827000000E+00  0.93827000000E+00 0.  1.
     999902    2    1    2    0    0  0.57072587063E-02  0.19930051452E-01  0.89406144248E-02  0.10213531459E+01  0.10211035865E+01 0.  0.
         14    1    1    2    0    0 -0.57072587063E-02 -0.19930051452E-01 -0.89406144248E-02  0.22576854057E-01  0.00000000000E+00 0.  1.
     999901    1    3    3    0    0 -0.95781568349E-01 -0.34349142932E-01 -0.30394692616E-01  0.88638468500E+00  0.88000000000E+00 0.  1.
        -11    1    3    3    0    0  0.77389377052E-01  0.98446696630E-02  0.17792611830E-01  0.80017943975E-01  0.51100000000E-03 0.  1.
         11    1    3    3    0    0  0.24099450004E-01  0.44434524721E-01  0.21542695210E-01  0.54950516973E-01  0.51100000000E-03 0. -1.
</event>
<event>
 8    1  0.1233916E+005  0.1043930E+01  0.7957747E-01            NaN
         13   -1    0    0    0    0  0.00000000000E+00  0.00000000000E+00  0.74505805969E-08  0.10566000000E+00  0.10566000000E+00 0. -1.
     999900   -1    0    0    0    0 -0.00000000000E+00 -0.00000000000E+00 -0.74505805969E-08  0.93827000000E+00  0.93827000000E+00 0.  1.
     999902    2    1    2    0    0  0.14792043606E-01  0.12810036514E-01 -0.10777306955E-01  0.10215905297E+01  0.10213462480E+01 0.  0.
     999903    2    3    3    0    0 -0.75635423619E-01  0.56448076655E-01 -0.90556515395E-01  0.13229523143E+00  0.19860591968E-01 0.  0.
         14    1    1    2    0    0 -0.14792043606E-01 -0.12810036514E-01  0.10777306955E-01  0.22339470332E-01  0.00000000000E+00 0. -1.
     999901    1    3    3    0    0  0.90427467225E-01 -0.43638040141E-01  0.79779208440E-01  0.88929529824E+00  0.88000000000E+00 0. -1.
        -11    1    4    4    0    0 -0.69891909797E-01  0.44014036907E-01 -0.75073004018E-01  0.11161689636E+00  0.51100000000E-03 0. -1.
         11    1    4    4    0    0 -0.57435138220E-02  0.12434039748E-01 -0.15483511377E-01  0.20678335064E-01  0.51100000000E-03 0.  1.
</event>
<event>
 8    1  0.1233916E+005  0.1043930E+01  0.7957747E-01            NaN
         13   -1    0    0    0    0  0.00000000000E+00  0.00000000000E+00  0.74505805969E-08  0.10566000000E+00  0.10566000000E+00 0. -1.
     999900   -1    0    0    0    0 -0.00000000000E+00 -0.00000000000E+00 -0.74505805969E-08  0.93827000000E+00  0.93827000000E+00 0. -1.
     999902    2    1    2    0    0 -0.16100462168E-02  0.15876372896E-01 -0.17905474589E-01  0.10199454740E+01  0.10196634310E+01 0.  0.
     999903    2    3    3    0    0  0.38844986988E-01  0.91459143856E-01  0.81624818851E-01  0.13019514710E+00  0.20358223582E-01 0.  0.
         14    1    1    2    0    0  0.16100462168E-02 -0.15876372896E-01  0.17905474589E-01  0.23984525958E-01  0.00000000000E+00 0. -1.
     999901    1    3    3    0    0 -0.40455033205E-01 -0.75582770961E-01 -0.99530293441E-01  0.88975032694E+00  0.88000000000E+00 0. -1.
        -11    1    4    4    0    0  0.37216671742E-03  0.12923825959E-01  0.17436727768E-01  0.21713230568E-01  0.51100000000E-03 0.  1.
         11    1    4    4    0    0  0.38472820271E-01  0.78535317898E-01  0.64188091083E-01  0.10848191653E+00  0.51100000000E-03 0. -1.
</event>
<event>
 8    1  0.1233916E+005  0.1043930E+01  0.7957747E-01            NaN
         13   -1    0    0    0    0  0.00000000000E+00  0.00000000000E+00  0.74505805969E-08  0.10566000000E+00  0.10566000000E+00 0. -1.
     999900   -1    0    0    0    0 -0.00000000000E+00 -0.00000000000E+00 -0.74505805969E-08  0.93827000000E+00  0.93827000000E+00 0.  1.
     999902    2    1    2    0    0  0.13355930788E-01 -0.18532103127E-01  0.68908673259E-02  0.10200699123E+01  0.10197908227E+01 0.  0.
     999903    2    3    3    0    0 -0.39751936441E-01 -0.11808737366E+00  0.39120395061E-01  0.13228027509E+00  0.21043326714E-01 0.  0.
         14    1    1    2    0    0 -0.13355930788E-01  0.18532103127E-01 -0.68908673259E-02  0.23860087721E-01  0.00000000000E+00 0.  1.
     999901    1    3    3    0    0  0.53107867229E-01  0.99555270528E-01 -0.32229527735E-01  0.88778963719E+00  0.88000000000E+00 0. -1.
        -11    1    4    4    0    0 -0.38497288137E-01 -0.10575168231E+00  0.40899718835E-01  0.11974350766E+00  0.51100000000E-03 0.  1.
         11    1    4    4    0    0 -0.12546483038E-02 -0.12335691346E-01 -0.17793237738E-02  0.12536767424E-01  0.51100000000E-03 0. -1.
</event>
<event>
 8    1  0.1233916E+005  0.1043930E+01  0.7957747E-01            NaN
         13   -1    0    0    0    0  0.00000000000E+00  0.00000000000E+00  0.74505805969E-08  0.10566000000E+00  0.10566000000E+00 0. -1.
     999900   -1    0    0    0    0 -0.00000000000E+00 -0.00000000000E+00 -0.74505805969E-08  0.93827000000E+00  0.93827000000E+00 0.  1.
     999902    2    1    2    0    0  0.11465324308E-01 -0.18422212257E-01  0.44305410584E-02  0.10217836400E+01  0.10215436093E+01 0.  0.
     999903    2    3    3    0    0  0.10286394390E+00 -0.28786306182E-01  0.78194140738E-01  0.13391980433E+00  0.20261983321E-01 0.  0.
         14    1    1    2    0    0 -0.11465324308E-01  0.18422212257E-01 -0.44305410584E-02  0.22146359972E-01  0.00000000000E+00 0.  1.
     999901    1    3    3    0    0 -0.91398619588E-01  0.10364093925E-01 -0.73763599680E-01  0.88786383570E+00  0.88000000000E+00 0. -1.
        -11    1    4    4    0    0  0.31079365088E-01 -0.17630676578E-01  0.20907965832E-01  0.41402558461E-01  0.51100000000E-03 0.  1.
         11    1    4    4    0    0  0.71784578808E-01 -0.11155629604E-01  0.57286174906E-01  0.92517245867E-01  0.51100000000E-03 0. -1.
</event>
<event>
 8    1  0.1233916E+005  0.1043930E+01  0.7957747E-01            NaN
         13   -1    0    0    0    0  0.00000000000E+00  0.00000000000E+00  0.74505805969E-08  0.10566000000E+00  0.10566000000E+00 0.  1.
     999900   -1    0    0    0    0 -0.00000000000E+00 -0.00000000000E+00 -0.74505805969E-08  0.93827000000E+00  0.93827000000E+00 0.  1.
     999902    2    1    2    0    0 -0.10471983429E-01 -0.21937512061E-01  0.38563565767E-02  0.10193172318E+01  0.10190200345E+01 0.  0.
     999903    2    3    3    0    0 -0.12830552384E+00 -0.88071030424E-02  0.16276223808E-01  0.13127927992E+00  0.20723449561E-01 0.  0.
         14    1    1    2    0    0  0.10471983429E-01  0.21937512061E-01 -0.38563565767E-02  0.24612768199E-01  0.00000000000E+00 0. -1.
     999901    1    3    3    0    0  0.11783354041E+00 -0.13130409018E-01 -0.12419867231E-01  0.88803795189E+00  0.88000000000E+00 0.  1.
        -11    1    4    4    0    0 -0.92787535249E-01 -0.15085249138E-01  0.86032850419E-02  0.94400048059E-01  0.51100000000E-03 0.  1.
         11    1    4    4    0    0 -0.35517988592E-01  0.62781460955E-02  0.76729387656E-02  0.36879231857E-01  0.51100000000E-03 0. -1.
</event>
<event>
 8    1  0.1233916E+005  0.1043930E+01  0.7957747E-01            NaN
         13   -1    0    0    0    0  0.00000000000E+00  0.00000000000E+00  0.74505805969E-08  0.10566000000E+00  0.10566000000E+00 0. -1.
     999900   -1    0    0    0    0 -0.00000000000E+00 -0.00000000000E+00 -0.74505805969E-08  0.93827000000E+00  0.93827000000E+00 0. -1.
     999902    2    1    2    0    0  0.16650310050E-01 -0.14212803907E-01 -0.59507460383E-02  0.10212441454E+01  0.10209921432E+01 0.  0.
     999903    2    3    3    0    0  0.13193965871E-01  0.63896264291E-02  0.12846921506E+00  0.13079193873E+00  0.19679531437E-01 0.  0.
         14    1    1    2    0    0 -0.16650310050E-01  0.14212803907E-01  0.59507460383E-02  0.22685854581E-01  0.00000000000E+00 0. -1.
     999901    1    3    3    0    0  0.34563441786E-02 -0.20602430336E-01 -0.13441996110E+00  0.89045220669E+00  0.88000000000E+00 0. -1.
        -11    1    4    4    0    0  0.11894881323E-01  0.94723444518E-02  0.50325886080E-01  0.52575369156E-01  0.51100000000E-03 0.  1.
         11    1    4    4    0    0  0.12990845477E-02 -0.30827180227E-02  0.78143328981E-01  0.78216569577E-01  0.51100000000E-03 0. -1.
</event>
<event>
 8    1  0.1233916E+005  0.1043930E+01  0.7957747E-01            NaN
         13   -1    0    0    0    0  0.00000000000E+00  0.00000000000E+00  0.74505805969E-08  0.10566000000E+00  0.10566000000E+00 0.  1.
     999900   -1    0    0    0    0 -0.00000000000E+00 -0.00000000000E+00 -0.74505805969E-08  0.93827000000E+00  0.93827000000E+00 0.  1.
     999902    2    1    2    0    0  0.64646736630E-02 -0.22190555670E-01 -0.39085411318E-02  0.10204888085E+01  0.10202195444E+01 0.  0.
     999903    2    3    3    0    0  0.23205328626E-01 -0.99718706508E-01  0.82403959087E-01  0.13271591443E+00  0.18460600354E-01 0.  0.
         14    1    1    2    0    0 -0.64646736630E-02  0.22190555670E-01  0.39085411318E-02  0.23441191529E-01  0.00000000000E+00 0.  1.
     999901    1    3    3    0    0 -0.16740654963E-01  0.77528150837E-01 -0.86312500219E-01  0.88777289404E+00  0.88000000000E+00 0.  1.
        -11    1    4    4    0    0 -0.73702687358E-03 -0.31953240832E-01  0.29185141848E-01  0.43284944658E-01  0.51100000000E-03 0. -1.
         11    1    4    4    0    0  0.23942355500E-01 -0.67765465675E-01  0.53218817238E-01  0.89430969772E-01  0.51100000000E-03 0.  1.
</event>
<event>
 8    1  0.1233916E+005  0.1043930E+01  0.7957747E-01            NaN
         13   -1    0    0    0    0  0.00000000000E+00  0.00000000000E+00  0.74505805969E-08  0.10566000000E+00  0.10566000000E+00 0.  1.
     999900   -1    0    0    0    0 -0.00000000000E+00 -0.00000000000E+00 -0.74505805969E-08  0.93827000000E+00  0.93827000000E+00 0. -1.
     999902    2    1    2    0    0 -0.17643570573E-01  0.14890364738E-01 -0.38288456117E-02  0.10205274659E+01  0.10202590994E+01 0.  0.
     999903    2    3    3    0    0  0.11758914577E-01 -0.63433611808E-01 -0.11121928255E+00  0.13006025291E+00  0.19591972760E-01 0.  0.
         14    1    1    2    0    0  0.17643570573E-01 -0.14890364738E-01  0.38288456117E-02  0.23402534121E-01  0.00000000000E+00 0. -1.
     999901    1    3    3    0    0 -0.29402485150E-01  0.78323976545E-01  0.10739043694E+00  0.89046721297E+00  0.88000000000E+00 0.  1.
        -11    1    4    4    0    0  0.98094705739E-02 -0.13466579410E-01 -0.36810532814E-01  0.40408550098E-01  0.51100000000E-03 0.  1.
         11    1    4    4    0    0  0.19494440034E-02 -0.49967032398E-01 -0.74408749732E-01  0.89651702808E-01  0.51100000000E-03 0. -1.
</event>
<event>
 8    1  0.1233916E+005  0.1043930E+01  0.7957747E-01            NaN
         13   -1    0    0    0    0  0.00000000000E+00  0.00000000000E+00  0.74505805969E-08  0.10566000000E+00  0.10566000000E+00 0.  1.
     999900   -1    0    0    0    0 -0.00000000000E+00 -0.00000000000E+00 -0.74505805969E-08  0.93827000000E+00  0.93827000000E+00 0. -1.
     999902    2    1    2    0    0 -0.44950062453E-02 -0.19499928808E-01  0.12719428114E-01  0.10202184805E+01  0.10199428964E+01 0.  0.
     999903    2    3    3    0    0 -0.67959711381E-01  0.24120767015E-01  0.10836733310E+00  0.13169214122E+00  0.19975169654E-01 0.  0.
         14    1    1    2    0    0  0.44950062453E-02  0.19499928808E-01 -0.12719428114E-01  0.23711519483E-01  0.00000000000E+00 0.  1.
     999901    1    3    3    0    0  0.63464705136E-01 -0.43620695823E-01 -0.95647904985E-01  0.88852633930E+00  0.88000000000E+00 0. -1.
        -11    1    4    4    0    0 -0.36466136538E-01  0.37756425577E-02  0.44814489144E-01  0.57901935624E-01  0.51100000000E-03 0.  1.
         11    1    4    4    0    0 -0.31493574843E-01  0.20345124458E-01  0.63552843955E-01  0.73790205592E-01  0.51100000000E-03 0. -1.
</event>
<event>
 8    1  0.1233916E+005  0.1043930E+01  0.7957747E-01            NaN
         13   -1    0    0    0    0  0.00000000000E+00  0.00000000000E+00  0.74505805969E-08  0.10566000000E+00  0.10566000000E+00 0.  1.
     999900   -1    0    0    0    0 -0.00000000000E+00 -0.00000000000E+00 -0.74505805969E-08  0.93827000000E+00  0.93827000000E+00 0. -1.
     999902    2    1    2    0    0  0.94377233192E-02  0.21887234508E-01 -0.18241854367E-02  0.10200249941E+01  0.10197448403E+01 0.  0.
     999903    2    3    3    0    0 -0.72920149822E-01  0.15097226384E-01  0.10442224863E+00  0.12979062705E+00  0.19907947334E-01 0.  0.
         14    1    1    2    0    0 -0.94377233192E-02 -0.21887234508E-01  0.18241854367E-02  0.23905005927E-01  0.00000000000E+00 0. -1.
     999901    1    3    3    0    0  0.82357873141E-01  0.67900081245E-02 -0.10624643406E+00  0.89023436702E+00  0.88000000000E+00 0. -1.
        -11    1    4    4    0    0 -0.47942796947E-01  0.99080734589E-02  0.51609681699E-01  0.71137205911E-01  0.51100000000E-03 0. -1.
         11    1    4    4    0    0 -0.24977352875E-01  0.51891529249E-02  0.52812566928E-01  0.58653421139E-01  0.51100000000E-03 0.  1.
</event>
<event>
 8    1  0.1233916E+005  0.1043930E+01  0.7957747E-01            NaN
         13   -1    0    0    0    0  0.00000000000E+00  0.00000000000E+00  0.74505805969E-08  0.10566000000E+00  0.10566000000E+00 0. -1.
     999900   -1    0    0    0    0 -0.00000000000E+00 -0.00000000000E+00 -0.74505805969E-08  0.93827000000E+00  0.93827000000E+00 0.  1.
     999902    2    1    2    0    0 -0.27869204679E-02  0.22407577173E-01  0.65189477516E-02  0.10204275933E+01  0.10201569046E+01 0.  0.
     999903    2    3    3    0    0  0.11243518846E+00  0.65463408312E-01  0.77942274992E-02  0.13187170575E+00  0.20056603991E-01 0.  0.
         14    1    1    2    0    0  0.27869204679E-02 -0.22407577173E-01 -0.65189477516E-02  0.23502406690E-01  0.00000000000E+00 0.  1.
     999901    1    3    3    0    0 -0.11522210893E+00 -0.43055831139E-01 -0.12752797476E-02  0.88855588756E+00  0.88000000000E+00 0.  1.
        -11    1    4    4    0    0  0.71914080748E-01  0.48992446065E-01 -0.20157334232E-02  0.87041479097E-01  0.51100000000E-03 0.  1.
         11    1    4    4    0    0  0.40521107709E-01  0.16470962247E-01  0.98099609225E-02  0.44830226652E-01  0.51100000000E-03 0. -1.
</event>
<event>
 8    1  0.1233916E+005  0.1043930E+01  0.7957747E-01            NaN
         13   -1    0    0    0    0  0.00000000000E+00  0.00000000000E+00  0.74505805969E-08  0.10566000000E+00  0.10566000000E+00 0.  1.
     999900   -1    0    0    0    0 -0.00000000000E+00 -0.00000000000E+00 -0.74505805969E-08  0.93827000000E+00  0.93827000000E+00 0. -1.
     999902    2    1    2    0    0 -0.16949460446E-01  0.10518706391E-01  0.12320549821E-01  0.10204838203E+01  0.10202144403E+01 0.  0.
     999903    2    3    3    0    0  0.12130519098E+00  0.39497171173E-01  0.59866698594E-02  0.12919586568E+00  0.19512959827E-01 0.  0.
         14    1    1    2    0    0  0.16949460446E-01 -0.10518706391E-01 -0.12320549821E-01  0.23446179677E-01  0.00000000000E+00 0. -1.
     999901    1    3    3    0    0 -0.13825465143E+00 -0.28978464782E-01  0.63338799618E-02  0.89128795465E+00  0.88000000000E+00 0.  1.
        -11    1    4    4    0    0  0.55318682605E-01  0.27358143398E-01 -0.11077789695E-02  0.61726112389E-01  0.51100000000E-03 0.  1.
         11    1    4    4    0    0  0.65986508379E-01  0.12139027775E-01  0.70944488290E-02  0.67469753287E-01  0.51100000000E-03 0. -1.
</event>
<event>
 8    1  0.1233916E+005  0.1043930E+01  0.7957747E-01            NaN
         13   -1    0    0    0    0  0.00000000000E+00  0.00000000000E+00  0.74505805969E-08  0.10566000000E+00  0.10566000000E+00 0.  1.
     999900   -1    0    0    0    0 -0.00000000000E+00 -0.00000000000E+00 -0.74505805969E-08  0.93827000000E+00  0.93827000000E+00 0.  1.
     999902    2    1    2    0    0  0.10468042606E-01 -0.19001128789E-02  0.21270052461E-01  0.10201475385E+01  0.10198702833E+01 0.  0.
     999903    2    3    3    0    0 -0.23761939195E-01 -0.12676877938E+00  0.43339570748E-02  0.13051238468E+00  0.19487077505E-01 0.  0.
         14    1    1    2    0    0 -0.10468042606E-01  0.19001128789E-02 -0.21270052461E-01  0.23782461535E-01  0.00000000000E+00 0. -1.
     999901    1    3    3    0    0  0.34229981802E-01  0.12486866650E+00  0.16936095386E-01  0.88963515379E+00  0.88000000000E+00 0.  1.
        -11    1    4    4    0    0 -0.79549294930E-02 -0.73252951286E-01 -0.53301803893E-02  0.73877924438E-01  0.51100000000E-03 0. -1.
         11    1    4    4    0    0 -0.15807009702E-01 -0.53515828097E-01  0.96641374642E-02  0.56634460239E-01  0.51100000000E-03 0.  1.
</event>
<event>
 8    1  0.1233916E+005  0.1043930E+01  0.7957747E-01            NaN
         13   -1    0    0    0    0  0.00000000000E+00  0.00000000000E+00  0.74505805969E-08  0.10566000000E+00  0.10566000000E+00 0.  1.
     999900   -1    0    0    0    0 -0.00000000000E+00 -0.00000000000E+00 -0.74505805969E-08  0.93827000000E+00  0.93827000000E+00 0. -1.
     999902    2    1    2    0    0 -0.10936982929E-01  0.15838033250E-01  0.14107545175E-01  0.10200661419E+01  0.10197869631E+01 0.  0.
     999903    2    3    3    0    0 -0.10991438966E+00 -0.17562563124E-01 -0.64898462126E-01  0.13037289359E+00  0.19891312666E-01 0.  0.
         14    1    1    2    0    0  0.10936982929E-01 -0.15838033250E-01 -0.14107545175E-01  0.23863858105E-01  0.00000000000E+00 0. -1.
     999901    1    3    3    0    0  0.98977406733E-01  0.33400596374E-01  0.79006007301E-01  0.88969324830E+00  0.88000000000E+00 0.  1.
        -11    1    4    4    0    0 -0.73770145202E-01 -0.61657648452E-02 -0.51465271525E-01  0.90160891041E-01  0.51100000000E-03 0.  1.
         11    1    4    4    0    0 -0.36144244460E-01 -0.11396798279E-01 -0.13433190601E-01  0.40212002553E-01  0.51100000000E-03 0. -1.
</event>
<event>
 8    1  0.1233916E+005  0.1043930E+01  0.7957747E-01            NaN
         13   -1    0    0    0    0  0.00000000000E+00  0.00000000000E+00  0.74505805969E-08  0.10566000000E+00  0.10566000000E+00 0.  1.
     999900   -1    0    0    0    0 -0.00000000000E+00 -0.00000000000E+00 -0.74505805969E-08  0.93827000000E+00  0.93827000000E+00 0.  1.
     999902    2    1    2    0    0 -0.22949043615E-02  0.15973698760E-01  0.17184142542E-01  0.10203562775E+01  0.10200839243E+01 0.  0.
     999903    2    3    3    0    0  0.91922403381E-01  0.86458506396E-01 -0.30120403369E-01  0.13126532081E+00  0.19963571235E-01 0.  0.
         14    1    1    2    0    0  0.22949043615E-02 -0.15973698760E-01 -0.17184142542E-01  0.23573722511E-01  0.00000000000E+00 0. -1.
     999901    1    3    3    0    0 -0.94217307742E-01 -0.70484807636E-01  0.47304545912E-01  0.88909095668E+00  0.88000000000E+00 0.  1.
        -11    1    4    4    0    0  0.17590161648E-01  0.28429254930E-01 -0.67338411864E-02  0.34106334614E-01  0.51100000000E-03 0.  1.
         11    1    4    4    0    0  0.74332241733E-01  0.58029251467E-01 -0.23386562183E-01  0.97158986196E-01  0.51100000000E-03 0. -1.
</event>
<event>
 8    1  0.1233916E+005  0.1043930E+01  0.7957747E-01            NaN
         13   -1    0    0    0    0  0.00000000000E+00  0.00000000000E+00  0.74505805969E-08  0.10566000000E+00  0.10566000000E+00 0. -1.
     999900   -1    0    0    0    0 -0.00000000000E+00 -0.00000000000E+00 -0.74505805969E-08  0.93827000000E+00  0.93827000000E+00 0.  1.
     999902    2    1    2    0    0  0.80773419977E-02  0.80232211137E-02  0.21009611005E-01  0.10200339902E+01  0.10197540497E+01 0.  0.
     999903    2    3    3    0    0 -0.10882150338E+00  0.35515617563E-01  0.60539545697E-01  0.13099867724E+00  0.19802478549E-01 0.  0.
         14    1    1    2    0    0 -0.80773419977E-02 -0.80232211137E-02 -0.21009611005E-01  0.23896009821E-01  0.00000000000E+00 0.  1.
     999901    1    3    3    0    0  0.11689884538E+00 -0.27492396449E-01 -0.39529934692E-01  0.88903531294E+00  0.88000000000E+00 0.  1.
        -11    1    4    4    0    0 -0.71501574284E-01  0.13603778713E-01  0.40638213808E-01  0.83362242430E-01  0.51100000000E-03 0.  1.
         11    1    4    4    0    0 -0.37319929097E-01  0.21911838849E-01  0.19901331889E-01  0.47636434811E-01  0.51100000000E-03 0. -1.
</event>
<event>
 8    1  0.1233916E+005  0.1043930E+01  0.7957747E-01            NaN
         13   -1    0    0    0    0  0.00000000000E+00  0.00000000000E+00  0.74505805969E-08  0.10566000000E+00  0.10566000000E+00 0. -1.
     999900   -1    0    0    0    0 -0.00000000000E+00 -0.00000000000E+00 -0.74505805969E-08  0.93827000000E+00  0.93827000000E+00 0. -1.
     999902    2    1    2    0    0  0.20512821615E-01 -0.10456395516E-01 -0.51839825306E-02  0.10203294548E+01  0.10200564742E+01 0.  0.
     999903    2    3    3    0    0  0.62604639197E-01  0.10860289698E+00  0.30611042294E-01  0.13059459542E+00  0.20099312428E-01 0.  0.
         14    1    1    2    0    0 -0.20512821615E-01  0.10456395516E-01  0.51839825306E-02  0.23600545177E-01  0.00000000000E+00 0. -1.
     999901    1    3    3    0    0 -0.42091817582E-01 -0.11905929250E+00 -0.35795024825E-01  0.88973485940E+00  0.88000000000E+00 0. -1.
        -11    1    4    4    0    0  0.81769904912E-02  0.29671774738E-01  0.36539385826E-02  0.30998222171E-01  0.51100000000E-03 0.  1.
         11    1    4    4    0    0  0.54427648706E-01  0.78931122244E-01  0.26957103712E-01  0.99596373247E-01  0.51100000000E-03 0. -1.
</event>
<event>
 8    1  0.1233916E+005  0.1043930E+01  0.7957747E-01            NaN
         13   -1    0    0    0    0  0.00000000000E+00  0.00000000000E+00  0.74505805969E-08  0.10566000000E+00  0.10566000000E+00 0. -1.
     999900   -1    0    0    0    0 -0.00000000000E+00 -0.00000000000E+00 -0.74505805969E-08  0.93827000000E+00  0.93827000000E+00 0. -1.
     999902    2    1    2    0    0 -0.28000739715E-02  0.21744477255E-01  0.11834672436E-01  0.10190157034E+01  0.10187110883E+01 0.  0.
     999903    2    3    3    0    0 -0.21268747945E-01 -0.95491130525E-01  0.80496257177E-01  0.12839811266E+00  0.20868930652E-01 0.  0.
         14    1    1    2    0    0  0.28000739715E-02 -0.21744477255E-01 -0.11834672436E-01  0.24914296639E-01  0.00000000000E+00 0.  1.
     999901    1    3    3    0    0  0.18468673974E-01  0.11723560778E+00 -0.68661584740E-01  0.89061759070E+00  0.88000000000E+00 0. -1.
        -11    1    4    4    0    0  0.12018872848E-02 -0.39651017736E-01  0.28390023330E-01  0.48784242192E-01  0.51100000000E-03 0. -1.
         11    1    4    4    0    0 -0.22470635230E-01 -0.55840112789E-01  0.52106233846E-01  0.79613870466E-01  0.51100000000E-03 0.  1.
</event>
<event>
 8    1  0.1233916E+005  0.1043930E+01  0.7957747E-01            NaN
         13   -1    0    0    0    0  0.00000000000E+00  0.00000000000E+00  0.74505805969E-08  0.10566000000E+00  0.10566000000E+00 0.  1.
     999900   -1    0    0    0    0 -0.00000000000E+00 -0.00000000000E+00 -0.74505805969E-08  0.93827000000E+00  0.93827000000E+00 0. -1.
     999902    2    1    2    0    0  0.97303235048E-02  0.13831345087E-02  0.21964970690E-01  0.10198664966E+01  0.10195825708E+01 0.  0.
     999903    2    3    3    0    0 -0.77005874557E-01 -0.82743172531E-01 -0.56461898420E-01  0.12815399959E+00  0.21428119883E-01 0.  0.
         14    1    1    2    0    0 -0.97303235048E-02 -0.13831345087E-02 -0.21964970690E-01  0.24063503360E-01  0.00000000000E+00 0. -1.
     999901    1    3    3    0    0  0.86736198062E-01  0.84126307040E-01  0.78426869109E-01  0.89171249705E+00  0.88000000000E+00 0.  1.
        -11    1    4    4    0    0 -0.73825870094E-01 -0.76234024274E-01 -0.46593307621E-01  0.11590117768E+00  0.51100000000E-03 0.  1.
         11    1    4    4    0    0 -0.31800044632E-02 -0.65091482576E-02 -0.98685907990E-02  0.12252821911E-01  0.51100000000E-03 0. -1.
</event>
<event>
 8    1  0.1233916E+005  0.1043930E+01  0.7957747E-01            NaN
         13   -1    0    0    0    0  0.00000000000E+00  0.00000000000E+00  0.74505805969E-08  0.10566000000E+00  0.10566000000E+00 0. -1.
     999900   -1    0    0    0    0 -0.00000000000E+00 -0.00000000000E+00 -0.74505805969E-08  0.93827000000E+00  0.93827000000E+00 0. -1.
     999902    2    1    2    0    0 -0.10398173292E-01 -0.85157153769E-02  0.17093002120E-01  0.10221858022E+01  0.10219545020E+01 0.  0.
     999903    2    3    3    0    0  0.69340176489E-01  0.85510817419E-01 -0.65697879517E-01  0.12974335399E+00  0.19924019693E-01 0.  0.
         14    1    1    2    0    0  0.10398173292E-01  0.85157153769E-02 -0.17093002120E-01  0.21744197793E-01  0.00000000000E+00 0.  1.
     999901    1    3    3    0    0 -0.79738349781E-01 -0.94026532796E-01  0.82790881636E-01  0.89244244822E+00  0.88000000000E+00 0.  1.
        -11    1    4    4    0    0  0.25420302577E-01  0.47129461683E-01 -0.31439576591E-01  0.62097391562E-01  0.51100000000E-03 0.  1.
         11    1    4    4    0    0  0.43919873912E-01  0.38381355737E-01 -0.34258302926E-01  0.67645962429E-01  0.51100000000E-03 0. -1.
</event>
<event>
 8    1  0.1233916E+005  0.1043930E+01  0.7957747E-01            NaN
         13   -1    0    0    0    0  0.00000000000E+00  0.00000000000E+00  0.74505805969E-08  0.10566000000E+00  0.10566000000E+00 0.  1.
     999900   -1    0    0    0    0 -0.00000000000E+00 -0.00000000000E+00 -0.74505805969E-08  0.93827000000E+00  0.93827000000E+00 0.  1.
     999902    2    1    2    0    0 -0.94220440211E-02 -0.24526364054E-01 -0.28492909906E-02  0.10175020620E+01  0.10171587931E+01 0.  0.
     999903    2    3    3    0    0 -0.54361501047E-01  0.52021847964E-01  0.10060188158E+00  0.12700707120E+00  0.18671156758E-01 0.  0.
         14    1    1    2    0    0  0.94220440211E-02  0.24526364054E-01  0.28492909906E-02  0.26427937990E-01  0.00000000000E+00 0.  1.
     999901    1    3    3    0    0  0.44939457026E-01 -0.76548212018E-01 -0.10345117257E+00  0.89049499082E+00  0.88000000000E+00 0.  1.
        -11    1    4    4    0    0 -0.43266762086E-01  0.49466423056E-01  0.90000902416E-01  0.11144219698E+00  0.51100000000E-03 0.  1.
         11    1    4    4    0    0 -0.11094738961E-01  0.25554249074E-02  0.10600979163E-01  0.15564874213E-01  0.51100000000E-03 0. -1.
</event>
<event>
 8    1  0.1233916E+005  0.1043930E+01  0.7957747E-01            NaN
         13   -1    0    0    0    0  0.00000000000E+00  0.00000000000E+00  0.74505805969E-08  0.10566000000E+00  0.10566000000E+00 0. -1.
     999900   -1    0    0    0    0 -0.00000000000E+00 -0.00000000000E+00 -0.74505805969E-08  0.93827000000E+00  0.93827000000E+00 0. -1.
     999902    2    1    2    0    0 -0.60858554560E-02 -0.13142009083E-01 -0.17121306514E-01  0.10215048093E+01  0.10212586285E+01 0.  0.
     999903    2    3    3    0    0  0.72888814810E-01  0.73684803345E-01  0.74128753667E-01  0.12903494017E+00  0.20315365981E-01 0.  0.
         14    1    1    2    0    0  0.60858554560E-02  0.13142009083E-01  0.17121306514E-01  0.22425190660E-01  0.00000000000E+00 0.  1.
     999901    1    3    3    0    0 -0.78974670266E-01 -0.86826812428E-01 -0.91250060182E-01  0.89246986917E+00  0.88000000000E+00 0.  1.
        -11    1    4    4    0    0  0.13467639137E-01  0.10155035408E-01  0.41138943174E-02  0.17369147807E-01  0.51100000000E-03 0. -1.
         11    1    4    4    0    0  0.59421175673E-01  0.63529767937E-01  0.70014859350E-01  0.11166579236E+00  0.51100000000E-03 0.  1.
</event>
<event>
 8    1  0.1233916E+005  0.1043930E+01  0.7957747E-01            NaN
         13   -1    0    0    0    0  0.00000000000E+00  0.00000000000E+00  0.74505805969E-08  0.10566000000E+00  0.10566000000E+00 0.  1.
     999900   -1    0    0    0    0 -0.00000000000E+00 -0.00000000000E+00 -0.74505805969E-08  0.93827000000E+00  0.93827000000E+00 0. -1.
     999902    2    1    2    0    0 -0.16124072678E-01 -0.95151635610E-02 -0.14143251776E-01  0.10204660782E+01  0.10201962855E+01 0.  0.
     999903    2    3    3    0    0  0.60188568562E-01  0.11186806043E+00 -0.76258531631E-02  0.12883836282E+00  0.20100829992E-01 0.  0.
         14    1    1    2    0    0  0.16124072678E-01  0.95151635610E-02  0.14143251776E-01  0.23463921840E-01  0.00000000000E+00 0.  1.
     999901    1    3    3    0    0 -0.76312641240E-01 -0.12138322400E+00 -0.65173986126E-02  0.89162771534E+00  0.88000000000E+00 0.  1.
        -11    1    4    4    0    0  0.18589904959E-01  0.25555258127E-01  0.56526215948E-02  0.32107149301E-01  0.51100000000E-03 0. -1.
         11    1    4    4    0    0  0.41598663603E-01  0.86312802307E-01 -0.13278474758E-01  0.96731213518E-01  0.51100000000E-03 0.  1.
</event>
<event>
 8    1  0.1233916E+005  0.1043930E+01  0.7957747E-01            NaN
         13   -1    0    0    0    0  0.00000000000E+00  0.00000000000E+00  0.74505805969E-08  0.10566000000E+00  0.10566000000E+00 0. -1.
     999900   -1    0    0    0    0 -0.00000000000E+00 -0.00000000000E+00 -0.74505805969E-08  0.93827000000E+00  0.93827000000E+00 0.  1.
     999902    2    1    2    0    0  0.22635046112E-01  0.42944422648E-03 -0.35955467796E-02  0.10210071361E+01  0.10207497804E+01 0.  0.
     999903    2    3    3    0    0 -0.53316365176E-01 -0.10746633072E+00 -0.46294196566E-01  0.13014615373E+00  0.20080380008E-01 0.  0.
         14    1    1    2    0    0 -0.22635046112E-01 -0.42944422648E-03  0.35955467796E-02  0.22922863946E-01  0.00000000000E+00 0.  1.
     999901    1    3    3    0    0  0.75951411289E-01  0.10789577495E+00  0.42698649786E-01  0.89086098232E+00  0.88000000000E+00 0.  1.
        -11    1    4    4    0    0 -0.51509530586E-01 -0.87531980387E-01 -0.37314919891E-01  0.10820232761E+00  0.51100000000E-03 0.  1.
         11    1    4    4    0    0 -0.18068345902E-02 -0.19934350335E-01 -0.89792766752E-02  0.21943826128E-01  0.51100000000E-03 0. -1.
</event>
<event>
 8    1  0.1233916E+005  0.1043930E+01  0.7957747E-01            NaN
         13   -1    0    0    0    0  0.00000000000E+00  0.00000000000E+00  0.74505805969E-08  0.10566000000E+00  0.10566000000E+00 0.  1.
     999900   -1    0    0    0    0 -0.00000000000E+00 -0.00000000000E+00 -0.74505805969E-08  0.93827000000E+00  0.93827000000E+00 0. -1.
     999902    2    1    2    0    0  0.51919473634E-03 -0.24696383505E-01 -0.98014685490E-02  0.10173546410E+01  0.10170074807E+01 0.  0.
     999903    2    3    3    0    0 -0.99174782128E-01  0.44734590444E-01 -0.63086757926E-01  0.12741145671E+00  0.20418601381E-01 0.  0.
         14    1    1    2    0    0 -0.51919473634E-03  0.24696383505E-01  0.98014685490E-02  0.26575359022E-01  0.00000000000E+00 0.  1.
     999901    1    3    3    0    0  0.99693976864E-01 -0.69430973949E-01  0.53285289377E-01  0.88994318427E+00  0.88000000000E+00 0. -1.
        -11    1    4    4    0    0 -0.44652693749E-01  0.10509866969E-01 -0.31919378570E-01  0.55887639170E-01  0.51100000000E-03 0.  1.
         11    1    4    4    0    0 -0.54522088379E-01  0.34224723475E-01 -0.31167379356E-01  0.71523817537E-01  0.51100000000E-03 0. -1.
</event>
<event>
 8    1  0.1233916E+005  0.1043930E+01  0.7957747E-01            NaN
         13   -1    0    0    0    0  0.00000000000E+00  0.00000000000E+00  0.74505805969E-08  0.10566000000E+00  0.10566000000E+00 0. -1.
     999900   -1    0    0    0    0 -0.00000000000E+00 -0.00000000000E+00 -0.74505805969E-08  0.93827000000E+00  0.93827000000E+00 0. -1.
     999902    2    1    2    0    0  0.16063253340E-01 -0.18728263429E-01  0.18769601853E-02  0.10191853250E+01  0.10188848943E+01 0.  0.
     999903    2    3    3    0    0  0.74805469661E-02  0.12198170802E+00 -0.29802622147E-01  0.12740252927E+00  0.20191892028E-01 0.  0.
         14    1    1    2    0    0 -0.16063253340E-01  0.18728263429E-01 -0.18769601853E-02  0.24744674952E-01  0.00000000000E+00 0. -1.
     999901    1    3    3    0    0  0.85827063741E-02 -0.14070997144E+00  0.31679582333E-01  0.89178279578E+00  0.88000000000E+00 0. -1.
        -11    1    4    4    0    0 -0.19681353980E-02  0.70685789851E-01 -0.25067639609E-01  0.75026676059E-01  0.51100000000E-03 0.  1.
         11    1    4    4    0    0  0.94486823641E-02  0.51295918165E-01 -0.47349825379E-02  0.52375853210E-01  0.51100000000E-03 0. -1.
</event>
<event>
 8    1  0.1233916E+005  0.1043930E+01  0.7957747E-01            NaN
         13   -1    0    0    0    0  0.00000000000E+00  0.00000000000E+00  0.74505805969E-08  0.10566000000E+00  0.10566000000E+00 0.  1.
     999900   -1    0    0    0    0 -0.00000000000E+00 -0.00000000000E+00 -0.74505805969E-08  0.93827000000E+00  0.93827000000E+00 0. -1.
     999902    2    1    2    0    0 -0.12129336519E-01 -0.38882787421E-02 -0.17444601691E-01  0.10223301471E+01  0.10221019402E+01 0.  0.
     999903    2    3    3    0    0 -0.68385858306E-01 -0.82163271735E-01  0.75229851258E-01  0.13222884671E+00  0.19937616301E-01 0.  0.
         14    1    1    2    0    0  0.12129336519E-01  0.38882787421E-02  0.17444601691E-01  0.21599852873E-01  0.00000000000E+00 0.  1.
     999901    1    3    3    0    0  0.56256521787E-01  0.78274992993E-01 -0.92674452950E-01  0.89010130042E+00  0.88000000000E+00 0. -1.
        -11    1    4    4    0    0 -0.27499472877E-01 -0.18817153747E-01  0.24247869083E-01  0.41213184294E-01  0.51100000000E-03 0. -1.
         11    1    4    4    0    0 -0.40886385430E-01 -0.63346117988E-01  0.50981982175E-01  0.91015662417E-01  0.51100000000E-03 0.  1.
</event>
<event>
 8    1  0.1233916E+005  0.1043930E+01  0.7957747E-01            NaN
         13   -1    0    0    0    0  0.00000000000E+00  0.00000000000E+00  0.74505805969E-08  0.10566000000E+00  0.10566000000E+00 0. -1.
     999900   -1    0    0    0    0 -0.00000000000E+00 -0.00000000000E+00 -0.74505805969E-08  0.93827000000E+00  0.93827000000E+00 0.  1.
     999902    2    1    2    0    0 -0.16543083149E-01  0.13092417542E-01 -0.10433249614E-01  0.10203941190E+01  0.10201226497E+01 0.  0.
     999903    2    3    3    0    0  0.10376558741E+00  0.60908691302E-01  0.42915546045E-01  0.12932360201E+00  0.20141602127E-01 0.  0.
         14    1    1    2    0    0  0.16543083149E-01 -0.13092417542E-01  0.10433249614E-01  0.23535881005E-01  0.00000000000E+00 0. -1.
     999901    1    3    3    0    0 -0.12030867056E+00 -0.47816273759E-01 -0.53348795659E-01  0.89107051699E+00  0.88000000000E+00 0. -1.
        -11    1    4    4    0    0  0.87065790100E-01  0.43383884232E-01  0.38963107899E-01  0.10479025773E+00  0.51100000000E-03 0.  1.
         11    1    4    4    0    0  0.16699797313E-01  0.17524807069E-01  0.39524381461E-02  0.24533344277E-01  0.51100000000E-03 0. -1.
</event>
<event>
 8    1  0.1233916E+005  0.1043930E+01  0.7957747E-01            NaN
         13   -1    0    0    0    0  0.00000000000E+00  0.00000000000E+00  0.74505805969E-08  0.10566000000E+00  0.10566000000E+00 0.  1.
     999900   -1    0    0    0    0 -0.00000000000E+00 -0.00000000000E+00 -0.74505805969E-08  0.93827000000E+00  0.93827000000E+00 0. -1.
     999902    2    1    2    0    0  0.20775548926E-01 -0.28867353342E-02 -0.16151304535E-01  0.10174569701E+01  0.10171125133E+01 0.  0.
     999903    2    3    3    0    0  0.22989675688E-01 -0.79348317439E-01  0.94593891460E-01  0.12722341966E+00  0.20325194679E-01 0.  0.
         14    1    1    2    0    0 -0.20775548926E-01  0.28867353342E-02  0.16151304535E-01  0.26473029903E-01  0.00000000000E+00 0. -1.
     999901    1    3    3    0    0 -0.22141267622E-02  0.76461582105E-01 -0.11074519599E+00  0.89023355044E+00  0.88000000000E+00 0. -1.
        -11    1    4    4    0    0  0.21678199073E-01 -0.39354453734E-01  0.46603710991E-01  0.64737039961E-01  0.51100000000E-03 0.  1.
         11    1    4    4    0    0  0.13114766154E-02 -0.39993863705E-01  0.47990180469E-01  0.62486379695E-01  0.51100000000E-03 0. -1.
</event>
<event>
 8    1  0.1233916E+005  0.1043930E+01  0.7957747E-01            NaN
         13   -1    0    0    0    0  0.00000000000E+00  0.00000000000E+00  0.74505805969E-08  0.10566000000E+00  0.10566000000E+00 0. -1.
     999900   -1    0    0    0    0 -0.00000000000E+00 -0.00000000000E+00 -0.74505805969E-08  0.93827000000E+00  0.93827000000E+00 0. -1.
     999902    2    1    2    0    0  0.12875989157E-01  0.12641188692E-01  0.37230195618E-02  0.10255057870E+01  0.10253402692E+01 0.  0.
     999903    2    3    3    0    0 -0.48685741684E-01  0.20505793957E-01  0.12300356323E+00  0.13529258403E+00  0.19581054542E-01 0.  0.
         14    1    1    2    0    0 -0.12875989157E-01 -0.12641188692E-01 -0.37230195618E-02  0.18424212954E-01  0.00000000000E+00 0. -1.
     999901    1    3    3    0    0  0.61561730841E-01 -0.78646052655E-02 -0.11928054367E+00  0.89021320301E+00  0.88000000000E+00 0.  1.
        -11    1    4    4    0    0 -0.44365272590E-01  0.22068526194E-01  0.11986743703E+00  0.12970644101E+00  0.51100000000E-03 0. -1.
         11    1    4    4    0    0 -0.43204690937E-02 -0.15627322370E-02  0.31361262078E-02  0.55861430186E-02  0.51100000000E-03 0.  1.
</event>
<event>
 8    1  0.1233916E+005  0.1043930E+01  0.7957747E-01            NaN
         13   -1    0    0    0    0  0.00000000000E+00  0.00000000000E+00  0.74505805969E-08  0.10566000000E+00  0.10566000000E+00 0. -1.
     999900   -1    0    0    0    0 -0.00000000000E+00 -0.00000000000E+00 -0.74505805969E-08  0.93827000000E+00  0.93827000000E+00 0.  1.
     999902    2    1    2    0    0 -0.20274775826E-01 -0.83069285711E-02  0.89222839666E-02  0.10202724695E+01  0.10199981536E+01 0.  0.
     999903    2    3    3    0    0 -0.92283743545E-01 -0.48292137012E-01 -0.78997152534E-01  0.13206419685E+00  0.18761187648E-01 0.  0.
         14    1    1    2    0    0  0.20274775826E-01  0.83069285711E-02 -0.89222839666E-02  0.23657530476E-01  0.00000000000E+00 0.  1.
     999901    1    3    3    0    0  0.72008967720E-01  0.39985208441E-01  0.87919436501E-01  0.88820827267E+00  0.88000000000E+00 0. -1.
        -11    1    4    4    0    0 -0.84896409981E-01 -0.48880776997E-01 -0.70035410983E-01  0.12042404536E+00  0.51100000000E-03 0. -1.
         11    1    4    4    0    0 -0.73873335642E-02  0.58863998527E-03 -0.89617415513E-02  0.11640151496E-01  0.51100000000E-03 0.  1.
</event>
<event>
 8    1  0.1233916E+005  0.1043930E+01  0.7957747E-01            NaN
         13   -1    0    0    0    0  0.00000000000E+00  0.00000000000E+00  0.74505805969E-08  0.10566000000E+00  0.10566000000E+00 0. -1.
     999900   -1    0    0    0    0 -0.00000000000E+00 -0.00000000000E+00 -0.74505805969E-08  0.93827000000E+00  0.93827000000E+00 0.  1.
     999902    2    1    2    0    0  0.16662561352E-01 -0.93855088408E-02 -0.13855060902E-01  0.10203145085E+01  0.10200411780E+01 0.  0.
     999903    2    3    3    0    0 -0.68742445297E-01  0.87280200181E-01  0.60068202101E-01  0.12784438390E+00  0.19815157373E-01 0.  0.
         14    1    1    2    0    0 -0.16662561352E-01  0.93855088408E-02  0.13855060902E-01  0.23615491518E-01  0.00000000000E+00 0. -1.
     999901    1    3    3    0    0  0.85405006650E-01 -0.96665709022E-01 -0.73923263003E-01  0.89247012458E+00  0.88000000000E+00 0.  1.
        -11    1    4    4    0    0 -0.66734546971E-01  0.75071061604E-01  0.52640079867E-01  0.11340371766E+00  0.51100000000E-03 0. -1.
         11    1    4    4    0    0 -0.20078983260E-02  0.12209138577E-01  0.74281222337E-02  0.14440666238E-01  0.51100000000E-03 0.  1.
</event>
<event>
 8    1  0.1233916E+005  0.1043930E+01  0.7957747E-01            NaN
         13   -1    0    0    0    0  0.00000000000E+00  0.00000000000E+00  0.74505805969E-08  0.10566000000E+00  0.10566000000E+00 0.  1.
     999900   -1    0    0    0    0 -0.00000000000E+00 -0.00000000000E+00 -0.74505805969E-08  0.93827000000E+00  0.93827000000E+00 0. -1.
     999902    2    1    2    0    0 -0.17238463114E-01 -0.14474589061E-01  0.80512631116E-02  0.10200239092E+01  0.10197437297E+01 0.  0.
     999903    2    3    3    0    0 -0.13800422233E-01 -0.11625824913E+00  0.58780102411E-01  0.13269919485E+00  0.21155229391E-01 0.  0.
         14    1    1    2    0    0  0.17238463114E-01  0.14474589061E-01 -0.80512631116E-02  0.23906090787E-01  0.00000000000E+00 0.  1.
     999901    1    3    3    0    0 -0.34380408801E-02  0.10178366007E+00 -0.50728839299E-01  0.88732471436E+00  0.88000000000E+00 0.  1.
        -11    1    4    4    0    0 -0.16539354169E-01 -0.56640581859E-01  0.33769532411E-01  0.67987853253E-01  0.51100000000E-03 0. -1.
         11    1    4    4    0    0  0.27389319358E-02 -0.59617667269E-01  0.25010569999E-01  0.64711341598E-01  0.51100000000E-03 0.  1.
</event>
<event>
 8    1  0.1233916E+005  0.1043930E+01  0.7957747E-01            NaN
         13   -1    0    0    0    0  0.00000000000E+00  0.00000000000E+00  0.74505805969E-08  0.10566000000E+00  0.10566000000E+00 0.  1.
     999900   -1    0    0    0    0 -0.00000000000E+00 -0.00000000000E+00 -0.74505805969E-08  0.93827000000E+00  0.93827000000E+00 0. -1.
     999902    2    1    2    0    0 -0.20834359369E-01 -0.59595503474E-02  0.93163240551E-02  0.10203422772E+01  0.10200695967E+01 0.  0.
     999903    2    3    3    0    0  0.12496153286E-01 -0.75794837111E-01  0.10529112940E+00  0.13174841411E+00  0.19246077788E-01 0.  0.
         14    1    1    2    0    0  0.20834359369E-01  0.59595503474E-02 -0.93163240551E-02  0.23587722751E-01  0.00000000000E+00 0. -1.
     999901    1    3    3    0    0 -0.33330512655E-01  0.69835286763E-01 -0.95974805344E-01  0.88859386314E+00  0.88000000000E+00 0. -1.
        -11    1    4    4    0    0  0.24029079706E-02 -0.52578781180E-01  0.59640423479E-01  0.79545857408E-01  0.51100000000E-03 0. -1.
         11    1    4    4    0    0  0.10093245316E-01 -0.23216055931E-01  0.45650705920E-01  0.52202556699E-01  0.51100000000E-03 0.  1.
</event>
<event>
 8    1  0.1233916E+005  0.1043930E+01  0.7957747E-01            NaN
         13   -1    0    0    0    0  0.00000000000E+00  0.00000000000E+00  0.74505805969E-08  0.10566000000E+00  0.10566000000E+00 0.  1.
     999900   -1    0    0    0    0 -0.00000000000E+00 -0.00000000000E+00 -0.74505805969E-08  0.93827000000E+00  0.93827000000E+00 0. -1.
     999902    2    1    2    0    0 -0.23714275957E-01 -0.10066592185E-01 -0.89187935545E-05  0.10181675614E+01  0.10178415790E+01 0.  0.
     999903    2    3    3    0    0 -0.39387199028E-01  0.80698451022E-01  0.90073855074E-01  0.12878640593E+00  0.20224923711E-01 0.  0.
         14    1    1    2    0    0  0.23714275957E-01  0.10066592185E-01  0.89187935545E-05  0.25762438587E-01  0.00000000000E+00 0. -1.
     999901    1    3    3    0    0  0.15672923071E-01 -0.90765043207E-01 -0.90082773867E-01  0.88938115549E+00  0.88000000000E+00 0. -1.
        -11    1    4    4    0    0 -0.10281352029E-01  0.39823973396E-01  0.32574022099E-01  0.52468877378E-01  0.51100000000E-03 0.  1.
         11    1    4    4    0    0 -0.29105846999E-01  0.40874477626E-01  0.57499832975E-01  0.76317528549E-01  0.51100000000E-03 0. -1.
</event>
<event>
 8    1  0.1233916E+005  0.1043930E+01  0.7957747E-01            NaN
         13   -1    0    0    0    0  0.00000000000E+00  0.00000000000E+00  0.74505805969E-08  0.10566000000E+00  0.10566000000E+00 0.  1.
     999900   -1    0    0    0    0 -0.00000000000E+00 -0.00000000000E+00 -0.74505805969E-08  0.93827000000E+00  0.93827000000E+00 0.  1.
     999902    2    1    2    0    0 -0.36624309362E-02 -0.17765804868E-01  0.17615383952E-01  0.10186448468E+01  0.10183309800E+01 0.  0.
     999903    2    3    3    0    0  0.76497856283E-01  0.94621002626E-01  0.33478505374E-01  0.12774187517E+00  0.19802025078E-01 0.  0.
         14    1    1    2    0    0  0.36624309362E-02  0.17765804868E-01 -0.17615383952E-01  0.25285153248E-01  0.00000000000E+00 0. -1.
     999901    1    3    3    0    0 -0.80160287219E-01 -0.11238680749E+00 -0.15863121422E-01  0.89090297158E+00  0.88000000000E+00 0.  1.
        -11    1    4    4    0    0  0.45021666012E-01  0.50897705467E-01  0.89399195955E-02  0.68539843272E-01  0.51100000000E-03 0. -1.
         11    1    4    4    0    0  0.31476190270E-01  0.43723297158E-01  0.24538585779E-01  0.59202031902E-01  0.51100000000E-03 0.  1.
</event>
<event>
 8    1  0.1233916E+005  0.1043930E+01  0.7957747E-01            NaN
         13   -1    0    0    0    0  0.00000000000E+00  0.00000000000E+00  0.74505805969E-08  0.10566000000E+00  0.10566000000E+00 0. -1.
     999900   -1    0    0    0    0 -0.00000000000E+00 -0.00000000000E+00 -0.74505805969E-08  0.93827000000E+00  0.93827000000E+00 0. -1.
     999902    2    1    2    0    0 -0.21333722026E-01 -0.74187672841E-02  0.71575590130E-02  0.10202361938E+01  0.10199610260E+01 0.  0.
     999903    2    3    3    0    0  0.84423966942E-02 -0.54908734819E-01  0.11756653839E+00  0.13156749452E+00  0.20046731523E-01 0.  0.
         14    1    1    2    0    0  0.21333722026E-01  0.74187672841E-02 -0.71575590130E-02  0.23693806248E-01  0.00000000000E+00 0.  1.
     999901    1    3    3    0    0 -0.29776118720E-01  0.47489967535E-01 -0.11040897938E+00  0.88866869923E+00  0.88000000000E+00 0. -1.
        -11    1    4    4    0    0  0.13040477501E-01 -0.20711017856E-01  0.51995467343E-01  0.57469905684E-01  0.51100000000E-03 0. -1.
         11    1    4    4    0    0 -0.45980808064E-02 -0.34197716963E-01  0.65571071047E-01  0.74097588839E-01  0.51100000000E-03 0.  1.
</event>
<event>
 8    1  0.1233916E+005  0.1043930E+01  0.7957747E-01            NaN
         13   -1    0    0    0    0  0.00000000000E+00  0.00000000000E+00  0.74505805969E-08  0.10566000000E+00  0.10566000000E+00 0. -1.
     999900   -1    0    0    0    0 -0.00000000000E+00 -0.00000000000E+00 -0.74505805969E-08  0.93827000000E+00  0.93827000000E+00 0.  1.
     999902    2    1    2    0    0 -0.10354932477E-01 -0.11222389215E-01 -0.19493679565E-01  0.10191677265E+01  0.10188668630E+01 0.  0.
     999903    2    3    3    0    0 -0.53829751403E-01  0.17513613326E-01 -0.11772453979E+00  0.13216991385E+00  0.20135790787E-01 0.  0.
         14    1    1    2    0    0  0.10354932477E-01  0.11222389215E-01  0.19493679565E-01  0.24762273508E-01  0.00000000000E+00 0. -1.
     999901    1    3    3    0    0  0.43474818925E-01 -0.28736002541E-01  0.98230860230E-01  0.88699781264E+00  0.88000000000E+00 0. -1.
        -11    1    4    4    0    0 -0.23899441543E-01  0.16719131185E-01 -0.69912683583E-01  0.75754584682E-01  0.51100000000E-03 0. -1.
         11    1    4    4    0    0 -0.29930309860E-01  0.79448214101E-03 -0.47811856212E-01  0.56415329172E-01  0.51100000000E-03 0.  1.
</event>
<event>
 8    1  0.1233916E+005  0.1043930E+01  0.7957747E-01            NaN
         13   -1    0    0    0    0  0.00000000000E+00  0.00000000000E+00  0.74505805969E-08  0.10566000000E+00  0.10566000000E+00 0.  1.
     999900   -1    0    0    0    0 -0.00000000000E+00 -0.00000000000E+00 -0.74505805969E-08  0.93827000000E+00  0.93827000000E+00 0.  1.
     999902    2    1    2    0    0  0.10253069224E-01 -0.12517977632E-02  0.21493349413E-01  0.10200834804E+01  0.10198047120E+01 0.  0.
     999903    2    3    3    0    0 -0.37982445222E-01 -0.71290355685E-01  0.10279570335E+00  0.13225346450E+00  0.19976017795E-01 0.  0.
         14    1    1    2    0    0 -0.10253069224E-01  0.12517977632E-02 -0.21493349413E-01  0.23846519560E-01  0.00000000000E+00 0. -1.
     999901    1    3    3    0    0  0.48235514447E-01  0.70038557921E-01 -0.81302353933E-01  0.88783001594E+00  0.88000000000E+00 0.  1.
        -11    1    4    4    0    0 -0.36241233158E-01 -0.50422687692E-01  0.80399523910E-01  0.10158847858E+00  0.51100000000E-03 0.  1.
         11    1    4    4    0    0 -0.17412120645E-02 -0.20867667992E-01  0.22396179435E-01  0.30664985916E-01  0.51100000000E-03 0. -1.
</event>
<event>
 8    1  0.1233916E+005  0.1043930E+01  0.7957747E-01            NaN
         13   -1    0    0    0    0  0.00000000000E+00  0.00000000000E+00  0.74505805969E-08  0.10566000000E+00  0.10566000000E+00 0. -1.
     999900   -1    0    0    0    0 -0.00000000000E+00 -0.00000000000E+00 -0.74505805969E-08  0.93827000000E+00  0.93827000000E+00 0.  1.
     999902    2    1    2    0    0  0.10782901545E-01 -0.20734619111E-01  0.16863270505E-03  0.10205585680E+01  0.10202909227E+01 0.  0.
     999903    2    3    3    0    0  0.45227076532E-01 -0.67743212013E-02  0.12168236206E+00  0.13143153687E+00  0.19397725884E-01 0.  0.
         14    1    1    2    0    0 -0.10782901545E-01  0.20734619111E-01 -0.16863270505E-03  0.23371431971E-01  0.00000000000E+00 0.  1.
     999901    1    3    3    0    0 -0.34444174987E-01 -0.13960297910E-01 -0.12151372935E+00  0.88912703115E+00  0.88000000000E+00 0.  1.
        -11    1    4    4    0    0  0.27402076537E-01 -0.11538076212E-01  0.58731115640E-01  0.65830130385E-01  0.51100000000E-03 0.  1.
         11    1    4    4    0    0  0.17824999995E-01  0.47637550109E-02  0.62951246419E-01  0.65601406489E-01  0.51100000000E-03 0. -1.
</event>
<event>
 8    1  0.1233916E+005  0.1043930E+01  0.7957747E-01            NaN
         13   -1    0    0    0    0  0.00000000000E+00  0.00000000000E+00  0.74505805969E-08  0.10566000000E+00  0.10566000000E+00 0. -1.
     999900   -1    0    0    0    0 -0.00000000000E+00 -0.00000000000E+00 -0.74505805969E-08  0.93827000000E+00  0.93827000000E+00 0. -1.
     999902    2    1    2    0    0 -0.13395330665E-01 -0.83089471968E-02 -0.18158593619E-01  0.10198840438E+01  0.10196005369E+01 0.  0.
     999903    2    3    3    0    0  0.34750069140E-01  0.57491565621E-01 -0.11087902536E+00  0.13126445958E+00  0.20575535491E-01 0.  0.
         14    1    1    2    0    0  0.13395330665E-01  0.83089471968E-02  0.18158593619E-01  0.24045956196E-01  0.00000000000E+00 0. -1.
     999901    1    3    3    0    0 -0.48145399805E-01 -0.65800512818E-01  0.92720431740E-01  0.88861958423E+00  0.88000000000E+00 0.  1.
        -11    1    4    4    0    0  0.34232881640E-01  0.39643971740E-01 -0.83831314492E-01  0.98850822410E-01  0.51100000000E-03 0.  1.
         11    1    4    4    0    0  0.51718750006E-03  0.17847593881E-01 -0.27047710867E-01  0.32413637168E-01  0.51100000000E-03 0. -1.
</event>
<event>
 8    1  0.1233916E+005  0.1043930E+01  0.7957747E-01            NaN
         13   -1    0    0    0    0  0.00000000000E+00  0.00000000000E+00  0.74505805969E-08  0.10566000000E+00  0.10566000000E+00 0.  1.
     999900   -1    0    0    0    0 -0.00000000000E+00 -0.00000000000E+00 -0.74505805969E-08  0.93827000000E+00  0.93827000000E+00 0. -1.
     999902    2    1    2    0    0  0.28115989660E-02  0.13613248687E-01 -0.20350024956E-01  0.10192855454E+01  0.10189875730E+01 0.  0.
     999903    2    3    3    0    0 -0.66086700978E-01 -0.83654497501E-01 -0.71382327560E-01  0.12978440085E+00  0.19571076055E-01 0.  0.
         14    1    1    2    0    0 -0.28115989660E-02 -0.13613248687E-01  0.20350024956E-01  0.24644454635E-01  0.00000000000E+00 0.  1.
     999901    1    3    3    0    0  0.68898299944E-01  0.97267746188E-01  0.51032302605E-01  0.88950114451E+00  0.88000000000E+00 0.  1.
        -11    1    4    4    0    0 -0.19732236586E-01 -0.15461948728E-01 -0.10026102694E-01  0.27004015913E-01  0.51100000000E-03 0.  1.
         11    1    4    4    0    0 -0.46354464391E-01 -0.68192548773E-01 -0.61356224867E-01  0.10278038494E+00  0.51100000000E-03 0. -1.
</event>
<event>
 8    1  0.1233916E+005  0.1043930E+01  0.7957747E-01            NaN
         13   -1    0    0    0    0  0.00000000000E+00  0.00000000000E+00  0.74505805969E-08  0.10566000000E+00  0.10566000000E+00 0. -1.
     999900   -1    0    0    0    0 -0.00000000000E+00 -0.00000000000E+00 -0.74505805969E-08  0.93827000000E+00  0.93827000000E+00 0. -1.
     999902    2    1    2    0    0  0.18319518495E-01 -0.15407458076E-01 -0.99785370280E-03  0.10199719067E+01  0.10196904924E+01 0.  0.
     999903    2    3    3    0    0  0.71724010269E-01  0.49320851053E-01 -0.95902497336E-01  0.13090009570E+00  0.18991210103E-01 0.  0.
         14    1    1    2    0    0 -0.18319518495E-01  0.15407458076E-01  0.99785370280E-03  0.23958093294E-01  0.00000000000E+00 0.  1.
     999901    1    3    3    0    0 -0.53404491774E-01 -0.64728309129E-01  0.94904643633E-01  0.88907181101E+00  0.88000000000E+00 0.  1.
        -11    1    4    4    0    0  0.42370626119E-01  0.17783306919E-01 -0.47264694307E-01  0.65922139010E-01  0.51100000000E-03 0. -1.
         11    1    4    4    0    0  0.29353384150E-01  0.31537544134E-01 -0.48637803028E-01  0.64977956689E-01  0.51100000000E-03 0.  1.
</event>
<event>
 8    1  0.1233916E+005  0.1043930E+01  0.7957747E-01            NaN
         13   -1    0    0    0    0  0.00000000000E+00  0.00000000000E+00  0.74505805969E-08  0.10566000000E+00  0.10566000000E+00 0. -1.
     999900   -1    0    0    0    0 -0.00000000000E+00 -0.00000000000E+00 -0.74505805969E-08  0.93827000000E+00  0.93827000000E+00 0. -1.
     999902    2    1    2    0    0  0.22876054052E-01  0.68268848942E-02 -0.57846949695E-02  0.10193661464E+01  0.10190701436E+01 0.  0.
     999903    2    3    3    0    0  0.26669359303E-01 -0.70887885726E-01  0.10437019681E+00  0.12909198926E+00  0.59377303368E-02 0.  0.
         14    1    1    2    0    0 -0.22876054052E-01 -0.68268848942E-02  0.57846949695E-02  0.24563853571E-01  0.00000000000E+00 0.  1.
     999901    1    3    3    0    0 -0.37933052505E-02  0.77714770620E-01 -0.11015489178E+00  0.89027415717E+00  0.88000000000E+00 0.  1.
        -11    1    4    4    0    0  0.11533466458E-01 -0.30093684540E-01  0.39556833824E-01  0.51026021998E-01  0.51100000000E-03 0. -1.
         11    1    4    4    0    0  0.15135892845E-01 -0.40794201186E-01  0.64813362984E-01  0.78065967264E-01  0.51100000000E-03 0.  1.
</event>
<event>
 8    1  0.1233916E+005  0.1043930E+01  0.7957747E-01            NaN
         13   -1    0    0    0    0  0.00000000000E+00  0.00000000000E+00  0.74505805969E-08  0.10566000000E+00  0.10566000000E+00 0.  1.
     999900   -1    0    0    0    0 -0.00000000000E+00 -0.00000000000E+00 -0.74505805969E-08  0.93827000000E+00  0.93827000000E+00 0. -1.
     999902    2    1    2    0    0 -0.24400050013E-02  0.23238837688E-01 -0.30469093571E-02  0.10203656019E+01  0.10200934666E+01 0.  0.
     999903    2    3    3    0    0 -0.26825455519E-01 -0.79978680813E-01  0.95247124208E-01  0.12856392923E+00  0.18451958757E-01 0.  0.
         14    1    1    2    0    0  0.24400050013E-02 -0.23238837688E-01  0.30469093571E-02  0.23564398107E-01  0.00000000000E+00 0.  1.
     999901    1    3    3    0    0  0.24385450518E-01  0.10321751850E+00 -0.98294033565E-01  0.89180167266E+00  0.88000000000E+00 0. -1.
        -11    1    4    4    0    0 -0.14105951054E-01 -0.25912872435E-01  0.44075223913E-01  0.53040939820E-01  0.51100000000E-03 0. -1.
         11    1    4    4    0    0 -0.12719504465E-01 -0.54065808377E-01  0.51171900295E-01  0.75522989414E-01  0.51100000000E-03 0.  1.
</event>
<event>
 8    1  0.1233916E+005  0.1043930E+01  0.7957747E-01            NaN
         13   -1    0    0    0    0  0.00000000000E+00  0.00000000000E+00  0.74505805969E-08  0.10566000000E+00  0.10566000000E+00 0.  1.
     999900   -1    0    0    0    0 -0.00000000000E+00 -0.00000000000E+00 -0.74505805969E-08  0.93827000000E+00  0.93827000000E+00 0. -1.
     999902    2    1    2    0    0  0.15207248314E-02 -0.18232620647E-01 -0.15593865648E-01  0.10198902474E+01  0.10196068885E+01 0.  0.
     999903    2    3    3    0    0 -0.58450221549E-01  0.85667792766E-01 -0.75277973502E-01  0.12974756049E+00  0.20304113897E-01 0.  0.
         14    1    1    2    0    0 -0.15207248314E-02  0.18232620647E-01  0.15593865648E-01  0.24039752609E-01  0.00000000000E+00 0.  1.
     999901    1    3    3    0    0  0.59970946381E-01 -0.10390041341E+00  0.59684107855E-01  0.89014268690E+00  0.88000000000E+00 0.  1.
        -11    1    4    4    0    0 -0.10186311643E-01  0.31295326198E-01 -0.25443077265E-01  0.41602520217E-01  0.51100000000E-03 0. -1.
         11    1    4    4    0    0 -0.48263909907E-01  0.54372466568E-01 -0.49834896237E-01  0.88145040270E-01  0.51100000000E-03 0.  1.
</event>
<event>
 8    1  0.1233916E+005  0.1043930E+01  0.7957747E-01            NaN
         13   -1    0    0    0    0  0.00000000000E+00  0.00000000000E+00  0.74505805969E-08  0.10566000000E+00  0.10566000000E+00 0. -1.
     999900   -1    0    0    0    0 -0.00000000000E+00 -0.00000000000E+00 -0.74505805969E-08  0.93827000000E+00  0.93827000000E+00 0. -1.
     999902    2    1    2    0    0 -0.21869777872E-01  0.48366078530E-02 -0.85246461818E-02  0.10199644090E+01  0.10196828164E+01 0.  0.
     999903    2    3    3    0    0 -0.25769224208E-01  0.12643635567E+00 -0.15731270879E-01  0.13156492690E+00  0.20289212758E-01 0.  0.
         14    1    1    2    0    0  0.21869777872E-01 -0.48366078530E-02  0.85246461818E-02  0.23965591005E-01  0.00000000000E+00 0. -1.
     999901    1    3    3    0    0  0.38994463366E-02 -0.12159974782E+00  0.72066246973E-02  0.88839948210E+00  0.88000000000E+00 0. -1.
        -11    1    4    4    0    0 -0.59562127137E-02  0.21352965420E-01 -0.10411246860E-01  0.24496546375E-01  0.51100000000E-03 0. -1.
         11    1    4    4    0    0 -0.19813011495E-01  0.10508339025E+00 -0.53200240193E-02  0.10706838052E+00  0.51100000000E-03 0.  1.
</event>
<event>
 8    1  0.1233916E+005  0.1043930E+01  0.7957747E-01            NaN
         13   -1    0    0    0    0  0.00000000000E+00  0.00000000000E+00  0.74505805969E-08  0.10566000000E+00  0.10566000000E+00 0. -1.
     999900   -1    0    0    0    0 -0.00000000000E+00 -0.00000000000E+00 -0.74505805969E-08  0.93827000000E+00  0.93827000000E+00 0.  1.
     999902    2    1    2    0    0  0.11455305196E-01  0.20087194889E-01 -0.40753481983E-02  0.10204496278E+01  0.10201794524E+01 0.  0.
     999903    2    3    3    0    0 -0.86537488490E-01 -0.41275926464E-01  0.83291295343E-01  0.12859708916E+00  0.20182478568E-01 0.  0.
         14    1    1    2    0    0 -0.11455305196E-01 -0.20087194889E-01  0.40753481983E-02  0.23480372198E-01  0.00000000000E+00 0. -1.
     999901    1    3    3    0    0  0.97992793686E-01  0.61363121352E-01 -0.87366643542E-01  0.89185253864E+00  0.88000000000E+00 0. -1.
        -11    1    4    4    0    0 -0.24615109321E-01 -0.11046304493E-01  0.36128290925E-01  0.45093668912E-01  0.51100000000E-03 0.  1.
         11    1    4    4    0    0 -0.61922379169E-01 -0.30229621971E-01  0.47163004419E-01  0.83503420249E-01  0.51100000000E-03 0. -1.
</event>
<event>
 8    1  0.1233916E+005  0.1043930E+01  0.7957747E-01            NaN
         13   -1    0    0    0    0  0.00000000000E+00  0.00000000000E+00  0.74505805969E-08  0.10566000000E+00  0.10566000000E+00 0. -1.
     999900   -1    0    0    0    0 -0.00000000000E+00 -0.00000000000E+00 -0.74505805969E-08  0.93827000000E+00  0.93827000000E+00 0. -1.
     999902    2    1    2    0    0 -0.48132769314E-03  0.21021621956E-01  0.12544425324E-01  0.10194452522E+01  0.10191511760E+01 0.  0.
     999903    2    3    3    0    0 -0.11684890062E+00  0.70153012991E-02 -0.51968343272E-01  0.12933318831E+00  0.17985685106E-01 0.  0.
         14    1    1    2    0    0  0.48132769314E-03 -0.21021621956E-01 -0.12544425324E-01  0.24484747757E-01  0.00000000000E+00 0.  1.
     999901    1    3    3    0    0  0.11636757292E+00  0.14006320656E-01  0.64512768596E-01  0.89011206393E+00  0.88000000000E+00 0.  1.
        -11    1    4    4    0    0 -0.59623069406E-01 -0.26672600392E-02 -0.19289766590E-01  0.62724643463E-01  0.51100000000E-03 0.  1.
         11    1    4    4    0    0 -0.57225831210E-01  0.96825613384E-02 -0.32678576682E-01  0.66608544847E-01  0.51100000000E-03 0. -1.
</event>
<event>
 8    1  0.1233916E+005  0.1043930E+01  0.7957747E-01            NaN
         13   -1    0    0    0    0  0.00000000000E+00  0.00000000000E+00  0.74505805969E-08  0.10566000000E+00  0.10566000000E+00 0. -1.
     999900   -1    0    0    0    0 -0.00000000000E+00 -0.00000000000E+00 -0.74505805969E-08  0.93827000000E+00  0.93827000000E+00 0. -1.
     999902    2    1    2    0    0  0.14325683047E-01 -0.16543955758E-01 -0.82363948647E-02  0.10205469748E+01  0.10202790608E+01 0.  0.
     999903    2    3    3    0    0 -0.56513734340E-02  0.20187031747E-01 -0.12837527802E+00  0.13140041800E+00  0.18611920140E-01 0.  0.
         14    1    1    2    0    0 -0.14325683047E-01  0.16543955758E-01  0.82363948647E-02  0.23383025195E-01  0.00000000000E+00 0.  1.
     999901    1    3    3    0    0  0.19977056481E-01 -0.36730987505E-01  0.12013888316E+00  0.88914655680E+00  0.88000000000E+00 0.  1.
        -11    1    4    4    0    0 -0.57151621048E-02  0.15536386979E-01 -0.45971734786E-01  0.48864137345E-01  0.51100000000E-03 0.  1.
         11    1    4    4    0    0  0.63788670868E-04  0.46506447683E-02 -0.82403543237E-01  0.82536280657E-01  0.51100000000E-03 0. -1.
</event>
<event>
 8    1  0.1233916E+005  0.1043930E+01  0.7957747E-01            NaN
         13   -1    0    0    0    0  0.00000000000E+00  0.00000000000E+00  0.74505805969E-08  0.10566000000E+00  0.10566000000E+00 0. -1.
     999900   -1    0    0    0    0 -0.00000000000E+00 -0.00000000000E+00 -0.74505805969E-08  0.93827000000E+00  0.93827000000E+00 0. -1.
     999902    2    1    2    0    0  0.21881484435E-01  0.13098446597E-02 -0.84369017209E-02  0.10204417824E+01  0.10201714243E+01 0.  0.
     999903    2    3    3    0    0  0.58923314814E-01 -0.51156596082E-01  0.10352459953E+00  0.13102613023E+00  0.19014461446E-01 0.  0.
         14    1    1    2    0    0 -0.21881484435E-01 -0.13098446597E-02  0.84369017209E-02  0.23488217573E-01  0.00000000000E+00 0. -1.
     999901    1    3    3    0    0 -0.37041830379E-01  0.52466440741E-01 -0.11196150126E+00  0.88941565219E+00  0.88000000000E+00 0. -1.
        -11    1    4    4    0    0  0.10894891167E-01 -0.15400341046E-02  0.10945023878E-01  0.15528201031E-01  0.51100000000E-03 0.  1.
         11    1    4    4    0    0  0.48028423647E-01 -0.49616561977E-01  0.92579575657E-01  0.11549792920E+00  0.51100000000E-03 0. -1.
</event>
<event>
 8    1  0.1233916E+005  0.1043930E+01  0.7957747E-01            NaN
         13   -1    0    0    0    0  0.00000000000E+00  0.00000000000E+00  0.74505805969E-08  0.10566000000E+00  0.10566000000E+00 0.  1.
     999900   -1    0    0    0    0 -0.00000000000E+00 -0.00000000000E+00 -0.74505805969E-08  0.93827000000E+00  0.93827000000E+00 0.  1.
     999902    2    1    2    0    0  0.13791984796E-01 -0.16198302254E-01  0.10226177315E-01  0.10203253703E+01  0.10200522941E+01 0.  0.
     999903    2    3    3    0    0 -0.96722559836E-01  0.63092588629E-01  0.54434018445E-01  0.12877904892E+00  0.16883505455E-01 0.  0.
         14    1    1    2    0    0 -0.13791984796E-01  0.16198302254E-01 -0.10226177315E-01  0.23604629694E-01  0.00000000000E+00 0.  1.
     999901    1    3    3    0    0  0.11051454463E+00 -0.79290890883E-01 -0.44207841130E-01  0.89154632138E+00  0.88000000000E+00 0.  1.
        -11    1    4    4    0    0 -0.72544722901E-01  0.54101555860E-01  0.46739554815E-01  0.10185559519E+00  0.51100000000E-03 0.  1.
         11    1    4    4    0    0 -0.24177836936E-01  0.89910327693E-02  0.76944636298E-02  0.26923453729E-01  0.51100000000E-03 0. -1.
</event>
<event>
 8    1  0.1233916E+005  0.1043930E+01  0.7957747E-01            NaN
         13   -1    0    0    0    0  0.00000000000E+00  0.00000000000E+00  0.74505805969E-08  0.10566000000E+00  0.10566000000E+00 0.  1.
     999900   -1    0    0    0    0 -0.00000000000E+00 -0.00000000000E+00 -0.74505805969E-08  0.93827000000E+00  0.93827000000E+00 0. -1.
     999902    2    1    2    0    0  0.10029496148E-01  0.13963667527E-01  0.17067604678E-01  0.10197044364E+01  0.10194166271E+01 0.  0.
     999903    2    3    3    0    0 -0.71311450140E-01  0.31239527378E-01 -0.99751298742E-01  0.12809832318E+00  0.19940607048E-01 0.  0.
         14    1    1    2    0    0 -0.10029496148E-01 -0.13963667527E-01 -0.17067604678E-01  0.24225563631E-01  0.00000000000E+00 0. -1.
     999901    1    3    3    0    0  0.81340946288E-01 -0.17275859851E-01  0.11681890342E+00  0.89160611319E+00  0.88000000000E+00 0.  1.
        -11    1    4    4    0    0 -0.41375227117E-01  0.76172541343E-02 -0.56299182611E-01  0.70283647196E-01  0.51100000000E-03 0. -1.
         11    1    4    4    0    0 -0.29936223023E-01  0.23622273243E-01 -0.43452116132E-01  0.57814675986E-01  0.51100000000E-03 0.  1.
</event>
<event>
 8    1  0.1233916E+005  0.1043930E+01  0.7957747E-01            NaN
         13   -1    0    0    0    0  0.00000000000E+00  0.00000000000E+00  0.74505805969E-08  0.10566000000E+00  0.10566000000E+00 0.  1.
     999900   -1    0    0    0    0 -0.00000000000E+00 -0.00000000000E+00 -0.74505805969E-08  0.93827000000E+00  0.93827000000E+00 0. -1.
     999902    2    1    2    0    0  0.99097954824E-03  0.52878314195E-03  0.22908046378E-01  0.10209944328E+01  0.10207367886E+01 0.  0.
     999903    2    3    3    0    0  0.11347373177E+00  0.53580103726E-02  0.65833587033E-01  0.13278370727E+00  0.19810493606E-01 0.  0.
         14    1    1    2    0    0 -0.99097954824E-03 -0.52878314195E-03 -0.22908046378E-01  0.22935567159E-01  0.00000000000E+00 0. -1.
     999901    1    3    3    0    0 -0.11248275222E+00 -0.48292272307E-02 -0.42925540655E-01  0.88821072557E+00  0.88000000000E+00 0. -1.
        -11    1    4    4    0    0  0.73574673259E-01 -0.50938044844E-02  0.46864151391E-01  0.87382430705E-01  0.51100000000E-03 0.  1.
         11    1    4    4    0    0  0.39899058511E-01  0.10451814857E-01  0.18969435642E-01  0.45401276562E-01  0.51100000000E-03 0. -1.
</event>
<event>
 8    1  0.1233916E+005  0.1043930E+01  0.7957747E-01            NaN
         13   -1    0    0    0    0  0.00000000000E+00  0.00000000000E+00  0.74505805969E-08  0.10566000000E+00  0.10566000000E+00 0. -1.
     999900   -1    0    0    0    0 -0.00000000000E+00 -0.00000000000E+00 -0.74505805969E-08  0.93827000000E+00  0.93827000000E+00 0. -1.
     999902    2    1    2    0    0  0.20609576664E-01  0.13049441783E-01  0.17213549939E-01  0.10140745335E+01  0.10136349493E+01 0.  0.
     999903    2    3    3    0    0  0.18158052906E-01 -0.68400778809E-01  0.10261053458E+00  0.12619346406E+00  0.19684692954E-01 0.  0.
         14    1    1    2    0    0 -0.20609576664E-01 -0.13049441783E-01 -0.17213549939E-01  0.29855466545E-01  0.00000000000E+00 0.  1.
     999901    1    3    3    0    0  0.24515237576E-02  0.81450220592E-01 -0.85396984645E-01  0.88788106939E+00  0.88000000000E+00 0.  1.
        -11    1    4    4    0    0  0.68282297478E-03 -0.15497731437E-01  0.11197576305E-01  0.19138776424E-01  0.51100000000E-03 0. -1.
         11    1    4    4    0    0  0.17475229932E-01 -0.52903047373E-01  0.91412958279E-01  0.10705468764E+00  0.51100000000E-03 0.  1.
</event>
<event>
 7    1  0.1233916E+005  0.1043930E+01  0.7957747E-01            NaN
         13   -1    0    0    0    0  0.00000000000E+00  0.00000000000E+00  0.74505805969E-08  0.10566000000E+00  0.10566000000E+00 0.  1.
     999900   -1    0    0    0    0 -0.00000000000E+00 -0.00000000000E+00 -0.74505805969E-08  0.93827000000E+00  0.93827000000E+00 0.  1.
     999903    2    1    2    0    0 -0.40052318425E-01 -0.17652597111E-01  0.68752790457E-01  0.84104562053E-01  0.20756415068E-01 0.  0.
         14    1    1    2    0    0 -0.52871949094E-02 -0.65083416567E-01 -0.35121130965E-01  0.74143775075E-01  0.00000000000E+00 0. -1.
     999901    1    1    2    0    0  0.45339513334E-01  0.82736013678E-01 -0.33631659492E-01  0.88568166287E+00  0.88000000000E+00 0.  1.
        -11    1    3    3    0    0 -0.26504448343E-01 -0.21429829420E-01  0.52610604948E-01  0.62688597408E-01  0.51100000000E-03 0. -1.
         11    1    3    3    0    0 -0.13547870083E-01  0.37772323088E-02  0.16142185509E-01  0.21415964645E-01  0.51100000000E-03 0.  1.
</event>
<event>
 8    1  0.1233916E+005  0.1043930E+01  0.7957747E-01            NaN
         13   -1    0    0    0    0  0.00000000000E+00  0.00000000000E+00  0.74505805969E-08  0.10566000000E+00  0.10566000000E+00 0. -1.
     999900   -1    0    0    0    0 -0.00000000000E+00 -0.00000000000E+00 -0.74505805969E-08  0.93827000000E+00  0.93827000000E+00 0. -1.
     999902    2    1    2    0    0  0.23540945959E-01  0.65967707132E-02 -0.16815984647E-02  0.10194244640E+01  0.10191298821E+01 0.  0.
     999903    2    3    3    0    0 -0.76439386963E-02  0.53214713367E-01  0.11638953351E+00  0.12976918144E+00  0.20081868052E-01 0.  0.
         14    1    1    2    0    0 -0.23540945959E-01 -0.65967707132E-02  0.16815984647E-02  0.24505535985E-01  0.00000000000E+00 0.  1.
     999901    1    3    3    0    0  0.31184884656E-01 -0.46617942654E-01 -0.11807113197E+00  0.88965528257E+00  0.88000000000E+00 0. -1.
        -11    1    4    4    0    0 -0.92979522897E-02  0.21332780188E-01  0.67280372591E-01  0.71193040983E-01  0.51100000000E-03 0. -1.
         11    1    4    4    0    0  0.16540135934E-02  0.31881933178E-01  0.49109160915E-01  0.58576140458E-01  0.51100000000E-03 0.  1.
</event>
<event>
 8    1  0.1233916E+005  0.1043930E+01  0.7957747E-01            NaN
         13   -1    0    0    0    0  0.00000000000E+00  0.00000000000E+00  0.74505805969E-08  0.10566000000E+00  0.10566000000E+00 0. -1.
     999900   -1    0    0    0    0 -0.00000000000E+00 -0.00000000000E+00 -0.74505805969E-08  0.93827000000E+00  0.93827000000E+00 0.  1.
     999902    2    1    2    0    0 -0.95159636687E-02  0.12771377931E-01 -0.18286707922E-01  0.10196799413E+01  0.10193915427E+01 0.  0.
     999903    2    3    3    0    0 -0.11013671550E+00  0.65366872111E-01 -0.26427401483E-01  0.13234849672E+00  0.20366466637E-01 0.  0.
         14    1    1    2    0    0  0.95159636687E-02 -0.12771377931E-01  0.18286707922E-01  0.24250058669E-01  0.00000000000E+00 0. -1.
     999901    1    3    3    0    0  0.10062075183E+00 -0.52595494180E-01  0.81406935607E-02  0.88733144461E+00  0.88000000000E+00 0.  1.
        -11    1    4    4    0    0 -0.48946515593E-01  0.17559477917E-01 -0.11907356839E-01  0.53349254178E-01  0.51100000000E-03 0. -1.
         11    1    4    4    0    0 -0.61190199909E-01  0.47807394193E-01 -0.14520044644E-01  0.78999242540E-01  0.51100000000E-03 0.  1.
</event>
<event>
 8    1  0.1233916E+005  0.1043930E+01  0.7957747E-01            NaN
         13   -1    0    0    0    0  0.00000000000E+00  0.00000000000E+00  0.74505805969E-08  0.10566000000E+00  0.10566000000E+00 0.  1.
     999900   -1    0    0    0    0 -0.00000000000E+00 -0.00000000000E+00 -0.74505805969E-08  0.93827000000E+00  0.93827000000E+00 0.  1.
     999902    2    1    2    0    0  0.20470615356E-01  0.10933527450E-01 -0.42139825579E-02  0.10203430171E+01  0.10200703538E+01 0.  0.
     999903    2    3    3    0    0  0.93630300731E-01 -0.84639917240E-01  0.31674990878E-01  0.13142533734E+00  0.18405581818E-01 0.  0.
         14    1    1    2    0    0 -0.20470615356E-01 -0.10933527450E-01  0.42139825579E-02  0.23586982947E-01  0.00000000000E+00 0.  1.
     999901    1    3    3    0    0 -0.73159685375E-01  0.95573444690E-01 -0.35888973436E-01  0.88891767971E+00  0.88000000000E+00 0.  1.
        -11    1    4    4    0    0  0.26657821475E-01 -0.26246712078E-01  0.10112564819E-02  0.37427437814E-01  0.51100000000E-03 0. -1.
         11    1    4    4    0    0  0.66972479257E-01 -0.58393205162E-01  0.30663734397E-01  0.93997899525E-01  0.51100000000E-03 0.  1.
</event>
<event>
 8    1  0.1233916E+005  0.1043930E+01  0.7957747E-01            NaN
         13   -1    0    0    0    0  0.00000000000E+00  0.00000000000E+00  0.74505805969E-08  0.10566000000E+00  0.10566000000E+00 0.  1.
     999900   -1    0    0    0    0 -0.00000000000E+00 -0.00000000000E+00 -0.74505805969E-08  0.93827000000E+00  0.93827000000E+00 0.  1.
     999902    2    1    2    0    0 -0.21006515078E-01  0.77876750648E-02  0.23569644794E-03  0.10215251543E+01  0.10212794249E+01 0.  0.
     999903    2    3    3    0    0 -0.19275463221E-01 -0.76382189334E-01  0.10343199504E+00  0.13150434630E+00  0.19734061099E-01 0.  0.
         14    1    1    2    0    0  0.21006515078E-01 -0.77876750648E-02 -0.23569644794E-03  0.22404845713E-01  0.00000000000E+00 0.  1.
     999901    1    3    3    0    0 -0.17310518566E-02  0.84169864399E-01 -0.10319629859E+00  0.89002080799E+00  0.88000000000E+00 0.  1.
        -11    1    4    4    0    0 -0.79460144552E-02 -0.34770616372E-01  0.62942407553E-01  0.72347375199E-01  0.51100000000E-03 0.  1.
         11    1    4    4    0    0 -0.11329448766E-01 -0.41611572962E-01  0.40489587484E-01  0.59156971097E-01  0.51100000000E-03 0. -1.
</event>
<event>
 8    1  0.1233916E+005  0.1043930E+01  0.7957747E-01            NaN
         13   -1    0    0    0    0  0.00000000000E+00  0.00000000000E+00  0.74505805969E-08  0.10566000000E+00  0.10566000000E+00 0.  1.
     999900   -1    0    0    0    0 -0.00000000000E+00 -0.00000000000E+00 -0.74505805969E-08  0.93827000000E+00  0.93827000000E+00 0. -1.
     999902    2    1    2    0    0  0.19658531174E-01 -0.39231059990E-02 -0.11474134202E-01  0.10208322866E+01  0.10205709446E+01 0.  0.
     999903    2    3    3    0    0 -0.54383104239E-01  0.42411190219E-01 -0.10965134056E+00  0.13107513174E+00  0.20026047846E-01 0.  0.
         14    1    1    2    0    0 -0.19658531174E-01  0.39231059990E-02  0.11474134202E-01  0.23097713400E-01  0.00000000000E+00 0.  1.
     999901    1    3    3    0    0  0.74041635413E-01 -0.46334296218E-01  0.98177206353E-01  0.88975715486E+00  0.88000000000E+00 0.  1.
        -11    1    4    4    0    0 -0.44642164740E-01  0.42030665149E-01 -0.87268651194E-01  0.10665635606E+00  0.51100000000E-03 0.  1.
         11    1    4    4    0    0 -0.97409394985E-02  0.38052506931E-03 -0.22382689361E-01  0.24418775680E-01  0.51100000000E-03 0. -1.
</event>
<event>
 8    1  0.1233916E+005  0.1043930E+01  0.7957747E-01            NaN
         13   -1    0    0    0    0  0.00000000000E+00  0.00000000000E+00  0.74505805969E-08  0.10566000000E+00  0.10566000000E+00 0. -1.
     999900   -1    0    0    0    0 -0.00000000000E+00 -0.00000000000E+00 -0.74505805969E-08  0.93827000000E+00  0.93827000000E+00 0. -1.
     999902    2    1    2    0    0  0.30872811742E-02  0.95888902284E-02  0.23840833852E-01  0.10180482790E+01  0.10177192319E+01 0.  0.
     999903    2    3    3    0    0 -0.53575870849E-01  0.51989475777E-01 -0.10091949996E+00  0.12643532302E+00  0.15095227968E-01 0.  0.
         14    1    1    2    0    0 -0.30872811742E-02 -0.95888902284E-02 -0.23840833852E-01  0.25881720955E-01  0.00000000000E+00 0.  1.
     999901    1    3    3    0    0  0.56663152023E-01 -0.42400585548E-01  0.12476033381E+00  0.89161295602E+00  0.88000000000E+00 0.  1.
        -11    1    4    4    0    0 -0.31965947819E-01  0.27026864596E-01 -0.44751627763E-01  0.61280033765E-01  0.51100000000E-03 0. -1.
         11    1    4    4    0    0 -0.21609923030E-01  0.24962611181E-01 -0.56167872196E-01  0.65155289259E-01  0.51100000000E-03 0.  1.
</event>
<event>
 8    1  0.1233916E+005  0.1043930E+01  0.7957747E-01            NaN
         13   -1    0    0    0    0  0.00000000000E+00  0.00000000000E+00  0.74505805969E-08  0.10566000000E+00  0.10566000000E+00 0.  1.
     999900   -1    0    0    0    0 -0.00000000000E+00 -0.00000000000E+00 -0.74505805969E-08  0.93827000000E+00  0.93827000000E+00 0.  1.
     999902    2    1    2    0    0 -0.10730203609E-01 -0.20867941220E-01 -0.92128988489E-03  0.10204468781E+01  0.10201766386E+01 0.  0.
     999903    2    3    3    0    0  0.12185073894E-01 -0.13017562469E+00 -0.15710626816E-01  0.13326482004E+00  0.20457741227E-01 0.  0.
         14    1    1    2    0    0  0.10730203609E-01  0.20867941220E-01  0.92128988489E-03  0.23483121924E-01  0.00000000000E+00 0. -1.
     999901    1    3    3    0    0 -0.22915277503E-01  0.10930768347E+00  0.14789336931E-01  0.88718205803E+00  0.88000000000E+00 0.  1.
        -11    1    4    4    0    0  0.55918908834E-02 -0.94016283926E-01 -0.25418722623E-02  0.94218114620E-01  0.51100000000E-03 0.  1.
         11    1    4    4    0    0  0.65931830102E-02 -0.36159340767E-01 -0.13168754553E-01  0.39046705423E-01  0.51100000000E-03 0. -1.
</event>
<event>
 8    1  0.1233916E+005  0.1043930E+01  0.7957747E-01            NaN
         13   -1    0    0    0    0  0.00000000000E+00  0.00000000000E+00  0.74505805969E-08  0.10566000000E+00  0.10566000000E+00 0. -1.
     999900   -1    0    0    0    0 -0.00000000000E+00 -0.00000000000E+00 -0.74505805969E-08  0.93827000000E+00  0.93827000000E+00 0. -1.
     999902    2    1    2    0    0  0.18422821191E-01  0.12459443694E-01 -0.55586211851E-03  0.10216825943E+01  0.10214403440E+01 0.  0.
     999903    2    3    3    0    0 -0.91168867904E-01 -0.66921945949E-01 -0.62050615469E-01  0.12921783419E+00  0.75273148424E-02 0.  0.
         14    1    1    2    0    0 -0.18422821191E-01 -0.12459443694E-01  0.55586211851E-03  0.22247405703E-01  0.00000000000E+00 0. -1.
     999901    1    3    3    0    0  0.10959168909E+00  0.79381389643E-01  0.61494753350E-01  0.89246476011E+00  0.88000000000E+00 0.  1.
        -11    1    4    4    0    0 -0.36792828971E-01 -0.24830311784E-01 -0.20729041042E-01  0.48991947404E-01  0.51100000000E-03 0. -1.
         11    1    4    4    0    0 -0.54376038933E-01 -0.42091634165E-01 -0.41321574427E-01  0.80225886788E-01  0.51100000000E-03 0.  1.
</event>
<event>
 8    1  0.1233916E+005  0.1043930E+01  0.7957747E-01            NaN
         13   -1    0    0    0    0  0.00000000000E+00  0.00000000000E+00  0.74505805969E-08  0.10566000000E+00  0.10566000000E+00 0. -1.
     999900   -1    0    0    0    0 -0.00000000000E+00 -0.00000000000E+00 -0.74505805969E-08  0.93827000000E+00  0.93827000000E+00 0.  1.
     999902    2    1    2    0    0 -0.20697787381E-01  0.18765159450E-02 -0.11762260373E-01  0.10200496632E+01  0.10197700942E+01 0.  0.
     999903    2    3    3    0    0 -0.45140354587E-01  0.26623842521E-01  0.11719245934E+00  0.12997147061E+00  0.20298523164E-01 0.  0.
         14    1    1    2    0    0  0.20697787381E-01 -0.18765159450E-02  0.11762260373E-01  0.23880336758E-01  0.00000000000E+00 0. -1.
     999901    1    3    3    0    0  0.24442567206E-01 -0.24747326576E-01 -0.12895471972E+00  0.89007819263E+00  0.88000000000E+00 0.  1.
        -11    1    4    4    0    0 -0.29334376261E-01  0.59391326063E-02  0.56792262999E-01  0.64198140037E-01  0.51100000000E-03 0.  1.
         11    1    4    4    0    0 -0.15805978326E-01  0.20684709914E-01  0.60400196344E-01  0.65773330572E-01  0.51100000000E-03 0. -1.
</event>
<event>
 8    1  0.1233916E+005  0.1043930E+01  0.7957747E-01            NaN
         13   -1    0    0    0    0  0.00000000000E+00  0.00000000000E+00  0.74505805969E-08  0.10566000000E+00  0.10566000000E+00 0.  1.
     999900   -1    0    0    0    0 -0.00000000000E+00 -0.00000000000E+00 -0.74505805969E-08  0.93827000000E+00  0.93827000000E+00 0.  1.
     999902    2    1    2    0    0  0.54385073060E-02  0.13393298083E-01 -0.18443220733E-01  0.10204968998E+01  0.10202278237E+01 0.  0.
     999903    2    3    3    0    0  0.27655504514E-01 -0.62768418278E-01  0.10619180105E+00  0.12818076148E+00  0.21187442961E-01 0.  0.
         14    1    1    2    0    0 -0.54385073060E-02 -0.13393298083E-01  0.18443220733E-01  0.23433100227E-01  0.00000000000E+00 0.  1.
     999901    1    3    3    0    0 -0.22216997208E-01  0.76161716361E-01 -0.12463502179E+00  0.89231613829E+00  0.88000000000E+00 0.  1.
        -11    1    4    4    0    0  0.25876460060E-01 -0.35655925792E-01  0.57762670281E-01  0.72647941666E-01  0.51100000000E-03 0.  1.
         11    1    4    4    0    0  0.17790444541E-02 -0.27112492486E-01  0.48429130773E-01  0.55532819813E-01  0.51100000000E-03 0. -1.
</event>
<event>
 8    1  0.1233916E+005  0.1043930E+01  0.7957747E-01            NaN
         13   -1    0    0    0    0  0.00000000000E+00  0.00000000000E+00  0.74505805969E-08  0.10566000000E+00  0.10566000000E+00 0.  1.
     999900   -1    0    0    0    0 -0.00000000000E+00 -0.00000000000E+00 -0.74505805969E-08  0.93827000000E+00  0.93827000000E+00 0. -1.
     999902    2    1    2    0    0  0.22078980019E-01  0.30109062087E-02  0.53720571370E-02  0.10210082655E+01  0.10207509355E+01 0.  0.
     999903    2    3    3    0    0 -0.99401548698E-01  0.97175163046E-02 -0.77483294732E-01  0.12878211322E+00  0.24618564437E-01 0.  0.
         14    1    1    2    0    0 -0.22078980019E-01 -0.30109062087E-02 -0.53720571370E-02  0.22921734506E-01  0.00000000000E+00 0. -1.
     999901    1    3    3    0    0  0.12148052872E+00 -0.67066100959E-02  0.82855351869E-01  0.89222615228E+00  0.88000000000E+00 0. -1.
        -11    1    4    4    0    0 -0.47999463068E-01  0.15038555732E-01 -0.29810631168E-01  0.58472570193E-01  0.51100000000E-03 0. -1.
         11    1    4    4    0    0 -0.51402085631E-01 -0.53210394276E-02 -0.47672663565E-01  0.70309543023E-01  0.51100000000E-03 0.  1.
</event>
<event>
 8    1  0.1233916E+005  0.1043930E+01  0.7957747E-01            NaN
         13   -1    0    0    0    0  0.00000000000E+00  0.00000000000E+00  0.74505805969E-08  0.10566000000E+00  0.10566000000E+00 0.  1.
     999900   -1    0    0    0    0 -0.00000000000E+00 -0.00000000000E+00 -0.74505805969E-08  0.93827000000E+00  0.93827000000E+00 0. -1.
     999902    2    1    2    0    0  0.70113431964E-02  0.11149789530E-01  0.20973370135E-01  0.10191639144E+01  0.10188629572E+01 0.  0.
     999903    2    3    3    0    0 -0.27769948199E-01  0.11384707759E+00 -0.51231619065E-01  0.12957410352E+00  0.20795249716E-01 0.  0.
         14    1    1    2    0    0 -0.70113431964E-02 -0.11149789530E-01 -0.20973370135E-01  0.24766085577E-01  0.00000000000E+00 0. -1.
     999901    1    3    3    0    0  0.34781291396E-01 -0.10269728806E+00  0.72204989200E-01  0.88958981091E+00  0.88000000000E+00 0.  1.
        -11    1    4    4    0    0 -0.74099003060E-02  0.42285893343E-01 -0.29398228024E-01  0.52033838320E-01  0.51100000000E-03 0.  1.
         11    1    4    4    0    0 -0.20360047893E-01  0.71561184248E-01 -0.21833391041E-01  0.77540265195E-01  0.51100000000E-03 0. -1.
</event>
<event>
 8    1  0.1233916E+005  0.1043930E+01  0.7957747E-01            NaN
         13   -1    0    0    0    0  0.00000000000E+00  0.00000000000E+00  0.74505805969E-08  0.10566000000E+00  0.10566000000E+00 0. -1.
     999900   -1    0    0    0    0 -0.00000000000E+00 -0.00000000000E+00 -0.74505805969E-08  0.93827000000E+00  0.93827000000E+00 0. -1.
     999902    2    1    2    0    0 -0.77206126095E-02 -0.76860518668E-02  0.20997720430E-01  0.10202743978E+01  0.10200001271E+01 0.  0.
     999903    2    3    3    0    0  0.60381085087E-01 -0.91505474868E-01  0.71137152389E-01  0.13225553564E+00  0.20295440167E-01 0.  0.
         14    1    1    2    0    0  0.77206126095E-02  0.76860518668E-02 -0.20997720430E-01  0.23655602203E-01  0.00000000000E+00 0.  1.
     999901    1    3    3    0    0 -0.68101697696E-01  0.83819423001E-01 -0.50139431959E-01  0.88801886215E+00  0.88000000000E+00 0. -1.
        -11    1    4    4    0    0  0.23885074648E-01 -0.52283704647E-01  0.42631424768E-01  0.71566626728E-01  0.51100000000E-03 0. -1.
         11    1    4    4    0    0  0.36496010439E-01 -0.39221770221E-01  0.28505727621E-01  0.60688908916E-01  0.51100000000E-03 0.  1.
</event>
<event>
 8    1  0.1233916E+005  0.1043930E+01  0.7957747E-01            NaN
         13   -1    0    0    0    0  0.00000000000E+00  0.00000000000E+00  0.74505805969E-08  0.10566000000E+00  0.10566000000E+00 0. -1.
     999900   -1    0    0    0    0 -0.00000000000E+00 -0.00000000000E+00 -0.74505805969E-08  0.93827000000E+00  0.93827000000E+00 0. -1.
     999902    2    1    2    0    0  0.26458733696E-01  0.15455859848E-01  0.85808016225E-02  0.10121089637E+01  0.10116086082E+01 0.  0.
     999903    2    3    3    0    0 -0.97375761170E-01  0.53299124885E-01 -0.43903192633E-01  0.12108614445E+00  0.20286164708E-01 0.  0.
         14    1    1    2    0    0 -0.26458733696E-01 -0.15455859848E-01 -0.85808016225E-02  0.31821036264E-01  0.00000000000E+00 0.  1.
     999901    1    3    3    0    0  0.12383449487E+00 -0.37843265038E-01  0.52483994255E-01  0.89102281928E+00  0.88000000000E+00 0.  1.
        -11    1    4    4    0    0 -0.29826895479E-01  0.20408734503E-01 -0.23916303631E-01  0.43340637262E-01  0.51100000000E-03 0.  1.
         11    1    4    4    0    0 -0.67548865691E-01  0.32890390382E-01 -0.19986889002E-01  0.77745507193E-01  0.51100000000E-03 0. -1.
</event>
<event>
 8    1  0.1233916E+005  0.1043930E+01  0.7957747E-01            NaN
         13   -1    0    0    0    0  0.00000000000E+00  0.00000000000E+00  0.74505805969E-08  0.10566000000E+00  0.10566000000E+00 0.  1.
     999900   -1    0    0    0    0 -0.00000000000E+00 -0.00000000000E+00 -0.74505805969E-08  0.93827000000E+00  0.93827000000E+00 0.  1.
     999902    2    1    2    0    0 -0.23036306936E-01  0.19482695572E-02 -0.35258337145E-02  0.10205441347E+01  0.10202761549E+01 0.  0.
     999903    2    3    3    0    0  0.12794554057E-01 -0.33838749890E-01  0.12319829279E+00  0.13002542880E+00  0.20494662252E-01 0.  0.
         14    1    1    2    0    0  0.23036306936E-01 -0.19482695572E-02  0.35258337145E-02  0.23385865280E-01  0.00000000000E+00 0.  1.
     999901    1    3    3    0    0 -0.35830860993E-01  0.35787019447E-01 -0.12672412650E+00  0.89051870592E+00  0.88000000000E+00 0.  1.
        -11    1    4    4    0    0 -0.33743828203E-02 -0.19800724291E-01  0.63334438168E-01  0.66445220452E-01  0.51100000000E-03 0. -1.
         11    1    4    4    0    0  0.16168936877E-01 -0.14038025599E-01  0.59863854618E-01  0.63580208345E-01  0.51100000000E-03 0.  1.
</event>
<event>
 8    1  0.1233916E+005  0.1043930E+01  0.7957747E-01            NaN
         13   -1    0    0    0    0  0.00000000000E+00  0.00000000000E+00  0.74505805969E-08  0.10566000000E+00  0.10566000000E+00 0. -1.
     999900   -1    0    0    0    0 -0.00000000000E+00 -0.00000000000E+00 -0.74505805969E-08  0.93827000000E+00  0.93827000000E+00 0.  1.
     999902    2    1    2    0    0 -0.11601238058E-01 -0.75598545712E-02 -0.19108375064E-01  0.10203319042E+01  0.10200589810E+01 0.  0.
     999903    2    3    3    0    0  0.11731453501E+00  0.86815063745E-02  0.47494112808E-01  0.12830110335E+00  0.19168038282E-01 0.  0.
         14    1    1    2    0    0  0.11601238058E-01  0.75598545712E-02  0.19108375064E-01  0.23598095753E-01  0.00000000000E+00 0. -1.
     999901    1    3    3    0    0 -0.12891577307E+00 -0.16241360946E-01 -0.66602487872E-01  0.89203080089E+00  0.88000000000E+00 0.  1.
        -11    1    4    4    0    0  0.56351312697E-01  0.75943531044E-03  0.13119256039E-01  0.57865561301E-01  0.51100000000E-03 0. -1.
         11    1    4    4    0    0  0.60963222317E-01  0.79220710641E-02  0.34374856769E-01  0.70435542052E-01  0.51100000000E-03 0.  1.
</event>
<event>
 8    1  0.1233916E+005  0.1043930E+01  0.7957747E-01            NaN
         13   -1    0    0    0    0  0.00000000000E+00  0.00000000000E+00  0.74505805969E-08  0.10566000000E+00  0.10566000000E+00 0. -1.
     999900   -1    0    0    0    0 -0.00000000000E+00 -0.00000000000E+00 -0.74505805969E-08  0.93827000000E+00  0.93827000000E+00 0.  1.
     999902    2    1    2    0    0  0.13609863857E-01  0.78672446200E-02  0.18974682599E-01  0.10192893727E+01  0.10189914940E+01 0.  0.
     999903    2    3    3    0    0 -0.54839362947E-01 -0.10276019688E+00  0.52076916246E-01  0.12910990469E+00  0.19757239006E-01 0.  0.
         14    1    1    2    0    0 -0.13609863857E-01 -0.78672446200E-02 -0.18974682599E-01  0.24640627262E-01  0.00000000000E+00 0.  1.
     999901    1    3    3    0    0  0.68449226804E-01  0.11062744150E+00 -0.33102233647E-01  0.89017946805E+00  0.88000000000E+00 0. -1.
        -11    1    4    4    0    0 -0.17453680594E-01 -0.43925163157E-01  0.12271387967E-01  0.48835427799E-01  0.51100000000E-03 0. -1.
         11    1    4    4    0    0 -0.37385682353E-01 -0.58835033718E-01  0.39805528279E-01  0.80274476891E-01  0.51100000000E-03 0.  1.
</event>
<event>
 8    1  0.1233916E+005  0.1043930E+01  0.7957747E-01            NaN
         13   -1    0    0    0    0  0.00000000000E+00  0.00000000000E+00  0.74505805969E-08  0.10566000000E+00  0.10566000000E+00 0.  1.
     999900   -1    0    0    0    0 -0.00000000000E+00 -0.00000000000E+00 -0.74505805969E-08  0.93827000000E+00  0.93827000000E+00 0.  1.
     999902    2    1    2    0    0 -0.19298285183E-02  0.20663501911E-01  0.12919771963E-01  0.10194836290E+01  0.10191904850E+01 0.  0.
     999903    2    3    3    0    0  0.10328041434E+00 -0.21145852224E-01 -0.70415273724E-01  0.12832598458E+00  0.19881058630E-01 0.  0.
         14    1    1    2    0    0  0.19298285183E-02 -0.20663501911E-01 -0.12919771963E-01  0.24446371038E-01  0.00000000000E+00 0. -1.
     999901    1    3    3    0    0 -0.10521024286E+00  0.41809354135E-01  0.83335045687E-01  0.89115764438E+00  0.88000000000E+00 0. -1.
        -11    1    4    4    0    0  0.82848910716E-01 -0.24875233868E-01 -0.56503465223E-01  0.10332290148E+00  0.51100000000E-03 0.  1.
         11    1    4    4    0    0  0.20431503627E-01  0.37293816439E-02 -0.13911808500E-01  0.25003083103E-01  0.51100000000E-03 0. -1.
</event>
<event>
 8    1  0.1233916E+005  0.1043930E+01  0.7957747E-01            NaN
         13   -1    0    0    0    0  0.00000000000E+00  0.00000000000E+00  0.74505805969E-08  0.10566000000E+00  0.10566000000E+00 0. -1.
     999900   -1    0    0    0    0 -0.00000000000E+00 -0.00000000000E+00 -0.74505805969E-08  0.93827000000E+00  0.93827000000E+00 0.  1.
     999902    2    1    2    0    0 -0.19932655616E-01  0.12774482893E-01  0.15779023780E-02  0.10202026329E+01  0.10199266759E+01 0.  0.
     999903    2    3    3    0    0 -0.21202559851E-01  0.45998600388E-01 -0.11943538481E+00  0.13129899904E+00  0.20228599115E-01 0.  0.
         14    1    1    2    0    0  0.19932655616E-01 -0.12774482893E-01 -0.15779023780E-02  0.23727367089E-01  0.00000000000E+00 0.  1.
     999901    1    3    3    0    0  0.12699042355E-02 -0.33224117495E-01  0.12101328718E+00  0.88890363387E+00  0.88000000000E+00 0. -1.
        -11    1    4    4    0    0 -0.67280519291E-02  0.22065150526E-01 -0.31676621659E-01  0.39189373958E-01  0.51100000000E-03 0. -1.
         11    1    4    4    0    0 -0.14474507922E-01  0.23933449863E-01 -0.87758763148E-01  0.92109625079E-01  0.51100000000E-03 0.  1.
</event>
<event>
 8    1  0.1233916E+005  0.1043930E+01  0.7957747E-01            NaN
         13   -1    0    0    0    0  0.00000000000E+00  0.00000000000E+00  0.74505805969E-08  0.10566000000E+00  0.10566000000E+00 0.  1.
     999900   -1    0    0    0    0 -0.00000000000E+00 -0.00000000000E+00 -0.74505805969E-08  0.93827000000E+00  0.93827000000E+00 0.  1.
     999902    2    1    2    0    0  0.11244366691E-01  0.11594568521E-02  0.21846206123E-01  0.10193325033E+01  0.10190356792E+01 0.  0.
     999903    2    3    3    0    0  0.11064853286E+00 -0.25265161191E-01 -0.59744659286E-01  0.12959292453E+00  0.18533094251E-01 0.  0.
         14    1    1    2    0    0 -0.11244366691E-01 -0.11594568521E-02 -0.21846206123E-01  0.24597496711E-01  0.00000000000E+00 0. -1.
     999901    1    3    3    0    0 -0.99404166164E-01  0.26424618043E-01  0.81590865409E-01  0.88973957876E+00  0.88000000000E+00 0. -1.
        -11    1    4    4    0    0  0.50163185571E-01 -0.20886474665E-01 -0.27237931791E-01  0.60784505097E-01  0.51100000000E-03 0. -1.
         11    1    4    4    0    0  0.60485347284E-01 -0.43786865260E-02 -0.32506727495E-01  0.68808419435E-01  0.51100000000E-03 0.  1.
</event>
<event>
 8    1  0.1233916E+005  0.1043930E+01  0.7957747E-01            NaN
         13   -1    0    0    0    0  0.00000000000E+00  0.00000000000E+00  0.74505805969E-08  0.10566000000E+00  0.10566000000E+00 0. -1.
     999900   -1    0    0    0    0 -0.00000000000E+00 -0.00000000000E+00 -0.74505805969E-08  0.93827000000E+00  0.93827000000E+00 0.  1.
     999902    2    1    2    0    0 -0.98438720814E-02  0.13880384576E-01 -0.17859564892E-01  0.10192615799E+01  0.10189630206E+01 0.  0.
     999903    2    3    3    0    0 -0.34062812246E-01 -0.30653268663E-01  0.11693304090E+00  0.12755599510E+00  0.22300174296E-01 0.  0.
         14    1    1    2    0    0  0.98438720814E-02 -0.13880384576E-01  0.17859564892E-01  0.24668420129E-01  0.00000000000E+00 0. -1.
     999901    1    3    3    0    0  0.24218940165E-01  0.44533653239E-01 -0.13479260579E+00  0.89170558477E+00  0.88000000000E+00 0.  1.
        -11    1    4    4    0    0 -0.19703832070E-01 -0.28566137390E-01  0.65675699479E-01  0.74282055886E-01  0.51100000000E-03 0. -1.
         11    1    4    4    0    0 -0.14358980176E-01 -0.20871312732E-02  0.51257341424E-01  0.53273939215E-01  0.51100000000E-03 0.  1.
</event>
<event>
 8    1  0.1233916E+005  0.1043930E+01  0.7957747E-01            NaN
         13   -1    0    0    0    0  0.00000000000E+00  0.00000000000E+00  0.74505805969E-08  0.10566000000E+00  0.10566000000E+00 0.  1.
     999900   -1    0    0    0    0 -0.00000000000E+00 -0.00000000000E+00 -0.74505805969E-08  0.93827000000E+00  0.93827000000E+00 0.  1.
     999902    2    1    2    0    0 -0.22077866916E-01 -0.81456648019E-02 -0.81971203808E-02  0.10190105930E+01  0.10187058515E+01 0.  0.
     999903    2    3    3    0    0 -0.60614073482E-01 -0.10630257275E+00 -0.43142673516E-01  0.13202637134E+00  0.24400196170E-01 0.  0.
         14    1    1    2    0    0  0.22077866916E-01  0.81456648019E-02  0.81971203808E-02  0.24919406998E-01  0.00000000000E+00 0. -1.
     999901    1    3    3    0    0  0.38536206567E-01  0.98156907950E-01  0.34945553136E-01  0.88698422166E+00  0.88000000000E+00 0. -1.
        -11    1    4    4    0    0 -0.16358912524E-01 -0.13501188775E-01 -0.20934782711E-02  0.21319941125E-01  0.51100000000E-03 0. -1.
         11    1    4    4    0    0 -0.44255160958E-01 -0.92801383977E-01 -0.41049195245E-01  0.11070643021E+00  0.51100000000E-03 0.  1.
</event>
<event>
 8    1  0.1233916E+005  0.1043930E+01  0.7957747E-01            NaN
         13   -1    0    0    0    0  0.00000000000E+00  0.00000000000E+00  0.74505805969E-08  0.10566000000E+00  0.10566000000E+00 0.  1.
     999900   -1    0    0    0    0 -0.00000000000E+00 -0.00000000000E+00 -0.74505805969E-08  0.93827000000E+00  0.93827000000E+00 0.  1.
     999902    2    1    2    0    0 -0.17177540815E-01 -0.11239873366E-01  0.12064900031E-01  0.10201189842E+01  0.10198410550E+01 0.  0.
     999903    2    3    3    0    0 -0.11195417589E+00  0.64114949929E-01  0.18335888392E-01  0.13180581573E+00  0.19801614921E-01 0.  0.
         14    1    1    2    0    0  0.17177540815E-01  0.11239873366E-01 -0.12064900031E-01  0.23811015823E-01  0.00000000000E+00 0. -1.
     999901    1    3    3    0    0  0.94776635070E-01 -0.75354823295E-01 -0.62709883612E-02  0.88831316845E+00  0.88000000000E+00 0. -1.
        -11    1    4    4    0    0 -0.69553605574E-01  0.30386466247E-01  0.16014053224E-01  0.77574173544E-01  0.51100000000E-03 0.  1.
         11    1    4    4    0    0 -0.42400570311E-01  0.33728483682E-01  0.23218351678E-02  0.54231642182E-01  0.51100000000E-03 0. -1.
</event>
<event>
 8    1  0.1233916E+005  0.1043930E+01  0.7957747E-01            NaN
         13   -1    0    0    0    0  0.00000000000E+00  0.00000000000E+00  0.74505805969E-08  0.10566000000E+00  0.10566000000E+00 0.  1.
     999900   -1    0    0    0    0 -0.00000000000E+00 -0.00000000000E+00 -0.74505805969E-08  0.93827000000E+00  0.93827000000E+00 0. -1.
     999902    2    1    2    0    0  0.35662693488E-02  0.21911672311E-01  0.78812723328E-02  0.10203725359E+01  0.10201005627E+01 0.  0.
     999903    2    3    3    0    0  0.12104043919E+00  0.55247312684E-02  0.47389799480E-01  0.13153642271E+00  0.19357862225E-01 0.  0.
         14    1    1    2    0    0 -0.35662693488E-02 -0.21911672311E-01 -0.78812723328E-02  0.23557464085E-01  0.00000000000E+00 0. -1.
     999901    1    3    3    0    0 -0.11747416984E+00  0.16386941042E-01 -0.39508527147E-01  0.88883611320E+00  0.88000000000E+00 0. -1.
        -11    1    4    4    0    0  0.97611419765E-01 -0.24789452549E-02  0.34067169593E-01  0.10341647646E+00  0.51100000000E-03 0. -1.
         11    1    4    4    0    0  0.23429019426E-01  0.80036765233E-02  0.13322629887E-01  0.28119946253E-01  0.51100000000E-03 0.  1.
</event>
<event>
 8    1  0.1233916E+005  0.1043930E+01  0.7957747E-01            NaN
         13   -1    0    0    0    0  0.00000000000E+00  0.00000000000E+00  0.74505805969E-08  0.10566000000E+00  0.10566000000E+00 0.  1.
     999900   -1    0    0    0    0 -0.00000000000E+00 -0.00000000000E+00 -0.74505805969E-08  0.93827000000E+00  0.93827000000E+00 0.  1.
     999902    2    1    2    0    0  0.20792321080E-01  0.92222765568E-02 -0.45287524309E-02  0.10207377470E+01  0.10204742366E+01 0.  0.
     999903    2    3    3    0    0  0.15307535978E-01 -0.10693743583E+00  0.67862924114E-01  0.13014035396E+00  0.25713798255E-01 0.  0.
         14    1    1    2    0    0 -0.20792321080E-01 -0.92222765568E-02  0.45287524309E-02  0.23192253003E-01  0.00000000000E+00 0.  1.
     999901    1    3    3    0    0  0.54847851022E-02  0.11615971239E+00 -0.72391676544E-01  0.89059739304E+00  0.88000000000E+00 0. -1.
        -11    1    4    4    0    0 -0.34388614266E-02 -0.21174024161E-01  0.23344565352E-01  0.31707963031E-01  0.51100000000E-03 0.  1.
         11    1    4    4    0    0  0.18746397404E-01 -0.85763411668E-01  0.44518358761E-01  0.98432390931E-01  0.51100000000E-03 0. -1.
</event>
<event>
 8    1  0.1233916E+005  0.1043930E+01  0.7957747E-01            NaN
         13   -1    0    0    0    0  0.00000000000E+00  0.00000000000E+00  0.74505805969E-08  0.10566000000E+00  0.10566000000E+00 0.  1.
     999900   -1    0    0    0    0 -0.00000000000E+00 -0.00000000000E+00 -0.74505805969E-08  0.93827000000E+00  0.93827000000E+00 0. -1.
     999902    2    1    2    0    0 -0.15299768035E-01  0.10781202756E-01  0.15640097680E-01  0.10195388153E+01  0.10192470093E+01 0.  0.
     999903    2    3    3    0    0  0.84131556632E-01 -0.48298502660E-02  0.96977454861E-01  0.13007489869E+00  0.20332393962E-01 0.  0.
         14    1    1    2    0    0  0.15299768035E-01 -0.10781202756E-01 -0.15640097680E-01  0.24391184682E-01  0.00000000000E+00 0. -1.
     999901    1    3    3    0    0 -0.99431324666E-01  0.15611053022E-01 -0.81337357181E-01  0.88946391662E+00  0.88000000000E+00 0. -1.
        -11    1    4    4    0    0  0.16996523941E-01 -0.82461490241E-02  0.27795641427E-01  0.33611599235E-01  0.51100000000E-03 0.  1.
         11    1    4    4    0    0  0.67135032690E-01  0.34162987581E-02  0.69181813434E-01  0.96463299459E-01  0.51100000000E-03 0. -1.
</event>
<event>
 8    1  0.1233916E+005  0.1043930E+01  0.7957747E-01            NaN
         13   -1    0    0    0    0  0.00000000000E+00  0.00000000000E+00  0.74505805969E-08  0.10566000000E+00  0.10566000000E+00 0.  1.
     999900   -1    0    0    0    0 -0.00000000000E+00 -0.00000000000E+00 -0.74505805969E-08  0.93827000000E+00  0.93827000000E+00 0.  1.
     999902    2    1    2    0    0  0.10342514231E-01  0.17713504003E-01  0.11519766804E-01  0.10204046764E+01  0.10201334534E+01 0.  0.
     999903    2    3    3    0    0  0.43588432911E-01 -0.74024952547E-01 -0.93974977681E-01  0.12874870200E+00  0.19112476372E-01 0.  0.
         14    1    1    2    0    0 -0.10342514231E-01 -0.17713504003E-01 -0.11519766804E-01  0.23525323630E-01  0.00000000000E+00 0.  1.
     999901    1    3    3    0    0 -0.33245918679E-01  0.91738456549E-01  0.10549474448E+00  0.89165597437E+00  0.88000000000E+00 0. -1.
        -11    1    4    4    0    0  0.28449600470E-01 -0.63415298413E-01 -0.73643034554E-01  0.10126419653E+00  0.51100000000E-03 0. -1.
         11    1    4    4    0    0  0.15138832440E-01 -0.10609654134E-01 -0.20331943127E-01  0.27484505468E-01  0.51100000000E-03 0.  1.
</event>
<event>
 8    1  0.1233916E+005  0.1043930E+01  0.7957747E-01            NaN
         13   -1    0    0    0    0  0.00000000000E+00  0.00000000000E+00  0.74505805969E-08  0.10566000000E+00  0.10566000000E+00 0.  1.
     999900   -1    0    0    0    0 -0.00000000000E+00 -0.00000000000E+00 -0.74505805969E-08  0.93827000000E+00  0.93827000000E+00 0. -1.
     999902    2    1    2    0    0 -0.14563267365E-01 -0.18710775669E-01 -0.22876512396E-02  0.10201095208E+01  0.10198313680E+01 0.  0.
     999903    2    3    3    0    0 -0.86485515185E-01 -0.74556653902E-01 -0.65498483279E-01  0.13315564309E+00  0.20048316561E-01 0.  0.
         14    1    1    2    0    0  0.14563267365E-01  0.18710775669E-01  0.22876512396E-02  0.23820479228E-01  0.00000000000E+00 0.  1.
     999901    1    3    3    0    0  0.71922247820E-01  0.55845878234E-01  0.63210832039E-01  0.88695387768E+00  0.88000000000E+00 0.  1.
        -11    1    4    4    0    0 -0.47004232923E-01 -0.37117027008E-01 -0.45373139183E-01  0.75140232146E-01  0.51100000000E-03 0. -1.
         11    1    4    4    0    0 -0.39481282263E-01 -0.37439626895E-01 -0.20125344096E-01  0.58015410945E-01  0.51100000000E-03 0.  1.
</event>
<event>
 8    1  0.1233916E+005  0.1043930E+01  0.7957747E-01            NaN
         13   -1    0    0    0    0  0.00000000000E+00  0.00000000000E+00  0.74505805969E-08  0.10566000000E+00  0.10566000000E+00 0.  1.
     999900   -1    0    0    0    0 -0.00000000000E+00 -0.00000000000E+00 -0.74505805969E-08  0.93827000000E+00  0.93827000000E+00 0. -1.
     999902    2    1    2    0    0 -0.98466594073E-02 -0.33162521414E-02 -0.19722331440E-01  0.10216381946E+01  0.10213949658E+01 0.  0.
     999903    2    3    3    0    0 -0.96451038141E-01  0.87263062460E-02  0.86028542407E-01  0.13100438157E+00  0.19552153392E-01 0.  0.
         14    1    1    2    0    0  0.98466594073E-02  0.33162521414E-02  0.19722331440E-01  0.22291805382E-01  0.00000000000E+00 0.  1.
     999901    1    3    3    0    0  0.86604378733E-01 -0.12042558387E-01 -0.10575087385E+00  0.89063381305E+00  0.88000000000E+00 0. -1.
        -11    1    4    4    0    0 -0.60338151497E-01  0.14783519712E-01  0.56187222884E-01  0.83764611367E-01  0.51100000000E-03 0. -1.
         11    1    4    4    0    0 -0.36112886644E-01 -0.60572134664E-02  0.29841319523E-01  0.47239770201E-01  0.51100000000E-03 0.  1.
</event>
<event>
 8    1  0.1233916E+005  0.1043930E+01  0.7957747E-01            NaN
         13   -1    0    0    0    0  0.00000000000E+00  0.00000000000E+00  0.74505805969E-08  0.10566000000E+00  0.10566000000E+00 0.  1.
     999900   -1    0    0    0    0 -0.00000000000E+00 -0.00000000000E+00 -0.74505805969E-08  0.93827000000E+00  0.93827000000E+00 0.  1.
     999902    2    1    2    0    0  0.12565785659E-01 -0.14026926668E-01 -0.15463376752E-01  0.10195626107E+01  0.10192713807E+01 0.  0.
     999903    2    3    3    0    0  0.10369903305E+00 -0.45366671468E-01  0.62631585142E-01  0.13086340880E+00  0.19770988079E-01 0.  0.
         14    1    1    2    0    0 -0.12565785659E-01  0.14026926668E-01  0.15463376752E-01  0.24367389305E-01  0.00000000000E+00 0. -1.
     999901    1    3    3    0    0 -0.91133247387E-01  0.31339744800E-01 -0.78094961894E-01  0.88869920190E+00  0.88000000000E+00 0.  1.
        -11    1    4    4    0    0  0.61836201579E-01 -0.19705088721E-01  0.27512019115E-01  0.70492401462E-01  0.51100000000E-03 0.  1.
         11    1    4    4    0    0  0.41862831467E-01 -0.25661582747E-01  0.35119566027E-01  0.60371007333E-01  0.51100000000E-03 0. -1.
</event>
<event>
 8    1  0.1233916E+005  0.1043930E+01  0.7957747E-01            NaN
         13   -1    0    0    0    0  0.00000000000E+00  0.00000000000E+00  0.74505805969E-08  0.10566000000E+00  0.10566000000E+00 0.  1.
     999900   -1    0    0    0    0 -0.00000000000E+00 -0.00000000000E+00 -0.74505805969E-08  0.93827000000E+00  0.93827000000E+00 0. -1.
     999902    2    1    2    0    0  0.20107126300E-01  0.96039578903E-02 -0.66575659000E-02  0.10206736951E+01  0.10204087103E+01 0.  0.
     999903    2    3    3    0    0  0.38011372072E-01  0.97820036438E-01  0.77735677872E-01  0.13206531219E+00  0.19615991805E-01 0.  0.
         14    1    1    2    0    0 -0.20107126300E-01 -0.96039578903E-02  0.66575659000E-02  0.23256304929E-01  0.00000000000E+00 0.  1.
     999901    1    3    3    0    0 -0.17904245771E-01 -0.88216078548E-01 -0.84393243772E-01  0.88860838288E+00  0.88000000000E+00 0. -1.
        -11    1    4    4    0    0  0.82683548653E-02  0.98479953593E-02  0.16081960860E-01  0.20597069958E-01  0.51100000000E-03 0. -1.
         11    1    4    4    0    0  0.29743017206E-01  0.87972041079E-01  0.61653717012E-01  0.11146824223E+00  0.51100000000E-03 0.  1.
</event>
<event>
 8    1  0.1233916E+005  0.1043930E+01  0.7957747E-01            NaN
         13   -1    0    0    0    0  0.00000000000E+00  0.00000000000E+00  0.74505805969E-08  0.10566000000E+00  0.10566000000E+00 0. -1.
     999900   -1    0    0    0    0 -0.00000000000E+00 -0.00000000000E+00 -0.74505805969E-08  0.93827000000E+00  0.93827000000E+00 0. -1.
     999902    2    1    2    0    0 -0.11249059231E-02  0.21462972389E-01 -0.13281826550E-01  0.10186647766E+01  0.10183514106E+01 0.  0.
     999903    2    3    3    0    0 -0.71016013660E-01 -0.39129650934E-01 -0.99240600237E-01  0.12965119756E+00  0.19655343153E-01 0.  0.
         14    1    1    2    0    0  0.11249059231E-02 -0.21462972389E-01  0.13281826550E-01  0.25265223403E-01  0.00000000000E+00 0. -1.
     999901    1    3    3    0    0  0.69891107737E-01  0.60592623323E-01  0.85958773686E-01  0.88901357904E+00  0.88000000000E+00 0.  1.
        -11    1    4    4    0    0 -0.37349116224E-01 -0.16052185500E-01 -0.63476144008E-01  0.75379779259E-01  0.51100000000E-03 0. -1.
         11    1    4    4    0    0 -0.33666897436E-01 -0.23077465434E-01 -0.35764456229E-01  0.54271418299E-01  0.51100000000E-03 0.  1.
</event>
<event>
 8    1  0.1233916E+005  0.1043930E+01  0.7957747E-01            NaN
         13   -1    0    0    0    0  0.00000000000E+00  0.00000000000E+00  0.74505805969E-08  0.10566000000E+00  0.10566000000E+00 0. -1.
     999900   -1    0    0    0    0 -0.00000000000E+00 -0.00000000000E+00 -0.74505805969E-08  0.93827000000E+00  0.93827000000E+00 0. -1.
     999902    2    1    2    0    0  0.86489439793E-03 -0.13020598982E-02  0.23576540635E-01  0.10203016977E+01  0.10200280671E+01 0.  0.
     999903    2    3    3    0    0 -0.11340257426E+00 -0.80926902174E-02  0.65335704335E-01  0.13190595545E+00  0.14310532405E-01 0.  0.
         14    1    1    2    0    0 -0.86489439793E-03  0.13020598982E-02 -0.23576540635E-01  0.23628302321E-01  0.00000000000E+00 0.  1.
     999901    1    3    3    0    0  0.11426746866E+00  0.67906303191E-02 -0.41759163700E-01  0.88839574223E+00  0.88000000000E+00 0. -1.
        -11    1    4    4    0    0 -0.46087384611E-01  0.20918162281E-02  0.31609738001E-01  0.55927268599E-01  0.51100000000E-03 0. -1.
         11    1    4    4    0    0 -0.67315189654E-01 -0.10184506445E-01  0.33725966334E-01  0.75978686852E-01  0.51100000000E-03 0.  1.
</event>
<event>
 8    1  0.1233916E+005  0.1043930E+01  0.7957747E-01            NaN
         13   -1    0    0    0    0  0.00000000000E+00  0.00000000000E+00  0.74505805969E-08  0.10566000000E+00  0.10566000000E+00 0.  1.
     999900   -1    0    0    0    0 -0.00000000000E+00 -0.00000000000E+00 -0.74505805969E-08  0.93827000000E+00  0.93827000000E+00 0. -1.
     999902    2    1    2    0    0  0.50433276499E-02  0.28011440666E-03  0.22832146880E-01  0.10205458056E+01  0.10202778645E+01 0.  0.
     999903    2    3    3    0    0 -0.11271026662E+00  0.42370990487E-01 -0.42467993228E-01  0.12930977673E+00  0.20459297970E-01 0.  0.
         14    1    1    2    0    0 -0.50433276499E-02 -0.28011440666E-03 -0.22832146880E-01  0.23384194428E-01  0.00000000000E+00 0. -1.
     999901    1    3    3    0    0  0.11775359427E+00 -0.42090876081E-01  0.65300140108E-01  0.89123602884E+00  0.88000000000E+00 0.  1.
        -11    1    4    4    0    0 -0.70433428267E-01  0.22871653918E-01 -0.35867687106E-01  0.82284460682E-01  0.51100000000E-03 0. -1.
         11    1    4    4    0    0 -0.42276838348E-01  0.19499336569E-01 -0.66003061213E-02  0.47025316046E-01  0.51100000000E-03 0.  1.
</event>
<event>
 8    1  0.1233916E+005  0.1043930E+01  0.7957747E-01            NaN
         13   -1    0    0    0    0  0.00000000000E+00  0.00000000000E+00  0.74505805969E-08  0.10566000000E+00  0.10566000000E+00 0.  1.
     999900   -1    0    0    0    0 -0.00000000000E+00 -0.00000000000E+00 -0.74505805969E-08  0.93827000000E+00  0.93827000000E+00 0.  1.
     999902    2    1    2    0    0  0.17770112281E-01  0.10058536823E-01 -0.92759128860E-02  0.10215024809E+01  0.10212562484E+01 0.  0.
     999903    2    3    3    0    0  0.13082951319E+00  0.21518475929E-01 -0.27340611570E-02  0.13417133968E+00  0.20373192491E-01 0.  0.
         14    1    1    2    0    0 -0.17770112281E-01 -0.10058536823E-01  0.92759128860E-02  0.22427519109E-01  0.00000000000E+00 0.  1.
     999901    1    3    3    0    0 -0.11305940091E+00 -0.11459939106E-01 -0.65418517290E-02  0.88733114121E+00  0.88000000000E+00 0. -1.
        -11    1    4    4    0    0  0.86876837073E-01  0.23658163323E-01  0.52050739848E-03  0.90043464841E-01  0.51100000000E-03 0. -1.
         11    1    4    4    0    0  0.43952676121E-01 -0.21396873939E-02 -0.32545685555E-02  0.44127874839E-01  0.51100000000E-03 0.  1.
</event>
<event>
 8    1  0.1233916E+005  0.1043930E+01  0.7957747E-01            NaN
         13   -1    0    0    0    0  0.00000000000E+00  0.00000000000E+00  0.74505805969E-08  0.10566000000E+00  0.10566000000E+00 0. -1.
     999900   -1    0    0    0    0 -0.00000000000E+00 -0.00000000000E+00 -0.74505805969E-08  0.93827000000E+00  0.93827000000E+00 0. -1.
     999902    2    1    2    0    0  0.19321077317E-01 -0.84419037870E-02 -0.17997385334E-01  0.10162086067E+01  0.10158304271E+01 0.  0.
     999903    2    3    3    0    0 -0.61569376278E-01  0.10382490758E+00  0.22818801695E-01  0.12446140959E+00  0.19988627698E-01 0.  0.
         14    1    1    2    0    0 -0.19321077317E-01  0.84419037870E-02  0.17997385334E-01  0.27721393311E-01  0.00000000000E+00 0. -1.
     999901    1    3    3    0    0  0.80890453595E-01 -0.11226681136E+00 -0.40816187029E-01  0.89174719710E+00  0.88000000000E+00 0. -1.
        -11    1    4    4    0    0 -0.48690956143E-01  0.90470409878E-01  0.25095560180E-01  0.10576271808E+00  0.51100000000E-03 0. -1.
         11    1    4    4    0    0 -0.12878420135E-01  0.13354497698E-01 -0.22767584850E-02  0.18698691509E-01  0.51100000000E-03 0.  1.
</event>
<event>
 8    1  0.1233916E+005  0.1043930E+01  0.7957747E-01            NaN
         13   -1    0    0    0    0  0.00000000000E+00  0.00000000000E+00  0.74505805969E-08  0.10566000000E+00  0.10566000000E+00 0.  1.
     999900   -1    0    0    0    0 -0.00000000000E+00 -0.00000000000E+00 -0.74505805969E-08  0.93827000000E+00  0.93827000000E+00 0. -1.
     999902    2    1    2    0    0 -0.88428099569E-02  0.22426763068E-01  0.58501740177E-03  0.10198157462E+01  0.10195306072E+01 0.  0.
     999903    2    3    3    0    0  0.98282015851E-02 -0.12152425570E+00 -0.29524699902E-01  0.12741611739E+00  0.22325339749E-01 0.  0.
         14    1    1    2    0    0  0.88428099569E-02 -0.22426763068E-01 -0.58501740177E-03  0.24114253772E-01  0.00000000000E+00 0.  1.
     999901    1    3    3    0    0 -0.18671011542E-01  0.14395101877E+00  0.30109717304E-01  0.89239962884E+00  0.88000000000E+00 0.  1.
        -11    1    4    4    0    0  0.12985938279E-02 -0.16771273436E-01  0.36173054039E-02  0.17213598635E-01  0.51100000000E-03 0.  1.
         11    1    4    4    0    0  0.85296077572E-02 -0.10475298227E+00 -0.33142005306E-01  0.11020251875E+00  0.51100000000E-03 0. -1.
</event>
<event>
 8    1  0.1233916E+005  0.1043930E+01  0.7957747E-01            NaN
         13   -1    0    0    0    0  0.00000000000E+00  0.00000000000E+00  0.74505805969E-08  0.10566000000E+00  0.10566000000E+00 0.  1.
     999900   -1    0    0    0    0 -0.00000000000E+00 -0.00000000000E+00 -0.74505805969E-08  0.93827000000E+00  0.93827000000E+00 0. -1.
     999902    2    1    2    0    0  0.17357361636E-01 -0.74465026254E-02 -0.14461995741E-01  0.10201418154E+01  0.10198644252E+01 0.  0.
     999903    2    3    3    0    0  0.10088859840E+00  0.73073086016E-01 -0.39541523012E-01  0.13217230336E+00  0.19692652119E-01 0.  0.
         14    1    1    2    0    0 -0.17357361636E-01  0.74465026254E-02  0.14461995741E-01  0.23788184570E-01  0.00000000000E+00 0.  1.
     999901    1    3    3    0    0 -0.83531236764E-01 -0.80519588642E-01  0.25079527271E-01  0.88796951207E+00  0.88000000000E+00 0. -1.
        -11    1    4    4    0    0  0.61640348301E-01  0.38190642526E-01 -0.14307333134E-01  0.73912235913E-01  0.51100000000E-03 0.  1.
         11    1    4    4    0    0  0.39248250099E-01  0.34882443490E-01 -0.25234189878E-01  0.58260067452E-01  0.51100000000E-03 0. -1.
</event>
<event>
 8    1  0.1233916E+005  0.1043930E+01  0.7957747E-01            NaN
         13   -1    0    0    0    0  0.00000000000E+00  0.00000000000E+00  0.74505805969E-08  0.10566000000E+00  0.10566000000E+00 0. -1.
     999900   -1    0    0    0    0 -0.00000000000E+00 -0.00000000000E+00 -0.74505805969E-08  0.93827000000E+00  0.93827000000E+00 0.  1.
     999902    2    1    2    0    0 -0.44534754410E-02  0.10937237284E-01 -0.20021914534E-01  0.10206849217E+01  0.10204201957E+01 0.  0.
     999903    2    3    3    0    0 -0.22311858269E-01 -0.11369679926E+00  0.52576846285E-01  0.12876387982E+00  0.19774498723E-01 0.  0.
         14    1    1    2    0    0  0.44534754410E-02 -0.10937237284E-01  0.20021914534E-01  0.23245078286E-01  0.00000000000E+00 0. -1.
     999901    1    3    3    0    0  0.17858382828E-01  0.12463403654E+00 -0.72598760819E-01  0.89192104189E+00  0.88000000000E+00 0.  1.
        -11    1    4    4    0    0 -0.38436828320E-02 -0.47519793847E-02  0.67988786432E-02  0.91564773571E-02  0.51100000000E-03 0. -1.
         11    1    4    4    0    0 -0.18468175437E-01 -0.10894481987E+00  0.45777967642E-01  0.11960740246E+00  0.51100000000E-03 0.  1.
</event>
<event>
 8    1  0.1233916E+005  0.1043930E+01  0.7957747E-01            NaN
         13   -1    0    0    0    0  0.00000000000E+00  0.00000000000E+00  0.74505805969E-08  0.10566000000E+00  0.10566000000E+00 0.  1.
     999900   -1    0    0    0    0 -0.00000000000E+00 -0.00000000000E+00 -0.74505805969E-08  0.93827000000E+00  0.93827000000E+00 0. -1.
     999902    2    1    2    0    0  0.13310570443E-01  0.18084230133E-01  0.78580963927E-02  0.10201400789E+01  0.10198626478E+01 0.  0.
     999903    2    3    3    0    0 -0.12542030754E+00  0.39791061957E-02  0.22771755989E-01  0.12903535543E+00  0.19633727378E-01 0.  0.
         14    1    1    2    0    0 -0.13310570443E-01 -0.18084230133E-01 -0.78580963927E-02  0.23789921058E-01  0.00000000000E+00 0.  1.
     999901    1    3    3    0    0  0.13873087798E+00  0.14105123937E-01 -0.14913659596E-01  0.89110472351E+00  0.88000000000E+00 0. -1.
        -11    1    4    4    0    0 -0.95639616130E-01  0.34834464579E-02  0.25721160199E-01  0.99100503408E-01  0.51100000000E-03 0.  1.
         11    1    4    4    0    0 -0.29780691407E-01  0.49565973774E-03 -0.29494042101E-02  0.29934852020E-01  0.51100000000E-03 0. -1.
</event>
<event>
 8    1  0.1233916E+005  0.1043930E+01  0.7957747E-01            NaN
         13   -1    0    0    0    0  0.00000000000E+00  0.00000000000E+00  0.74505805969E-08  0.10566000000E+00  0.10566000000E+00 0. -1.
     999900   -1    0    0    0    0 -0.00000000000E+00 -0.00000000000E+00 -0.74505805969E-08  0.93827000000E+00  0.93827000000E+00 0. -1.
     999902    2    1    2    0    0  0.19397009309E-01  0.94032038247E-02  0.10106404807E-01  0.10201223619E+01  0.10198445125E+01 0.  0.
     999903    2    3    3    0    0 -0.89364698537E-01 -0.83633172290E-01 -0.30364799953E-01  0.12764110454E+00  0.19740153013E-01 0.  0.
         14    1    1    2    0    0 -0.19397009309E-01 -0.94032038247E-02 -0.10106404807E-01  0.23807638069E-01  0.00000000000E+00 0.  1.
     999901    1    3    3    0    0  0.10876170785E+00  0.93036376115E-01  0.40471204760E-01  0.89248125739E+00  0.88000000000E+00 0. -1.
        -11    1    4    4    0    0 -0.42830533712E-01 -0.34238366640E-01 -0.22688157404E-01  0.59344199174E-01  0.51100000000E-03 0. -1.
         11    1    4    4    0    0 -0.46534164825E-01 -0.49394805651E-01 -0.76766425482E-02  0.68296905369E-01  0.51100000000E-03 0.  1.
</event>
<event>
 8    1  0.1233916E+005  0.1043930E+01  0.7957747E-01            NaN
         13   -1    0    0    0    0  0.00000000000E+00  0.00000000000E+00  0.74505805969E-08  0.10566000000E+00  0.10566000000E+00 0. -1.
     999900   -1    0    0    0    0 -0.00000000000E+00 -0.00000000000E+00 -0.74505805969E-08  0.93827000000E+00  0.93827000000E+00 0.  1.
     999902    2    1    2    0    0 -0.22262308274E-01 -0.12602602489E-01 -0.64419035915E-02  0.10175494374E+01  0.10172074142E+01 0.  0.
     999903    2    3    3    0    0 -0.44770715520E-01 -0.12084852470E+00 -0.77724886561E-02  0.13063028750E+00  0.19876557612E-01 0.  0.
         14    1    1    2    0    0  0.22262308274E-01  0.12602602489E-01  0.64419035915E-02  0.26380562561E-01  0.00000000000E+00 0. -1.
     999901    1    3    3    0    0  0.22508407246E-01  0.10824592221E+00  0.13305850647E-02  0.88691914994E+00  0.88000000000E+00 0. -1.
        -11    1    4    4    0    0 -0.33367780647E-01 -0.82237070635E-01  0.34985704743E-02  0.88819174102E-01  0.51100000000E-03 0.  1.
         11    1    4    4    0    0 -0.11402934873E-01 -0.38611454063E-01 -0.11271059130E-01  0.41811113397E-01  0.51100000000E-03 0. -1.
</event>
<event>
 8    1  0.1233916E+005  0.1043930E+01  0.7957747E-01            NaN
         13   -1    0    0    0    0  0.00000000000E+00  0.00000000000E+00  0.74505805969E-08  0.10566000000E+00  0.10566000000E+00 0. -1.
     999900   -1    0    0    0    0 -0.00000000000E+00 -0.00000000000E+00 -0.74505805969E-08  0.93827000000E+00  0.93827000000E+00 0. -1.
     999902    2    1    2    0    0  0.57798305676E-02  0.17037951519E-01  0.15786782980E-01  0.10199942370E+01  0.10197133532E+01 0.  0.
     999903    2    3    3    0    0 -0.92986049895E-01  0.90433945331E-01 -0.37582615585E-02  0.13121772977E+00  0.19474704927E-01 0.  0.
         14    1    1    2    0    0 -0.57798305676E-02 -0.17037951519E-01 -0.15786782980E-01  0.23935762996E-01  0.00000000000E+00 0. -1.
     999901    1    3    3    0    0  0.98765880462E-01 -0.73395993812E-01  0.19545044539E-01  0.88877650724E+00  0.88000000000E+00 0. -1.
        -11    1    4    4    0    0 -0.21150165435E-01  0.25566512879E-01  0.67299498908E-02  0.33860440417E-01  0.51100000000E-03 0.  1.
         11    1    4    4    0    0 -0.71835884460E-01  0.64867432451E-01 -0.10488211449E-01  0.97357289349E-01  0.51100000000E-03 0. -1.
</event>
<event>
 8    1  0.1233916E+005  0.1043930E+01  0.7957747E-01            NaN
         13   -1    0    0    0    0  0.00000000000E+00  0.00000000000E+00  0.74505805969E-08  0.10566000000E+00  0.10566000000E+00 0. -1.
     999900   -1    0    0    0    0 -0.00000000000E+00 -0.00000000000E+00 -0.74505805969E-08  0.93827000000E+00  0.93827000000E+00 0. -1.
     999902    2    1    2    0    0  0.20345881215E-02  0.11703239472E-01 -0.18533111617E-01  0.10219167860E+01  0.10216796641E+01 0.  0.
     999903    2    3    3    0    0 -0.36587120887E-01 -0.38063273939E-01 -0.12084887074E+00  0.13375190448E+00  0.22309015078E-01 0.  0.
         14    1    1    2    0    0 -0.20345881215E-02 -0.11703239472E-01  0.18533111617E-01  0.22013213967E-01  0.00000000000E+00 0. -1.
     999901    1    3    3    0    0  0.38621709009E-01  0.49766513411E-01  0.10231575913E+00  0.88816488156E+00  0.88000000000E+00 0.  1.
        -11    1    4    4    0    0 -0.27025824006E-01 -0.26629483842E-01 -0.59136911175E-01  0.70263503736E-01  0.51100000000E-03 0.  1.
         11    1    4    4    0    0 -0.95612968810E-02 -0.11433790097E-01 -0.61711959568E-01  0.63488400741E-01  0.51100000000E-03 0. -1.
</event>
<event>
 8    1  0.1233916E+005  0.1043930E+01  0.7957747E-01            NaN
         13   -1    0    0    0    0  0.00000000000E+00  0.00000000000E+00  0.74505805969E-08  0.10566000000E+00  0.10566000000E+00 0.  1.
     999900   -1    0    0    0    0 -0.00000000000E+00 -0.00000000000E+00 -0.74505805969E-08  0.93827000000E+00  0.93827000000E+00 0. -1.
     999902    2    1    2    0    0  0.12525261369E-01 -0.84868772947E-02 -0.18265229096E-01  0.10202123304E+01  0.10199366016E+01 0.  0.
     999903    2    3    3    0    0 -0.10737642191E+00  0.18146312982E-01 -0.68655170009E-01  0.13025452990E+00  0.19842518338E-01 0.  0.
         14    1    1    2    0    0 -0.12525261369E-01  0.84868772947E-02  0.18265229096E-01  0.23717669626E-01  0.00000000000E+00 0.  1.
     999901    1    3    3    0    0  0.11990168328E+00 -0.26633190277E-01  0.50389940913E-01  0.88995780047E+00  0.88000000000E+00 0. -1.
        -11    1    4    4    0    0 -0.86873444520E-01  0.10320457396E-01 -0.62300047244E-01  0.10740141624E+00  0.51100000000E-03 0. -1.
         11    1    4    4    0    0 -0.20502977389E-01  0.78258555859E-02 -0.63551227648E-02  0.22853113657E-01  0.51100000000E-03 0.  1.
</event>
<event>
 8    1  0.1233916E+005  0.1043930E+01  0.7957747E-01            NaN
         13   -1    0    0    0    0  0.00000000000E+00  0.00000000000E+00  0.74505805969E-08  0.10566000000E+00  0.10566000000E+00 0. -1.
     999900   -1    0    0    0    0 -0.00000000000E+00 -0.00000000000E+00 -0.74505805969E-08  0.93827000000E+00  0.93827000000E+00 0.  1.
     999902    2    1    2    0    0  0.67418226533E-02 -0.21510455130E-01  0.45092805084E-02  0.10209411883E+01  0.10206823328E+01 0.  0.
     999903    2    3    3    0    0 -0.11518296587E+00 -0.58635188142E-01  0.15932385549E-01  0.13168622645E+00  0.19550458109E-01 0.  0.
         14    1    1    2    0    0 -0.67418226533E-02  0.21510455130E-01 -0.45092805084E-02  0.22988811698E-01  0.00000000000E+00 0.  1.
     999901    1    3    3    0    0  0.12192478852E+00  0.37124733012E-01 -0.11423105040E-01  0.88925496186E+00  0.88000000000E+00 0.  1.
        -11    1    4    4    0    0 -0.76060778743E-01 -0.47919641468E-01  0.14763739553E-01  0.91103036327E-01  0.51100000000E-03 0.  1.
         11    1    4    4    0    0 -0.39122187122E-01 -0.10715546674E-01  0.11686459952E-02  0.40583190119E-01  0.51100000000E-03 0. -1.
</event>
<event>
 8    1  0.1233916E+005  0.1043930E+01  0.7957747E-01            NaN
         13   -1    0    0    0    0  0.00000000000E+00  0.00000000000E+00  0.74505805969E-08  0.10566000000E+00  0.10566000000E+00 0. -1.
     999900   -1    0    0    0    0 -0.00000000000E+00 -0.00000000000E+00 -0.74505805969E-08  0.93827000000E+00  0.93827000000E+00 0. -1.
     999902    2    1    2    0    0 -0.16829050431E-01 -0.10565206123E-01  0.13559559845E-01  0.10198737704E+01  0.10195900183E+01 0.  0.
     999903    2    3    3    0    0  0.19209487145E-02 -0.99963393610E-01 -0.80778294283E-01  0.13013042027E+00  0.20308208863E-01 0.  0.
         14    1    1    2    0    0  0.16829050431E-01  0.10565206123E-01 -0.13559559845E-01  0.24056229588E-01  0.00000000000E+00 0. -1.
     999901    1    3    3    0    0 -0.18749999145E-01  0.89398187487E-01  0.94337854128E-01  0.88974335014E+00  0.88000000000E+00 0.  1.
        -11    1    4    4    0    0 -0.38020507064E-03 -0.96578719578E-01 -0.72110290746E-01  0.12053111127E+00  0.51100000000E-03 0. -1.
         11    1    4    4    0    0  0.23011537851E-02 -0.33846740321E-02 -0.86680035372E-02  0.95993090046E-02  0.51100000000E-03 0.  1.
</event>
<event>
 8    1  0.1233916E+005  0.1043930E+01  0.7957747E-01            NaN
         13   -1    0    0    0    0  0.00000000000E+00  0.00000000000E+00  0.74505805969E-08  0.10566000000E+00  0.10566000000E+00 0. -1.
     999900   -1    0    0    0    0 -0.00000000000E+00 -0.00000000000E+00 -0.74505805969E-08  0.93827000000E+00  0.93827000000E+00 0. -1.
     999902    2    1    2    0    0  0.15913025535E-01 -0.16366946525E-01 -0.57307592036E-02  0.10203940080E+01  0.10201225361E+01 0.  0.
     999903    2    3    3    0    0  0.12877822293E-01 -0.10589749494E+00  0.76264519071E-01  0.13205389448E+00  0.15551091188E-01 0.  0.
         14    1    1    2    0    0 -0.15913025535E-01  0.16366946525E-01  0.57307592036E-02  0.23535992040E-01  0.00000000000E+00 0.  1.
     999901    1    3    3    0    0  0.30352032425E-02  0.89530548414E-01 -0.81995278274E-01  0.88834011348E+00  0.88000000000E+00 0.  1.
        -11    1    4    4    0    0  0.14906436811E-01 -0.61078126278E-01  0.42252211725E-01  0.75751236852E-01  0.51100000000E-03 0. -1.
         11    1    4    4    0    0 -0.20286145183E-02 -0.44819368661E-01  0.34012307346E-01  0.56302657629E-01  0.51100000000E-03 0.  1.
</event>
<event>
 8    1  0.1233916E+005  0.1043930E+01  0.7957747E-01            NaN
         13   -1    0    0    0    0  0.00000000000E+00  0.00000000000E+00  0.74505805969E-08  0.10566000000E+00  0.10566000000E+00 0. -1.
     999900   -1    0    0    0    0 -0.00000000000E+00 -0.00000000000E+00 -0.74505805969E-08  0.93827000000E+00  0.93827000000E+00 0.  1.
     999902    2    1    2    0    0 -0.11745244800E-01  0.43626009979E-02 -0.20397944698E-01  0.10199913448E+01  0.10197103924E+01 0.  0.
     999903    2    3    3    0    0  0.10208088092E+00  0.33347818883E-01  0.66453361182E-01  0.12794892484E+00  0.20549814651E-01 0.  0.
         14    1    1    2    0    0  0.11745244800E-01 -0.43626009979E-02  0.20397944698E-01  0.23938655158E-01  0.00000000000E+00 0. -1.
     999901    1    3    3    0    0 -0.11382612572E+00 -0.28985217885E-01 -0.86851305881E-01  0.89204242000E+00  0.88000000000E+00 0.  1.
        -11    1    4    4    0    0  0.83393021456E-01  0.27245182759E-01  0.62934560012E-01  0.10797090338E+00  0.51100000000E-03 0.  1.
         11    1    4    4    0    0  0.18687859460E-01  0.61026361234E-02  0.35188011700E-02  0.19978021462E-01  0.51100000000E-03 0. -1.
</event>
<event>
 8    1  0.1233916E+005  0.1043930E+01  0.7957747E-01            NaN
         13   -1    0    0    0    0  0.00000000000E+00  0.00000000000E+00  0.74505805969E-08  0.10566000000E+00  0.10566000000E+00 0. -1.
     999900   -1    0    0    0    0 -0.00000000000E+00 -0.00000000000E+00 -0.74505805969E-08  0.93827000000E+00  0.93827000000E+00 0.  1.
     999902    2    1    2    0    0 -0.43873285149E-02 -0.16428309692E-01  0.16035251027E-01  0.10205576384E+01  0.10202899715E+01 0.  0.
     999903    2    3    3    0    0 -0.40933181402E-01 -0.28685921164E-01 -0.11793513492E+00  0.12958406264E+00  0.19619526737E-01 0.  0.
         14    1    1    2    0    0  0.43873285149E-02  0.16428309692E-01 -0.16035251027E-01  0.23372361591E-01  0.00000000000E+00 0. -1.
     999901    1    3    3    0    0  0.36545852887E-01  0.12257611472E-01  0.13397038595E+00  0.89097357577E+00  0.88000000000E+00 0. -1.
        -11    1    4    4    0    0 -0.36890992879E-01 -0.28008568950E-01 -0.88779589224E-01  0.10013741496E+00  0.51100000000E-03 0.  1.
         11    1    4    4    0    0 -0.40421885221E-02 -0.67735221355E-03 -0.29155545698E-01  0.29446647687E-01  0.51100000000E-03 0. -1.
</event>
<event>
 8    1  0.1233916E+005  0.1043930E+01  0.7957747E-01            NaN
         13   -1    0    0    0    0  0.00000000000E+00  0.00000000000E+00  0.74505805969E-08  0.10566000000E+00  0.10566000000E+00 0. -1.
     999900   -1    0    0    0    0 -0.00000000000E+00 -0.00000000000E+00 -0.74505805969E-08  0.93827000000E+00  0.93827000000E+00 0. -1.
     999902    2    1    2    0    0 -0.80214129619E-02 -0.22782333842E-01  0.73681946269E-04  0.10197766725E+01  0.10194905976E+01 0.  0.
     999903    2    3    3    0    0 -0.15377906372E-01  0.32733214192E-01 -0.12284045711E+00  0.12947111839E+00  0.19106262787E-01 0.  0.
         14    1    1    2    0    0  0.80214129619E-02  0.22782333842E-01 -0.73681946269E-04  0.24153327519E-01  0.00000000000E+00 0. -1.
     999901    1    3    3    0    0  0.73564934103E-02 -0.55515548034E-01  0.12291413906E+00  0.89030555409E+00  0.88000000000E+00 0. -1.
        -11    1    4    4    0    0 -0.16780606524E-01  0.16954996987E-01 -0.88320739729E-01  0.91487020202E-01  0.51100000000E-03 0. -1.
         11    1    4    4    0    0  0.14027001517E-02  0.15778217205E-01 -0.34519717382E-01  0.37984098186E-01  0.51100000000E-03 0.  1.
</event>
<event>
 8    1  0.1233916E+005  0.1043930E+01  0.7957747E-01            NaN
         13   -1    0    0    0    0  0.00000000000E+00  0.00000000000E+00  0.74505805969E-08  0.10566000000E+00  0.10566000000E+00 0.  1.
     999900   -1    0    0    0    0 -0.00000000000E+00 -0.00000000000E+00 -0.74505805969E-08  0.93827000000E+00  0.93827000000E+00 0. -1.
     999902    2    1    2    0    0 -0.18105002777E-01  0.12508166969E-01 -0.46160495867E-02  0.10214454880E+01  0.10211979885E+01 0.  0.
     999903    2    3    3    0    0 -0.12597085907E+00 -0.39668671479E-01  0.73441817242E-02  0.13324477162E+00  0.16061485873E-01 0.  0.
         14    1    1    2    0    0  0.18105002777E-01 -0.12508166969E-01  0.46160495867E-02  0.22484512008E-01  0.00000000000E+00 0.  1.
     999901    1    3    3    0    0  0.10786585629E+00  0.52176838449E-01 -0.11960231311E-01  0.88820071637E+00  0.88000000000E+00 0.  1.
        -11    1    4    4    0    0 -0.99467844990E-01 -0.24585486979E-01  0.76121599373E-02  0.10274485124E+00  0.51100000000E-03 0. -1.
         11    1    4    4    0    0 -0.26503014078E-01 -0.15083184501E-01 -0.26797821310E-03  0.30499920380E-01  0.51100000000E-03 0.  1.
</event>
<event>
 8    1  0.1233916E+005  0.1043930E+01  0.7957747E-01            NaN
         13   -1    0    0    0    0  0.00000000000E+00  0.00000000000E+00  0.74505805969E-08  0.10566000000E+00  0.10566000000E+00 0. -1.
     999900   -1    0    0    0    0 -0.00000000000E+00 -0.00000000000E+00 -0.74505805969E-08  0.93827000000E+00  0.93827000000E+00 0.  1.
     999902    2    1    2    0    0  0.38582055365E-02  0.20968858286E-01  0.11056181081E-01  0.10199129663E+01  0.10196301491E+01 0.  0.
     999903    2    3    3    0    0 -0.12129704830E+00  0.40088336014E-01  0.20325367027E-01  0.13080368741E+00  0.19401945394E-01 0.  0.
         14    1    1    2    0    0 -0.38582055365E-02 -0.20968858286E-01 -0.11056181081E-01  0.24017033702E-01  0.00000000000E+00 0.  1.
     999901    1    3    3    0    0  0.12515525384E+00 -0.19119477728E-01 -0.92691859464E-02  0.88910927889E+00  0.88000000000E+00 0.  1.
        -11    1    4    4    0    0 -0.35172882352E-01  0.88717827305E-02  0.14308458517E-01  0.38997862607E-01  0.51100000000E-03 0.  1.
         11    1    4    4    0    0 -0.86124165949E-01  0.31216553283E-01  0.60169085104E-02  0.91805824806E-01  0.51100000000E-03 0. -1.
</event>
<event>
 8    1  0.1233916E+005  0.1043930E+01  0.7957747E-01            NaN
         13   -1    0    0    0    0  0.00000000000E+00  0.00000000000E+00  0.74505805969E-08  0.10566000000E+00  0.10566000000E+00 0. -1.
     999900   -1    0    0    0    0 -0.00000000000E+00 -0.00000000000E+00 -0.74505805969E-08  0.93827000000E+00  0.93827000000E+00 0. -1.
     999902    2    1    2    0    0 -0.62468232536E-02  0.19669172642E-01 -0.10912708432E-01  0.10205850571E+01  0.10203180251E+01 0.  0.
     999903    2    3    3    0    0  0.66859873080E-01  0.45997557805E-01 -0.10249962133E+00  0.13242632382E+00  0.21084138919E-01 0.  0.
         14    1    1    2    0    0  0.62468232536E-02 -0.19669172642E-01  0.10912708432E-01  0.23344942890E-01  0.00000000000E+00 0. -1.
     999901    1    3    3    0    0 -0.73106696333E-01 -0.26328385162E-01  0.91586912899E-01  0.88815873330E+00  0.88000000000E+00 0.  1.
        -11    1    4    4    0    0  0.52725775745E-01  0.27837844349E-01 -0.63240040561E-01  0.86916723690E-01  0.51100000000E-03 0.  1.
         11    1    4    4    0    0  0.14134097334E-01  0.18159713456E-01 -0.39259580771E-01  0.45509600125E-01  0.51100000000E-03 0. -1.
</event>
<event>
 8    1  0.1233916E+005  0.1043930E+01  0.7957747E-01            NaN
         13   -1    0    0    0    0  0.00000000000E+00  0.00000000000E+00  0.74505805969E-08  0.10566000000E+00  0.10566000000E+00 0.  1.
     999900   -1    0    0    0    0 -0.00000000000E+00 -0.00000000000E+00 -0.74505805969E-08  0.93827000000E+00  0.93827000000E+00 0.  1.
     999902    2    1    2    0    0  0.87387711319E-02  0.32242618769E-02  0.21698746051E-01  0.10203164961E+01  0.10200432122E+01 0.  0.
     999903    2    3    3    0    0  0.10246337030E+00 -0.53639173452E-01  0.61767723259E-01  0.13260974628E+00  0.19854218423E-01 0.  0.
         14    1    1    2    0    0 -0.87387711319E-02 -0.32242618769E-02 -0.21698746051E-01  0.23613503885E-01  0.00000000000E+00 0. -1.
     999901    1    3    3    0    0 -0.93724599173E-01  0.56863435329E-01 -0.40068977208E-01  0.88770674983E+00  0.88000000000E+00 0.  1.
        -11    1    4    4    0    0  0.50444335469E-01 -0.16908711120E-01  0.33972996063E-01  0.63126548101E-01  0.51100000000E-03 0.  1.
         11    1    4    4    0    0  0.52019034836E-01 -0.36730462332E-01  0.27794727196E-01  0.69483198179E-01  0.51100000000E-03 0. -1.
</event>
<event>
 8    1  0.1233916E+005  0.1043930E+01  0.7957747E-01            NaN
         13   -1    0    0    0    0  0.00000000000E+00  0.00000000000E+00  0.74505805969E-08  0.10566000000E+00  0.10566000000E+00 0.  1.
     999900   -1    0    0    0    0 -0.00000000000E+00 -0.00000000000E+00 -0.74505805969E-08  0.93827000000E+00  0.93827000000E+00 0.  1.
     999902    2    1    2    0    0  0.21254594195E-01 -0.45947135153E-02  0.69605850180E-02  0.10210975908E+01  0.10208422851E+01 0.  0.
     999903    2    3    3    0    0  0.27627103469E-01  0.12120015774E+00 -0.36412182401E-01  0.13107166113E+00  0.20029933621E-01 0.  0.
         14    1    1    2    0    0 -0.21254594195E-01  0.45947135153E-02 -0.69605850180E-02  0.22832409213E-01  0.00000000000E+00 0. -1.
     999901    1    3    3    0    0 -0.63725092741E-02 -0.12579487126E+00  0.43372767419E-01  0.89002592966E+00  0.88000000000E+00 0.  1.
        -11    1    4    4    0    0  0.17925780726E-01  0.90215616622E-01 -0.17941682204E-01  0.93714226127E-01  0.51100000000E-03 0. -1.
         11    1    4    4    0    0  0.97013227429E-02  0.30984541121E-01 -0.18470500197E-01  0.37357435002E-01  0.51100000000E-03 0.  1.
</event>
<event>
 8    1  0.1233916E+005  0.1043930E+01  0.7957747E-01            NaN
         13   -1    0    0    0    0  0.00000000000E+00  0.00000000000E+00  0.74505805969E-08  0.10566000000E+00  0.10566000000E+00 0.  1.
     999900   -1    0    0    0    0 -0.00000000000E+00 -0.00000000000E+00 -0.74505805969E-08  0.93827000000E+00  0.93827000000E+00 0. -1.
     999902    2    1    2    0    0 -0.82523387918E-02  0.74300029586E-02  0.20346779682E-01  0.10207503218E+01  0.10204871003E+01 0.  0.
     999903    2    3    3    0    0 -0.12147483087E+00 -0.35938267809E-01 -0.27680203190E-01  0.13113988416E+00  0.19590353270E-01 0.  0.
         14    1    1    2    0    0  0.82523387918E-02 -0.74300029586E-02 -0.20346779682E-01  0.23179678232E-01  0.00000000000E+00 0. -1.
     999901    1    3    3    0    0  0.11322249207E+00  0.43368270768E-01  0.48026982872E-01  0.88961043761E+00  0.88000000000E+00 0.  1.
        -11    1    4    4    0    0 -0.83272323532E-01 -0.30892822328E-01 -0.26078958851E-01  0.92568998880E-01  0.51100000000E-03 0. -1.
         11    1    4    4    0    0 -0.38202507334E-01 -0.50454454816E-02 -0.16012443381E-02  0.38570885278E-01  0.51100000000E-03 0.  1.
</event>
<event>
 8    1  0.1233916E+005  0.1043930E+01  0.7957747E-01            NaN
         13   -1    0    0    0    0  0.00000000000E+00  0.00000000000E+00  0.74505805969E-08  0.10566000000E+00  0.10566000000E+00 0. -1.
     999900   -1    0    0    0    0 -0.00000000000E+00 -0.00000000000E+00 -0.74505805969E-08  0.93827000000E+00  0.93827000000E+00 0.  1.
     999902    2    1    2    0    0  0.83468786512E-02 -0.17988097988E-01  0.12455548276E-01  0.10205124268E+01  0.10202437113E+01 0.  0.
     999903    2    3    3    0    0 -0.99120273062E-01  0.57888530640E-01 -0.53585292153E-01  0.12828608550E+00  0.20249091023E-01 0.  0.
         14    1    1    2    0    0 -0.83468786512E-02  0.17988097988E-01 -0.12455548276E-01  0.23417573216E-01  0.00000000000E+00 0.  1.
     999901    1    3    3    0    0  0.10746715171E+00 -0.75876628628E-01  0.66040840430E-01  0.89222634128E+00  0.88000000000E+00 0. -1.
        -11    1    4    4    0    0 -0.60072069763E-01  0.25918889686E-01 -0.23436151797E-01  0.69497890186E-01  0.51100000000E-03 0. -1.
         11    1    4    4    0    0 -0.39048203299E-01  0.31969640954E-01 -0.30149140356E-01  0.58788195319E-01  0.51100000000E-03 0.  1.
</event>
<event>
 8    1  0.1233916E+005  0.1043930E+01  0.7957747E-01            NaN
         13   -1    0    0    0    0  0.00000000000E+00  0.00000000000E+00  0.74505805969E-08  0.10566000000E+00  0.10566000000E+00 0.  1.
     999900   -1    0    0    0    0 -0.00000000000E+00 -0.00000000000E+00 -0.74505805969E-08  0.93827000000E+00  0.93827000000E+00 0.  1.
     999902    2    1    2    0    0  0.88965145644E-02 -0.70688256706E-02 -0.19742924446E-01  0.10211506380E+01  0.10208965306E+01 0.  0.
     999903    2    3    3    0    0 -0.69093750335E-01 -0.11498545816E-01 -0.11134083954E+00  0.13295455498E+00  0.19338258673E-01 0.  0.
         14    1    1    2    0    0 -0.88965145644E-02  0.70688256706E-02  0.19742924446E-01  0.22779362007E-01  0.00000000000E+00 0.  1.
     999901    1    3    3    0    0  0.77990264899E-01  0.44297201457E-02  0.91597915092E-01  0.88819608302E+00  0.88000000000E+00 0.  1.
        -11    1    4    4    0    0 -0.54794868814E-01 -0.92032197583E-02 -0.71446225367E-01  0.90509674303E-01  0.51100000000E-03 0. -1.
         11    1    4    4    0    0 -0.14298881521E-01 -0.22953260579E-02 -0.39894614170E-01  0.42444880672E-01  0.51100000000E-03 0.  1.
</event>
<event>
 8    1  0.1233916E+005  0.1043930E+01  0.7957747E-01            NaN
         13   -1    0    0    0    0  0.00000000000E+00  0.00000000000E+00  0.74505805969E-08  0.10566000000E+00  0.10566000000E+00 0.  1.
     999900   -1    0    0    0    0 -0.00000000000E+00 -0.00000000000E+00 -0.74505805969E-08  0.93827000000E+00  0.93827000000E+00 0. -1.
     999902    2    1    2    0    0 -0.16645131247E-01 -0.16526639658E-01 -0.97670484355E-02  0.10185216264E+01  0.10182046543E+01 0.  0.
     999903    2    3    3    0    0  0.71976852329E-01  0.91492854529E-01  0.43612381230E-01  0.12590108520E+00  0.19935740719E-01 0.  0.
         14    1    1    2    0    0  0.16645131247E-01  0.16526639658E-01  0.97670484355E-02  0.25408373575E-01  0.00000000000E+00 0. -1.
     999901    1    3    3    0    0 -0.88621983576E-01 -0.10801949419E+00 -0.53379429665E-01  0.89262054122E+00  0.88000000000E+00 0.  1.
        -11    1    4    4    0    0  0.43918025126E-01  0.42877717682E-01  0.29058766481E-01  0.67911447010E-01  0.51100000000E-03 0.  1.
         11    1    4    4    0    0  0.28058827203E-01  0.48615136846E-01  0.14553614748E-01  0.57989638194E-01  0.51100000000E-03 0. -1.
</event>
<event>
 8    1  0.1233916E+005  0.1043930E+01  0.7957747E-01            NaN
         13   -1    0    0    0    0  0.00000000000E+00  0.00000000000E+00  0.74505805969E-08  0.10566000000E+00  0.10566000000E+00 0.  1.
     999900   -1    0    0    0    0 -0.00000000000E+00 -0.00000000000E+00 -0.74505805969E-08  0.93827000000E+00  0.93827000000E+00 0. -1.
     999902    2    1    2    0    0  0.86483258366E-02 -0.15264849673E-01  0.13349506083E-01  0.10218841730E+01  0.10216463402E+01 0.  0.
     999903    2    3    3    0    0 -0.92813347355E-01  0.53211972753E-01  0.73571029766E-01  0.13137298371E+00  0.20008321696E-01 0.  0.
         14    1    1    2    0    0 -0.86483258366E-02  0.15264849673E-01 -0.13349506083E-01  0.22045826997E-01  0.00000000000E+00 0. -1.
     999901    1    3    3    0    0  0.10146167319E+00 -0.68476822427E-01 -0.60221523683E-01  0.89051118929E+00  0.88000000000E+00 0.  1.
        -11    1    4    4    0    0 -0.69805078896E-01  0.48652841707E-01  0.53608570127E-01  0.10056832482E+00  0.51100000000E-03 0.  1.
         11    1    4    4    0    0 -0.23008268459E-01  0.45591310462E-02  0.19962459639E-01  0.30804658888E-01  0.51100000000E-03 0. -1.
</event>
<event>
 8    1  0.1233916E+005  0.1043930E+01  0.7957747E-01            NaN
         13   -1    0    0    0    0  0.00000000000E+00  0.00000000000E+00  0.74505805969E-08  0.10566000000E+00  0.10566000000E+00 0.  1.
     999900   -1    0    0    0    0 -0.00000000000E+00 -0.00000000000E+00 -0.74505805969E-08  0.93827000000E+00  0.93827000000E+00 0. -1.
     999902    2    1    2    0    0  0.95291980805E-02 -0.21280746429E-01 -0.10557385856E-02  0.10205892552E+01  0.10203223204E+01 0.  0.
     999903    2    3    3    0    0  0.80179967635E-01 -0.14197191100E-01 -0.10164996473E+00  0.13201685727E+00  0.21571922244E-01 0.  0.
         14    1    1    2    0    0 -0.95291980805E-02  0.21280746429E-01  0.10557385856E-02  0.23340744816E-01  0.00000000000E+00 0.  1.
     999901    1    3    3    0    0 -0.70650769555E-01 -0.70835553282E-02  0.10059422615E+00  0.88857239791E+00  0.88000000000E+00 0.  1.
        -11    1    4    4    0    0  0.69388426412E-01 -0.46145141842E-02 -0.87827565738E-01  0.11202673737E+00  0.51100000000E-03 0.  1.
         11    1    4    4    0    0  0.10791541224E-01 -0.95826769162E-02 -0.13822398993E-01  0.19990119904E-01  0.51100000000E-03 0. -1.
</event>
<event>
 8    1  0.1233916E+005  0.1043930E+01  0.7957747E-01            NaN
         13   -1    0    0    0    0  0.00000000000E+00  0.00000000000E+00  0.74505805969E-08  0.10566000000E+00  0.10566000000E+00 0. -1.
     999900   -1    0    0    0    0 -0.00000000000E+00 -0.00000000000E+00 -0.74505805969E-08  0.93827000000E+00  0.93827000000E+00 0.  1.
     999902    2    1    2    0    0 -0.22982771226E-01  0.20858023695E-02 -0.12456073437E-02  0.10208191826E+01  0.10205575406E+01 0.  0.
     999903    2    3    3    0    0 -0.98302625211E-02  0.34140540976E-01 -0.12501916851E+00  0.13148213218E+00  0.19888388279E-01 0.  0.
         14    1    1    2    0    0  0.22982771226E-01 -0.20858023695E-02  0.12456073437E-02  0.23110817433E-01  0.00000000000E+00 0. -1.
     999901    1    3    3    0    0 -0.13152508705E-01 -0.32054738607E-01  0.12377356116E+00  0.88933705039E+00  0.88000000000E+00 0. -1.
        -11    1    4    4    0    0 -0.22498370048E-02  0.32879621877E-01 -0.98594025239E-01  0.10395755978E+00  0.51100000000E-03 0. -1.
         11    1    4    4    0    0 -0.75804255163E-02  0.12609190989E-02 -0.26425143269E-01  0.27524572399E-01  0.51100000000E-03 0.  1.
</event>
<event>
 8    1  0.1233916E+005  0.1043930E+01  0.7957747E-01            NaN
         13   -1    0    0    0    0  0.00000000000E+00  0.00000000000E+00  0.74505805969E-08  0.10566000000E+00  0.10566000000E+00 0.  1.
     999900   -1    0    0    0    0 -0.00000000000E+00 -0.00000000000E+00 -0.74505805969E-08  0.93827000000E+00  0.93827000000E+00 0.  1.
     999902    2    1    2    0    0 -0.66914528170E-02  0.10436923767E-01  0.19872428182E-01  0.10205073972E+01  0.10202385650E+01 0.  0.
     999903    2    3    3    0    0  0.95347279880E-01  0.12251627336E-04 -0.82978823439E-01  0.12859991508E+00  0.23692806690E-01 0.  0.
         14    1    1    2    0    0  0.66914528170E-02 -0.10436923767E-01 -0.19872428182E-01  0.23422602767E-01  0.00000000000E+00 0. -1.
     999901    1    3    3    0    0 -0.10203873270E+00  0.10424672140E-01  0.10285125162E+00  0.89190748215E+00  0.88000000000E+00 0. -1.
        -11    1    4    4    0    0  0.31421684888E-01  0.99997620581E-02 -0.21650295910E-01  0.39450145201E-01  0.51100000000E-03 0.  1.
         11    1    4    4    0    0  0.63925594993E-01 -0.99875104308E-02 -0.61328527528E-01  0.89149769880E-01  0.51100000000E-03 0. -1.
</event>
<event>
 8    1  0.1233916E+005  0.1043930E+01  0.7957747E-01            NaN
         13   -1    0    0    0    0  0.00000000000E+00  0.00000000000E+00  0.74505805969E-08  0.10566000000E+00  0.10566000000E+00 0. -1.
     999900   -1    0    0    0    0 -0.00000000000E+00 -0.00000000000E+00 -0.74505805969E-08  0.93827000000E+00  0.93827000000E+00 0. -1.
     999902    2    1    2    0    0 -0.21146297712E-01 -0.83543221720E-02 -0.92056697670E-02  0.10194003249E+01  0.10191051552E+01 0.  0.
     999903    2    3    3    0    0 -0.10213281956E+00 -0.42103068655E-01  0.69185142175E-01  0.13156987146E+00  0.17895976004E-01 0.  0.
         14    1    1    2    0    0  0.21146297712E-01  0.83543221720E-02  0.92056697670E-02  0.24529675125E-01  0.00000000000E+00 0. -1.
     999901    1    3    3    0    0  0.80986521850E-01  0.33748746483E-01 -0.78390811942E-01  0.88783045341E+00  0.88000000000E+00 0. -1.
        -11    1    4    4    0    0 -0.73225993233E-01 -0.37196215274E-01  0.56062734859E-01  0.99442927735E-01  0.51100000000E-03 0. -1.
         11    1    4    4    0    0 -0.28906826328E-01 -0.49068533807E-02  0.13122407316E-01  0.32126943727E-01  0.51100000000E-03 0.  1.
</event>
<event>
 8    1  0.1233916E+005  0.1043930E+01  0.7957747E-01            NaN
         13   -1    0    0    0    0  0.00000000000E+00  0.00000000000E+00  0.74505805969E-08  0.10566000000E+00  0.10566000000E+00 0.  1.
     999900   -1    0    0    0    0 -0.00000000000E+00 -0.00000000000E+00 -0.74505805969E-08  0.93827000000E+00  0.93827000000E+00 0.  1.
     999902    2    1    2    0    0  0.14486738439E-01 -0.51254818705E-02 -0.14595014402E-01  0.10227368266E+01  0.10225172203E+01 0.  0.
     999903    2    3    3    0    0 -0.60879024005E-01  0.17196473406E-01  0.11212685550E+00  0.13019175759E+00  0.19377506539E-01 0.  0.
         14    1    1    2    0    0 -0.14486738439E-01  0.51254818705E-02  0.14595014402E-01  0.21193173438E-01  0.00000000000E+00 0.  1.
     999901    1    3    3    0    0  0.75365762443E-01 -0.22321955277E-01 -0.12672186990E+00  0.89254506897E+00  0.88000000000E+00 0.  1.
        -11    1    4    4    0    0 -0.53476065843E-01  0.15089027925E-01  0.81722404744E-01  0.98823989699E-01  0.51100000000E-03 0. -1.
         11    1    4    4    0    0 -0.74029581619E-02  0.21074454809E-02  0.30404450751E-01  0.31367767891E-01  0.51100000000E-03 0.  1.
</event>
<event>
 8    1  0.1233916E+005  0.1043930E+01  0.7957747E-01            NaN
         13   -1    0    0    0    0  0.00000000000E+00  0.00000000000E+00  0.74505805969E-08  0.10566000000E+00  0.10566000000E+00 0.  1.
     999900   -1    0    0    0    0 -0.00000000000E+00 -0.00000000000E+00 -0.74505805969E-08  0.93827000000E+00  0.93827000000E+00 0.  1.
     999902    2    1    2    0    0  0.19821390621E-01 -0.31439301965E-02  0.98860702370E-02  0.10215580039E+01  0.10213130026E+01 0.  0.
     999903    2    3    3    0    0  0.96195410438E-01 -0.82299067881E-01 -0.37338540746E-01  0.13345401756E+00  0.19725988325E-01 0.  0.
         14    1    1    2    0    0 -0.19821390621E-01  0.31439301965E-02 -0.98860702370E-02  0.22371996066E-01  0.00000000000E+00 0. -1.
     999901    1    3    3    0    0 -0.76374019816E-01  0.79155137684E-01  0.47224610983E-01  0.88810398637E+00  0.88000000000E+00 0.  1.
        -11    1    4    4    0    0  0.33385257176E-01 -0.24217835706E-01 -0.32932261242E-02  0.41378562351E-01  0.51100000000E-03 0. -1.
         11    1    4    4    0    0  0.62810153262E-01 -0.58081232175E-01 -0.34045314622E-01  0.92075455212E-01  0.51100000000E-03 0.  1.
</event>
<event>
 8    1  0.1233916E+005  0.1043930E+01  0.7957747E-01            NaN
         13   -1    0    0    0    0  0.00000000000E+00  0.00000000000E+00  0.74505805969E-08  0.10566000000E+00  0.10566000000E+00 0.  1.
     999900   -1    0    0    0    0 -0.00000000000E+00 -0.00000000000E+00 -0.74505805969E-08  0.93827000000E+00  0.93827000000E+00 0.  1.
     999902    2    1    2    0    0 -0.38289901044E-02  0.82350208498E-03  0.23367291927E-01  0.10202367593E+01  0.10199616049E+01 0.  0.
     999903    2    3    3    0    0  0.12798657907E+00 -0.85839947592E-02 -0.48426866341E-02  0.12992240578E+00  0.20053192301E-01 0.  0.
         14    1    1    2    0    0  0.38289901044E-02 -0.82350208498E-03 -0.23367291927E-01  0.23693240658E-01  0.00000000000E+00 0. -1.
     999901    1    3    3    0    0 -0.13181556917E+00  0.94074968442E-02  0.28209978561E-01  0.89031435356E+00  0.88000000000E+00 0.  1.
        -11    1    4    4    0    0  0.96055446581E-01  0.14512682584E-02 -0.73847501185E-02  0.96351183972E-01  0.51100000000E-03 0.  1.
         11    1    4    4    0    0  0.31931132486E-01 -0.10035263018E-01  0.25420634845E-02  0.33571221805E-01  0.51100000000E-03 0. -1.
</event>
<event>
 8    1  0.1233916E+005  0.1043930E+01  0.7957747E-01            NaN
         13   -1    0    0    0    0  0.00000000000E+00  0.00000000000E+00  0.74505805969E-08  0.10566000000E+00  0.10566000000E+00 0.  1.
     999900   -1    0    0    0    0 -0.00000000000E+00 -0.00000000000E+00 -0.74505805969E-08  0.93827000000E+00  0.93827000000E+00 0.  1.
     999902    2    1    2    0    0 -0.34677112818E-02  0.21543926447E-01 -0.99408042813E-02  0.10199511473E+01  0.10196692392E+01 0.  0.
     999903    2    3    3    0    0  0.11731177570E+00  0.21180224947E-01  0.47473303352E-01  0.12984767210E+00  0.19900974189E-01 0.  0.
         14    1    1    2    0    0  0.34677112818E-02 -0.21543926447E-01  0.99408042813E-02  0.23978852726E-01  0.00000000000E+00 0.  1.
     999901    1    3    3    0    0 -0.12077948698E+00  0.36370149986E-03 -0.57414107633E-01  0.89010347517E+00  0.88000000000E+00 0.  1.
        -11    1    4    4    0    0  0.40971174196E-01 -0.93241315392E-03  0.21159293671E-01  0.46124650014E-01  0.51100000000E-03 0.  1.
         11    1    4    4    0    0  0.76340601501E-01  0.22112638101E-01  0.26314009681E-01  0.83723022090E-01  0.51100000000E-03 0. -1.
</event>
<event>
 8    1  0.1233916E+005  0.1043930E+01  0.7957747E-01            NaN
         13   -1    0    0    0    0  0.00000000000E+00  0.00000000000E+00  0.74505805969E-08  0.10566000000E+00  0.10566000000E+00 0.  1.
     999900   -1    0    0    0    0 -0.00000000000E+00 -0.00000000000E+00 -0.74505805969E-08  0.93827000000E+00  0.93827000000E+00 0.  1.
     999902    2    1    2    0    0  0.11303762724E-01 -0.12372664566E-01 -0.15485544527E-01  0.10211120253E+01  0.10208570459E+01 0.  0.
     999903    2    3    3    0    0  0.67598006974E-01 -0.92415884456E-01  0.62905649798E-01  0.13222444054E+00  0.20395971506E-01 0.  0.
         14    1    1    2    0    0 -0.11303762724E-01  0.12372664566E-01  0.15485544527E-01  0.22817974701E-01  0.00000000000E+00 0.  1.
     999901    1    3    3    0    0 -0.56294244249E-01  0.80043219890E-01 -0.78391194325E-01  0.88888758476E+00  0.88000000000E+00 0.  1.
        -11    1    4    4    0    0  0.39206151845E-01 -0.38077195531E-01  0.34665826863E-01  0.64722297819E-01  0.51100000000E-03 0.  1.
         11    1    4    4    0    0  0.28391855129E-01 -0.54338688925E-01  0.28239822935E-01  0.67502142723E-01  0.51100000000E-03 0. -1.
</event>
<event>
 8    1  0.1233916E+005  0.1043930E+01  0.7957747E-01            NaN
         13   -1    0    0    0    0  0.00000000000E+00  0.00000000000E+00  0.74505805969E-08  0.10566000000E+00  0.10566000000E+00 0. -1.
     999900   -1    0    0    0    0 -0.00000000000E+00 -0.00000000000E+00 -0.74505805969E-08  0.93827000000E+00  0.93827000000E+00 0.  1.
     999902    2    1    2    0    0 -0.35476870796E-02 -0.21476399900E-02 -0.22307738659E-01  0.10212400541E+01  0.10209879600E+01 0.  0.
     999903    2    3    3    0    0 -0.10880853336E-01  0.23017170315E-01  0.12440672887E+00  0.12870872244E+00  0.20993283348E-01 0.  0.
         14    1    1    2    0    0  0.35476870796E-02  0.21476399900E-02  0.22307738659E-01  0.22689945906E-01  0.00000000000E+00 0. -1.
     999901    1    3    3    0    0  0.73331662568E-02 -0.25164810305E-01 -0.14671446753E+00  0.89253133166E+00  0.88000000000E+00 0.  1.
        -11    1    4    4    0    0  0.16333271291E-02  0.10663234242E-01  0.19092772651E-01  0.21935528499E-01  0.51100000000E-03 0.  1.
         11    1    4    4    0    0 -0.12514180466E-01  0.12353936073E-01  0.10531395622E+00  0.10677319394E+00  0.51100000000E-03 0. -1.
</event>
<event>
 8    1  0.1233916E+005  0.1043930E+01  0.7957747E-01            NaN
         13   -1    0    0    0    0  0.00000000000E+00  0.00000000000E+00  0.74505805969E-08  0.10566000000E+00  0.10566000000E+00 0. -1.
     999900   -1    0    0    0    0 -0.00000000000E+00 -0.00000000000E+00 -0.74505805969E-08  0.93827000000E+00  0.93827000000E+00 0.  1.
     999902    2    1    2    0    0 -0.25129159307E-02  0.17001126446E-01 -0.16702163994E-01  0.10199651230E+01  0.10196835474E+01 0.  0.
     999903    2    3    3    0    0 -0.97277047734E-01  0.36947016391E-01  0.74767747930E-01  0.12993994135E+00  0.21593197821E-01 0.  0.
         14    1    1    2    0    0  0.25129159307E-02 -0.17001126446E-01  0.16702163994E-01  0.23964876987E-01  0.00000000000E+00 0. -1.
     999901    1    3    3    0    0  0.94764131804E-01 -0.19945889945E-01 -0.91469911924E-01  0.89002518166E+00  0.88000000000E+00 0.  1.
        -11    1    4    4    0    0 -0.25495192832E-01  0.20068836893E-01  0.20512162971E-01  0.38389751529E-01  0.51100000000E-03 0. -1.
         11    1    4    4    0    0 -0.71781854903E-01  0.16878179498E-01  0.54255584959E-01  0.91550189823E-01  0.51100000000E-03 0.  1.
</event>
<event>
 8    1  0.1233916E+005  0.1043930E+01  0.7957747E-01            NaN
         13   -1    0    0    0    0  0.00000000000E+00  0.00000000000E+00  0.74505805969E-08  0.10566000000E+00  0.10566000000E+00 0. -1.
     999900   -1    0    0    0    0 -0.00000000000E+00 -0.00000000000E+00 -0.74505805969E-08  0.93827000000E+00  0.93827000000E+00 0.  1.
     999902    2    1    2    0    0 -0.56270687209E-02  0.10753728762E-01 -0.19960396255E-01  0.10205692636E+01  0.10203018661E+01 0.  0.
     999903    2    3    3    0    0 -0.57192494588E-01 -0.10103274523E+00 -0.57717023690E-01  0.13119826578E+00  0.20078174075E-01 0.  0.
         14    1    1    2    0    0  0.56270687209E-02 -0.10753728762E-01  0.19960396255E-01  0.23360736361E-01  0.00000000000E+00 0. -1.
     999901    1    3    3    0    0  0.51565425867E-01  0.11178647399E+00  0.37756627434E-01  0.88937099786E+00  0.88000000000E+00 0.  1.
        -11    1    4    4    0    0 -0.14205300698E-01 -0.45020204183E-01 -0.22824718456E-01  0.52438900124E-01  0.51100000000E-03 0. -1.
         11    1    4    4    0    0 -0.42987193890E-01 -0.56012541051E-01 -0.34892305233E-01  0.78759365659E-01  0.51100000000E-03 0.  1.
</event>
<event>
 8    1  0.1233916E+005  0.1043930E+01  0.7957747E-01            NaN
         13   -1    0    0    0    0  0.00000000000E+00  0.00000000000E+00  0.74505805969E-08  0.10566000000E+00  0.10566000000E+00 0. -1.
     999900   -1    0    0    0    0 -0.00000000000E+00 -0.00000000000E+00 -0.74505805969E-08  0.93827000000E+00  0.93827000000E+00 0.  1.
     999902    2    1    2    0    0  0.19161642348E-01 -0.19697214769E-02  0.12597249664E-01  0.10209139395E+01  0.10206544630E+01 0.  0.
     999903    2    3    3    0    0  0.25196885363E-01  0.13291877260E-01 -0.12533761774E+00  0.13001811611E+00  0.19586604181E-01 0.  0.
         14    1    1    2    0    0 -0.19161642348E-01  0.19697214769E-02 -0.12597249664E-01  0.23016060463E-01  0.00000000000E+00 0.  1.
     999901    1    3    3    0    0 -0.60352430154E-02 -0.15261598737E-01  0.13793486740E+00  0.89089582343E+00  0.88000000000E+00 0. -1.
        -11    1    4    4    0    0  0.17705786893E-01  0.15361922611E-01 -0.63472358739E-01  0.67664503255E-01  0.51100000000E-03 0. -1.
         11    1    4    4    0    0  0.74910984703E-02 -0.20700453510E-02 -0.61865258999E-01  0.62353612855E-01  0.51100000000E-03 0.  1.
</event>
<event>
 8    1  0.1233916E+005  0.1043930E+01  0.7957747E-01            NaN
         13   -1    0    0    0    0  0.00000000000E+00  0.00000000000E+00  0.74505805969E-08  0.10566000000E+00  0.10566000000E+00 0.  1.
     999900   -1    0    0    0    0 -0.00000000000E+00 -0.00000000000E+00 -0.74505805969E-08  0.93827000000E+00  0.93827000000E+00 0. -1.
     999902    2    1    2    0    0  0.51565062029E-03  0.12165181538E-02 -0.23410304693E-01  0.10204824377E+01  0.10202130255E+01 0.  0.
     999903    2    3    3    0    0  0.33777287613E-01  0.12411455555E+00 -0.16879607894E-01  0.13129577895E+00  0.20207235101E-01 0.  0.
         14    1    1    2    0    0 -0.51565062029E-03 -0.12165181538E-02  0.23410304693E-01  0.23447562300E-01  0.00000000000E+00 0.  1.
     999901    1    3    3    0    0 -0.33261636993E-01 -0.12289803740E+00 -0.65306967985E-02  0.88918665875E+00  0.88000000000E+00 0. -1.
        -11    1    4    4    0    0  0.34035009982E-01  0.10802586441E+00 -0.19669282322E-01  0.11495699663E+00  0.51100000000E-03 0.  1.
         11    1    4    4    0    0 -0.25772236895E-03  0.16088691139E-01  0.27896744275E-02  0.16338782323E-01  0.51100000000E-03 0. -1.
</event>
<event>
 8    1  0.1233916E+005  0.1043930E+01  0.7957747E-01            NaN
         13   -1    0    0    0    0  0.00000000000E+00  0.00000000000E+00  0.74505805969E-08  0.10566000000E+00  0.10566000000E+00 0.  1.
     999900   -1    0    0    0    0 -0.00000000000E+00 -0.00000000000E+00 -0.74505805969E-08  0.93827000000E+00  0.93827000000E+00 0.  1.
     999902    2    1    2    0    0 -0.14692760039E-01  0.14557027320E-01  0.89237870011E-02  0.10214040546E+01  0.10211556319E+01 0.  0.
     999903    2    3    3    0    0  0.10644887775E+00  0.57831209245E-01 -0.43943203878E-01  0.13048157202E+00  0.20460281845E-01 0.  0.
         14    1    1    2    0    0  0.14692760039E-01 -0.14557027320E-01 -0.89237870011E-02  0.22525945406E-01  0.00000000000E+00 0.  1.
     999901    1    3    3    0    0 -0.12114163779E+00 -0.43274181925E-01  0.52866990879E-01  0.89092248257E+00  0.88000000000E+00 0. -1.
        -11    1    4    4    0    0  0.54660488493E-01  0.40878365169E-01 -0.21724327464E-01  0.71631119397E-01  0.51100000000E-03 0. -1.
         11    1    4    4    0    0  0.51788389258E-01  0.16952844076E-01 -0.22218876413E-01  0.58850452626E-01  0.51100000000E-03 0.  1.
</event>
<event>
 8    1  0.1233916E+005  0.1043930E+01  0.7957747E-01            NaN
         13   -1    0    0    0    0  0.00000000000E+00  0.00000000000E+00  0.74505805969E-08  0.10566000000E+00  0.10566000000E+00 0.  1.
     999900   -1    0    0    0    0 -0.00000000000E+00 -0.00000000000E+00 -0.74505805969E-08  0.93827000000E+00  0.93827000000E+00 0.  1.
     999902    2    1    2    0    0 -0.23127915657E-01  0.16768911130E-02  0.89676119536E-02  0.10190677694E+01  0.10187644419E+01 0.  0.
     999903    2    3    3    0    0 -0.18469487797E-01 -0.54309571183E-01 -0.11386119641E+00  0.12876270871E+00  0.18022530496E-01 0.  0.
         14    1    1    2    0    0  0.23127915657E-01 -0.16768911130E-02 -0.89676119536E-02  0.24862230604E-01  0.00000000000E+00 0. -1.
     999901    1    3    3    0    0 -0.46584278601E-02  0.55986462296E-01  0.12282880837E+00  0.89030506068E+00  0.88000000000E+00 0. -1.
        -11    1    4    4    0    0 -0.11851979971E-01 -0.36369887538E-01 -0.92445334755E-01  0.10004818433E+00  0.51100000000E-03 0. -1.
         11    1    4    4    0    0 -0.66175078257E-02 -0.17939683645E-01 -0.21415861658E-01  0.28714524385E-01  0.51100000000E-03 0.  1.
</event>
<event>
 8    1  0.1233916E+005  0.1043930E+01  0.7957747E-01            NaN
         13   -1    0    0    0    0  0.00000000000E+00  0.00000000000E+00  0.74505805969E-08  0.10566000000E+00  0.10566000000E+00 0.  1.
     999900   -1    0    0    0    0 -0.00000000000E+00 -0.00000000000E+00 -0.74505805969E-08  0.93827000000E+00  0.93827000000E+00 0.  1.
     999902    2    1    2    0    0  0.13598168712E-01  0.18884218348E-01  0.30298969196E-02  0.10204629130E+01  0.10201930468E+01 0.  0.
     999903    2    3    3    0    0 -0.36944290868E-01  0.11573226830E+00 -0.48493031362E-01  0.13221255580E+00  0.19228813455E-01 0.  0.
         14    1    1    2    0    0 -0.13598168712E-01 -0.18884218348E-01 -0.30298969196E-02  0.23467086957E-01  0.00000000000E+00 0. -1.
     999901    1    3    3    0    0  0.50542459580E-01 -0.96848049954E-01  0.51522928281E-01  0.88825035724E+00  0.88000000000E+00 0.  1.
        -11    1    4    4    0    0 -0.24361789424E-01  0.47848659473E-01 -0.16960203215E-01  0.56310750407E-01  0.51100000000E-03 0.  1.
         11    1    4    4    0    0 -0.12582501444E-01  0.67883608829E-01 -0.31532828146E-01  0.75901805394E-01  0.51100000000E-03 0. -1.
</event>
<event>
 8    1  0.1233916E+005  0.1043930E+01  0.7957747E-01            NaN
         13   -1    0    0    0    0  0.00000000000E+00  0.00000000000E+00  0.74505805969E-08  0.10566000000E+00  0.10566000000E+00 0.  1.
     999900   -1    0    0    0    0 -0.00000000000E+00 -0.00000000000E+00 -0.74505805969E-08  0.93827000000E+00  0.93827000000E+00 0.  1.
     999902    2    1    2    0    0  0.85322782829E-02  0.52496066511E-02  0.21712231006E-01  0.10200180967E+01  0.10197377793E+01 0.  0.
     999903    2    3    3    0    0 -0.23772196715E-01 -0.29069539806E-02 -0.12353078940E+00  0.12749042570E+00  0.20503292312E-01 0.  0.
         14    1    1    2    0    0 -0.85322782829E-02 -0.52496066511E-02 -0.21712231006E-01  0.23911903269E-01  0.00000000000E+00 0. -1.
     999901    1    3    3    0    0  0.32304474998E-01  0.81565606317E-02  0.14524302041E+00  0.89252767104E+00  0.88000000000E+00 0. -1.
        -11    1    4    4    0    0 -0.63380377625E-02  0.79958502882E-02 -0.54946917252E-01  0.55888542484E-01  0.51100000000E-03 0.  1.
         11    1    4    4    0    0 -0.17434158952E-01 -0.10902804269E-01 -0.68583872151E-01  0.71601883212E-01  0.51100000000E-03 0. -1.
</event>
<event>
 8    1  0.1233916E+005  0.1043930E+01  0.7957747E-01            NaN
         13   -1    0    0    0    0  0.00000000000E+00  0.00000000000E+00  0.74505805969E-08  0.10566000000E+00  0.10566000000E+00 0. -1.
     999900   -1    0    0    0    0 -0.00000000000E+00 -0.00000000000E+00 -0.74505805969E-08  0.93827000000E+00  0.93827000000E+00 0. -1.
     999902    2    1    2    0    0 -0.68395204011E-02  0.16345468438E-01  0.16991002546E-01  0.10193811193E+01  0.10190854816E+01 0.  0.
     999903    2    3    3    0    0 -0.37730604317E-01 -0.12035307930E+00 -0.82247939231E-02  0.12793477292E+00  0.19778692804E-01 0.  0.
         14    1    1    2    0    0  0.68395204011E-02 -0.16345468438E-01 -0.16991002546E-01  0.24548880734E-01  0.00000000000E+00 0.  1.
     999901    1    3    3    0    0  0.30891083916E-01  0.13669854774E+00  0.25215796469E-01  0.89144634634E+00  0.88000000000E+00 0.  1.
        -11    1    4    4    0    0 -0.23958608728E-01 -0.51919817829E-01  0.28508272682E-02  0.57254438716E-01  0.51100000000E-03 0. -1.
         11    1    4    4    0    0 -0.13771995590E-01 -0.68433261468E-01 -0.11075621191E-01  0.70680334206E-01  0.51100000000E-03 0.  1.
</event>
<event>
 8    1  0.1233916E+005  0.1043930E+01  0.7957747E-01            NaN
         13   -1    0    0    0    0  0.00000000000E+00  0.00000000000E+00  0.74505805969E-08  0.10566000000E+00  0.10566000000E+00 0.  1.
     999900   -1    0    0    0    0 -0.00000000000E+00 -0.00000000000E+00 -0.74505805969E-08  0.93827000000E+00  0.93827000000E+00 0.  1.
     999902    2    1    2    0    0  0.15208157125E-01  0.16628797124E-01 -0.10546465093E-01  0.10190496290E+01  0.10187458532E+01 0.  0.
     999903    2    3    3    0    0  0.89531204001E-01  0.76333171636E-01  0.55143886952E-01  0.13146653427E+00  0.20000294578E-01 0.  0.
         14    1    1    2    0    0 -0.15208157125E-01 -0.16628797124E-01  0.10546465093E-01  0.24880371036E-01  0.00000000000E+00 0. -1.
     999901    1    3    3    0    0 -0.74323046877E-01 -0.59704374512E-01 -0.65690352045E-01  0.88758309469E+00  0.88000000000E+00 0.  1.
        -11    1    4    4    0    0  0.60941701623E-01  0.41228955869E-01  0.28324181964E-01  0.78843124010E-01  0.51100000000E-03 0. -1.
         11    1    4    4    0    0  0.28589502378E-01  0.35104215767E-01  0.26819704988E-01  0.52623410261E-01  0.51100000000E-03 0.  1.
</event>
<event>
 8    1  0.1233916E+005  0.1043930E+01  0.7957747E-01            NaN
         13   -1    0    0    0    0  0.00000000000E+00  0.00000000000E+00  0.74505805969E-08  0.10566000000E+00  0.10566000000E+00 0.  1.
     999900   -1    0    0    0    0 -0.00000000000E+00 -0.00000000000E+00 -0.74505805969E-08  0.93827000000E+00  0.93827000000E+00 0. -1.
     999902    2    1    2    0    0 -0.36332198310E-03  0.34694938383E-02  0.20796000220E-01  0.10228434399E+01  0.10226260605E+01 0.  0.
     999903    2    3    3    0    0 -0.53056945184E-02 -0.10831404546E+00  0.76254973978E-01  0.13402642588E+00  0.19702257213E-01 0.  0.
         14    1    1    2    0    0  0.36332198310E-03 -0.34694938383E-02 -0.20796000220E-01  0.21086560068E-01  0.00000000000E+00 0. -1.
     999901    1    3    3    0    0  0.49423725353E-02  0.11178353930E+00 -0.55458973758E-01  0.88881701406E+00  0.88000000000E+00 0. -1.
        -11    1    4    4    0    0 -0.11612484214E-01 -0.91742697573E-01  0.64437651121E-01  0.11271221917E+00  0.51100000000E-03 0. -1.
         11    1    4    4    0    0  0.63067896957E-02 -0.16571347884E-01  0.11817322857E-01  0.21314206705E-01  0.51100000000E-03 0.  1.
</event>
<event>
 8    1  0.1233916E+005  0.1043930E+01  0.7957747E-01            NaN
         13   -1    0    0    0    0  0.00000000000E+00  0.00000000000E+00  0.74505805969E-08  0.10566000000E+00  0.10566000000E+00 0. -1.
     999900   -1    0    0    0    0 -0.00000000000E+00 -0.00000000000E+00 -0.74505805969E-08  0.93827000000E+00  0.93827000000E+00 0.  1.
     999902    2    1    2    0    0  0.13900743498E-01 -0.19025528193E-01 -0.98646252727E-02  0.10183856812E+01  0.10180652648E+01 0.  0.
     999903    2    3    3    0    0  0.10716256922E+00  0.66354719838E-01  0.18552538737E-01  0.12889420279E+00  0.19564092954E-01 0.  0.
         14    1    1    2    0    0 -0.13900743498E-01  0.19025528193E-01  0.98646252727E-02  0.25544318832E-01  0.00000000000E+00 0.  1.
     999901    1    3    3    0    0 -0.93261825723E-01 -0.85380248030E-01 -0.28417164010E-01  0.88949147837E+00  0.88000000000E+00 0.  1.
        -11    1    4    4    0    0  0.47712549103E-01  0.20701813261E-01  0.15708908555E-02  0.52036345310E-01  0.51100000000E-03 0. -1.
         11    1    4    4    0    0  0.59450020119E-01  0.45652906577E-01  0.16981647882E-01  0.76857857483E-01  0.51100000000E-03 0.  1.
</event>
<event>
 8    1  0.1233916E+005  0.1043930E+01  0.7957747E-01            NaN
         13   -1    0    0    0    0  0.00000000000E+00  0.00000000000E+00  0.74505805969E-08  0.10566000000E+00  0.10566000000E+00 0.  1.
     999900   -1    0    0    0    0 -0.00000000000E+00 -0.00000000000E+00 -0.74505805969E-08  0.93827000000E+00  0.93827000000E+00 0.  1.
     999902    2    1    2    0    0 -0.78151691955E-02 -0.58404870957E-03  0.22470321181E-01  0.10201322414E+01  0.10198546252E+01 0.  0.
     999903    2    3    3    0    0  0.84972885865E-01  0.23642313500E-01  0.95966410259E-01  0.13187652654E+00  0.20062802287E-01 0.  0.
         14    1    1    2    0    0  0.78151691955E-02  0.58404870957E-03 -0.22470321181E-01  0.23797758643E-01  0.00000000000E+00 0. -1.
     999901    1    3    3    0    0 -0.92788055060E-01 -0.24226362210E-01 -0.73496089077E-01  0.88825571481E+00  0.88000000000E+00 0.  1.
        -11    1    4    4    0    0  0.37560662812E-01  0.18503614736E-01  0.35735218025E-01  0.55049560193E-01  0.51100000000E-03 0. -1.
         11    1    4    4    0    0  0.47412223052E-01  0.51386987638E-02  0.60231192234E-01  0.76826966351E-01  0.51100000000E-03 0.  1.
</event>
<event>
 8    1  0.1233916E+005  0.1043930E+01  0.7957747E-01            NaN
         13   -1    0    0    0    0  0.00000000000E+00  0.00000000000E+00  0.74505805969E-08  0.10566000000E+00  0.10566000000E+00 0.  1.
     999900   -1    0    0    0    0 -0.00000000000E+00 -0.00000000000E+00 -0.74505805969E-08  0.93827000000E+00  0.93827000000E+00 0.  1.
     999902    2    1    2    0    0 -0.50148386607E-02 -0.21865410319E-01 -0.56023613376E-02  0.10208079061E+01  0.10205460058E+01 0.  0.
     999903    2    3    3    0    0 -0.10666573130E+00 -0.71993984570E-01  0.26852032365E-01  0.13294583029E+00  0.19820446575E-01 0.  0.
         14    1    1    2    0    0  0.50148386607E-02  0.21865410319E-01  0.56023613376E-02  0.23122093931E-01  0.00000000000E+00 0.  1.
     999901    1    3    3    0    0  0.10165089264E+00  0.50128574251E-01 -0.32454393703E-01  0.88786207578E+00  0.88000000000E+00 0.  1.
        -11    1    4    4    0    0 -0.78586117372E-01 -0.43687698442E-01  0.13663641663E-01  0.90946957416E-01  0.51100000000E-03 0. -1.
         11    1    4    4    0    0 -0.28079613927E-01 -0.28306286128E-01  0.13188390702E-01  0.41998872877E-01  0.51100000000E-03 0.  1.
</event>
<event>
 8    1  0.1233916E+005  0.1043930E+01  0.7957747E-01            NaN
         13   -1    0    0    0    0  0.00000000000E+00  0.00000000000E+00  0.74505805969E-08  0.10566000000E+00  0.10566000000E+00 0.  1.
     999900   -1    0    0    0    0 -0.00000000000E+00 -0.00000000000E+00 -0.74505805969E-08  0.93827000000E+00  0.93827000000E+00 0.  1.
     999902    2    1    2    0    0  0.54885221429E-02  0.22917591753E-01 -0.28322917635E-02  0.10201947569E+01  0.10199186145E+01 0.  0.
     999903    2    3    3    0    0 -0.11703394861E+00  0.40034355854E-01 -0.38322824370E-01  0.13083300974E+00  0.18680010590E-01 0.  0.
         14    1    1    2    0    0 -0.54885221429E-02 -0.22917591753E-01  0.28322917635E-02  0.23735243072E-01  0.00000000000E+00 0.  1.
     999901    1    3    3    0    0  0.12252247075E+00 -0.17116764101E-01  0.35490532607E-01  0.88936174719E+00  0.88000000000E+00 0. -1.
        -11    1    4    4    0    0 -0.68310655770E-01  0.15700604580E-01 -0.15539626704E-01  0.71795513752E-01  0.51100000000E-03 0. -1.
         11    1    4    4    0    0 -0.48723292836E-01  0.24333751274E-01 -0.22783197667E-01  0.59037495990E-01  0.51100000000E-03 0.  1.
</event>
<event>
 8    1  0.1233916E+005  0.1043930E+01  0.7957747E-01            NaN
         13   -1    0    0    0    0  0.00000000000E+00  0.00000000000E+00  0.74505805969E-08  0.10566000000E+00  0.10566000000E+00 0.  1.
     999900   -1    0    0    0    0 -0.00000000000E+00 -0.00000000000E+00 -0.74505805969E-08  0.93827000000E+00  0.93827000000E+00 0.  1.
     999902    2    1    2    0    0  0.30674868973E-02 -0.14249657027E-01  0.19487237744E-01  0.10195945395E+01  0.10193040814E+01 0.  0.
     999903    2    3    3    0    0  0.84779187965E-01  0.57092196111E-01 -0.74223445907E-01  0.12799588861E+00  0.20659090236E-01 0.  0.
         14    1    1    2    0    0 -0.30674868973E-02  0.14249657027E-01 -0.19487237744E-01  0.24335460467E-01  0.00000000000E+00 0. -1.
     999901    1    3    3    0    0 -0.81711701068E-01 -0.71341853138E-01  0.93710683651E-01  0.89159865092E+00  0.88000000000E+00 0. -1.
        -11    1    4    4    0    0  0.24070376592E-01  0.57697280739E-02 -0.18775237332E-01  0.31071585882E-01  0.51100000000E-03 0.  1.
         11    1    4    4    0    0  0.60708811373E-01  0.51322468037E-01 -0.55448208575E-01  0.96924302726E-01  0.51100000000E-03 0. -1.
</event>
<event>
 8    1  0.1233916E+005  0.1043930E+01  0.7957747E-01            NaN
         13   -1    0    0    0    0  0.00000000000E+00  0.00000000000E+00  0.74505805969E-08  0.10566000000E+00  0.10566000000E+00 0.  1.
     999900   -1    0    0    0    0 -0.00000000000E+00 -0.00000000000E+00 -0.74505805969E-08  0.93827000000E+00  0.93827000000E+00 0. -1.
     999902    2    1    2    0    0 -0.34259967479E-02 -0.11800802779E-01 -0.19710846697E-01  0.10207025620E+01  0.10204382422E+01 0.  0.
     999903    2    3    3    0    0 -0.16157292709E-01 -0.94022631996E-01 -0.91896071770E-01  0.13383547959E+00  0.19124177209E-01 0.  0.
         14    1    1    2    0    0  0.34259967479E-02  0.11800802779E-01  0.19710846697E-01  0.23227438031E-01  0.00000000000E+00 0.  1.
     999901    1    3    3    0    0  0.12731295961E-01  0.82221829218E-01  0.72185225073E-01  0.88686708238E+00  0.88000000000E+00 0.  1.
        -11    1    4    4    0    0 -0.11832598642E-01 -0.27204657788E-01 -0.21229181572E-01  0.36483462928E-01  0.51100000000E-03 0. -1.
         11    1    4    4    0    0 -0.43246940669E-02 -0.66817974208E-01 -0.70666890198E-01  0.97352016658E-01  0.51100000000E-03 0.  1.
</event>
<event>
 8    1  0.1233916E+005  0.1043930E+01  0.7957747E-01            NaN
         13   -1    0    0    0    0  0.00000000000E+00  0.00000000000E+00  0.74505805969E-08  0.10566000000E+00  0.10566000000E+00 0. -1.
     999900   -1    0    0    0    0 -0.00000000000E+00 -0.00000000000E+00 -0.74505805969E-08  0.93827000000E+00  0.93827000000E+00 0.  1.
     999902    2    1    2    0    0  0.15126240947E-01 -0.17719929403E-01 -0.57145494945E-02  0.10199413540E+01  0.10196592129E+01 0.  0.
     999903    2    3    3    0    0  0.41022031399E-01  0.39484388816E-01  0.11468698384E+00  0.12952602658E+00  0.19546439079E-01 0.  0.
         14    1    1    2    0    0 -0.15126240947E-01  0.17719929403E-01  0.57145494945E-02  0.23988646047E-01  0.00000000000E+00 0. -1.
     999901    1    3    3    0    0 -0.25895790452E-01 -0.57204318219E-01 -0.12040153333E+00  0.89041532737E+00  0.88000000000E+00 0.  1.
        -11    1    4    4    0    0  0.29890102759E-01  0.25339916500E-01  0.57607843288E-01  0.69673914347E-01  0.51100000000E-03 0. -1.
         11    1    4    4    0    0  0.11131928640E-01  0.14144472317E-01  0.57079140549E-01  0.59852112236E-01  0.51100000000E-03 0.  1.
</event>
<event>
 8    1  0.1233916E+005  0.1043930E+01  0.7957747E-01            NaN
         13   -1    0    0    0    0  0.00000000000E+00  0.00000000000E+00  0.74505805969E-08  0.10566000000E+00  0.10566000000E+00 0.  1.
     999900   -1    0    0    0    0 -0.00000000000E+00 -0.00000000000E+00 -0.74505805969E-08  0.93827000000E+00  0.93827000000E+00 0. -1.
     999902    2    1    2    0    0  0.60206715227E-02  0.69909940829E-02  0.21394545412E-01  0.10206308786E+01  0.10203649060E+01 0.  0.
     999903    2    3    3    0    0 -0.11866595538E+00 -0.12766168049E-02  0.54045214908E-01  0.13120343664E+00  0.14498890106E-01 0.  0.
         14    1    1    2    0    0 -0.60206715227E-02 -0.69909940829E-02 -0.21394545412E-01  0.23299121384E-01  0.00000000000E+00 0. -1.
     999901    1    3    3    0    0  0.12468662691E+00  0.82676108878E-02 -0.32650669495E-01  0.88942744197E+00  0.88000000000E+00 0.  1.
        -11    1    4    4    0    0 -0.58208899557E-01  0.41422851538E-02  0.20530860517E-01  0.61864463697E-01  0.51100000000E-03 0. -1.
         11    1    4    4    0    0 -0.60457055827E-01 -0.54189019588E-02  0.33514354391E-01  0.69338972944E-01  0.51100000000E-03 0.  1.
</event>
<event>
 8    1  0.1233916E+005  0.1043930E+01  0.7957747E-01            NaN
         13   -1    0    0    0    0  0.00000000000E+00  0.00000000000E+00  0.74505805969E-08  0.10566000000E+00  0.10566000000E+00 0.  1.
     999900   -1    0    0    0    0 -0.00000000000E+00 -0.00000000000E+00 -0.74505805969E-08  0.93827000000E+00  0.93827000000E+00 0.  1.
     999902    2    1    2    0    0 -0.11494206623E-01  0.15081641019E-01  0.16868866354E-01  0.10185502574E+01  0.10182340082E+01 0.  0.
     999903    2    3    3    0    0 -0.12823847711E+00  0.32180330871E-02  0.15921597209E-01  0.13076037957E+00  0.19731113967E-01 0.  0.
         14    1    1    2    0    0  0.11494206623E-01 -0.15081641019E-01 -0.16868866354E-01  0.25379742588E-01  0.00000000000E+00 0. -1.
     999901    1    3    3    0    0  0.11674427049E+00  0.11863607932E-01  0.94726914520E-03  0.88778987784E+00  0.88000000000E+00 0. -1.
        -11    1    4    4    0    0 -0.74067862926E-01  0.78801941635E-02  0.16889848099E-01  0.76378490875E-01  0.51100000000E-03 0.  1.
         11    1    4    4    0    0 -0.54170614184E-01 -0.46621610764E-02 -0.96825088970E-03  0.54381888693E-01  0.51100000000E-03 0. -1.
</event>
<event>
 8    1  0.1233916E+005  0.1043930E+01  0.7957747E-01            NaN
         13   -1    0    0    0    0  0.00000000000E+00  0.00000000000E+00  0.74505805969E-08  0.10566000000E+00  0.10566000000E+00 0.  1.
     999900   -1    0    0    0    0 -0.00000000000E+00 -0.00000000000E+00 -0.74505805969E-08  0.93827000000E+00  0.93827000000E+00 0. -1.
     999902    2    1    2    0    0  0.76731511628E-02  0.20942535280E-01 -0.90746119622E-02  0.10198506392E+01  0.10195663346E+01 0.  0.
     999903    2    3    3    0    0  0.82809425963E-01 -0.67853811948E-01  0.68492003323E-01  0.12881369787E+00  0.20982693216E-01 0.  0.
         14    1    1    2    0    0 -0.76731511628E-02 -0.20942535280E-01  0.90746119622E-02  0.24079360768E-01  0.00000000000E+00 0. -1.
     999901    1    3    3    0    0 -0.75136274800E-01  0.88796347228E-01 -0.77566615285E-01  0.89103694137E+00  0.88000000000E+00 0. -1.
        -11    1    4    4    0    0  0.29950560395E-01 -0.12221129611E-01  0.19999588256E-01  0.38034677971E-01  0.51100000000E-03 0. -1.
         11    1    4    4    0    0  0.52858865568E-01 -0.55632682337E-01  0.48492415067E-01  0.90779019895E-01  0.51100000000E-03 0.  1.
</event>
<event>
 8    1  0.1233916E+005  0.1043930E+01  0.7957747E-01            NaN
         13   -1    0    0    0    0  0.00000000000E+00  0.00000000000E+00  0.74505805969E-08  0.10566000000E+00  0.10566000000E+00 0. -1.
     999900   -1    0    0    0    0 -0.00000000000E+00 -0.00000000000E+00 -0.74505805969E-08  0.93827000000E+00  0.93827000000E+00 0. -1.
     999902    2    1    2    0    0 -0.12322490322E-01 -0.24034394406E-02 -0.56795999519E-02  0.10301503721E+01  0.10300582076E+01 0.  0.
     999903    2    3    3    0    0  0.95386129866E-01 -0.53116898365E-01 -0.83146270253E-01  0.13876151938E+00  0.20531398916E-01 0.  0.
         14    1    1    2    0    0  0.12322490322E-01  0.24034394406E-02  0.56795999519E-02  0.13779627879E-01  0.00000000000E+00 0.  1.
     999901    1    3    3    0    0 -0.10770862019E+00  0.50713458925E-01  0.77466670301E-01  0.89138885274E+00  0.88000000000E+00 0. -1.
        -11    1    4    4    0    0  0.65405428327E-01 -0.32846225823E-01 -0.66628557363E-01  0.98976615333E-01  0.51100000000E-03 0.  1.
         11    1    4    4    0    0  0.29980701539E-01 -0.20270672542E-01 -0.16517712890E-01  0.39784904050E-01  0.51100000000E-03 0. -1.
</event>
<event>
 8    1  0.1233916E+005  0.1043930E+01  0.7957747E-01            NaN
         13   -1    0    0    0    0  0.00000000000E+00  0.00000000000E+00  0.74505805969E-08  0.10566000000E+00  0.10566000000E+00 0.  1.
     999900   -1    0    0    0    0 -0.00000000000E+00 -0.00000000000E+00 -0.74505805969E-08  0.93827000000E+00  0.93827000000E+00 0. -1.
     999902    2    1    2    0    0  0.22012516146E-01  0.51216541391E-03  0.12101362135E-01  0.10188051886E+01  0.10184953393E+01 0.  0.
     999903    2    3    3    0    0  0.11334391637E+00 -0.23337527962E-01 -0.57726737119E-01  0.13100667772E+00  0.20949697810E-01 0.  0.
         14    1    1    2    0    0 -0.22012516146E-01 -0.51216541391E-03 -0.12101362135E-01  0.25124811363E-01  0.00000000000E+00 0. -1.
     999901    1    3    3    0    0 -0.91331400229E-01  0.23849693375E-01  0.69828099254E-01  0.88779851092E+00  0.88000000000E+00 0.  1.
        -11    1    4    4    0    0  0.52992741722E-01 -0.52969349998E-02 -0.16634453682E-01  0.55796544390E-01  0.51100000000E-03 0.  1.
         11    1    4    4    0    0  0.60351174653E-01 -0.18040592962E-01 -0.41092283438E-01  0.75210133330E-01  0.51100000000E-03 0. -1.
</event>
<event>
 8    1  0.1233916E+005  0.1043930E+01  0.7957747E-01            NaN
         13   -1    0    0    0    0  0.00000000000E+00  0.00000000000E+00  0.74505805969E-08  0.10566000000E+00  0.10566000000E+00 0.  1.
     999900   -1    0    0    0    0 -0.00000000000E+00 -0.00000000000E+00 -0.74505805969E-08  0.93827000000E+00  0.93827000000E+00 0.  1.
     999902    2    1    2    0    0 -0.20513712499E-01  0.54531676034E-02 -0.87759203593E-02  0.10209611904E+01  0.10207027903E+01 0.  0.
     999903    2    3    3    0    0 -0.50772518753E-01  0.11418779820E+00  0.39156989978E-01  0.13245886672E+00  0.19884154273E-01 0.  0.
         14    1    1    2    0    0  0.20513712499E-01 -0.54531676034E-02  0.87759203593E-02  0.22968809624E-01  0.00000000000E+00 0.  1.
     999901    1    3    3    0    0  0.30258806254E-01 -0.10873463059E+00 -0.47932910337E-01  0.88850232365E+00  0.88000000000E+00 0.  1.
        -11    1    4    4    0    0 -0.95936196059E-02  0.44666386239E-01  0.15891469559E-01  0.48372755995E-01  0.51100000000E-03 0.  1.
         11    1    4    4    0    0 -0.41178899147E-01  0.69521411959E-01  0.23265520419E-01  0.84086110726E-01  0.51100000000E-03 0. -1.
</event>
<event>
 8    1  0.1233916E+005  0.1043930E+01  0.7957747E-01            NaN
         13   -1    0    0    0    0  0.00000000000E+00  0.00000000000E+00  0.74505805969E-08  0.10566000000E+00  0.10566000000E+00 0.  1.
     999900   -1    0    0    0    0 -0.00000000000E+00 -0.00000000000E+00 -0.74505805969E-08  0.93827000000E+00  0.93827000000E+00 0.  1.
     999902    2    1    2    0    0 -0.18689088167E-01  0.10180846502E-01 -0.11215067790E-01  0.10198736204E+01  0.10195898647E+01 0.  0.
     999903    2    3    3    0    0 -0.15272239492E-01  0.62188601487E-01 -0.11415569004E+00  0.13234150657E+00  0.19547105673E-01 0.  0.
         14    1    1    2    0    0  0.18689088167E-01 -0.10180846502E-01  0.11215067790E-01  0.24056379560E-01  0.00000000000E+00 0.  1.
     999901    1    3    3    0    0 -0.34168486746E-02 -0.52007754986E-01  0.10294062225E+00  0.88753211387E+00  0.88000000000E+00 0. -1.
        -11    1    4    4    0    0 -0.10292346440E-01  0.12931600358E-01 -0.38795395436E-01  0.42172295539E-01  0.51100000000E-03 0.  1.
         11    1    4    4    0    0 -0.49798930528E-02  0.49257001130E-01 -0.75360294603E-01  0.90169211035E-01  0.51100000000E-03 0. -1.
</event>
<event>
 8    1  0.1233916E+005  0.1043930E+01  0.7957747E-01            NaN
         13   -1    0    0    0    0  0.00000000000E+00  0.00000000000E+00  0.74505805969E-08  0.10566000000E+00  0.10566000000E+00 0.  1.
     999900   -1    0    0    0    0 -0.00000000000E+00 -0.00000000000E+00 -0.74505805969E-08  0.93827000000E+00  0.93827000000E+00 0.  1.
     999902    2    1    2    0    0  0.20626770587E-01  0.95259918275E-02  0.76620205561E-02  0.10199526202E+01  0.10196707472E+01 0.  0.
     999903    2    3    3    0    0  0.72889818113E-01 -0.20201754456E-02  0.10864141795E+00  0.13256230084E+00  0.21279079326E-01 0.  0.
         14    1    1    2    0    0 -0.20626770587E-01 -0.95259918275E-02 -0.76620205561E-02  0.23977379843E-01  0.00000000000E+00 0. -1.
     999901    1    3    3    0    0 -0.52263047526E-01  0.11546167273E-01 -0.10097939739E+00  0.88739031931E+00  0.88000000000E+00 0.  1.
        -11    1    4    4    0    0  0.36018018944E-01  0.86705771618E-02  0.45662814699E-01  0.58803319330E-01  0.51100000000E-03 0. -1.
         11    1    4    4    0    0  0.36871799169E-01 -0.10690752607E-01  0.62978603251E-01  0.73758981512E-01  0.51100000000E-03 0.  1.
</event>
<event>
 8    1  0.1233916E+005  0.1043930E+01  0.7957747E-01            NaN
         13   -1    0    0    0    0  0.00000000000E+00  0.00000000000E+00  0.74505805969E-08  0.10566000000E+00  0.10566000000E+00 0. -1.
     999900   -1    0    0    0    0 -0.00000000000E+00 -0.00000000000E+00 -0.74505805969E-08  0.93827000000E+00  0.93827000000E+00 0.  1.
     999902    2    1    2    0    0  0.81131571057E-03  0.30214315010E-02  0.23524934937E-01  0.10201979574E+01  0.10199218904E+01 0.  0.
     999903    2    3    3    0    0 -0.32157880540E-01  0.94824060054E-01 -0.78829780246E-01  0.12891170809E+00  0.19451544503E-01 0.  0.
         14    1    1    2    0    0 -0.81131571057E-03 -0.30214315010E-02 -0.23524934937E-01  0.23732042586E-01  0.00000000000E+00 0.  1.
     999901    1    3    3    0    0  0.32969196251E-01 -0.91802628553E-01  0.10235471518E+00  0.89128624932E+00  0.88000000000E+00 0. -1.
        -11    1    4    4    0    0 -0.23551215753E-01  0.48416052357E-01 -0.50740795384E-01  0.73984209981E-01  0.51100000000E-03 0.  1.
         11    1    4    4    0    0 -0.86066647871E-02  0.46408007697E-01 -0.28088984862E-01  0.54927498111E-01  0.51100000000E-03 0. -1.
</event>
<event>
 8    1  0.1233916E+005  0.1043930E+01  0.7957747E-01            NaN
         13   -1    0    0    0    0  0.00000000000E+00  0.00000000000E+00  0.74505805969E-08  0.10566000000E+00  0.10566000000E+00 0. -1.
     999900   -1    0    0    0    0 -0.00000000000E+00 -0.00000000000E+00 -0.74505805969E-08  0.93827000000E+00  0.93827000000E+00 0. -1.
     999902    2    1    2    0    0 -0.16634118257E-01 -0.35781031814E-02 -0.15668978033E-01  0.10207996393E+01  0.10205375496E+01 0.  0.
     999903    2    3    3    0    0  0.33922943928E-02  0.69722804131E-01  0.10661128116E+00  0.12910095590E+00  0.20695759649E-01 0.  0.
         14    1    1    2    0    0  0.16634118257E-01  0.35781031814E-02  0.15668978033E-01  0.23130360680E-01  0.00000000000E+00 0. -1.
     999901    1    3    3    0    0 -0.20026412650E-01 -0.73300907312E-01 -0.12228025919E+00  0.89169868342E+00  0.88000000000E+00 0. -1.
        -11    1    4    4    0    0  0.11615121519E-01  0.40770533962E-01  0.56393116147E-01  0.70552052821E-01  0.51100000000E-03 0.  1.
         11    1    4    4    0    0 -0.82228271267E-02  0.28952270169E-01  0.50218165014E-01  0.58548903084E-01  0.51100000000E-03 0. -1.
</event>
<event>
 8    1  0.1233916E+005  0.1043930E+01  0.7957747E-01            NaN
         13   -1    0    0    0    0  0.00000000000E+00  0.00000000000E+00  0.74505805969E-08  0.10566000000E+00  0.10566000000E+00 0.  1.
     999900   -1    0    0    0    0 -0.00000000000E+00 -0.00000000000E+00 -0.74505805969E-08  0.93827000000E+00  0.93827000000E+00 0. -1.
     999902    2    1    2    0    0 -0.12368714145E-01 -0.22212940531E-01 -0.68332978924E-03  0.10184964246E+01  0.10181788154E+01 0.  0.
     999903    2    3    3    0    0 -0.30787402309E-01  0.46751314277E-02 -0.12383223900E+00  0.12932384839E+00  0.20506422244E-01 0.  0.
         14    1    1    2    0    0  0.12368714145E-01  0.22212940531E-01  0.68332978924E-03  0.25433575373E-01  0.00000000000E+00 0.  1.
     999901    1    3    3    0    0  0.18418688164E-01 -0.26888071959E-01  0.12314890921E+00  0.88917257623E+00  0.88000000000E+00 0.  1.
        -11    1    4    4    0    0 -0.18045355670E-01  0.70166025411E-02 -0.39413819924E-01  0.43915576901E-01  0.51100000000E-03 0. -1.
         11    1    4    4    0    0 -0.12742046639E-01 -0.23414711135E-02 -0.84418419073E-01  0.85408271493E-01  0.51100000000E-03 0.  1.
</event>
<event>
 8    1  0.1233916E+005  0.1043930E+01  0.7957747E-01            NaN
         13   -1    0    0    0    0  0.00000000000E+00  0.00000000000E+00  0.74505805969E-08  0.10566000000E+00  0.10566000000E+00 0. -1.
     999900   -1    0    0    0    0 -0.00000000000E+00 -0.00000000000E+00 -0.74505805969E-08  0.93827000000E+00  0.93827000000E+00 0.  1.
     999902    2    1    2    0    0 -0.58573078569E-02 -0.20223840704E-01  0.11391143079E-01  0.10199911210E+01  0.10197101632E+01 0.  0.
     999903    2    3    3    0    0 -0.60303847084E-01 -0.47392313325E-01 -0.10351842784E+00  0.13043687248E+00  0.20374677031E-01 0.  0.
         14    1    1    2    0    0  0.58573078569E-02  0.20223840704E-01 -0.11391143079E-01  0.23938879021E-01  0.00000000000E+00 0.  1.
     999901    1    3    3    0    0  0.54446539227E-01  0.27168472621E-01  0.11490957092E+00  0.88955424850E+00  0.88000000000E+00 0. -1.
        -11    1    4    4    0    0 -0.21346967036E-01 -0.27814688262E-01 -0.37709403201E-01  0.51493786960E-01  0.51100000000E-03 0.  1.
         11    1    4    4    0    0 -0.38956880048E-01 -0.19577625063E-01 -0.65809024638E-01  0.78943085517E-01  0.51100000000E-03 0. -1.
</event>
<event>
 8    1  0.1233916E+005  0.1043930E+01  0.7957747E-01            NaN
         13   -1    0    0    0    0  0.00000000000E+00  0.00000000000E+00  0.74505805969E-08  0.10566000000E+00  0.10566000000E+00 0.  1.
     999900   -1    0    0    0    0 -0.00000000000E+00 -0.00000000000E+00 -0.74505805969E-08  0.93827000000E+00  0.93827000000E+00 0. -1.
     999902    2    1    2    0    0  0.76593081088E-02 -0.63119986211E-02  0.20856267994E-01  0.10208325923E+01  0.10205712573E+01 0.  0.
     999903    2    3    3    0    0 -0.67072833284E-02 -0.61596172158E-01 -0.11082965756E+00  0.12920266808E+00  0.23896451001E-01 0.  0.
         14    1    1    2    0    0 -0.76593081088E-02  0.63119986211E-02 -0.20856267994E-01  0.23097407689E-01  0.00000000000E+00 0. -1.
     999901    1    3    3    0    0  0.14366591437E-01  0.55284173537E-01  0.13168592555E+00  0.89162992423E+00  0.88000000000E+00 0.  1.
        -11    1    4    4    0    0 -0.13447861556E-01 -0.23279809507E-01 -0.36880222589E-01  0.45642156504E-01  0.51100000000E-03 0. -1.
         11    1    4    4    0    0  0.67405782277E-02 -0.38316362651E-01 -0.73949434971E-01  0.83560511578E-01  0.51100000000E-03 0.  1.
</event>
<event>
 8    1  0.1233916E+005  0.1043930E+01  0.7957747E-01            NaN
         13   -1    0    0    0    0  0.00000000000E+00  0.00000000000E+00  0.74505805969E-08  0.10566000000E+00  0.10566000000E+00 0. -1.
     999900   -1    0    0    0    0 -0.00000000000E+00 -0.00000000000E+00 -0.74505805969E-08  0.93827000000E+00  0.93827000000E+00 0.  1.
     999902    2    1    2    0    0  0.21412890793E-01  0.91431298177E-02 -0.29976477569E-02  0.10204545957E+01  0.10201845359E+01 0.  0.
     999903    2    3    3    0    0  0.90891559145E-01  0.20467127634E-01  0.91970536974E-01  0.13255005444E+00  0.20754720499E-01 0.  0.
         14    1    1    2    0    0 -0.21412890793E-01 -0.91431298177E-02  0.29976477569E-02  0.23475404300E-01  0.00000000000E+00 0. -1.
     999901    1    3    3    0    0 -0.69478668352E-01 -0.11323997816E-01 -0.94968184731E-01  0.88790454126E+00  0.88000000000E+00 0.  1.
        -11    1    4    4    0    0  0.15901574488E-01  0.11265673968E-01  0.24012841289E-01  0.30929810036E-01  0.51100000000E-03 0.  1.
         11    1    4    4    0    0  0.74989984657E-01  0.92014536654E-02  0.67957695685E-01  0.10162024440E+00  0.51100000000E-03 0. -1.
</event>
<event>
 8    1  0.1233916E+005  0.1043930E+01  0.7957747E-01            NaN
         13   -1    0    0    0    0  0.00000000000E+00  0.00000000000E+00  0.74505805969E-08  0.10566000000E+00  0.10566000000E+00 0. -1.
     999900   -1    0    0    0    0 -0.00000000000E+00 -0.00000000000E+00 -0.74505805969E-08  0.93827000000E+00  0.93827000000E+00 0. -1.
     999902    2    1    2    0    0 -0.49606159514E-02 -0.22663570803E-01  0.23700148249E-02  0.10206091483E+01  0.10203426736E+01 0.  0.
     999903    2    3    3    0    0 -0.37706777819E-01  0.95750159626E-01  0.75563603923E-01  0.12906474442E+00  0.18919721241E-01 0.  0.
         14    1    1    2    0    0  0.49606159514E-02  0.22663570803E-01 -0.23700148249E-02  0.23320851666E-01  0.00000000000E+00 0. -1.
     999901    1    3    3    0    0  0.32746161867E-01 -0.11841373043E+00 -0.73193589098E-01  0.89154440392E+00  0.88000000000E+00 0. -1.
        -11    1    4    4    0    0 -0.74245379429E-02  0.22143026442E-01  0.80965239166E-02  0.24723515208E-01  0.51100000000E-03 0.  1.
         11    1    4    4    0    0 -0.30282239876E-01  0.73607133184E-01  0.67467080006E-01  0.10434122921E+00  0.51100000000E-03 0. -1.
</event>
<event>
 8    1  0.1233916E+005  0.1043930E+01  0.7957747E-01            NaN
         13   -1    0    0    0    0  0.00000000000E+00  0.00000000000E+00  0.74505805969E-08  0.10566000000E+00  0.10566000000E+00 0.  1.
     999900   -1    0    0    0    0 -0.00000000000E+00 -0.00000000000E+00 -0.74505805969E-08  0.93827000000E+00  0.93827000000E+00 0. -1.
     999902    2    1    2    0    0 -0.16949092548E-01 -0.15306780777E-01 -0.86389612068E-02  0.10195127740E+01  0.10192203370E+01 0.  0.
     999903    2    3    3    0    0  0.26683211904E-01 -0.46532962573E-01 -0.11793294280E+00  0.13112995850E+00  0.20237999278E-01 0.  0.
         14    1    1    2    0    0  0.16949092548E-01  0.15306780777E-01  0.86389612068E-02  0.24417226023E-01  0.00000000000E+00 0.  1.
     999901    1    3    3    0    0 -0.43632304451E-01  0.31226181796E-01  0.10929398160E+00  0.88838281548E+00  0.88000000000E+00 0.  1.
        -11    1    4    4    0    0  0.91938625836E-02 -0.53206797884E-02 -0.11501809829E-01  0.15664912798E-01  0.51100000000E-03 0.  1.
         11    1    4    4    0    0  0.17489349320E-01 -0.41212282785E-01 -0.10643113297E+00  0.11546504570E+00  0.51100000000E-03 0. -1.
</event>
<event>
 8    1  0.1233916E+005  0.1043930E+01  0.7957747E-01            NaN
         13   -1    0    0    0    0  0.00000000000E+00  0.00000000000E+00  0.74505805969E-08  0.10566000000E+00  0.10566000000E+00 0.  1.
     999900   -1    0    0    0    0 -0.00000000000E+00 -0.00000000000E+00 -0.74505805969E-08  0.93827000000E+00  0.93827000000E+00 0. -1.
     999902    2    1    2    0    0 -0.21944367423E-01  0.88778633631E-02 -0.96262775333E-02  0.10183754126E+01  0.10180547353E+01 0.  0.
     999903    2    3    3    0    0 -0.82937290857E-03  0.96714558466E-01 -0.85249490633E-01  0.13052407459E+00  0.20363317885E-01 0.  0.
         14    1    1    2    0    0  0.21944367423E-01 -0.88778633631E-02  0.96262775333E-02  0.25554587428E-01  0.00000000000E+00 0.  1.
     999901    1    3    3    0    0 -0.21114994514E-01 -0.87836695103E-01  0.75623213099E-01  0.88785133798E+00  0.88000000000E+00 0.  1.
        -11    1    4    4    0    0 -0.10296474134E-01  0.47276560718E-01 -0.44891642370E-01  0.66004630509E-01  0.51100000000E-03 0.  1.
         11    1    4    4    0    0  0.94671012254E-02  0.49437997748E-01 -0.40357848262E-01  0.64519444079E-01  0.51100000000E-03 0. -1.
</event>
<event>
 8    1  0.1233916E+005  0.1043930E+01  0.7957747E-01            NaN
         13   -1    0    0    0    0  0.00000000000E+00  0.00000000000E+00  0.74505805969E-08  0.10566000000E+00  0.10566000000E+00 0.  1.
     999900   -1    0    0    0    0 -0.00000000000E+00 -0.00000000000E+00 -0.74505805969E-08  0.93827000000E+00  0.93827000000E+00 0. -1.
     999902    2    1    2    0    0 -0.10801158350E-03 -0.21359630976E-01  0.52353666934E-02  0.10219378522E+01  0.10217011888E+01 0.  0.
     999903    2    3    3    0    0 -0.99641688038E-01 -0.56835970430E-01  0.65505170389E-01  0.13356970064E+00  0.19777362092E-01 0.  0.
         14    1    1    2    0    0  0.10801158350E-03  0.21359630976E-01 -0.52353666934E-02  0.21992147834E-01  0.00000000000E+00 0. -1.
     999901    1    3    3    0    0  0.99533676455E-01  0.35476339454E-01 -0.60269803696E-01  0.88836815153E+00  0.88000000000E+00 0. -1.
        -11    1    4    4    0    0 -0.26843159086E-01 -0.18939905012E-01  0.94765444767E-02  0.34195631414E-01  0.51100000000E-03 0. -1.
         11    1    4    4    0    0 -0.72798528952E-01 -0.37896065418E-01  0.56028625912E-01  0.99374069225E-01  0.51100000000E-03 0.  1.
</event>
<event>
 8    1  0.1233916E+005  0.1043930E+01  0.7957747E-01            NaN
         13   -1    0    0    0    0  0.00000000000E+00  0.00000000000E+00  0.74505805969E-08  0.10566000000E+00  0.10566000000E+00 0.  1.
     999900   -1    0    0    0    0 -0.00000000000E+00 -0.00000000000E+00 -0.74505805969E-08  0.93827000000E+00  0.93827000000E+00 0.  1.
     999902    2    1    2    0    0 -0.45543065123E-02 -0.22269665798E-01  0.26032769836E-02  0.10210508223E+01  0.10207944577E+01 0.  0.
     999903    2    3    3    0    0  0.90692691969E-01 -0.95655270483E-01 -0.11037733545E-02  0.13286661845E+00  0.16650070112E-01 0.  0.
         14    1    1    2    0    0  0.45543065123E-02  0.22269665798E-01 -0.26032769836E-02  0.22879177730E-01  0.00000000000E+00 0.  1.
     999901    1    3    3    0    0 -0.95246998481E-01  0.73385604685E-01  0.37070503381E-02  0.88818420382E+00  0.88000000000E+00 0.  1.
        -11    1    4    4    0    0  0.53608418864E-01 -0.53774300588E-01 -0.86251364702E-02  0.76421149409E-01  0.51100000000E-03 0.  1.
         11    1    4    4    0    0  0.37084273104E-01 -0.41880969895E-01  0.75213631157E-02  0.56445469040E-01  0.51100000000E-03 0. -1.
</event>
<event>
 8    1  0.1233916E+005  0.1043930E+01  0.7957747E-01            NaN
         13   -1    0    0    0    0  0.00000000000E+00  0.00000000000E+00  0.74505805969E-08  0.10566000000E+00  0.10566000000E+00 0.  1.
     999900   -1    0    0    0    0 -0.00000000000E+00 -0.00000000000E+00 -0.74505805969E-08  0.93827000000E+00  0.93827000000E+00 0. -1.
     999902    2    1    2    0    0 -0.68716046173E-02  0.21104843712E-01  0.89779918396E-02  0.10199876168E+01  0.10197065757E+01 0.  0.
     999903    2    3    3    0    0  0.73385571893E-01 -0.94588819711E-01 -0.39203979840E-01  0.12749238397E+00  0.19618077370E-01 0.  0.
         14    1    1    2    0    0  0.68716046173E-02 -0.21104843712E-01 -0.89779918396E-02  0.23942383248E-01  0.00000000000E+00 0. -1.
     999901    1    3    3    0    0 -0.80257176510E-01  0.11569366342E+00  0.48181971680E-01  0.89249523278E+00  0.88000000000E+00 0.  1.
        -11    1    4    4    0    0  0.38822618227E-01 -0.45094128778E-01 -0.96750853673E-02  0.60287183830E-01  0.51100000000E-03 0.  1.
         11    1    4    4    0    0  0.34562953666E-01 -0.49494690932E-01 -0.29528894473E-01  0.67205200144E-01  0.51100000000E-03 0. -1.
</event>
<event>
 8    1  0.1233916E+005  0.1043930E+01  0.7957747E-01            NaN
         13   -1    0    0    0    0  0.00000000000E+00  0.00000000000E+00  0.74505805969E-08  0.10566000000E+00  0.10566000000E+00 0. -1.
     999900   -1    0    0    0    0 -0.00000000000E+00 -0.00000000000E+00 -0.74505805969E-08  0.93827000000E+00  0.93827000000E+00 0. -1.
     999902    2    1    2    0    0 -0.10815881500E-01  0.19312540162E-01 -0.57229143144E-02  0.10210671645E+01  0.10208111702E+01 0.  0.
     999903    2    3    3    0    0 -0.46481645606E-01  0.37601966509E-01 -0.11735578434E+00  0.13310970630E+00  0.19270768849E-01 0.  0.
         14    1    1    2    0    0  0.10815881500E-01 -0.19312540162E-01  0.57229143144E-02  0.22862835528E-01  0.00000000000E+00 0.  1.
     999901    1    3    3    0    0  0.35665764105E-01 -0.18289426347E-01  0.11163287002E+00  0.88795745817E+00  0.88000000000E+00 0.  1.
        -11    1    4    4    0    0 -0.31149044254E-01  0.20413391052E-01 -0.53195971113E-01  0.64938755423E-01  0.51100000000E-03 0.  1.
         11    1    4    4    0    0 -0.15332601351E-01  0.17188575457E-01 -0.64159813222E-01  0.68170950882E-01  0.51100000000E-03 0. -1.
</event>
<event>
 8    1  0.1233916E+005  0.1043930E+01  0.7957747E-01            NaN
         13   -1    0    0    0    0  0.00000000000E+00  0.00000000000E+00  0.74505805969E-08  0.10566000000E+00  0.10566000000E+00 0.  1.
     999900   -1    0    0    0    0 -0.00000000000E+00 -0.00000000000E+00 -0.74505805969E-08  0.93827000000E+00  0.93827000000E+00 0.  1.
     999902    2    1    2    0    0  0.63010221151E-02 -0.18328344472E-01 -0.51665305729E-02  0.10238719809E+01  0.10236754902E+01 0.  0.
     999903    2    3    3    0    0 -0.49204698035E-01  0.49192926610E-01  0.11032408751E+00  0.13203225885E+00  0.20495530109E-01 0.  0.
         14    1    1    2    0    0 -0.63010221151E-02  0.18328344472E-01  0.51665305729E-02  0.20058019068E-01  0.00000000000E+00 0.  1.
     999901    1    3    3    0    0  0.55505720151E-01 -0.67521271082E-01 -0.11549061808E+00  0.89183972208E+00  0.88000000000E+00 0.  1.
        -11    1    4    4    0    0 -0.33173580978E-01  0.45034991335E-01  0.83561752092E-01  0.10055577782E+00  0.51100000000E-03 0.  1.
         11    1    4    4    0    0 -0.16031117057E-01  0.41579352753E-02  0.26762335420E-01  0.31476481029E-01  0.51100000000E-03 0. -1.
</event>
<event>
 8    1  0.1233916E+005  0.1043930E+01  0.7957747E-01            NaN
         13   -1    0    0    0    0  0.00000000000E+00  0.00000000000E+00  0.74505805969E-08  0.10566000000E+00  0.10566000000E+00 0.  1.
     999900   -1    0    0    0    0 -0.00000000000E+00 -0.00000000000E+00 -0.74505805969E-08  0.93827000000E+00  0.93827000000E+00 0.  1.
     999902    2    1    2    0    0 -0.22405463302E-01 -0.74993547619E-02 -0.25727716301E-02  0.10201631268E+01  0.10198862393E+01 0.  0.
     999903    2    3    3    0    0  0.10894296087E-01 -0.91576853437E-01  0.90414865505E-01  0.13065506028E+00  0.19770966052E-01 0.  0.
         14    1    1    2    0    0  0.22405463302E-01  0.74993547619E-02  0.25727716301E-02  0.23766873196E-01  0.00000000000E+00 0.  1.
     999901    1    3    3    0    0 -0.33299759390E-01  0.84077498675E-01 -0.92987637136E-01  0.88950806653E+00  0.88000000000E+00 0.  1.
        -11    1    4    4    0    0  0.20761793687E-02 -0.31302171692E-01  0.18565866966E-01  0.36456673060E-01  0.51100000000E-03 0. -1.
         11    1    4    4    0    0  0.88181167187E-02 -0.60274681745E-01  0.71848998539E-01  0.94198387216E-01  0.51100000000E-03 0.  1.
</event>
<event>
 7    1  0.1233916E+005  0.1043930E+01  0.7957747E-01            NaN
         13   -1    0    0    0    0  0.00000000000E+00  0.00000000000E+00  0.74505805969E-08  0.10566000000E+00  0.10566000000E+00 0. -1.
     999900   -1    0    0    0    0 -0.00000000000E+00 -0.00000000000E+00 -0.74505805969E-08  0.93827000000E+00  0.93827000000E+00 0.  1.
     999903    2    1    2    0    0  0.76889506488E-01  0.72851094920E-01 -0.14449046200E-01  0.10891986490E+00  0.20868248477E-01 0.  0.
         14    1    1    2    0    0  0.34019933335E-01  0.20604141048E-01 -0.15372083276E-01  0.42640209154E-01  0.00000000000E+00 0. -1.
     999901    1    1    2    0    0 -0.11090943982E+00 -0.93455235968E-01  0.29821129477E-01  0.89236992595E+00  0.88000000000E+00 0.  1.
        -11    1    3    3    0    0  0.13702701324E-01  0.93253288353E-02 -0.96592607198E-02  0.19190836879E-01  0.51100000000E-03 0.  1.
         11    1    3    3    0    0  0.63186805164E-01  0.63525766085E-01 -0.47897854804E-02  0.89729028020E-01  0.51100000000E-03 0. -1.
</event>
<event>
 8    1  0.1233916E+005  0.1043930E+01  0.7957747E-01            NaN
         13   -1    0    0    0    0  0.00000000000E+00  0.00000000000E+00  0.74505805969E-08  0.10566000000E+00  0.10566000000E+00 0.  1.
     999900   -1    0    0    0    0 -0.00000000000E+00 -0.00000000000E+00 -0.74505805969E-08  0.93827000000E+00  0.93827000000E+00 0.  1.
     999902    2    1    2    0    0 -0.28495460992E-02 -0.14932706040E-01  0.17726200251E-01  0.10205778310E+01  0.10203106318E+01 0.  0.
     999903    2    3    3    0    0  0.27276254096E-01 -0.32891931610E-01  0.12472502302E+00  0.13340318882E+00  0.20352056845E-01 0.  0.
         14    1    1    2    0    0  0.28495460992E-02  0.14932706040E-01 -0.17726200251E-01  0.23352169021E-01  0.00000000000E+00 0. -1.
     999901    1    3    3    0    0 -0.30125800195E-01  0.17959225570E-01 -0.10699882277E+00  0.88717464216E+00  0.88000000000E+00 0.  1.
        -11    1    4    4    0    0  0.93390889701E-02 -0.24564866851E-02  0.47573463887E-01  0.48546354104E-01  0.51100000000E-03 0. -1.
         11    1    4    4    0    0  0.17937165125E-01 -0.30435444924E-01  0.77151559130E-01  0.84856834714E-01  0.51100000000E-03 0.  1.
</event>
<event>
 8    1  0.1233916E+005  0.1043930E+01  0.7957747E-01            NaN
         13   -1    0    0    0    0  0.00000000000E+00  0.00000000000E+00  0.74505805969E-08  0.10566000000E+00  0.10566000000E+00 0. -1.
     999900   -1    0    0    0    0 -0.00000000000E+00 -0.00000000000E+00 -0.74505805969E-08  0.93827000000E+00  0.93827000000E+00 0. -1.
     999902    2    1    2    0    0 -0.14062127831E-01  0.12390447191E-01  0.14441755935E-01  0.10202692533E+01  0.10199948619E+01 0.  0.
     999903    2    3    3    0    0  0.74335725670E-01 -0.92490475078E-01  0.46764866137E-01  0.12905717313E+00  0.19710736673E-01 0.  0.
         14    1    1    2    0    0  0.14062127831E-01 -0.12390447191E-01 -0.14441755935E-01  0.23660746717E-01  0.00000000000E+00 0.  1.
     999901    1    3    3    0    0 -0.88397853500E-01  0.10488092227E+00 -0.32323110202E-01  0.89121208015E+00  0.88000000000E+00 0. -1.
        -11    1    4    4    0    0  0.22912741978E-01 -0.25875913558E-01  0.44154831172E-02  0.34847012204E-01  0.51100000000E-03 0.  1.
         11    1    4    4    0    0  0.51422983692E-01 -0.66614561520E-01  0.42349383020E-01  0.94210160925E-01  0.51100000000E-03 0. -1.
</event>
<event>
 8    1  0.1233916E+005  0.1043930E+01  0.7957747E-01            NaN
         13   -1    0    0    0    0  0.00000000000E+00  0.00000000000E+00  0.74505805969E-08  0.10566000000E+00  0.10566000000E+00 0. -1.
     999900   -1    0    0    0    0 -0.00000000000E+00 -0.00000000000E+00 -0.74505805969E-08  0.93827000000E+00  0.93827000000E+00 0. -1.
     999902    2    1    2    0    0  0.91016392702E-02  0.22327492369E-01 -0.65224630661E-02  0.10189520242E+01  0.10186458306E+01 0.  0.
     999903    2    3    3    0    0  0.34769127642E-01  0.83825532624E-02 -0.12378735275E+00  0.13069286398E+00  0.21866791212E-01 0.  0.
         14    1    1    2    0    0 -0.91016392702E-02 -0.22327492369E-01  0.65224630661E-02  0.24977975846E-01  0.00000000000E+00 0. -1.
     999901    1    3    3    0    0 -0.25667488372E-01  0.13944939107E-01  0.11726488968E+00  0.88825916018E+00  0.88000000000E+00 0.  1.
        -11    1    4    4    0    0  0.31648757829E-01 -0.10226491821E-02 -0.86770694540E-01  0.92369390144E-01  0.51100000000E-03 0.  1.
         11    1    4    4    0    0  0.31203698134E-02  0.94052024445E-02 -0.37016658208E-01  0.38323473834E-01  0.51100000000E-03 0. -1.
</event>
<event>
 8    1  0.1233916E+005  0.1043930E+01  0.7957747E-01            NaN
         13   -1    0    0    0    0  0.00000000000E+00  0.00000000000E+00  0.74505805969E-08  0.10566000000E+00  0.10566000000E+00 0.  1.
     999900   -1    0    0    0    0 -0.00000000000E+00 -0.00000000000E+00 -0.74505805969E-08  0.93827000000E+00  0.93827000000E+00 0.  1.
     999902    2    1    2    0    0 -0.70142877728E-02 -0.18189482086E-01 -0.14684946799E-01  0.10195229282E+01  0.10192307374E+01 0.  0.
     999903    2    3    3    0    0  0.20477201531E-01  0.49338576465E-01  0.11387007789E+00  0.12719887548E+00  0.18961760862E-01 0.  0.
         14    1    1    2    0    0  0.70142877728E-02  0.18189482086E-01  0.14684946799E-01  0.24407071803E-01  0.00000000000E+00 0.  1.
     999901    1    3    3    0    0 -0.27491489304E-01 -0.67528058551E-01 -0.12855502469E+00  0.89232405271E+00  0.88000000000E+00 0.  1.
        -11    1    4    4    0    0  0.21710362796E-01  0.50388214890E-01  0.10880793998E+00  0.12185951328E+00  0.51100000000E-03 0. -1.
         11    1    4    4    0    0 -0.12331612651E-02 -0.10496384248E-02  0.50621379086E-02  0.53393622029E-02  0.51100000000E-03 0.  1.
</event>
<event>
 8    1  0.1233916E+005  0.1043930E+01  0.7957747E-01            NaN
         13   -1    0    0    0    0  0.00000000000E+00  0.00000000000E+00  0.74505805969E-08  0.10566000000E+00  0.10566000000E+00 0. -1.
     999900   -1    0    0    0    0 -0.00000000000E+00 -0.00000000000E+00 -0.74505805969E-08  0.93827000000E+00  0.93827000000E+00 0. -1.
     999902    2    1    2    0    0  0.52481160660E-03  0.26705481960E-01 -0.48214532062E-02  0.10167876971E+01  0.10164253620E+01 0.  0.
     999903    2    3    3    0    0 -0.71727094300E-01 -0.89361013812E-01 -0.43967649607E-01  0.12537073855E+00  0.25583217690E-01 0.  0.
         14    1    1    2    0    0 -0.52481160660E-03 -0.26705481960E-01  0.48214532062E-02  0.27142302868E-01  0.00000000000E+00 0.  1.
     999901    1    3    3    0    0  0.72251905907E-01  0.11606649577E+00  0.39146196401E-01  0.89141695858E+00  0.88000000000E+00 0. -1.
        -11    1    4    4    0    0 -0.17766504554E-01 -0.26922334717E-01 -0.24686414164E-01  0.40621927034E-01  0.51100000000E-03 0. -1.
         11    1    4    4    0    0 -0.53960589746E-01 -0.62438679095E-01 -0.19281235443E-01  0.84748811520E-01  0.51100000000E-03 0.  1.
</event>
<event>
 8    1  0.1233916E+005  0.1043930E+01  0.7957747E-01            NaN
         13   -1    0    0    0    0  0.00000000000E+00  0.00000000000E+00  0.74505805969E-08  0.10566000000E+00  0.10566000000E+00 0.  1.
     999900   -1    0    0    0    0 -0.00000000000E+00 -0.00000000000E+00 -0.74505805969E-08  0.93827000000E+00  0.93827000000E+00 0. -1.
     999902    2    1    2    0    0  0.13569908295E-01  0.16800581902E-01 -0.97439409353E-02  0.10202372511E+01  0.10199621083E+01 0.  0.
     999903    2    3    3    0    0  0.95460362509E-01  0.54091526698E-01 -0.73180338408E-01  0.13337715080E+00  0.19887894698E-01 0.  0.
         14    1    1    2    0    0 -0.13569908295E-01 -0.16800581902E-01  0.97439409353E-02  0.23692748855E-01  0.00000000000E+00 0. -1.
     999901    1    3    3    0    0 -0.81890454215E-01 -0.37290944796E-01  0.63436397473E-01  0.88686010034E+00  0.88000000000E+00 0.  1.
        -11    1    4    4    0    0  0.23253293321E-01  0.73464508431E-02 -0.24347428181E-01  0.34463667395E-01  0.51100000000E-03 0. -1.
         11    1    4    4    0    0  0.72207069189E-01  0.46745075855E-01 -0.48832910227E-01  0.98913483407E-01  0.51100000000E-03 0.  1.
</event>
<event>
 8    1  0.1233916E+005  0.1043930E+01  0.7957747E-01            NaN
         13   -1    0    0    0    0  0.00000000000E+00  0.00000000000E+00  0.74505805969E-08  0.10566000000E+00  0.10566000000E+00 0.  1.
     999900   -1    0    0    0    0 -0.00000000000E+00 -0.00000000000E+00 -0.74505805969E-08  0.93827000000E+00  0.93827000000E+00 0.  1.
     999902    2    1    2    0    0  0.17511261698E-01  0.10321781211E-02 -0.11890404864E-01  0.10227382232E+01  0.10225186461E+01 0.  0.
     999903    2    3    3    0    0  0.66032668122E-01 -0.11422996867E+00 -0.10453697852E-01  0.13389529356E+00  0.20245267061E-01 0.  0.
         14    1    1    2    0    0 -0.17511261698E-01 -0.10321781211E-02  0.11890404864E-01  0.21191776843E-01  0.00000000000E+00 0.  1.
     999901    1    3    3    0    0 -0.48521406424E-01  0.11526214679E+00 -0.14367070119E-02  0.88884292959E+00  0.88000000000E+00 0.  1.
        -11    1    4    4    0    0  0.60836402167E-01 -0.89704133563E-01 -0.75347369056E-02  0.10865050754E+00  0.51100000000E-03 0.  1.
         11    1    4    4    0    0  0.51962659546E-02 -0.24525835104E-01 -0.29189609461E-02  0.25244786025E-01  0.51100000000E-03 0. -1.
</event>
<event>
 8    1  0.1233916E+005  0.1043930E+01  0.7957747E-01            NaN
         13   -1    0    0    0    0  0.00000000000E+00  0.00000000000E+00  0.74505805969E-08  0.10566000000E+00  0.10566000000E+00 0.  1.
     999900   -1    0    0    0    0 -0.00000000000E+00 -0.00000000000E+00 -0.74505805969E-08  0.93827000000E+00  0.93827000000E+00 0. -1.
     999902    2    1    2    0    0  0.19076062721E-01  0.51858024637E-02  0.55828806862E-02  0.10233884014E+01  0.10231822237E+01 0.  0.
     999903    2    3    3    0    0 -0.27458686631E-01  0.44509741887E-01  0.12156997483E+00  0.13368909202E+00  0.18931929381E-01 0.  0.
         14    1    1    2    0    0 -0.19076062721E-01 -0.51858024637E-02 -0.55828806862E-02  0.20541598596E-01  0.00000000000E+00 0. -1.
     999901    1    3    3    0    0  0.46534749352E-01 -0.39323939423E-01 -0.11598709415E+00  0.88969930938E+00  0.88000000000E+00 0. -1.
        -11    1    4    4    0    0 -0.63433657838E-02  0.14481083556E-01  0.59573856760E-01  0.61638020739E-01  0.51100000000E-03 0. -1.
         11    1    4    4    0    0 -0.21115320848E-01  0.30028658331E-01  0.61996118073E-01  0.72051071281E-01  0.51100000000E-03 0.  1.
</event>
<event>
 8    1  0.1233916E+005  0.1043930E+01  0.7957747E-01            NaN
         13   -1    0    0    0    0  0.00000000000E+00  0.00000000000E+00  0.74505805969E-08  0.10566000000E+00  0.10566000000E+00 0.  1.
     999900   -1    0    0    0    0 -0.00000000000E+00 -0.00000000000E+00 -0.74505805969E-08  0.93827000000E+00  0.93827000000E+00 0. -1.
     999902    2    1    2    0    0  0.38387885302E-02  0.22372720609E-01 -0.24415455971E-02  0.10210994050E+01  0.10208441403E+01 0.  0.
     999903    2    3    3    0    0  0.24668975308E-01  0.90372307630E-01  0.92352521650E-01  0.13315585062E+00  0.20634436505E-01 0.  0.
         14    1    1    2    0    0 -0.38387885302E-02 -0.22372720609E-01  0.24415455971E-02  0.22830595037E-01  0.00000000000E+00 0.  1.
     999901    1    3    3    0    0 -0.20830186778E-01 -0.67999587022E-01 -0.94794067247E-01  0.88794355434E+00  0.88000000000E+00 0. -1.
        -11    1    4    4    0    0  0.74439985222E-02  0.59534451922E-01  0.65153174944E-01  0.88571786738E-01  0.51100000000E-03 0.  1.
         11    1    4    4    0    0  0.17224976786E-01  0.30837855708E-01  0.27199346705E-01  0.44584063881E-01  0.51100000000E-03 0. -1.
</event>
<event>
 8    1  0.1233916E+005  0.1043930E+01  0.7957747E-01            NaN
         13   -1    0    0    0    0  0.00000000000E+00  0.00000000000E+00  0.74505805969E-08  0.10566000000E+00  0.10566000000E+00 0. -1.
     999900   -1    0    0    0    0 -0.00000000000E+00 -0.00000000000E+00 -0.74505805969E-08  0.93827000000E+00  0.93827000000E+00 0. -1.
     999902    2    1    2    0    0 -0.66540273070E-02  0.13634921850E-01  0.16874083282E-01  0.10212381103E+01  0.10209859725E+01 0.  0.
     999903    2    3    3    0    0  0.12113171880E+00  0.12399791391E-01 -0.41518489774E-01  0.13009254693E+00  0.19329708967E-01 0.  0.
         14    1    1    2    0    0  0.66540273070E-02 -0.13634921850E-01 -0.16874083282E-01  0.22691889738E-01  0.00000000000E+00 0.  1.
     999901    1    3    3    0    0 -0.12778574610E+00  0.12351304591E-02  0.58392573056E-01  0.89114556333E+00  0.88000000000E+00 0. -1.
        -11    1    4    4    0    0  0.40490265449E-01  0.13281992853E-01 -0.15613168855E-01  0.45386177334E-01  0.51100000000E-03 0.  1.
         11    1    4    4    0    0  0.80641453348E-01 -0.88220146191E-03 -0.25905320919E-01  0.84706369598E-01  0.51100000000E-03 0. -1.
</event>
<event>
 8    1  0.1233916E+005  0.1043930E+01  0.7957747E-01            NaN
         13   -1    0    0    0    0  0.00000000000E+00  0.00000000000E+00  0.74505805969E-08  0.10566000000E+00  0.10566000000E+00 0.  1.
     999900   -1    0    0    0    0 -0.00000000000E+00 -0.00000000000E+00 -0.74505805969E-08  0.93827000000E+00  0.93827000000E+00 0.  1.
     999902    2    1    2    0    0 -0.85301130702E-02  0.10238198178E-01  0.18666658391E-01  0.10209947070E+01  0.10207370690E+01 0.  0.
     999903    2    3    3    0    0 -0.73770577759E-01  0.85601671513E-01  0.68316669583E-01  0.13397661529E+00  0.22645568974E-01 0.  0.
         14    1    1    2    0    0  0.85301130702E-02 -0.10238198178E-01 -0.18666658391E-01  0.22935293031E-01  0.00000000000E+00 0. -1.
     999901    1    3    3    0    0  0.65240464689E-01 -0.75363473334E-01 -0.49650011192E-01  0.88701809167E+00  0.88000000000E+00 0.  1.
        -11    1    4    4    0    0 -0.10474592396E-02  0.60557540672E-02  0.91228946770E-02  0.11011705430E-01  0.51100000000E-03 0.  1.
         11    1    4    4    0    0 -0.72723118520E-01  0.79545917445E-01  0.59193774906E-01  0.12296490986E+00  0.51100000000E-03 0. -1.
</event>
<event>
 8    1  0.1233916E+005  0.1043930E+01  0.7957747E-01            NaN
         13   -1    0    0    0    0  0.00000000000E+00  0.00000000000E+00  0.74505805969E-08  0.10566000000E+00  0.10566000000E+00 0.  1.
     999900   -1    0    0    0    0 -0.00000000000E+00 -0.00000000000E+00 -0.74505805969E-08  0.93827000000E+00  0.93827000000E+00 0. -1.
     999902    2    1    2    0    0 -0.53022243267E-02  0.13831039318E-02  0.23789268188E-01  0.10195177932E+01  0.10192254779E+01 0.  0.
     999903    2    3    3    0    0  0.25137213250E-01  0.60474457384E-01 -0.10729170764E+00  0.12732915305E+00  0.20301802917E-01 0.  0.
         14    1    1    2    0    0  0.53022243267E-02 -0.13831039318E-02 -0.23789268188E-01  0.24412206787E-01  0.00000000000E+00 0. -1.
     999901    1    3    3    0    0 -0.30439437577E-01 -0.59091353452E-01  0.13108097583E+00  0.89218864016E+00  0.88000000000E+00 0.  1.
        -11    1    4    4    0    0  0.93056927607E-02  0.44182907854E-02 -0.16254602170E-01  0.19250725283E-01  0.51100000000E-03 0. -1.
         11    1    4    4    0    0  0.15831520490E-01  0.56056166599E-01 -0.91037105471E-01  0.10807842777E+00  0.51100000000E-03 0.  1.
</event>
<event>
 8    1  0.1233916E+005  0.1043930E+01  0.7957747E-01            NaN
         13   -1    0    0    0    0  0.00000000000E+00  0.00000000000E+00  0.74505805969E-08  0.10566000000E+00  0.10566000000E+00 0.  1.
     999900   -1    0    0    0    0 -0.00000000000E+00 -0.00000000000E+00 -0.74505805969E-08  0.93827000000E+00  0.93827000000E+00 0. -1.
     999902    2    1    2    0    0  0.66681681062E-02 -0.11961962746E-01  0.19439805035E-01  0.10201506174E+01  0.10198734348E+01 0.  0.
     999903    2    3    3    0    0  0.63357635032E-01 -0.94402715188E-01 -0.60874087935E-01  0.13084724128E+00  0.22119751714E-01 0.  0.
         14    1    1    2    0    0 -0.66681681062E-02  0.11961962746E-01 -0.19439805035E-01  0.23779382633E-01  0.00000000000E+00 0. -1.
     999901    1    3    3    0    0 -0.56689466925E-01  0.82440752442E-01  0.80313892970E-01  0.88930337609E+00  0.88000000000E+00 0. -1.
        -11    1    4    4    0    0  0.17464010006E-01 -0.34647741177E-01 -0.31490318641E-01  0.49973582053E-01  0.51100000000E-03 0. -1.
         11    1    4    4    0    0  0.45893625026E-01 -0.59754974011E-01 -0.29383769294E-01  0.80873659222E-01  0.51100000000E-03 0.  1.
</event>
<event>
 8    1  0.1233916E+005  0.1043930E+01  0.7957747E-01            NaN
         13   -1    0    0    0    0  0.00000000000E+00  0.00000000000E+00  0.74505805969E-08  0.10566000000E+00  0.10566000000E+00 0. -1.
     999900   -1    0    0    0    0 -0.00000000000E+00 -0.00000000000E+00 -0.74505805969E-08  0.93827000000E+00  0.93827000000E+00 0.  1.
     999902    2    1    2    0    0 -0.15930812672E-01  0.14787960030E-01  0.58746957810E-02  0.10214136370E+01  0.10211654279E+01 0.  0.
     999903    2    3    3    0    0 -0.46231536948E-01 -0.68462882499E-01  0.10078643760E+00  0.13188731615E+00  0.20293764274E-01 0.  0.
         14    1    1    2    0    0  0.15930812672E-01 -0.14787960030E-01 -0.58746957810E-02  0.22516363044E-01  0.00000000000E+00 0.  1.
     999901    1    3    3    0    0  0.30300724276E-01  0.83250842529E-01 -0.94911741818E-01  0.88952632081E+00  0.88000000000E+00 0. -1.
        -11    1    4    4    0    0 -0.18666991334E-01 -0.14985490558E-01  0.38105827734E-01  0.45003741189E-01  0.51100000000E-03 0.  1.
         11    1    4    4    0    0 -0.27564545614E-01 -0.53477391942E-01  0.62680609865E-01  0.86883574960E-01  0.51100000000E-03 0. -1.
</event>
<event>
 8    1  0.1233916E+005  0.1043930E+01  0.7957747E-01            NaN
         13   -1    0    0    0    0  0.00000000000E+00  0.00000000000E+00  0.74505805969E-08  0.10566000000E+00  0.10566000000E+00 0. -1.
     999900   -1    0    0    0    0 -0.00000000000E+00 -0.00000000000E+00 -0.74505805969E-08  0.93827000000E+00  0.93827000000E+00 0. -1.
     999902    2    1    2    0    0  0.11149997626E-01  0.35254286472E-02 -0.20380735864E-01  0.10204326493E+01  0.10201620785E+01 0.  0.
     999903    2    3    3    0    0  0.50593099114E-01  0.97134539504E-01  0.66953749317E-01  0.13029460599E+00  0.22340531795E-01 0.  0.
         14    1    1    2    0    0 -0.11149997626E-01 -0.35254286472E-02  0.20380735864E-01  0.23497350671E-01  0.00000000000E+00 0. -1.
     999901    1    3    3    0    0 -0.39443101487E-01 -0.93609110857E-01 -0.87334485181E-01  0.89013804333E+00  0.88000000000E+00 0. -1.
        -11    1    4    4    0    0  0.33011288648E-02 -0.15348901056E-03  0.36857895215E-02  0.49766631446E-02  0.51100000000E-03 0.  1.
         11    1    4    4    0    0  0.47291970249E-01  0.97288028515E-01  0.63267959795E-01  0.12531794285E+00  0.51100000000E-03 0. -1.
</event>
<event>
 8    1  0.1233916E+005  0.1043930E+01  0.7957747E-01            NaN
         13   -1    0    0    0    0  0.00000000000E+00  0.00000000000E+00  0.74505805969E-08  0.10566000000E+00  0.10566000000E+00 0.  1.
     999900   -1    0    0    0    0 -0.00000000000E+00 -0.00000000000E+00 -0.74505805969E-08  0.93827000000E+00  0.93827000000E+00 0. -1.
     999902    2    1    2    0    0 -0.16261122403E-01  0.18886781229E-01  0.24192787263E-02  0.10188902812E+01  0.10185825532E+01 0.  0.
     999903    2    3    3    0    0  0.12270407909E+00 -0.23733100051E-01  0.93693100634E-02  0.12693956260E+00  0.20157319234E-01 0.  0.
         14    1    1    2    0    0  0.16261122403E-01 -0.18886781229E-01 -0.24192787263E-02  0.25039718780E-01  0.00000000000E+00 0. -1.
     999901    1    3    3    0    0 -0.13896520150E+00  0.42619881280E-01 -0.69500313371E-02  0.89195071862E+00  0.88000000000E+00 0. -1.
        -11    1    4    4    0    0  0.33621133839E-01 -0.13736077672E-01 -0.30021648352E-02  0.36446324714E-01  0.51100000000E-03 0.  1.
         11    1    4    4    0    0  0.89082945253E-01 -0.99970223791E-02  0.12371474899E-01  0.90493237889E-01  0.51100000000E-03 0. -1.
</event>
<event>
 8    1  0.1233916E+005  0.1043930E+01  0.7957747E-01            NaN
         13   -1    0    0    0    0  0.00000000000E+00  0.00000000000E+00  0.74505805969E-08  0.10566000000E+00  0.10566000000E+00 0. -1.
     999900   -1    0    0    0    0 -0.00000000000E+00 -0.00000000000E+00 -0.74505805969E-08  0.93827000000E+00  0.93827000000E+00 0.  1.
     999902    2    1    2    0    0 -0.23054101664E-01 -0.10404611262E-02  0.33635987542E-02  0.10206085944E+01  0.10203421068E+01 0.  0.
     999903    2    3    3    0    0 -0.68683652580E-01 -0.10705856113E+00  0.31960351558E-01  0.13261103375E+00  0.19627596825E-01 0.  0.
         14    1    1    2    0    0  0.23054101664E-01  0.10404611262E-02 -0.33635987542E-02  0.23321405607E-01  0.00000000000E+00 0.  1.
     999901    1    3    3    0    0  0.45629550915E-01  0.10601810000E+00 -0.28596752804E-01  0.88799756065E+00  0.88000000000E+00 0. -1.
        -11    1    4    4    0    0 -0.41877194441E-01 -0.65740739535E-01  0.29341143689E-01  0.83286902229E-01  0.51100000000E-03 0.  1.
         11    1    4    4    0    0 -0.26806458139E-01 -0.41317821592E-01  0.26192078688E-02  0.49324131517E-01  0.51100000000E-03 0. -1.
</event>
<event>
 8    1  0.1233916E+005  0.1043930E+01  0.7957747E-01            NaN
         13   -1    0    0    0    0  0.00000000000E+00  0.00000000000E+00  0.74505805969E-08  0.10566000000E+00  0.10566000000E+00 0.  1.
     999900   -1    0    0    0    0 -0.00000000000E+00 -0.00000000000E+00 -0.74505805969E-08  0.93827000000E+00  0.93827000000E+00 0.  1.
     999902    2    1    2    0    0 -0.79076667996E-02 -0.19799874400E-02  0.21930195651E-01  0.10205337391E+01  0.10202655182E+01 0.  0.
     999903    2    3    3    0    0 -0.11859497595E+00  0.27055097603E-01  0.49184931213E-01  0.13270631373E+00  0.19876157016E-01 0.  0.
         14    1    1    2    0    0  0.79076667996E-02  0.19799874400E-02 -0.21930195651E-01  0.23396260935E-01  0.00000000000E+00 0. -1.
     999901    1    3    3    0    0  0.11068730915E+00 -0.29035085043E-01 -0.27254735562E-01  0.88782742534E+00  0.88000000000E+00 0.  1.
        -11    1    4    4    0    0 -0.60991839129E-01  0.21321163649E-01  0.18618897044E-01  0.67242255375E-01  0.51100000000E-03 0.  1.
         11    1    4    4    0    0 -0.57603136821E-01  0.57339339541E-02  0.30566034169E-01  0.65464058353E-01  0.51100000000E-03 0. -1.
</event>
<event>
 8    1  0.1233916E+005  0.1043930E+01  0.7957747E-01            NaN
         13   -1    0    0    0    0  0.00000000000E+00  0.00000000000E+00  0.74505805969E-08  0.10566000000E+00  0.10566000000E+00 0. -1.
     999900   -1    0    0    0    0 -0.00000000000E+00 -0.00000000000E+00 -0.74505805969E-08  0.93827000000E+00  0.93827000000E+00 0.  1.
     999902    2    1    2    0    0 -0.15070026603E-01 -0.68667207599E-02  0.13775438098E-01  0.10223888707E+01  0.10221619161E+01 0.  0.
     999903    2    3    3    0    0  0.11344580510E+00 -0.62565013634E-01 -0.44666820575E-03  0.13119815761E+00  0.20698440057E-01 0.  0.
         14    1    1    2    0    0  0.15070026603E-01  0.68667207599E-02 -0.13775438098E-01  0.21541129279E-01  0.00000000000E+00 0.  1.
     999901    1    3    3    0    0 -0.12851583171E+00  0.55698292875E-01  0.14222106304E-01  0.89119071311E+00  0.88000000000E+00 0. -1.
        -11    1    4    4    0    0  0.57386656498E-01 -0.21024711505E-01 -0.46612276845E-02  0.61296451793E-01  0.51100000000E-03 0. -1.
         11    1    4    4    0    0  0.56059148607E-01 -0.41540302129E-01  0.42145594787E-02  0.69901705817E-01  0.51100000000E-03 0.  1.
</event>
<event>
 8    1  0.1233916E+005  0.1043930E+01  0.7957747E-01            NaN
         13   -1    0    0    0    0  0.00000000000E+00  0.00000000000E+00  0.74505805969E-08  0.10566000000E+00  0.10566000000E+00 0. -1.
     999900   -1    0    0    0    0 -0.00000000000E+00 -0.00000000000E+00 -0.74505805969E-08  0.93827000000E+00  0.93827000000E+00 0. -1.
     999902    2    1    2    0    0  0.66260123038E-02 -0.21907669151E-01  0.61016552292E-02  0.10202428684E+01  0.10199678575E+01 0.  0.
     999903    2    3    3    0    0  0.78085993838E-01 -0.25344392755E-01 -0.99976104278E-01  0.13098990603E+00  0.20576038918E-01 0.  0.
         14    1    1    2    0    0 -0.66260123038E-02  0.21907669151E-01 -0.61016552292E-02  0.23687131595E-01  0.00000000000E+00 0. -1.
     999901    1    3    3    0    0 -0.71459981534E-01  0.34367236038E-02  0.10607775951E+00  0.88925296237E+00  0.88000000000E+00 0.  1.
        -11    1    4    4    0    0  0.60614278425E-01 -0.19325276144E-01 -0.62415285844E-01  0.89126236738E-01  0.51100000000E-03 0. -1.
         11    1    4    4    0    0  0.17471715413E-01 -0.60191166108E-02 -0.37560818433E-01  0.41863669292E-01  0.51100000000E-03 0.  1.
</event>
<event>
 8    1  0.1233916E+005  0.1043930E+01  0.7957747E-01            NaN
         13   -1    0    0    0    0  0.00000000000E+00  0.00000000000E+00  0.74505805969E-08  0.10566000000E+00  0.10566000000E+00 0.  1.
     999900   -1    0    0    0    0 -0.00000000000E+00 -0.00000000000E+00 -0.74505805969E-08  0.93827000000E+00  0.93827000000E+00 0.  1.
     999902    2    1    2    0    0  0.11897202823E-01 -0.18572085851E-01  0.96167163352E-02  0.10198686816E+01  0.10195848080E+01 0.  0.
     999903    2    3    3    0    0 -0.10488933386E+00  0.64439042724E-01 -0.26921899726E-01  0.12753185450E+00  0.19632183852E-01 0.  0.
         14    1    1    2    0    0 -0.11897202823E-01  0.18572085851E-01 -0.96167163352E-02  0.24061318354E-01  0.00000000000E+00 0. -1.
     999901    1    3    3    0    0  0.11678653668E+00 -0.83011128575E-01  0.36538616061E-01  0.89233682715E+00  0.88000000000E+00 0.  1.
        -11    1    4    4    0    0 -0.70511140941E-01  0.52261139522E-01 -0.14246359009E-01  0.88917195001E-01  0.51100000000E-03 0. -1.
         11    1    4    4    0    0 -0.34378192918E-01  0.12177903202E-01 -0.12675540717E-01  0.38614659499E-01  0.51100000000E-03 0.  1.
</event>
<event>
 8    1  0.1233916E+005  0.1043930E+01  0.7957747E-01            NaN
         13   -1    0    0    0    0  0.00000000000E+00  0.00000000000E+00  0.74505805969E-08  0.10566000000E+00  0.10566000000E+00 0. -1.
     999900   -1    0    0    0    0 -0.00000000000E+00 -0.00000000000E+00 -0.74505805969E-08  0.93827000000E+00  0.93827000000E+00 0.  1.
     999902    2    1    2    0    0  0.71829287971E-02  0.71955055275E-02 -0.29996695432E-01  0.10122571172E+01  0.10117614837E+01 0.  0.
     999903    2    3    3    0    0  0.36490921721E-01 -0.90964784841E-01 -0.75144652436E-01  0.12516482267E+00  0.20330631932E-01 0.  0.
         14    1    1    2    0    0 -0.71829287971E-02 -0.71955055275E-02  0.29996695432E-01  0.31672882766E-01  0.00000000000E+00 0. -1.
     999901    1    3    3    0    0 -0.29307992924E-01  0.98160290369E-01  0.45147957004E-01  0.88709229456E+00  0.88000000000E+00 0.  1.
        -11    1    4    4    0    0  0.29681420592E-01 -0.61567869082E-01 -0.41479292495E-01  0.79952373690E-01  0.51100000000E-03 0.  1.
         11    1    4    4    0    0  0.68095011288E-02 -0.29396915759E-01 -0.33665359941E-01  0.45212448979E-01  0.51100000000E-03 0. -1.
</event>
<event>
 8    1  0.1233916E+005  0.1043930E+01  0.7957747E-01            NaN
         13   -1    0    0    0    0  0.00000000000E+00  0.00000000000E+00  0.74505805969E-08  0.10566000000E+00  0.10566000000E+00 0.  1.
     999900   -1    0    0    0    0 -0.00000000000E+00 -0.00000000000E+00 -0.74505805969E-08  0.93827000000E+00  0.93827000000E+00 0.  1.
     999902    2    1    2    0    0  0.19807233516E-01  0.12296663920E-01  0.40431933710E-02  0.10202681773E+01  0.10199937606E+01 0.  0.
     999903    2    3    3    0    0 -0.87037244784E-01 -0.72448680469E-01  0.56625575356E-01  0.12821300921E+00  0.20194718727E-01 0.  0.
         14    1    1    2    0    0 -0.19807233516E-01 -0.12296663920E-01 -0.40431933710E-02  0.23661822748E-01  0.00000000000E+00 0. -1.
     999901    1    3    3    0    0  0.10684447830E+00  0.84745344389E-01 -0.52582381985E-01  0.89205516804E+00  0.88000000000E+00 0.  1.
        -11    1    4    4    0    0 -0.66075534855E-01 -0.60473148062E-01  0.52172300274E-01  0.10365899855E+00  0.51100000000E-03 0. -1.
         11    1    4    4    0    0 -0.20961709929E-01 -0.11975532406E-01  0.44532750824E-02  0.24554010661E-01  0.51100000000E-03 0.  1.
</event>
<event>
 8    1  0.1233916E+005  0.1043930E+01  0.7957747E-01            NaN
         13   -1    0    0    0    0  0.00000000000E+00  0.00000000000E+00  0.74505805969E-08  0.10566000000E+00  0.10566000000E+00 0.  1.
     999900   -1    0    0    0    0 -0.00000000000E+00 -0.00000000000E+00 -0.74505805969E-08  0.93827000000E+00  0.93827000000E+00 0.  1.
     999902    2    1    2    0    0 -0.20335023881E-01 -0.55314477987E-02  0.96725801319E-02  0.10207423111E+01  0.10204789056E+01 0.  0.
     999903    2    3    3    0    0  0.11895792645E+00 -0.31632840063E-01  0.33725757585E-01  0.12907961475E+00  0.19300139446E-01 0.  0.
         14    1    1    2    0    0  0.20335023881E-01  0.55314477987E-02 -0.96725801319E-02  0.23187688919E-01  0.00000000000E+00 0. -1.
     999901    1    3    3    0    0 -0.13929295033E+00  0.26101392264E-01 -0.24053177453E-01  0.89166269634E+00  0.88000000000E+00 0.  1.
        -11    1    4    4    0    0  0.39495804060E-01 -0.18847079056E-01  0.73216396092E-02  0.44373398054E-01  0.51100000000E-03 0. -1.
         11    1    4    4    0    0  0.79462122390E-01 -0.12785761007E-01  0.26404117976E-01  0.84706216692E-01  0.51100000000E-03 0.  1.
</event>
<event>
 7    1  0.1233916E+005  0.1043930E+01  0.7957747E-01            NaN
         13   -1    0    0    0    0  0.00000000000E+00  0.00000000000E+00  0.74505805969E-08  0.10566000000E+00  0.10566000000E+00 0.  1.
     999900   -1    0    0    0    0 -0.00000000000E+00 -0.00000000000E+00 -0.74505805969E-08  0.93827000000E+00  0.93827000000E+00 0.  1.
     999902    2    1    2    0    0 -0.20715691384E-01  0.10216568612E-01  0.13893044650E-02  0.10207902439E+01  0.10205279388E+01 0.  0.
         14    1    1    2    0    0  0.20715691384E-01 -0.10216568612E-01 -0.13893044650E-02  0.23139756062E-01  0.00000000000E+00 0. -1.
     999901    1    3    3    0    0 -0.26122028341E-03  0.12805012997E+00 -0.36916279219E-01  0.89003354751E+00  0.88000000000E+00 0. -1.
        -11    1    3    3    0    0 -0.27651760175E-01 -0.10171915301E+00  0.40583385841E-01  0.11295431934E+00  0.51100000000E-03 0.  1.
         11    1    3    3    0    0  0.71972890742E-02 -0.16114408348E-01 -0.22778021569E-02  0.17802377091E-01  0.51100000000E-03 0. -1.
</event>
<event>
 8    1  0.1233916E+005  0.1043930E+01  0.7957747E-01            NaN
         13   -1    0    0    0    0  0.00000000000E+00  0.00000000000E+00  0.74505805969E-08  0.10566000000E+00  0.10566000000E+00 0. -1.
     999900   -1    0    0    0    0 -0.00000000000E+00 -0.00000000000E+00 -0.74505805969E-08  0.93827000000E+00  0.93827000000E+00 0. -1.
     999902    2    1    2    0    0  0.70753741521E-02 -0.18001287736E-01  0.11569113352E-01  0.10213922170E+01  0.10211435302E+01 0.  0.
     999903    2    3    3    0    0 -0.73120391085E-01  0.10411922981E+00  0.11961219546E-01  0.12934685081E+00  0.20003285535E-01 0.  0.
         14    1    1    2    0    0 -0.70753741521E-02  0.18001287736E-01 -0.11569113352E-01  0.22537783016E-01  0.00000000000E+00 0. -1.
     999901    1    3    3    0    0  0.80195765237E-01 -0.12212051755E+00 -0.39210619402E-03  0.89204536618E+00  0.88000000000E+00 0. -1.
        -11    1    4    4    0    0 -0.58571184185E-01  0.69622068373E-01  0.40318042557E-02  0.91073226516E-01  0.51100000000E-03 0.  1.
         11    1    4    4    0    0 -0.14549206900E-01  0.34497161437E-01  0.79294152902E-02  0.38273624293E-01  0.51100000000E-03 0. -1.
</event>
<event>
 8    1  0.1233916E+005  0.1043930E+01  0.7957747E-01            NaN
         13   -1    0    0    0    0  0.00000000000E+00  0.00000000000E+00  0.74505805969E-08  0.10566000000E+00  0.10566000000E+00 0. -1.
     999900   -1    0    0    0    0 -0.00000000000E+00 -0.00000000000E+00 -0.74505805969E-08  0.93827000000E+00  0.93827000000E+00 0.  1.
     999902    2    1    2    0    0  0.39602954378E-02  0.89343217855E-02  0.49551318418E-02  0.10329728390E+01  0.10329147238E+01 0.  0.
     999903    2    3    3    0    0 -0.63921193252E-02 -0.51253650519E-01  0.13071684428E+00  0.14193649135E+00  0.19780756247E-01 0.  0.
         14    1    1    2    0    0 -0.39602954378E-02 -0.89343217855E-02 -0.49551318418E-02  0.10957161005E-01  0.00000000000E+00 0.  1.
     999901    1    3    3    0    0  0.10352414763E-01  0.60187972304E-01 -0.12576171244E+00  0.89103634764E+00  0.88000000000E+00 0.  1.
        -11    1    4    4    0    0 -0.26469425322E-02 -0.30384980614E-01  0.50814458234E-01  0.59267391020E-01  0.51100000000E-03 0. -1.
         11    1    4    4    0    0 -0.37451767930E-02 -0.20868669905E-01  0.79902386048E-01  0.82669100334E-01  0.51100000000E-03 0.  1.
</event>
<event>
 8    1  0.1233916E+005  0.1043930E+01  0.7957747E-01            NaN
         13   -1    0    0    0    0  0.00000000000E+00  0.00000000000E+00  0.74505805969E-08  0.10566000000E+00  0.10566000000E+00 0. -1.
     999900   -1    0    0    0    0 -0.00000000000E+00 -0.00000000000E+00 -0.74505805969E-08  0.93827000000E+00  0.93827000000E+00 0. -1.
     999902    2    1    2    0    0 -0.10785995966E-01  0.16365506102E-01  0.14277171324E-01  0.10196811831E+01  0.10193928144E+01 0.  0.
     999903    2    3    3    0    0  0.90543445078E-01 -0.66161603164E-01  0.60414418141E-01  0.12883494222E+00  0.19314948547E-01 0.  0.
         14    1    1    2    0    0  0.10785995966E-01 -0.16365506102E-01 -0.14277171324E-01  0.24248816878E-01  0.00000000000E+00 0.  1.
     999901    1    3    3    0    0 -0.10132944104E+00  0.82527109266E-01 -0.46137246817E-01  0.89084624090E+00  0.88000000000E+00 0.  1.
        -11    1    4    4    0    0  0.71020865512E-01 -0.58211471980E-01  0.55090852361E-01  0.10708782350E+00  0.51100000000E-03 0.  1.
         11    1    4    4    0    0  0.19522579566E-01 -0.79501311844E-02  0.53235657806E-02  0.21747118714E-01  0.51100000000E-03 0. -1.
</event>
<event>
 7    1  0.1233916E+005  0.1043930E+01  0.7957747E-01            NaN
         13   -1    0    0    0    0  0.00000000000E+00  0.00000000000E+00  0.74505805969E-08  0.10566000000E+00  0.10566000000E+00 0. -1.
     999900   -1    0    0    0    0 -0.00000000000E+00 -0.00000000000E+00 -0.74505805969E-08  0.93827000000E+00  0.93827000000E+00 0.  1.
     999903    2    1    2    0    0 -0.32405171707E-01  0.36395672705E-01  0.97602798025E-01  0.11269272777E+00  0.28259592429E-01 0.  0.
         14    1    1    2    0    0  0.22074734351E-01 -0.29984047949E-01  0.21712991135E-01  0.43102099857E-01  0.00000000000E+00 0. -1.
     999901    1    1    2    0    0  0.10330437357E-01 -0.64116247554E-02 -0.11931578916E+00  0.88813517238E+00  0.88000000000E+00 0.  1.
        -11    1    3    3    0    0 -0.17358950973E-01  0.27296210756E-01  0.85291885700E-01  0.91221615792E-01  0.51100000000E-03 0. -1.
         11    1    3    3    0    0 -0.15046220734E-01  0.90994619491E-02  0.12310912325E-01  0.21471111974E-01  0.51100000000E-03 0.  1.
</event>
<event>
 8    1  0.1233916E+005  0.1043930E+01  0.7957747E-01            NaN
         13   -1    0    0    0    0  0.00000000000E+00  0.00000000000E+00  0.74505805969E-08  0.10566000000E+00  0.10566000000E+00 0. -1.
     999900   -1    0    0    0    0 -0.00000000000E+00 -0.00000000000E+00 -0.74505805969E-08  0.93827000000E+00  0.93827000000E+00 0.  1.
     999902    2    1    2    0    0 -0.15397598861E-01  0.17685536876E-01  0.68995264078E-02  0.10194868470E+01  0.10191937811E+01 0.  0.
     999903    2    3    3    0    0 -0.12975446079E+00 -0.21819954753E-02 -0.92075243368E-02  0.13171905763E+00  0.20594912954E-01 0.  0.
         14    1    1    2    0    0  0.15397598861E-01 -0.17685536876E-01 -0.68995264078E-02  0.24443153028E-01  0.00000000000E+00 0.  1.
     999901    1    3    3    0    0  0.11435686193E+00  0.19867532351E-01  0.16107050745E-01  0.88776778934E+00  0.88000000000E+00 0.  1.
        -11    1    4    4    0    0 -0.10349390832E+00  0.62294956064E-02 -0.96990066290E-02  0.10413514068E+00  0.51100000000E-03 0.  1.
         11    1    4    4    0    0 -0.26260552471E-01 -0.84114910817E-02  0.49148229225E-03  0.27583916947E-01  0.51100000000E-03 0. -1.
</event>
<event>
 8    1  0.1233916E+005  0.1043930E+01  0.7957747E-01            NaN
         13   -1    0    0    0    0  0.00000000000E+00  0.00000000000E+00  0.74505805969E-08  0.10566000000E+00  0.10566000000E+00 0.  1.
     999900   -1    0    0    0    0 -0.00000000000E+00 -0.00000000000E+00 -0.74505805969E-08  0.93827000000E+00  0.93827000000E+00 0. -1.
     999902    2    1    2    0    0  0.15779230946E-02 -0.21921882234E-01 -0.89317811706E-02  0.10202058461E+01  0.10199299648E+01 0.  0.
     999903    2    3    3    0    0 -0.11865438772E+00 -0.52481546278E-01 -0.40144818545E-02  0.13149111042E+00  0.20990941664E-01 0.  0.
         14    1    1    2    0    0 -0.15779230946E-02  0.21921882234E-01  0.89317811706E-02  0.23724153870E-01  0.00000000000E+00 0.  1.
     999901    1    3    3    0    0  0.12023231081E+00  0.30559664044E-01 -0.49172993160E-02  0.88871473571E+00  0.88000000000E+00 0.  1.
        -11    1    4    4    0    0 -0.59678115998E-01 -0.28619351191E-01 -0.12332616152E-01  0.67326809919E-01  0.51100000000E-03 0. -1.
         11    1    4    4    0    0 -0.58976271717E-01 -0.23862195087E-01  0.83181342977E-02  0.64164300505E-01  0.51100000000E-03 0.  1.
</event>
<event>
 8    1  0.1233916E+005  0.1043930E+01  0.7957747E-01            NaN
         13   -1    0    0    0    0  0.00000000000E+00  0.00000000000E+00  0.74505805969E-08  0.10566000000E+00  0.10566000000E+00 0. -1.
     999900   -1    0    0    0    0 -0.00000000000E+00 -0.00000000000E+00 -0.74505805969E-08  0.93827000000E+00  0.93827000000E+00 0.  1.
     999902    2    1    2    0    0  0.16328823559E-01  0.21079016273E-02  0.16735586851E-01  0.10204533393E+01  0.10201832503E+01 0.  0.
     999903    2    3    3    0    0 -0.51816855693E-01 -0.73993998862E-01 -0.88729396206E-01  0.12828844679E+00  0.20613622388E-01 0.  0.
         14    1    1    2    0    0 -0.16328823559E-01 -0.21079016273E-02 -0.16735586851E-01  0.23476660651E-01  0.00000000000E+00 0. -1.
     999901    1    3    3    0    0  0.68145679252E-01  0.76101900489E-01  0.10546498306E+00  0.89216489256E+00  0.88000000000E+00 0. -1.
        -11    1    4    4    0    0 -0.48021027164E-01 -0.62600987226E-01 -0.67234391754E-01  0.10366111714E+00  0.51100000000E-03 0. -1.
         11    1    4    4    0    0 -0.37958285289E-02 -0.11393011636E-01 -0.21495004451E-01  0.24627329651E-01  0.51100000000E-03 0.  1.
</event>
<event>
 8    1  0.1233916E+005  0.1043930E+01  0.7957747E-01            NaN
         13   -1    0    0    0    0  0.00000000000E+00  0.00000000000E+00  0.74505805969E-08  0.10566000000E+00  0.10566000000E+00 0. -1.
     999900   -1    0    0    0    0 -0.00000000000E+00 -0.00000000000E+00 -0.74505805969E-08  0.93827000000E+00  0.93827000000E+00 0. -1.
     999902    2    1    2    0    0  0.10616545010E-01 -0.77621962600E-03 -0.17819955931E-01  0.10231727272E+01  0.10229621524E+01 0.  0.
     999903    2    3    3    0    0  0.12705592781E+00  0.26204095584E-01  0.27509273919E-01  0.13393664698E+00  0.18772368921E-01 0.  0.
         14    1    1    2    0    0 -0.10616545010E-01  0.77621962600E-03  0.17819955931E-01  0.20757272803E-01  0.00000000000E+00 0. -1.
     999901    1    3    3    0    0 -0.11643938280E+00 -0.26980315210E-01 -0.45329229849E-01  0.88923608021E+00  0.88000000000E+00 0.  1.
        -11    1    4    4    0    0  0.21593974235E-01  0.10045499769E-02 -0.15482481824E-02  0.21678723148E-01  0.51100000000E-03 0.  1.
         11    1    4    4    0    0  0.10546195358E+00  0.25199545608E-01  0.29057522101E-01  0.11225792383E+00  0.51100000000E-03 0. -1.
</event>
<event>
 8    1  0.1233916E+005  0.1043930E+01  0.7957747E-01            NaN
         13   -1    0    0    0    0  0.00000000000E+00  0.00000000000E+00  0.74505805969E-08  0.10566000000E+00  0.10566000000E+00 0.  1.
     999900   -1    0    0    0    0 -0.00000000000E+00 -0.00000000000E+00 -0.74505805969E-08  0.93827000000E+00  0.93827000000E+00 0. -1.
     999902    2    1    2    0    0 -0.72973669559E-02 -0.22409023346E-01 -0.61471512292E-03  0.10203547213E+01  0.10200823317E+01 0.  0.
     999903    2    3    3    0    0 -0.76184043443E-03 -0.13076998093E+00 -0.17474508760E-01  0.13352381132E+00  0.20539752186E-01 0.  0.
         14    1    1    2    0    0  0.72973669559E-02  0.22409023346E-01  0.61471512292E-03  0.23575278715E-01  0.00000000000E+00 0.  1.
     999901    1    3    3    0    0 -0.65355265215E-02  0.10836095758E+00  0.16859793638E-01  0.88683090997E+00  0.88000000000E+00 0.  1.
        -11    1    4    4    0    0 -0.10594745581E-01 -0.65005533457E-01 -0.77694589351E-02  0.66321894025E-01  0.51100000000E-03 0.  1.
         11    1    4    4    0    0  0.98329051467E-02 -0.65764447468E-01 -0.97050498253E-02  0.67201917291E-01  0.51100000000E-03 0. -1.
</event>
<event>
 8    1  0.1233916E+005  0.1043930E+01  0.7957747E-01            NaN
         13   -1    0    0    0    0  0.00000000000E+00  0.00000000000E+00  0.74505805969E-08  0.10566000000E+00  0.10566000000E+00 0. -1.
     999900   -1    0    0    0    0 -0.00000000000E+00 -0.00000000000E+00 -0.74505805969E-08  0.93827000000E+00  0.93827000000E+00 0.  1.
     999902    2    1    2    0    0 -0.50433533952E-02 -0.48650236770E-02 -0.23182883676E-01  0.10197112064E+01  0.10194235599E+01 0.  0.
     999903    2    3    3    0    0  0.98878500109E-01 -0.24105328119E-01  0.73860141986E-01  0.12809060894E+00  0.24369220274E-01 0.  0.
         14    1    1    2    0    0  0.50433533952E-02  0.48650236770E-02  0.23182883676E-01  0.24218793620E-01  0.00000000000E+00 0. -1.
     999901    1    3    3    0    0 -0.10392185350E+00  0.19240304442E-01 -0.97043025662E-01  0.89162059744E+00  0.88000000000E+00 0.  1.
        -11    1    4    4    0    0  0.65387368287E-01 -0.27382465501E-01  0.47376058854E-01  0.85264643446E-01  0.51100000000E-03 0. -1.
         11    1    4    4    0    0  0.33491131822E-01  0.32771373815E-02  0.26484083132E-01  0.42825965494E-01  0.51100000000E-03 0.  1.
</event>
<event>
 8    1  0.1233916E+005  0.1043930E+01  0.7957747E-01            NaN
         13   -1    0    0    0    0  0.00000000000E+00  0.00000000000E+00  0.74505805969E-08  0.10566000000E+00  0.10566000000E+00 0. -1.
     999900   -1    0    0    0    0 -0.00000000000E+00 -0.00000000000E+00 -0.74505805969E-08  0.93827000000E+00  0.93827000000E+00 0.  1.
     999902    2    1    2    0    0  0.12639465975E-01  0.14682041864E-01 -0.13632044153E-01  0.10202413723E+01  0.10199663263E+01 0.  0.
     999903    2    3    3    0    0 -0.54496959060E-01 -0.88631472086E-01 -0.74626759576E-01  0.12956671958E+00  0.19822340596E-01 0.  0.
         14    1    1    2    0    0 -0.12639465975E-01 -0.14682041864E-01  0.13632044153E-01  0.23688627677E-01  0.00000000000E+00 0. -1.
     999901    1    3    3    0    0  0.67136425035E-01  0.10331351395E+00  0.60994715424E-01  0.89067465274E+00  0.88000000000E+00 0. -1.
        -11    1    4    4    0    0 -0.19581185023E-01 -0.30850796245E-01 -0.38154785691E-01  0.52832217708E-01  0.51100000000E-03 0. -1.
         11    1    4    4    0    0 -0.34915774037E-01 -0.57780675842E-01 -0.36471973885E-01  0.76734501871E-01  0.51100000000E-03 0.  1.
</event>
<event>
 8    1  0.1233916E+005  0.1043930E+01  0.7957747E-01            NaN
         13   -1    0    0    0    0  0.00000000000E+00  0.00000000000E+00  0.74505805969E-08  0.10566000000E+00  0.10566000000E+00 0. -1.
     999900   -1    0    0    0    0 -0.00000000000E+00 -0.00000000000E+00 -0.74505805969E-08  0.93827000000E+00  0.93827000000E+00 0.  1.
     999902    2    1    2    0    0  0.14991153212E-01  0.69119486655E-02 -0.17094086855E-01  0.10201662142E+01  0.10198893995E+01 0.  0.
     999903    2    3    3    0    0  0.76660833693E-01 -0.82911363992E-01  0.61120616120E-01  0.13000391624E+00  0.20349713065E-01 0.  0.
         14    1    1    2    0    0 -0.14991153212E-01 -0.69119486655E-02  0.17094086855E-01  0.23763785776E-01  0.00000000000E+00 0. -1.
     999901    1    3    3    0    0 -0.61669680481E-01  0.89823312658E-01 -0.78214702975E-01  0.89016229798E+00  0.88000000000E+00 0.  1.
        -11    1    4    4    0    0  0.34437742043E-01 -0.24561978600E-01  0.17357823939E-01  0.45725310744E-01  0.51100000000E-03 0.  1.
         11    1    4    4    0    0  0.42223091650E-01 -0.58349385393E-01  0.43762792181E-01  0.84278605498E-01  0.51100000000E-03 0. -1.
</event>
<event>
 8    1  0.1233916E+005  0.1043930E+01  0.7957747E-01            NaN
         13   -1    0    0    0    0  0.00000000000E+00  0.00000000000E+00  0.74505805969E-08  0.10566000000E+00  0.10566000000E+00 0.  1.
     999900   -1    0    0    0    0 -0.00000000000E+00 -0.00000000000E+00 -0.74505805969E-08  0.93827000000E+00  0.93827000000E+00 0. -1.
     999902    2    1    2    0    0  0.73764978055E-03 -0.24285198950E-01  0.10969019129E-02  0.10196088526E+01  0.10193187402E+01 0.  0.
     999903    2    3    3    0    0 -0.51678160947E-01  0.60811719399E-01 -0.98579207489E-01  0.12836016147E+00  0.19742678834E-01 0.  0.
         14    1    1    2    0    0 -0.73764978055E-03  0.24285198950E-01 -0.10969019129E-02  0.24321147363E-01  0.00000000000E+00 0.  1.
     999901    1    3    3    0    0  0.52415810728E-01 -0.85096918349E-01  0.99676109402E-01  0.89124869117E+00  0.88000000000E+00 0.  1.
        -11    1    4    4    0    0 -0.35861577887E-01  0.49243821864E-01 -0.62368745855E-01  0.87184450109E-01  0.51100000000E-03 0.  1.
         11    1    4    4    0    0 -0.15816583060E-01  0.11567897535E-01 -0.36210461634E-01  0.41175711358E-01  0.51100000000E-03 0. -1.
</event>
<event>
 8    1  0.1233916E+005  0.1043930E+01  0.7957747E-01            NaN
         13   -1    0    0    0    0  0.00000000000E+00  0.00000000000E+00  0.74505805969E-08  0.10566000000E+00  0.10566000000E+00 0.  1.
     999900   -1    0    0    0    0 -0.00000000000E+00 -0.00000000000E+00 -0.74505805969E-08  0.93827000000E+00  0.93827000000E+00 0.  1.
     999902    2    1    2    0    0  0.18265584739E-01 -0.87646003260E-02 -0.94958540617E-02  0.10215554375E+01  0.10213103792E+01 0.  0.
     999903    2    3    3    0    0  0.88496876286E-01 -0.83474636021E-01 -0.53310106095E-01  0.13451895995E+00  0.21299558740E-01 0.  0.
         14    1    1    2    0    0 -0.18265584739E-01  0.87646003260E-02  0.94958540617E-02  0.22374562545E-01  0.00000000000E+00 0.  1.
     999901    1    3    3    0    0 -0.70231291547E-01  0.74710035694E-01  0.43814252034E-01  0.88703647751E+00  0.88000000000E+00 0. -1.
        -11    1    4    4    0    0  0.36646313749E-01 -0.21754016955E-01 -0.22730407255E-01  0.48302402632E-01  0.51100000000E-03 0. -1.
         11    1    4    4    0    0  0.51850562537E-01 -0.61720619066E-01 -0.30579698840E-01  0.86216557316E-01  0.51100000000E-03 0.  1.
</event>
<event>
 8    1  0.1233916E+005  0.1043930E+01  0.7957747E-01            NaN
         13   -1    0    0    0    0  0.00000000000E+00  0.00000000000E+00  0.74505805969E-08  0.10566000000E+00  0.10566000000E+00 0. -1.
     999900   -1    0    0    0    0 -0.00000000000E+00 -0.00000000000E+00 -0.74505805969E-08  0.93827000000E+00  0.93827000000E+00 0. -1.
     999902    2    1    2    0    0 -0.96008511765E-02 -0.12349481048E-01 -0.17597847245E-01  0.10203849314E+01  0.10201132477E+01 0.  0.
     999903    2    3    3    0    0  0.24666404256E-01 -0.11407446673E+00  0.55580841965E-01  0.13084722114E+00  0.20257093283E-01 0.  0.
         14    1    1    2    0    0  0.96008511765E-02  0.12349481048E-01  0.17597847245E-01  0.23545068552E-01  0.00000000000E+00 0. -1.
     999901    1    3    3    0    0 -0.34267255433E-01  0.10172498568E+00 -0.73178689210E-01  0.88953771031E+00  0.88000000000E+00 0.  1.
        -11    1    4    4    0    0  0.21813346009E-01 -0.70432851357E-01  0.26633372139E-01  0.78397743889E-01  0.51100000000E-03 0. -1.
         11    1    4    4    0    0  0.28530582470E-02 -0.43641615371E-01  0.28947469826E-01  0.52449477251E-01  0.51100000000E-03 0.  1.
</event>
<event>
 7    1  0.1233916E+005  0.1043930E+01  0.7957747E-01            NaN
         13   -1    0    0    0    0  0.00000000000E+00  0.00000000000E+00  0.74505805969E-08  0.10566000000E+00  0.10566000000E+00 0.  1.
     999900   -1    0    0    0    0 -0.00000000000E+00 -0.00000000000E+00 -0.74505805969E-08  0.93827000000E+00  0.93827000000E+00 0.  1.
     999903    2    1    2    0    0 -0.40387735806E-01 -0.20715656212E-01 -0.89841551519E-01  0.10277258304E+00  0.20745887046E-01 0.  0.
         14    1    1    2    0    0  0.51566967189E-02  0.24221082765E-01 -0.43846734473E-01  0.50356613223E-01  0.00000000000E+00 0. -1.
     999901    1    1    2    0    0  0.35231039087E-01 -0.35054265531E-02  0.13368828599E+00  0.89080080374E+00  0.88000000000E+00 0. -1.
        -11    1    3    3    0    0 -0.70271570500E-02 -0.67257555636E-02 -0.59543578823E-02  0.11416313893E-01  0.51100000000E-03 0.  1.
         11    1    3    3    0    0 -0.33360578756E-01 -0.13989900648E-01 -0.83887193636E-01  0.91356269146E-01  0.51100000000E-03 0. -1.
</event>
<event>
 8    1  0.1233916E+005  0.1043930E+01  0.7957747E-01            NaN
         13   -1    0    0    0    0  0.00000000000E+00  0.00000000000E+00  0.74505805969E-08  0.10566000000E+00  0.10566000000E+00 0. -1.
     999900   -1    0    0    0    0 -0.00000000000E+00 -0.00000000000E+00 -0.74505805969E-08  0.93827000000E+00  0.93827000000E+00 0.  1.
     999902    2    1    2    0    0 -0.34906723728E-02  0.80049223172E-02  0.22054548432E-01  0.10202094039E+01  0.10199336062E+01 0.  0.
     999903    2    3    3    0    0 -0.12915359746E+00  0.42086402436E-02 -0.46100056338E-02  0.13087449453E+00  0.20211798006E-01 0.  0.
         14    1    1    2    0    0  0.34906723728E-02 -0.80049223172E-02 -0.22054548432E-01  0.23720596145E-01  0.00000000000E+00 0.  1.
     999901    1    3    3    0    0  0.12566292508E+00  0.37962820736E-02  0.26664554066E-01  0.88933490932E+00  0.88000000000E+00 0. -1.
        -11    1    4    4    0    0 -0.73529571981E-01 -0.52115086170E-02 -0.91117888201E-02  0.74276803877E-01  0.51100000000E-03 0. -1.
         11    1    4    4    0    0 -0.55624025474E-01  0.94201488606E-02  0.45017831863E-02  0.56597690654E-01  0.51100000000E-03 0.  1.
</event>
<event>
 8    1  0.1233916E+005  0.1043930E+01  0.7957747E-01            NaN
         13   -1    0    0    0    0  0.00000000000E+00  0.00000000000E+00  0.74505805969E-08  0.10566000000E+00  0.10566000000E+00 0.  1.
     999900   -1    0    0    0    0 -0.00000000000E+00 -0.00000000000E+00 -0.74505805969E-08  0.93827000000E+00  0.93827000000E+00 0. -1.
     999902    2    1    2    0    0  0.45373618061E-02 -0.13117089792E-01 -0.15771822215E-01  0.10229205718E+01  0.10227047962E+01 0.  0.
     999903    2    3    3    0    0 -0.81082439316E-01 -0.76386553373E-01 -0.73054080049E-01  0.13465539045E+00  0.19644542828E-01 0.  0.
         14    1    1    2    0    0 -0.45373618061E-02  0.13117089792E-01  0.15771822215E-01  0.21009428187E-01  0.00000000000E+00 0.  1.
     999901    1    3    3    0    0  0.85619801122E-01  0.63269463581E-01  0.57282257834E-01  0.88826518137E+00  0.88000000000E+00 0.  1.
        -11    1    4    4    0    0 -0.18407220868E-01 -0.23916681311E-01 -0.11381230622E-01  0.32258750077E-01  0.51100000000E-03 0.  1.
         11    1    4    4    0    0 -0.62675218448E-01 -0.52469872062E-01 -0.61672849426E-01  0.10239664037E+00  0.51100000000E-03 0. -1.
</event>
<event>
 8    1  0.1233916E+005  0.1043930E+01  0.7957747E-01            NaN
         13   -1    0    0    0    0  0.00000000000E+00  0.00000000000E+00  0.74505805969E-08  0.10566000000E+00  0.10566000000E+00 0.  1.
     999900   -1    0    0    0    0 -0.00000000000E+00 -0.00000000000E+00 -0.74505805969E-08  0.93827000000E+00  0.93827000000E+00 0.  1.
     999902    2    1    2    0    0  0.78027972711E-02  0.18093221081E-01 -0.11720003554E-01  0.10210038844E+01  0.10207464549E+01 0.  0.
     999903    2    3    3    0    0  0.12047731257E+00  0.47730435799E-01  0.19939251656E-01  0.13276055097E+00  0.20852165166E-01 0.  0.
         14    1    1    2    0    0 -0.78027972711E-02 -0.18093221081E-01  0.11720003554E-01  0.22926115625E-01  0.00000000000E+00 0. -1.
     999901    1    3    3    0    0 -0.11267451530E+00 -0.29637214718E-01 -0.31659255210E-01  0.88824333340E+00  0.88000000000E+00 0.  1.
        -11    1    4    4    0    0  0.19178554097E-01  0.42874616844E-02  0.10095735805E-01  0.22099417807E-01  0.51100000000E-03 0.  1.
         11    1    4    4    0    0  0.10129875847E+00  0.43442974115E-01  0.98435158507E-02  0.11066113317E+00  0.51100000000E-03 0. -1.
</event>
<event>
 8    1  0.1233916E+005  0.1043930E+01  0.7957747E-01            NaN
         13   -1    0    0    0    0  0.00000000000E+00  0.00000000000E+00  0.74505805969E-08  0.10566000000E+00  0.10566000000E+00 0.  1.
     999900   -1    0    0    0    0 -0.00000000000E+00 -0.00000000000E+00 -0.74505805969E-08  0.93827000000E+00  0.93827000000E+00 0.  1.
     999902    2    1    2    0    0 -0.22142429693E-01 -0.89422141140E-02  0.13900728053E-02  0.10200096595E+01  0.10197291419E+01 0.  0.
     999903    2    3    3    0    0 -0.19304645395E-01 -0.64374192956E-02 -0.12708304439E+00  0.13067301412E+00  0.22610323890E-01 0.  0.
         14    1    1    2    0    0  0.22142429693E-01  0.89422141140E-02 -0.13900728053E-02  0.23920340474E-01  0.00000000000E+00 0. -1.
     999901    1    3    3    0    0 -0.28377842984E-02 -0.25047948184E-02  0.12847311720E+00  0.88933664540E+00  0.88000000000E+00 0. -1.
        -11    1    4    4    0    0 -0.41404902005E-02  0.81258821765E-02 -0.46654585944E-01  0.47540352658E-01  0.51100000000E-03 0.  1.
         11    1    4    4    0    0 -0.15164155194E-01 -0.14563301472E-01 -0.80428458450E-01  0.83132661464E-01  0.51100000000E-03 0. -1.
</event>
<event>
 8    1  0.1233916E+005  0.1043930E+01  0.7957747E-01            NaN
         13   -1    0    0    0    0  0.00000000000E+00  0.00000000000E+00  0.74505805969E-08  0.10566000000E+00  0.10566000000E+00 0. -1.
     999900   -1    0    0    0    0 -0.00000000000E+00 -0.00000000000E+00 -0.74505805969E-08  0.93827000000E+00  0.93827000000E+00 0.  1.
     999902    2    1    2    0    0  0.17715130386E-02  0.17157441481E-01  0.17727605311E-01  0.10191957313E+01  0.10188955563E+01 0.  0.
     999903    2    3    3    0    0  0.17848692550E-01 -0.11129302143E+00  0.58771797179E-01  0.12877862524E+00  0.20617898351E-01 0.  0.
         14    1    1    2    0    0 -0.17715130386E-02 -0.17157441481E-01 -0.17727605311E-01  0.24734268671E-01  0.00000000000E+00 0. -1.
     999901    1    3    3    0    0 -0.16077179511E-01  0.12845046291E+00 -0.41044191868E-01  0.89041710608E+00  0.88000000000E+00 0.  1.
        -11    1    4    4    0    0  0.46402530955E-02 -0.74171840263E-01  0.30762436125E-01  0.80433714536E-01  0.51100000000E-03 0.  1.
         11    1    4    4    0    0  0.13208439454E-01 -0.37121181164E-01  0.28009361053E-01  0.48344910709E-01  0.51100000000E-03 0. -1.
</event>
<event>
 8    1  0.1233916E+005  0.1043930E+01  0.7957747E-01            NaN
         13   -1    0    0    0    0  0.00000000000E+00  0.00000000000E+00  0.74505805969E-08  0.10566000000E+00  0.10566000000E+00 0.  1.
     999900   -1    0    0    0    0 -0.00000000000E+00 -0.00000000000E+00 -0.74505805969E-08  0.93827000000E+00  0.93827000000E+00 0.  1.
     999902    2    1    2    0    0 -0.12693360766E-01  0.10022124495E-01  0.16920585642E-01  0.10205233641E+01  0.10202549025E+01 0.  0.
     999903    2    3    3    0    0 -0.32014571425E-01  0.76521934419E-01  0.10289042025E+00  0.13362633151E+00  0.19723556065E-01 0.  0.
         14    1    1    2    0    0  0.12693360766E-01 -0.10022124495E-01 -0.16920585642E-01  0.23406635926E-01  0.00000000000E+00 0. -1.
     999901    1    3    3    0    0  0.19321210659E-01 -0.66499809923E-01 -0.85969834608E-01  0.88689703256E+00  0.88000000000E+00 0.  1.
        -11    1    4    4    0    0 -0.25760529352E-01  0.56700534967E-01  0.62689586550E-01  0.88367420019E-01  0.51100000000E-03 0.  1.
         11    1    4    4    0    0 -0.62540420732E-02  0.19821399451E-01  0.40200833700E-01  0.45258911494E-01  0.51100000000E-03 0. -1.
</event>
<event>
 8    1  0.1233916E+005  0.1043930E+01  0.7957747E-01            NaN
         13   -1    0    0    0    0  0.00000000000E+00  0.00000000000E+00  0.74505805969E-08  0.10566000000E+00  0.10566000000E+00 0. -1.
     999900   -1    0    0    0    0 -0.00000000000E+00 -0.00000000000E+00 -0.74505805969E-08  0.93827000000E+00  0.93827000000E+00 0.  1.
     999902    2    1    2    0    0  0.25527684994E-02 -0.22784606107E-01 -0.64544608557E-02  0.10201116254E+01  0.10198335224E+01 0.  0.
     999903    2    3    3    0    0 -0.22699299078E-02 -0.13171650040E+00 -0.42878235756E-02  0.13337936012E+00  0.20427413357E-01 0.  0.
         14    1    1    2    0    0 -0.25527684994E-02  0.22784606107E-01  0.64544608557E-02  0.23818374575E-01  0.00000000000E+00 0.  1.
     999901    1    3    3    0    0  0.48226984072E-02  0.10893189429E+00 -0.21666372801E-02  0.88673226530E+00  0.88000000000E+00 0. -1.
        -11    1    4    4    0    0 -0.91255775118E-02 -0.54868829254E-01  0.40693066098E-02  0.55773514915E-01  0.51100000000E-03 0.  1.
         11    1    4    4    0    0  0.68556476040E-02 -0.76847671143E-01 -0.83571301854E-02  0.77605845206E-01  0.51100000000E-03 0. -1.
</event>
<event>
 8    1  0.1233916E+005  0.1043930E+01  0.7957747E-01            NaN
         13   -1    0    0    0    0  0.00000000000E+00  0.00000000000E+00  0.74505805969E-08  0.10566000000E+00  0.10566000000E+00 0. -1.
     999900   -1    0    0    0    0 -0.00000000000E+00 -0.00000000000E+00 -0.74505805969E-08  0.93827000000E+00  0.93827000000E+00 0.  1.
     999902    2    1    2    0    0 -0.14315241720E-01  0.28908711922E-02 -0.18938317844E-01  0.10200146667E+01  0.10197342679E+01 0.  0.
     999903    2    3    3    0    0  0.11173482088E+00 -0.14230824963E-01 -0.61243657506E-01  0.12986214469E+00  0.20644720002E-01 0.  0.
         14    1    1    2    0    0  0.14315241720E-01 -0.28908711922E-02  0.18938317844E-01  0.23915333251E-01  0.00000000000E+00 0. -1.
     999901    1    3    3    0    0 -0.12605006260E+00  0.17121696155E-01  0.42305339661E-01  0.89015252206E+00  0.88000000000E+00 0. -1.
        -11    1    4    4    0    0  0.91317807278E-01 -0.17438966346E-01 -0.56004052468E-01  0.10853466952E+00  0.51100000000E-03 0. -1.
         11    1    4    4    0    0  0.20417013598E-01  0.32081413830E-02 -0.52396050381E-02  0.21327475175E-01  0.51100000000E-03 0.  1.
</event>
<event>
 8    1  0.1348607E+005  0.1043930E+01  0.7957747E-01            NaN
         13   -1    0    0    0    0  0.00000000000E+00  0.00000000000E+00  0.74505805969E-08  0.10566000000E+00  0.10566000000E+00 0.  1.
     999900   -1    0    0    0    0 -0.00000000000E+00 -0.00000000000E+00 -0.74505805969E-08  0.93827000000E+00  0.93827000000E+00 0.  1.
     999902    2    1    2    0    0 -0.37808222953E-03 -0.22675977655E-01 -0.80902414590E-02  0.10198510691E+01  0.10195667747E+01 0.  0.
     999903    2    3    3    0    0 -0.12364508939E+00  0.32816725733E-01 -0.33065633404E-03  0.12949473233E+00  0.20093052214E-01 0.  0.
         14    1    1    2    0    0  0.37808222953E-03  0.22675977655E-01  0.80902414590E-02  0.24078930949E-01  0.00000000000E+00 0.  1.
     999901    1    3    3    0    0  0.12326700717E+00 -0.55492703388E-01 -0.77595851249E-02  0.89035633672E+00  0.88000000000E+00 0.  1.
        -11    1    4    4    0    0 -0.54099997586E-01  0.50025989990E-02  0.38977345987E-02  0.54472829847E-01  0.51100000000E-03 0.  1.
         11    1    4    4    0    0 -0.69545091809E-01  0.27814126734E-01 -0.42283909327E-02  0.75021902479E-01  0.51100000000E-03 0. -1.
</event>
<event>
 8    1  0.1233916E+005  0.1043930E+01  0.7957747E-01            NaN
         13   -1    0    0    0    0  0.00000000000E+00  0.00000000000E+00  0.74505805969E-08  0.10566000000E+00  0.10566000000E+00 0. -1.
     999900   -1    0    0    0    0 -0.00000000000E+00 -0.00000000000E+00 -0.74505805969E-08  0.93827000000E+00  0.93827000000E+00 0.  1.
     999902    2    1    2    0    0  0.47178460755E-02 -0.18548172496E-01  0.15835028563E-01  0.10190896919E+01  0.10187869058E+01 0.  0.
     999903    2    3    3    0    0  0.20940012259E-01  0.11444904569E+00  0.50364397129E-01  0.12827899600E+00  0.19541242157E-01 0.  0.
         14    1    1    2    0    0 -0.47178460755E-02  0.18548172496E-01 -0.15835028563E-01  0.24840308052E-01  0.00000000000E+00 0.  1.
     999901    1    3    3    0    0 -0.16222166184E-01 -0.13299721818E+00 -0.34529368565E-01  0.89081069595E+00  0.88000000000E+00 0. -1.
        -11    1    4    4    0    0  0.11097305482E-01  0.82554777152E-01  0.44314074985E-01  0.94352741255E-01  0.51100000000E-03 0. -1.
         11    1    4    4    0    0  0.98427067777E-02  0.31894268534E-01  0.60503221432E-02  0.33926254746E-01  0.51100000000E-03 0.  1.
</event>
<event>
 8    1  0.1233916E+005  0.1043930E+01  0.7957747E-01            NaN
         13   -1    0    0    0    0  0.00000000000E+00  0.00000000000E+00  0.74505805969E-08  0.10566000000E+00  0.10566000000E+00 0.  1.
     999900   -1    0    0    0    0 -0.00000000000E+00 -0.00000000000E+00 -0.74505805969E-08  0.93827000000E+00  0.93827000000E+00 0. -1.
     999902    2    1    2    0    0 -0.22594870406E-01 -0.23767794378E-02 -0.16479261636E-01  0.10158632347E+01  0.10154754396E+01 0.  0.
     999903    2    3    3    0    0  0.47990079951E-01 -0.17729782523E-02 -0.11628414201E+00  0.12741311573E+00  0.20147187168E-01 0.  0.
         14    1    1    2    0    0  0.22594870406E-01  0.23767794378E-02  0.16479261636E-01  0.28066765279E-01  0.00000000000E+00 0.  1.
     999901    1    3    3    0    0 -0.70584950358E-01 -0.60380118543E-03  0.99804880375E-01  0.88845011899E+00  0.88000000000E+00 0. -1.
        -11    1    4    4    0    0  0.27183081386E-01 -0.10844772564E-01 -0.61496636303E-01  0.68107462170E-01  0.51100000000E-03 0. -1.
         11    1    4    4    0    0  0.20806998566E-01  0.90717943118E-02 -0.54787505707E-01  0.59305653558E-01  0.51100000000E-03 0.  1.
</event>
<event>
 8    1  0.1233916E+005  0.1043930E+01  0.7957747E-01            NaN
         13   -1    0    0    0    0  0.00000000000E+00  0.00000000000E+00  0.74505805969E-08  0.10566000000E+00  0.10566000000E+00 0.  1.
     999900   -1    0    0    0    0 -0.00000000000E+00 -0.00000000000E+00 -0.74505805969E-08  0.93827000000E+00  0.93827000000E+00 0. -1.
     999902    2    1    2    0    0  0.64277764121E-02 -0.10804868166E-01 -0.19839212093E-01  0.10204426455E+01  0.10201723075E+01 0.  0.
     999903    2    3    3    0    0  0.11924025878E+00  0.24605027663E-02 -0.53835229657E-01  0.13249087007E+00  0.20767891379E-01 0.  0.
         14    1    1    2    0    0 -0.64277764121E-02  0.10804868166E-01  0.19839212093E-01  0.23487354516E-01  0.00000000000E+00 0.  1.
     999901    1    3    3    0    0 -0.11281248237E+00 -0.13265370932E-01  0.33996017564E-01  0.88795177541E+00  0.88000000000E+00 0. -1.
        -11    1    4    4    0    0  0.85413832921E-01  0.28015298489E-02 -0.48429937741E-01  0.98229788834E-01  0.51100000000E-03 0.  1.
         11    1    4    4    0    0  0.33826425861E-01 -0.34102708254E-03 -0.54052919160E-02  0.34261081239E-01  0.51100000000E-03 0. -1.
</event>
<event>
 8    1  0.1233916E+005  0.1043930E+01  0.7957747E-01            NaN
         13   -1    0    0    0    0  0.00000000000E+00  0.00000000000E+00  0.74505805969E-08  0.10566000000E+00  0.10566000000E+00 0.  1.
     999900   -1    0    0    0    0 -0.00000000000E+00 -0.00000000000E+00 -0.74505805969E-08  0.93827000000E+00  0.93827000000E+00 0. -1.
     999902    2    1    2    0    0  0.11012397227E-02  0.23416767397E-01  0.35717103576E-02  0.10202168214E+01  0.10199411982E+01 0.  0.
     999903    2    3    3    0    0  0.26336292804E-01  0.92873077471E-01 -0.88133458738E-01  0.13237064951E+00  0.20868000965E-01 0.  0.
         14    1    1    2    0    0 -0.11012397227E-02 -0.23416767397E-01 -0.35717103576E-02  0.23713178596E-01  0.00000000000E+00 0.  1.
     999901    1    3    3    0    0 -0.25235053082E-01 -0.69456310073E-01  0.91705169095E-01  0.88784617190E+00  0.88000000000E+00 0.  1.
        -11    1    4    4    0    0  0.20394128757E-01  0.44797500372E-01 -0.34575207992E-01  0.60153492468E-01  0.51100000000E-03 0.  1.
         11    1    4    4    0    0  0.59421640474E-02  0.48075577098E-01 -0.53558250745E-01  0.72217157039E-01  0.51100000000E-03 0. -1.
</event>
<event>
 8    1  0.1233916E+005  0.1043930E+01  0.7957747E-01            NaN
         13   -1    0    0    0    0  0.00000000000E+00  0.00000000000E+00  0.74505805969E-08  0.10566000000E+00  0.10566000000E+00 0. -1.
     999900   -1    0    0    0    0 -0.00000000000E+00 -0.00000000000E+00 -0.74505805969E-08  0.93827000000E+00  0.93827000000E+00 0. -1.
     999902    2    1    2    0    0 -0.15045367699E-01 -0.19622880953E-01  0.74098028918E-02  0.10181167142E+01  0.10177894271E+01 0.  0.
     999903    2    3    3    0    0 -0.42832539272E-01  0.10259536360E+00 -0.58098491755E-01  0.12682508801E+00  0.18674398325E-01 0.  0.
         14    1    1    2    0    0  0.15045367699E-01  0.19622880953E-01 -0.74098028918E-02  0.25813285824E-01  0.00000000000E+00 0.  1.
     999901    1    3    3    0    0  0.27787171573E-01 -0.12221824455E+00  0.65508294647E-01  0.89129162617E+00  0.88000000000E+00 0. -1.
        -11    1    4    4    0    0 -0.23530214764E-01  0.33930226353E-01 -0.24048406362E-01  0.47786172024E-01  0.51100000000E-03 0.  1.
         11    1    4    4    0    0 -0.19302324509E-01  0.68665137243E-01 -0.34050085394E-01  0.79038915987E-01  0.51100000000E-03 0. -1.
</event>
<event>
 8    1  0.1233916E+005  0.1043930E+01  0.7957747E-01            NaN
         13   -1    0    0    0    0  0.00000000000E+00  0.00000000000E+00  0.74505805969E-08  0.10566000000E+00  0.10566000000E+00 0.  1.
     999900   -1    0    0    0    0 -0.00000000000E+00 -0.00000000000E+00 -0.74505805969E-08  0.93827000000E+00  0.93827000000E+00 0.  1.
     999902    2    1    2    0    0 -0.16468434884E-01 -0.88015298148E-02  0.15777565293E-01  0.10194839811E+01  0.10191908456E+01 0.  0.
     999903    2    3    3    0    0 -0.18073384783E-01  0.12068010558E+00  0.39308123380E-01  0.12969650256E+00  0.19639732475E-01 0.  0.
         14    1    1    2    0    0  0.16468434884E-01  0.88015298148E-02 -0.15777565293E-01  0.24446018923E-01  0.00000000000E+00 0. -1.
     999901    1    3    3    0    0  0.16049498994E-02 -0.12948163539E+00 -0.23530558087E-01  0.88978747852E+00  0.88000000000E+00 0. -1.
        -11    1    4    4    0    0 -0.23141116497E-02  0.54717630973E-01  0.93822287198E-02  0.55566730953E-01  0.51100000000E-03 0. -1.
         11    1    4    4    0    0 -0.15759273133E-01  0.65962474606E-01  0.29925894660E-01  0.74129771604E-01  0.51100000000E-03 0.  1.
</event>
<event>
 7    1  0.1233916E+005  0.1043930E+01  0.7957747E-01            NaN
         13   -1    0    0    0    0  0.00000000000E+00  0.00000000000E+00  0.74505805969E-08  0.10566000000E+00  0.10566000000E+00 0. -1.
     999900   -1    0    0    0    0 -0.00000000000E+00 -0.00000000000E+00 -0.74505805969E-08  0.93827000000E+00  0.93827000000E+00 0.  1.
     999903    2    1    2    0    0  0.10166246365E+00  0.40765852555E-01  0.26637618400E-01  0.11442322373E+00  0.19646886879E-01 0.  0.
         14    1    1    2    0    0 -0.31395014456E-01 -0.56714969058E-02 -0.33117775268E-01  0.45984778444E-01  0.00000000000E+00 0. -1.
     999901    1    1    2    0    0 -0.70267449195E-01 -0.35094355649E-01  0.64801568672E-02  0.88352199783E+00  0.88000000000E+00 0.  1.
        -11    1    3    3    0    0  0.91041496286E-01  0.30170481760E-01  0.26113455185E-01  0.99403147226E-01  0.51100000000E-03 0.  1.
         11    1    3    3    0    0  0.10620967365E-01  0.10595370795E-01  0.52416321510E-03  0.15020076502E-01  0.51100000000E-03 0. -1.
</event>
<event>
 8    1  0.1233916E+005  0.1043930E+01  0.7957747E-01            NaN
         13   -1    0    0    0    0  0.00000000000E+00  0.00000000000E+00  0.74505805969E-08  0.10566000000E+00  0.10566000000E+00 0.  1.
     999900   -1    0    0    0    0 -0.00000000000E+00 -0.00000000000E+00 -0.74505805969E-08  0.93827000000E+00  0.93827000000E+00 0. -1.
     999902    2    1    2    0    0 -0.69953240555E-03 -0.23390121433E-01 -0.93801579479E-04  0.10205292324E+01  0.10202609069E+01 0.  0.
     999903    2    3    3    0    0  0.70802893542E-01 -0.10381630746E+00  0.38824300523E-01  0.13311975137E+00  0.20558853739E-01 0.  0.
         14    1    1    2    0    0  0.69953240555E-03  0.23390121433E-01  0.93801579479E-04  0.23400767615E-01  0.00000000000E+00 0. -1.
     999901    1    3    3    0    0 -0.71502425947E-01  0.80426186024E-01 -0.38918102102E-01  0.88740948101E+00  0.88000000000E+00 0. -1.
        -11    1    4    4    0    0  0.42818807877E-01 -0.44804543571E-01  0.20623806154E-01  0.65318450180E-01  0.51100000000E-03 0.  1.
         11    1    4    4    0    0  0.27984085664E-01 -0.59011763886E-01  0.18200494369E-01  0.67801301195E-01  0.51100000000E-03 0. -1.
</event>
<event>
 8    1  0.1233916E+005  0.1043930E+01  0.7957747E-01            NaN
         13   -1    0    0    0    0  0.00000000000E+00  0.00000000000E+00  0.74505805969E-08  0.10566000000E+00  0.10566000000E+00 0. -1.
     999900   -1    0    0    0    0 -0.00000000000E+00 -0.00000000000E+00 -0.74505805969E-08  0.93827000000E+00  0.93827000000E+00 0. -1.
     999902    2    1    2    0    0 -0.22484911543E-01 -0.73805180239E-02  0.42877702946E-02  0.10198794643E+01  0.10195958481E+01 0.  0.
     999903    2    3    3    0    0 -0.68641149385E-01  0.59985739731E-01 -0.92054850825E-01  0.13086286624E+00  0.18468834309E-01 0.  0.
         14    1    1    2    0    0  0.22484911543E-01  0.73805180239E-02 -0.42877702946E-02  0.24050535701E-01  0.00000000000E+00 0. -1.
     999901    1    3    3    0    0  0.46156237842E-01 -0.67366257755E-01  0.96342621120E-01  0.88901659806E+00  0.88000000000E+00 0.  1.
        -11    1    4    4    0    0 -0.18405003332E-01  0.11777818448E-01 -0.32906315391E-01  0.39503770309E-01  0.51100000000E-03 0.  1.
         11    1    4    4    0    0 -0.50236146053E-01  0.48207921283E-01 -0.59148535435E-01  0.91359095933E-01  0.51100000000E-03 0. -1.
</event>
<event>
 8    1  0.1233916E+005  0.1043930E+01  0.7957747E-01            NaN
         13   -1    0    0    0    0  0.00000000000E+00  0.00000000000E+00  0.74505805969E-08  0.10566000000E+00  0.10566000000E+00 0. -1.
     999900   -1    0    0    0    0 -0.00000000000E+00 -0.00000000000E+00 -0.74505805969E-08  0.93827000000E+00  0.93827000000E+00 0.  1.
     999902    2    1    2    0    0 -0.15069902780E-01  0.17710175752E-01  0.55502914489E-02  0.10200227201E+01  0.10197425124E+01 0.  0.
     999903    2    3    3    0    0  0.11375445623E-01 -0.96382819564E-01 -0.81112216359E-01  0.12804348367E+00  0.19922183581E-01 0.  0.
         14    1    1    2    0    0  0.15069902780E-01 -0.17710175752E-01 -0.55502914489E-02  0.23907279856E-01  0.00000000000E+00 0.  1.
     999901    1    3    3    0    0 -0.26445348403E-01  0.11409299532E+00  0.86662507808E-01  0.89197923647E+00  0.88000000000E+00 0. -1.
        -11    1    4    4    0    0 -0.30318276842E-02 -0.15571846506E-01 -0.20885314294E-01  0.26232267475E-01  0.51100000000E-03 0. -1.
         11    1    4    4    0    0  0.14407273307E-01 -0.80810973058E-01 -0.60226902065E-01  0.10181121620E+00  0.51100000000E-03 0.  1.
</event>
<event>
 8    1  0.1233916E+005  0.1043930E+01  0.7957747E-01            NaN
         13   -1    0    0    0    0  0.00000000000E+00  0.00000000000E+00  0.74505805969E-08  0.10566000000E+00  0.10566000000E+00 0. -1.
     999900   -1    0    0    0    0 -0.00000000000E+00 -0.00000000000E+00 -0.74505805969E-08  0.93827000000E+00  0.93827000000E+00 0. -1.
     999902    2    1    2    0    0  0.54923300233E-02  0.22684052275E-01 -0.15732991372E-02  0.10205375400E+01  0.10202694072E+01 0.  0.
     999903    2    3    3    0    0  0.78019714438E-01 -0.50088456055E-01  0.88741854487E-01  0.12996868443E+00  0.20513725253E-01 0.  0.
         14    1    1    2    0    0 -0.54923300233E-02 -0.22684052275E-01  0.15732991372E-02  0.23392460044E-01  0.00000000000E+00 0. -1.
     999901    1    3    3    0    0 -0.72527384415E-01  0.72772508330E-01 -0.90315153624E-01  0.89056885553E+00  0.88000000000E+00 0. -1.
        -11    1    4    4    0    0  0.71734207125E-01 -0.45147523302E-01  0.71248274932E-01  0.11072792391E+00  0.51100000000E-03 0.  1.
         11    1    4    4    0    0  0.62855073132E-02 -0.49409327525E-02  0.17493579555E-01  0.19240760518E-01  0.51100000000E-03 0. -1.
</event>
<event>
 8    1  0.1233916E+005  0.1043930E+01  0.7957747E-01            NaN
         13   -1    0    0    0    0  0.00000000000E+00  0.00000000000E+00  0.74505805969E-08  0.10566000000E+00  0.10566000000E+00 0. -1.
     999900   -1    0    0    0    0 -0.00000000000E+00 -0.00000000000E+00 -0.74505805969E-08  0.93827000000E+00  0.93827000000E+00 0.  1.
     999902    2    1    2    0    0 -0.20211101641E-01  0.14058419877E-01 -0.60927278052E-02  0.10185676434E+01  0.10182518328E+01 0.  0.
     999903    2    3    3    0    0  0.31398423210E-01  0.12456796508E+00  0.24869111331E-02  0.13011420467E+00  0.20505672984E-01 0.  0.
         14    1    1    2    0    0  0.20211101641E-01 -0.14058419877E-01  0.60927278052E-02  0.25362356576E-01  0.00000000000E+00 0.  1.
     999901    1    3    3    0    0 -0.51609524851E-01 -0.11050954520E+00 -0.85796389382E-02  0.88845343876E+00  0.88000000000E+00 0. -1.
        -11    1    4    4    0    0  0.15209117554E-01  0.75429734494E-01  0.10826707045E-01  0.77707405111E-01  0.51100000000E-03 0.  1.
         11    1    4    4    0    0  0.16189305656E-01  0.49138230586E-01 -0.83397959117E-02  0.52406799555E-01  0.51100000000E-03 0. -1.
</event>
<event>
 8    1  0.1233916E+005  0.1043930E+01  0.7957747E-01            NaN
         13   -1    0    0    0    0  0.00000000000E+00  0.00000000000E+00  0.74505805969E-08  0.10566000000E+00  0.10566000000E+00 0.  1.
     999900   -1    0    0    0    0 -0.00000000000E+00 -0.00000000000E+00 -0.74505805969E-08  0.93827000000E+00  0.93827000000E+00 0. -1.
     999902    2    1    2    0    0  0.46305608502E-02  0.71992314284E-02  0.23274663174E-01  0.10191311901E+01  0.10188294272E+01 0.  0.
     999903    2    3    3    0    0 -0.98225284852E-01  0.35510485832E-01  0.76579402878E-01  0.13108713297E+00  0.20254142685E-01 0.  0.
         14    1    1    2    0    0 -0.46305608502E-02 -0.71992314284E-02 -0.23274663174E-01  0.24798809908E-01  0.00000000000E+00 0. -1.
     999901    1    3    3    0    0  0.10285584570E+00 -0.28311254403E-01 -0.53304739704E-01  0.88804405713E+00  0.88000000000E+00 0. -1.
        -11    1    4    4    0    0 -0.11074084896E-01  0.12564218210E-02  0.16186236846E-01  0.19658823371E-01  0.51100000000E-03 0.  1.
         11    1    4    4    0    0 -0.87151199956E-01  0.34254064011E-01  0.60393166032E-01  0.11142830960E+00  0.51100000000E-03 0. -1.
</event>
<event>
 8    1  0.1233916E+005  0.1043930E+01  0.7957747E-01            NaN
         13   -1    0    0    0    0  0.00000000000E+00  0.00000000000E+00  0.74505805969E-08  0.10566000000E+00  0.10566000000E+00 0.  1.
     999900   -1    0    0    0    0 -0.00000000000E+00 -0.00000000000E+00 -0.74505805969E-08  0.93827000000E+00  0.93827000000E+00 0. -1.
     999902    2    1    2    0    0 -0.15908054664E-01  0.20089546636E-02  0.18934052985E-01  0.10191187029E+01  0.10188166322E+01 0.  0.
     999903    2    3    3    0    0 -0.22268540257E-01  0.53941344765E-01 -0.11196007684E+00  0.12790004165E+00  0.20440285850E-01 0.  0.
         14    1    1    2    0    0  0.15908054664E-01 -0.20089546636E-02 -0.18934052985E-01  0.24811297114E-01  0.00000000000E+00 0.  1.
     999901    1    3    3    0    0  0.63604855927E-02 -0.51932390102E-01  0.13089412983E+00  0.89121866124E+00  0.88000000000E+00 0.  1.
        -11    1    4    4    0    0 -0.16465491827E-02  0.42477553159E-04 -0.14743047668E-01  0.14843567769E-01  0.51100000000E-03 0.  1.
         11    1    4    4    0    0 -0.20621991074E-01  0.53898867212E-01 -0.97217029176E-01  0.11305647388E+00  0.51100000000E-03 0. -1.
</event>
<event>
 8    1  0.1233916E+005  0.1043930E+01  0.7957747E-01            NaN
         13   -1    0    0    0    0  0.00000000000E+00  0.00000000000E+00  0.74505805969E-08  0.10566000000E+00  0.10566000000E+00 0. -1.
     999900   -1    0    0    0    0 -0.00000000000E+00 -0.00000000000E+00 -0.74505805969E-08  0.93827000000E+00  0.93827000000E+00 0.  1.
     999902    2    1    2    0    0 -0.16590580374E-01  0.70713409904E-02  0.19828809200E-01  0.10171264015E+01  0.10167731722E+01 0.  0.
     999903    2    3    3    0    0  0.84118209410E-02 -0.11380405719E+00  0.54040936967E-01  0.12785341095E+00  0.20098498905E-01 0.  0.
         14    1    1    2    0    0  0.16590580374E-01 -0.70713409904E-02 -0.19828809200E-01  0.26803598543E-01  0.00000000000E+00 0.  1.
     999901    1    3    3    0    0 -0.25002401315E-01  0.12087539818E+00 -0.34212127767E-01  0.88927299051E+00  0.88000000000E+00 0. -1.
        -11    1    4    4    0    0  0.23253319128E-02 -0.82528468465E-01  0.29655834172E-01  0.87727332668E-01  0.51100000000E-03 0. -1.
         11    1    4    4    0    0  0.60864890282E-02 -0.31275588729E-01  0.24385102795E-01  0.40126078283E-01  0.51100000000E-03 0.  1.
</event>
<event>
 8    1  0.1233916E+005  0.1043930E+01  0.7957747E-01            NaN
         13   -1    0    0    0    0  0.00000000000E+00  0.00000000000E+00  0.74505805969E-08  0.10566000000E+00  0.10566000000E+00 0.  1.
     999900   -1    0    0    0    0 -0.00000000000E+00 -0.00000000000E+00 -0.74505805969E-08  0.93827000000E+00  0.93827000000E+00 0. -1.
     999902    2    1    2    0    0  0.38786000563E-02  0.24668636301E-01 -0.21054080610E-02  0.10188697147E+01  0.10185614747E+01 0.  0.
     999903    2    3    3    0    0 -0.54209895621E-01 -0.40992065776E-01 -0.10693315973E+00  0.12832243431E+00  0.20319553536E-01 0.  0.
         14    1    1    2    0    0 -0.38786000563E-02 -0.24668636301E-01  0.21054080610E-02  0.25060285282E-01  0.00000000000E+00 0.  1.
     999901    1    3    3    0    0  0.58088495677E-01  0.65660702077E-01  0.10482775167E+00  0.89054728041E+00  0.88000000000E+00 0.  1.
        -11    1    4    4    0    0 -0.32313211372E-01 -0.13637259473E-01 -0.43785162946E-01  0.56102763661E-01  0.51100000000E-03 0. -1.
         11    1    4    4    0    0 -0.21896684249E-01 -0.27354806303E-01 -0.63147996787E-01  0.72219670646E-01  0.51100000000E-03 0.  1.
</event>
<event>
 8    1  0.1233916E+005  0.1043930E+01  0.7957747E-01            NaN
         13   -1    0    0    0    0  0.00000000000E+00  0.00000000000E+00  0.74505805969E-08  0.10566000000E+00  0.10566000000E+00 0.  1.
     999900   -1    0    0    0    0 -0.00000000000E+00 -0.00000000000E+00 -0.74505805969E-08  0.93827000000E+00  0.93827000000E+00 0. -1.
     999902    2    1    2    0    0  0.18208442641E-01  0.91639869663E-03 -0.15303134182E-01  0.10201272042E+01  0.10198494692E+01 0.  0.
     999903    2    3    3    0    0  0.71173818580E-01  0.75710405690E-01 -0.80597787716E-01  0.13296156790E+00  0.19621344823E-01 0.  0.
         14    1    1    2    0    0 -0.18208442641E-01 -0.91639869663E-03  0.15303134182E-01  0.23802795755E-01  0.00000000000E+00 0. -1.
     999901    1    3    3    0    0 -0.52965375939E-01 -0.74794006994E-01  0.65294653534E-01  0.88716563634E+00  0.88000000000E+00 0.  1.
        -11    1    4    4    0    0  0.44596183101E-01  0.34016864253E-01 -0.47011498072E-01  0.73186806685E-01  0.51100000000E-03 0. -1.
         11    1    4    4    0    0  0.26577635479E-01  0.41693541438E-01 -0.33586289644E-01  0.59774761215E-01  0.51100000000E-03 0.  1.
</event>
<event>
 8    1  0.1233916E+005  0.1043930E+01  0.7957747E-01            NaN
         13   -1    0    0    0    0  0.00000000000E+00  0.00000000000E+00  0.74505805969E-08  0.10566000000E+00  0.10566000000E+00 0.  1.
     999900   -1    0    0    0    0 -0.00000000000E+00 -0.00000000000E+00 -0.74505805969E-08  0.93827000000E+00  0.93827000000E+00 0. -1.
     999902    2    1    2    0    0 -0.60845820071E-02  0.18765438009E-02  0.23011991737E-01  0.10200533311E+01  0.10197738489E+01 0.  0.
     999903    2    3    3    0    0 -0.55465030050E-02  0.55591741626E-01 -0.11330032161E+00  0.12793974035E+00  0.20258550042E-01 0.  0.
         14    1    1    2    0    0  0.60845820071E-02 -0.18765438009E-02 -0.23011991737E-01  0.23876668916E-01  0.00000000000E+00 0. -1.
     999901    1    3    3    0    0 -0.53807900211E-03 -0.53715197825E-01  0.13631231335E+00  0.89211359074E+00  0.88000000000E+00 0.  1.
        -11    1    4    4    0    0 -0.10416916268E-01  0.30904623500E-01 -0.48737890593E-01  0.58645127663E-01  0.51100000000E-03 0.  1.
         11    1    4    4    0    0  0.48704132629E-02  0.24687118126E-01 -0.64562431020E-01  0.69294612683E-01  0.51100000000E-03 0. -1.
</event>
<event>
 8    1  0.1233916E+005  0.1043930E+01  0.7957747E-01            NaN
         13   -1    0    0    0    0  0.00000000000E+00  0.00000000000E+00  0.74505805969E-08  0.10566000000E+00  0.10566000000E+00 0.  1.
     999900   -1    0    0    0    0 -0.00000000000E+00 -0.00000000000E+00 -0.74505805969E-08  0.93827000000E+00  0.93827000000E+00 0.  1.
     999902    2    1    2    0    0  0.92412228946E-02  0.20614028023E-01 -0.55327690285E-02  0.10206716706E+01  0.10204066392E+01 0.  0.
     999903    2    3    3    0    0 -0.12982550990E-01 -0.12492605654E+00  0.15239944805E-01  0.12819908395E+00  0.20680497477E-01 0.  0.
         14    1    1    2    0    0 -0.92412228946E-02 -0.20614028023E-01  0.55327690285E-02  0.23258329370E-01  0.00000000000E+00 0.  1.
     999901    1    3    3    0    0  0.22223773885E-01  0.14554008456E+00 -0.20772713834E-01  0.89247258668E+00  0.88000000000E+00 0.  1.
        -11    1    4    4    0    0  0.27939500900E-02 -0.61625967814E-01  0.25916892560E-02  0.61745801803E-01  0.51100000000E-03 0. -1.
         11    1    4    4    0    0 -0.15776501080E-01 -0.63300088721E-01  0.12648255549E-01  0.66453282145E-01  0.51100000000E-03 0.  1.
</event>
<event>
 8    1  0.1233916E+005  0.1043930E+01  0.7957747E-01            NaN
         13   -1    0    0    0    0  0.00000000000E+00  0.00000000000E+00  0.74505805969E-08  0.10566000000E+00  0.10566000000E+00 0. -1.
     999900   -1    0    0    0    0 -0.00000000000E+00 -0.00000000000E+00 -0.74505805969E-08  0.93827000000E+00  0.93827000000E+00 0.  1.
     999902    2    1    2    0    0  0.14772989493E-01 -0.15892646934E-01 -0.11037024856E-01  0.10195859378E+01  0.10192952719E+01 0.  0.
     999903    2    3    3    0    0  0.24545127742E-01 -0.99138268369E-01  0.79534341740E-01  0.13097550540E+00  0.19950236812E-01 0.  0.
         14    1    1    2    0    0 -0.14772989493E-01  0.15892646934E-01  0.11037024856E-01  0.24344062167E-01  0.00000000000E+00 0.  1.
     999901    1    3    3    0    0 -0.97721382495E-02  0.83245621435E-01 -0.90571366596E-01  0.88861043243E+00  0.88000000000E+00 0.  1.
        -11    1    4    4    0    0  0.21195007364E-02 -0.64663516808E-02  0.13082972428E-01  0.14755720111E-01  0.51100000000E-03 0.  1.
         11    1    4    4    0    0  0.22425627006E-01 -0.92671916688E-01  0.66451369311E-01  0.11621978529E+00  0.51100000000E-03 0. -1.
</event>
<event>
 8    1  0.1233916E+005  0.1043930E+01  0.7957747E-01            NaN
         13   -1    0    0    0    0  0.00000000000E+00  0.00000000000E+00  0.74505805969E-08  0.10566000000E+00  0.10566000000E+00 0. -1.
     999900   -1    0    0    0    0 -0.00000000000E+00 -0.00000000000E+00 -0.74505805969E-08  0.93827000000E+00  0.93827000000E+00 0. -1.
     999902    2    1    2    0    0  0.17701398210E-02 -0.13176050435E-01  0.19678273167E-01  0.10201818183E+01  0.10199053712E+01 0.  0.
     999903    2    3    3    0    0  0.77382340253E-01 -0.84527074786E-01 -0.59233874814E-01  0.13055532327E+00  0.20079530706E-01 0.  0.
         14    1    1    2    0    0 -0.17701398210E-02  0.13176050435E-01 -0.19678273167E-01  0.23748181718E-01  0.00000000000E+00 0. -1.
     999901    1    3    3    0    0 -0.75612200432E-01  0.71351024350E-01  0.78912147982E-01  0.88962649501E+00  0.88000000000E+00 0. -1.
        -11    1    4    4    0    0  0.34348632538E-01 -0.24295285703E-01 -0.25544242568E-01  0.49222544773E-01  0.51100000000E-03 0.  1.
         11    1    4    4    0    0  0.43033707716E-01 -0.60231789083E-01 -0.33689632247E-01  0.81332778496E-01  0.51100000000E-03 0. -1.
</event>
<event>
 8    1  0.1233916E+005  0.1043930E+01  0.7957747E-01            NaN
         13   -1    0    0    0    0  0.00000000000E+00  0.00000000000E+00  0.74505805969E-08  0.10566000000E+00  0.10566000000E+00 0. -1.
     999900   -1    0    0    0    0 -0.00000000000E+00 -0.00000000000E+00 -0.74505805969E-08  0.93827000000E+00  0.93827000000E+00 0. -1.
     999902    2    1    2    0    0  0.14475008904E-01  0.18266913284E-01  0.66510599864E-02  0.10196927848E+01  0.10194046952E+01 0.  0.
     999903    2    3    3    0    0 -0.11864809891E+00 -0.39339603454E-01 -0.15261257611E-01  0.12754906188E+00  0.20270210403E-01 0.  0.
         14    1    1    2    0    0 -0.14475008904E-01 -0.18266913284E-01 -0.66510599864E-02  0.24237215241E-01  0.00000000000E+00 0. -1.
     999901    1    3    3    0    0  0.13312310781E+00  0.57606516737E-01  0.21912317598E-01  0.89214372288E+00  0.88000000000E+00 0.  1.
        -11    1    4    4    0    0 -0.52005465497E-01 -0.27880480558E-01 -0.72783407993E-02  0.59456917204E-01  0.51100000000E-03 0. -1.
         11    1    4    4    0    0 -0.66642633409E-01 -0.11459122896E-01 -0.79829168120E-02  0.68092144679E-01  0.51100000000E-03 0.  1.
</event>
<event>
 8    1  0.1233916E+005  0.1043930E+01  0.7957747E-01            NaN
         13   -1    0    0    0    0  0.00000000000E+00  0.00000000000E+00  0.74505805969E-08  0.10566000000E+00  0.10566000000E+00 0. -1.
     999900   -1    0    0    0    0 -0.00000000000E+00 -0.00000000000E+00 -0.74505805969E-08  0.93827000000E+00  0.93827000000E+00 0.  1.
     999902    2    1    2    0    0  0.37189363747E-02 -0.12485008454E-01 -0.19913534974E-01  0.10201338911E+01  0.10198563139E+01 0.  0.
     999903    2    3    3    0    0  0.12918230078E+00  0.28399606626E-02 -0.83098905109E-02  0.13102728610E+00  0.20073943547E-01 0.  0.
         14    1    1    2    0    0 -0.37189363747E-02  0.12485008454E-01  0.19913534974E-01  0.23796108905E-01  0.00000000000E+00 0. -1.
     999901    1    3    3    0    0 -0.12546336441E+00 -0.15324969117E-01 -0.11603644463E-01  0.88910660500E+00  0.88000000000E+00 0. -1.
        -11    1    4    4    0    0  0.45293898004E-01  0.10242908197E-01 -0.41774512778E-03  0.46442329794E-01  0.51100000000E-03 0. -1.
         11    1    4    4    0    0  0.83888402778E-01 -0.74029475346E-02 -0.78921453831E-02  0.84584956302E-01  0.51100000000E-03 0.  1.
</event>
<event>
 8    1  0.1233916E+005  0.1043930E+01  0.7957747E-01            NaN
         13   -1    0    0    0    0  0.00000000000E+00  0.00000000000E+00  0.74505805969E-08  0.10566000000E+00  0.10566000000E+00 0.  1.
     999900   -1    0    0    0    0 -0.00000000000E+00 -0.00000000000E+00 -0.74505805969E-08  0.93827000000E+00  0.93827000000E+00 0. -1.
     999902    2    1    2    0    0 -0.12229966519E-01  0.12327049940E-01  0.14377855386E-01  0.10213855779E+01  0.10211367430E+01 0.  0.
     999903    2    3    3    0    0 -0.11146219474E-02 -0.11340486728E+00 -0.58944207826E-01  0.12936080761E+00  0.19947245577E-01 0.  0.
         14    1    1    2    0    0  0.12229966519E-01 -0.12327049940E-01 -0.14377855386E-01  0.22544422077E-01  0.00000000000E+00 0. -1.
     999901    1    3    3    0    0 -0.11115344572E-01  0.12573191722E+00  0.73322063212E-01  0.89202477031E+00  0.88000000000E+00 0.  1.
        -11    1    4    4    0    0  0.79829174578E-02 -0.75757384673E-01 -0.35103709873E-01  0.83877529002E-01  0.51100000000E-03 0. -1.
         11    1    4    4    0    0 -0.90975394052E-02 -0.37647482604E-01 -0.23840497953E-01  0.45483278612E-01  0.51100000000E-03 0.  1.
</event>
<event>
 8    1  0.1233916E+005  0.1043930E+01  0.7957747E-01            NaN
         13   -1    0    0    0    0  0.00000000000E+00  0.00000000000E+00  0.74505805969E-08  0.10566000000E+00  0.10566000000E+00 0. -1.
     999900   -1    0    0    0    0 -0.00000000000E+00 -0.00000000000E+00 -0.74505805969E-08  0.93827000000E+00  0.93827000000E+00 0.  1.
     999902    2    1    2    0    0  0.13346608419E-02 -0.99631831193E-02 -0.21432509196E-01  0.10202572564E+01  0.10199825834E+01 0.  0.
     999903    2    3    3    0    0  0.14282401779E-01 -0.63370365755E-01  0.10945416168E+00  0.12888119003E+00  0.20257279642E-01 0.  0.
         14    1    1    2    0    0 -0.13346608419E-02  0.99631831193E-02  0.21432509196E-01  0.23672743564E-01  0.00000000000E+00 0.  1.
     999901    1    3    3    0    0 -0.12947740937E-01  0.53407182636E-01 -0.13088667087E+00  0.89137606641E+00  0.88000000000E+00 0.  1.
        -11    1    4    4    0    0  0.72365218150E-02 -0.47330854054E-01  0.94091752696E-01  0.10557507300E+00  0.51100000000E-03 0.  1.
         11    1    4    4    0    0  0.70458799639E-02 -0.16039511702E-01  0.15362408979E-01  0.23306117024E-01  0.51100000000E-03 0. -1.
</event>
<event>
 8    1  0.1233916E+005  0.1043930E+01  0.7957747E-01            NaN
         13   -1    0    0    0    0  0.00000000000E+00  0.00000000000E+00  0.74505805969E-08  0.10566000000E+00  0.10566000000E+00 0. -1.
     999900   -1    0    0    0    0 -0.00000000000E+00 -0.00000000000E+00 -0.74505805969E-08  0.93827000000E+00  0.93827000000E+00 0.  1.
     999902    2    1    2    0    0  0.13509811706E-01 -0.17535469025E-01  0.26067075405E-02  0.10216409307E+01  0.10213977622E+01 0.  0.
     999903    2    3    3    0    0  0.18649794926E-01 -0.71560583663E-01 -0.10890747352E+00  0.13294495061E+00  0.18568524997E-01 0.  0.
         14    1    1    2    0    0 -0.13509811706E-01  0.17535469025E-01 -0.26067075405E-02  0.22289069304E-01  0.00000000000E+00 0.  1.
     999901    1    3    3    0    0 -0.51399832209E-02  0.54025114638E-01  0.11151418106E+00  0.88869598008E+00  0.88000000000E+00 0. -1.
        -11    1    4    4    0    0 -0.21770881062E-02 -0.26598627156E-01 -0.38138643859E-01  0.46551519369E-01  0.51100000000E-03 0. -1.
         11    1    4    4    0    0  0.20826883033E-01 -0.44961956507E-01 -0.70768829658E-01  0.86393431243E-01  0.51100000000E-03 0.  1.
</event>
<event>
 8    1  0.1233916E+005  0.1043930E+01  0.7957747E-01            NaN
         13   -1    0    0    0    0  0.00000000000E+00  0.00000000000E+00  0.74505805969E-08  0.10566000000E+00  0.10566000000E+00 0.  1.
     999900   -1    0    0    0    0 -0.00000000000E+00 -0.00000000000E+00 -0.74505805969E-08  0.93827000000E+00  0.93827000000E+00 0.  1.
     999902    2    1    2    0    0 -0.70310328823E-02  0.81681879718E-02 -0.20113434402E-01  0.10211110394E+01  0.10208560378E+01 0.  0.
     999903    2    3    3    0    0  0.49802451851E-01 -0.38400400519E-01 -0.11552732616E+00  0.13290921036E+00  0.19063581479E-01 0.  0.
         14    1    1    2    0    0  0.70310328823E-02 -0.81681879718E-02  0.20113434402E-01  0.22818960572E-01  0.00000000000E+00 0. -1.
     999901    1    3    3    0    0 -0.56833484734E-01  0.46568588491E-01  0.95413891755E-01  0.88820182907E+00  0.88000000000E+00 0. -1.
        -11    1    4    4    0    0  0.15325991044E-01 -0.82800813810E-02 -0.50175842606E-01  0.53116118565E-01  0.51100000000E-03 0.  1.
         11    1    4    4    0    0  0.34476460807E-01 -0.30120319138E-01 -0.65351483551E-01  0.79793091795E-01  0.51100000000E-03 0. -1.
</event>
<event>
 8    1  0.1233916E+005  0.1043930E+01  0.7957747E-01            NaN
         13   -1    0    0    0    0  0.00000000000E+00  0.00000000000E+00  0.74505805969E-08  0.10566000000E+00  0.10566000000E+00 0. -1.
     999900   -1    0    0    0    0 -0.00000000000E+00 -0.00000000000E+00 -0.74505805969E-08  0.93827000000E+00  0.93827000000E+00 0. -1.
     999902    2    1    2    0    0  0.12519787480E-01 -0.21668150850E-01  0.29912904406E-03  0.10189031481E+01  0.10185957401E+01 0.  0.
     999903    2    3    3    0    0  0.31990172459E-01 -0.77223092388E-01  0.99640239210E-01  0.13135928797E+00  0.18447442466E-01 0.  0.
         14    1    1    2    0    0 -0.12519787480E-01  0.21668150850E-01 -0.29912904406E-03  0.25026851939E-01  0.00000000000E+00 0.  1.
     999901    1    3    3    0    0 -0.19470384979E-01  0.55554941538E-01 -0.99341110166E-01  0.88754386009E+00  0.88000000000E+00 0. -1.
        -11    1    4    4    0    0 -0.20197663743E-02 -0.43080311847E-02  0.87510917693E-02  0.99740321360E-02  0.51100000000E-03 0. -1.
         11    1    4    4    0    0  0.34009938833E-01 -0.72915061204E-01  0.90889147441E-01  0.12138525583E+00  0.51100000000E-03 0.  1.
</event>
<event>
 8    1  0.1233916E+005  0.1043930E+01  0.7957747E-01            NaN
         13   -1    0    0    0    0  0.00000000000E+00  0.00000000000E+00  0.74505805969E-08  0.10566000000E+00  0.10566000000E+00 0. -1.
     999900   -1    0    0    0    0 -0.00000000000E+00 -0.00000000000E+00 -0.74505805969E-08  0.93827000000E+00  0.93827000000E+00 0.  1.
     999902    2    1    2    0    0  0.12413367570E-01 -0.68097529645E-02  0.18574970829E-01  0.10205741876E+01  0.10203069041E+01 0.  0.
     999903    2    3    3    0    0 -0.10532126142E+00 -0.24040714765E-01 -0.66421192423E-01  0.12850765611E+00  0.20782656271E-01 0.  0.
         14    1    1    2    0    0 -0.12413367570E-01  0.68097529645E-02 -0.18574970829E-01  0.23355812364E-01  0.00000000000E+00 0.  1.
     999901    1    3    3    0    0  0.11773462899E+00  0.17230961801E-01  0.84996163253E-01  0.89206653153E+00  0.88000000000E+00 0. -1.
        -11    1    4    4    0    0 -0.71987641979E-01 -0.72086775464E-02 -0.39134877712E-01  0.82255610168E-01  0.51100000000E-03 0. -1.
         11    1    4    4    0    0 -0.33333619440E-01 -0.16832037219E-01 -0.27286314712E-01  0.46252045938E-01  0.51100000000E-03 0.  1.
</event>
<event>
 8    1  0.1233916E+005  0.1043930E+01  0.7957747E-01            NaN
         13   -1    0    0    0    0  0.00000000000E+00  0.00000000000E+00  0.74505805969E-08  0.10566000000E+00  0.10566000000E+00 0. -1.
     999900   -1    0    0    0    0 -0.00000000000E+00 -0.00000000000E+00 -0.74505805969E-08  0.93827000000E+00  0.93827000000E+00 0.  1.
     999902    2    1    2    0    0 -0.19090389651E-02  0.23714429277E-01 -0.55303703037E-02  0.10195045301E+01  0.10192118932E+01 0.  0.
     999903    2    3    3    0    0 -0.10501006659E+00 -0.31042815617E-01 -0.66484510343E-01  0.12970478577E+00  0.20306916281E-01 0.  0.
         14    1    1    2    0    0  0.19090389651E-02 -0.23714429277E-01  0.55303703037E-02  0.24425469932E-01  0.00000000000E+00 0. -1.
     999901    1    3    3    0    0  0.10310102763E+00  0.54757244894E-01  0.60954140039E-01  0.88979974430E+00  0.88000000000E+00 0. -1.
        -11    1    4    4    0    0 -0.59350019812E-01 -0.95633832277E-02 -0.43781241355E-01  0.74370298951E-01  0.51100000000E-03 0. -1.
         11    1    4    4    0    0 -0.45660046780E-01 -0.21479432390E-01 -0.22703268988E-01  0.55334486819E-01  0.51100000000E-03 0.  1.
</event>
<event>
 8    1  0.1233916E+005  0.1043930E+01  0.7957747E-01            NaN
         13   -1    0    0    0    0  0.00000000000E+00  0.00000000000E+00  0.74505805969E-08  0.10566000000E+00  0.10566000000E+00 0.  1.
     999900   -1    0    0    0    0 -0.00000000000E+00 -0.00000000000E+00 -0.74505805969E-08  0.93827000000E+00  0.93827000000E+00 0.  1.
     999902    2    1    2    0    0  0.69351466860E-02  0.22581319409E-01  0.50436855083E-03  0.10203023333E+01  0.10200287176E+01 0.  0.
     999903    2    3    3    0    0 -0.89226231717E-01 -0.89074832279E-01 -0.94634801864E-02  0.12799439043E+00  0.19933899586E-01 0.  0.
         14    1    1    2    0    0 -0.69351466860E-02 -0.22581319409E-01 -0.50436855083E-03  0.23627666695E-01  0.00000000000E+00 0. -1.
     999901    1    3    3    0    0  0.96161378403E-01  0.11165615169E+00  0.99678487372E-02  0.89230794287E+00  0.88000000000E+00 0. -1.
        -11    1    4    4    0    0 -0.72001252286E-01 -0.62200572070E-01 -0.18157320268E-02  0.95166430533E-01  0.51100000000E-03 0.  1.
         11    1    4    4    0    0 -0.17224979431E-01 -0.26874260209E-01 -0.76477481595E-02  0.32827959899E-01  0.51100000000E-03 0. -1.
</event>
<event>
 8    1  0.1233916E+005  0.1043930E+01  0.7957747E-01            NaN
         13   -1    0    0    0    0  0.00000000000E+00  0.00000000000E+00  0.74505805969E-08  0.10566000000E+00  0.10566000000E+00 0.  1.
     999900   -1    0    0    0    0 -0.00000000000E+00 -0.00000000000E+00 -0.74505805969E-08  0.93827000000E+00  0.93827000000E+00 0.  1.
     999902    2    1    2    0    0 -0.94244487921E-02 -0.17256064409E-01 -0.13495094957E-01  0.10200823674E+01  0.10198035726E+01 0.  0.
     999903    2    3    3    0    0 -0.58257062482E-01 -0.85930088815E-01  0.77934004418E-01  0.13134167066E+00  0.19976484026E-01 0.  0.
         14    1    1    2    0    0  0.94244487921E-02  0.17256064409E-01  0.13495094957E-01  0.23847632625E-01  0.00000000000E+00 0.  1.
     999901    1    3    3    0    0  0.48832613689E-01  0.68674024406E-01 -0.91429099375E-01  0.88874069672E+00  0.88000000000E+00 0.  1.
        -11    1    4    4    0    0 -0.33436242528E-01 -0.41407307511E-01  0.50877816306E-01  0.73629890281E-01  0.51100000000E-03 0. -1.
         11    1    4    4    0    0 -0.24820819953E-01 -0.44522781304E-01  0.27056188111E-01  0.57711780377E-01  0.51100000000E-03 0.  1.
</event>
<event>
 8    1  0.1233916E+005  0.1043930E+01  0.7957747E-01            NaN
         13   -1    0    0    0    0  0.00000000000E+00  0.00000000000E+00  0.74505805969E-08  0.10566000000E+00  0.10566000000E+00 0. -1.
     999900   -1    0    0    0    0 -0.00000000000E+00 -0.00000000000E+00 -0.74505805969E-08  0.93827000000E+00  0.93827000000E+00 0.  1.
     999902    2    1    2    0    0 -0.53263423985E-02  0.24094717251E-01 -0.56576248954E-02  0.10186133248E+01  0.10182986652E+01 0.  0.
     999903    2    3    3    0    0  0.53060355540E-01 -0.12365237758E-01  0.11387169745E+00  0.12786892056E+00  0.20381288716E-01 0.  0.
         14    1    1    2    0    0  0.53263423985E-02 -0.24094717251E-01  0.56576248954E-02  0.25316675181E-01  0.00000000000E+00 0.  1.
     999901    1    3    3    0    0 -0.58386697939E-01  0.36459955009E-01 -0.11952932235E+00  0.89074440426E+00  0.88000000000E+00 0.  1.
        -11    1    4    4    0    0  0.46042675400E-01 -0.17323325448E-01  0.91288208671E-01  0.10370064477E+00  0.51100000000E-03 0. -1.
         11    1    4    4    0    0  0.70176801406E-02  0.49580876903E-02  0.22583488782E-01  0.24168275790E-01  0.51100000000E-03 0.  1.
</event>
<event>
 8    1  0.1233916E+005  0.1043930E+01  0.7957747E-01            NaN
         13   -1    0    0    0    0  0.00000000000E+00  0.00000000000E+00  0.74505805969E-08  0.10566000000E+00  0.10566000000E+00 0. -1.
     999900   -1    0    0    0    0 -0.00000000000E+00 -0.00000000000E+00 -0.74505805969E-08  0.93827000000E+00  0.93827000000E+00 0. -1.
     999902    2    1    2    0    0 -0.15003084928E-01 -0.16465307121E-01  0.49105902426E-02  0.10211196341E+01  0.10208648267E+01 0.  0.
     999903    2    3    3    0    0  0.11024530578E+00 -0.42934294195E-01 -0.50380415181E-01  0.13013991383E+00  0.20020736076E-01 0.  0.
         14    1    1    2    0    0  0.15003084928E-01  0.16465307121E-01 -0.49105902426E-02  0.22810365899E-01  0.00000000000E+00 0.  1.
     999901    1    3    3    0    0 -0.12524839071E+00  0.26468987074E-01  0.55291005424E-01  0.89097972027E+00  0.88000000000E+00 0. -1.
        -11    1    4    4    0    0  0.15926717210E-01  0.94986648373E-03 -0.66358656327E-02  0.17287521544E-01  0.51100000000E-03 0.  1.
         11    1    4    4    0    0  0.94318588572E-01 -0.43884160679E-01 -0.43744549549E-01  0.11285239229E+00  0.51100000000E-03 0. -1.
</event>
<event>
 8    1  0.1233916E+005  0.1043930E+01  0.7957747E-01            NaN
         13   -1    0    0    0    0  0.00000000000E+00  0.00000000000E+00  0.74505805969E-08  0.10566000000E+00  0.10566000000E+00 0. -1.
     999900   -1    0    0    0    0 -0.00000000000E+00 -0.00000000000E+00 -0.74505805969E-08  0.93827000000E+00  0.93827000000E+00 0. -1.
     999902    2    1    2    0    0  0.34165949429E-02  0.17768128605E-01  0.15387426903E-01  0.10201781070E+01  0.10199015725E+01 0.  0.
     999903    2    3    3    0    0  0.10413265220E-01  0.10265539941E+00 -0.78388281104E-01  0.13110629574E+00  0.19939183744E-01 0.  0.
         14    1    1    2    0    0 -0.34165949429E-02 -0.17768128605E-01 -0.15387426903E-01  0.23751893016E-01  0.00000000000E+00 0.  1.
     999901    1    3    3    0    0 -0.69966702768E-02 -0.84887270800E-01  0.93775708007E-01  0.88907181125E+00  0.88000000000E+00 0.  1.
        -11    1    4    4    0    0  0.53062086347E-02  0.38470437157E-01 -0.17912978190E-01  0.42769922770E-01  0.51100000000E-03 0. -1.
         11    1    4    4    0    0  0.51070565850E-02  0.64184962248E-01 -0.60475302914E-01  0.88336372969E-01  0.51100000000E-03 0.  1.
</event>
<event>
 8    1  0.1233916E+005  0.1043930E+01  0.7957747E-01            NaN
         13   -1    0    0    0    0  0.00000000000E+00  0.00000000000E+00  0.74505805969E-08  0.10566000000E+00  0.10566000000E+00 0. -1.
     999900   -1    0    0    0    0 -0.00000000000E+00 -0.00000000000E+00 -0.74505805969E-08  0.93827000000E+00  0.93827000000E+00 0. -1.
     999902    2    1    2    0    0 -0.10781254272E-01 -0.20061156958E-01  0.67354077268E-02  0.10201802383E+01  0.10199037540E+01 0.  0.
     999903    2    3    3    0    0  0.55621990856E-01 -0.11775984512E+00 -0.10554452950E-01  0.13211866168E+00  0.19564184067E-01 0.  0.
         14    1    1    2    0    0  0.10781254272E-01  0.20061156958E-01 -0.67354077268E-02  0.23749761671E-01  0.00000000000E+00 0. -1.
     999901    1    3    3    0    0 -0.66403245128E-01  0.97698688163E-01  0.17289860677E-01  0.88806157665E+00  0.88000000000E+00 0.  1.
        -11    1    4    4    0    0  0.17284481963E-01 -0.55284607817E-01 -0.10192853294E-01  0.58815784935E-01  0.51100000000E-03 0. -1.
         11    1    4    4    0    0  0.38337508893E-01 -0.62475237304E-01 -0.36159965572E-03  0.73302876749E-01  0.51100000000E-03 0.  1.
</event>
<event>
 8    1  0.1233916E+005  0.1043930E+01  0.7957747E-01            NaN
         13   -1    0    0    0    0  0.00000000000E+00  0.00000000000E+00  0.74505805969E-08  0.10566000000E+00  0.10566000000E+00 0. -1.
     999900   -1    0    0    0    0 -0.00000000000E+00 -0.00000000000E+00 -0.74505805969E-08  0.93827000000E+00  0.93827000000E+00 0. -1.
     999902    2    1    2    0    0  0.84750703467E-02 -0.21851388688E-01  0.38307382607E-02  0.10201816409E+01  0.10199051896E+01 0.  0.
     999903    2    3    3    0    0  0.22548533795E-01  0.10886902363E+00  0.61363365854E-01  0.12855621964E+00  0.20008454668E-01 0.  0.
         14    1    1    2    0    0 -0.84750703467E-02  0.21851388688E-01 -0.38307382607E-02  0.23748359114E-01  0.00000000000E+00 0.  1.
     999901    1    3    3    0    0 -0.14073463448E-01 -0.13072041231E+00 -0.57532627594E-01  0.89162542124E+00  0.88000000000E+00 0. -1.
        -11    1    4    4    0    0  0.98386908238E-02  0.52563640768E-01  0.18244798932E-01  0.56505486256E-01  0.51100000000E-03 0.  1.
         11    1    4    4    0    0  0.12709842971E-01  0.56305382858E-01  0.43118566922E-01  0.72050733387E-01  0.51100000000E-03 0. -1.
</event>
<event>
 8    1  0.1233916E+005  0.1043930E+01  0.7957747E-01            NaN
         13   -1    0    0    0    0  0.00000000000E+00  0.00000000000E+00  0.74505805969E-08  0.10566000000E+00  0.10566000000E+00 0.  1.
     999900   -1    0    0    0    0 -0.00000000000E+00 -0.00000000000E+00 -0.74505805969E-08  0.93827000000E+00  0.93827000000E+00 0. -1.
     999902    2    1    2    0    0  0.10067028885E-01 -0.20734436961E-01 -0.36696866206E-02  0.10205905796E+01  0.10203236754E+01 0.  0.
     999903    2    3    3    0    0  0.38429277973E-01 -0.12423964069E+00 -0.24815094863E-01  0.13381841453E+00  0.19475148577E-01 0.  0.
         14    1    1    2    0    0 -0.10067028885E-01  0.20734436961E-01  0.36696866206E-02  0.23339420442E-01  0.00000000000E+00 0.  1.
     999901    1    3    3    0    0 -0.28362249088E-01  0.10350520372E+00  0.21145408242E-01  0.88677216502E+00  0.88000000000E+00 0.  1.
        -11    1    4    4    0    0  0.20449321567E-01 -0.70060555718E-01 -0.41405252619E-02  0.73103086737E-01  0.51100000000E-03 0. -1.
         11    1    4    4    0    0  0.17979956406E-01 -0.54179084968E-01 -0.20674569601E-01  0.60715327797E-01  0.51100000000E-03 0.  1.
</event>
<event>
 8    1  0.1233916E+005  0.1043930E+01  0.7957747E-01            NaN
         13   -1    0    0    0    0  0.00000000000E+00  0.00000000000E+00  0.74505805969E-08  0.10566000000E+00  0.10566000000E+00 0. -1.
     999900   -1    0    0    0    0 -0.00000000000E+00 -0.00000000000E+00 -0.74505805969E-08  0.93827000000E+00  0.93827000000E+00 0. -1.
     999902    2    1    2    0    0  0.16516474220E-01 -0.13955547867E-01  0.94847214799E-02  0.10203183254E+01  0.10200450843E+01 0.  0.
     999903    2    3    3    0    0  0.51044451945E-01 -0.12008108651E+00  0.18001993073E-01  0.13322906543E+00  0.20022704816E-01 0.  0.
         14    1    1    2    0    0 -0.16516474220E-01  0.13955547867E-01 -0.94847214799E-02  0.23611674622E-01  0.00000000000E+00 0. -1.
     999901    1    3    3    0    0 -0.34527977725E-01  0.10612553865E+00 -0.85172715936E-02  0.88708925995E+00  0.88000000000E+00 0. -1.
        -11    1    4    4    0    0  0.14512207304E-01 -0.15996237914E-01  0.47975648766E-02  0.22130556658E-01  0.51100000000E-03 0.  1.
         11    1    4    4    0    0  0.36532244641E-01 -0.10408484860E+00  0.13204428197E-01  0.11109850877E+00  0.51100000000E-03 0. -1.
</event>
<event>
 8    1  0.1233916E+005  0.1043930E+01  0.7957747E-01            NaN
         13   -1    0    0    0    0  0.00000000000E+00  0.00000000000E+00  0.74505805969E-08  0.10566000000E+00  0.10566000000E+00 0.  1.
     999900   -1    0    0    0    0 -0.00000000000E+00 -0.00000000000E+00 -0.74505805969E-08  0.93827000000E+00  0.93827000000E+00 0. -1.
     999902    2    1    2    0    0  0.15011757343E-01  0.16455376821E-01  0.21175362243E-02  0.10215555448E+01  0.10213104890E+01 0.  0.
     999903    2    3    3    0    0 -0.95567052692E-01  0.86932110582E-01  0.17073616401E-01  0.13171380183E+00  0.19151078457E-01 0.  0.
         14    1    1    2    0    0 -0.15011757343E-01 -0.16455376821E-01 -0.21175362243E-02  0.22374455178E-01  0.00000000000E+00 0. -1.
     999901    1    3    3    0    0  0.11057881003E+00 -0.70476733761E-01 -0.14956080176E-01  0.88984174299E+00  0.88000000000E+00 0.  1.
        -11    1    4    4    0    0 -0.37198541794E-01  0.34102961920E-01 -0.27025333416E-02  0.50540165520E-01  0.51100000000E-03 0. -1.
         11    1    4    4    0    0 -0.58368510898E-01  0.52829148662E-01  0.19776149742E-01  0.81173636314E-01  0.51100000000E-03 0.  1.
</event>
<event>
 7    1  0.1233916E+005  0.1043930E+01  0.7957747E-01            NaN
         13   -1    0    0    0    0  0.00000000000E+00  0.00000000000E+00  0.74505805969E-08  0.10566000000E+00  0.10566000000E+00 0. -1.
     999900   -1    0    0    0    0 -0.00000000000E+00 -0.00000000000E+00 -0.74505805969E-08  0.93827000000E+00  0.93827000000E+00 0. -1.
     999903    2    1    2    0    0 -0.17591969922E-01 -0.17855146206E-01  0.11593985134E+00  0.11976808554E+00  0.16554803985E-01 0.  0.
         14    1    1    2    0    0 -0.84735653136E-02  0.24122943215E-02 -0.39340561926E-01  0.40315013155E-01  0.00000000000E+00 0.  1.
     999901    1    1    2    0    0  0.26065535236E-01  0.15442851885E-01 -0.76599289411E-01  0.88384690130E+00  0.88000000000E+00 0. -1.
        -11    1    3    3    0    0 -0.16276697809E-01 -0.67849594290E-02  0.53351872200E-01  0.56192970683E-01  0.51100000000E-03 0. -1.
         11    1    3    3    0    0 -0.13152721131E-02 -0.11070186777E-01  0.62587979138E-01  0.63575114861E-01  0.51100000000E-03 0.  1.
</event>
<event>
 8    1  0.1233916E+005  0.1043930E+01  0.7957747E-01            NaN
         13   -1    0    0    0    0  0.00000000000E+00  0.00000000000E+00  0.74505805969E-08  0.10566000000E+00  0.10566000000E+00 0. -1.
     999900   -1    0    0    0    0 -0.00000000000E+00 -0.00000000000E+00 -0.74505805969E-08  0.93827000000E+00  0.93827000000E+00 0. -1.
     999902    2    1    2    0    0  0.18262955244E-01  0.11199252042E-01 -0.98242645327E-02  0.10203614838E+01  0.10200892523E+01 0.  0.
     999903    2    3    3    0    0  0.49407898013E-02 -0.74888684448E-01  0.10288650369E+00  0.12890630820E+00  0.19961893423E-01 0.  0.
         14    1    1    2    0    0 -0.18262955244E-01 -0.11199252042E-01  0.98242645327E-02  0.23568516164E-01  0.00000000000E+00 0.  1.
     999901    1    3    3    0    0  0.13322165443E-01  0.86087936490E-01 -0.11271076822E+00  0.89145517564E+00  0.88000000000E+00 0. -1.
        -11    1    4    4    0    0  0.34126967279E-02 -0.74967540876E-01  0.96103396118E-01  0.12193400900E+00  0.51100000000E-03 0.  1.
         11    1    4    4    0    0  0.15280930733E-02  0.78856427693E-04  0.67831075719E-02  0.69722991982E-02  0.51100000000E-03 0. -1.
</event>
<event>
 8    1  0.1233916E+005  0.1043930E+01  0.7957747E-01            NaN
         13   -1    0    0    0    0  0.00000000000E+00  0.00000000000E+00  0.74505805969E-08  0.10566000000E+00  0.10566000000E+00 0.  1.
     999900   -1    0    0    0    0 -0.00000000000E+00 -0.00000000000E+00 -0.74505805969E-08  0.93827000000E+00  0.93827000000E+00 0. -1.
     999902    2    1    2    0    0 -0.18197714624E-02  0.12789076233E-01  0.19700605736E-01  0.10203718612E+01  0.10200998721E+01 0.  0.
     999903    2    3    3    0    0 -0.91338447473E-01  0.16505367330E-01  0.92957394034E-01  0.13279428078E+00  0.19444916146E-01 0.  0.
         14    1    1    2    0    0  0.18197714624E-02 -0.12789076233E-01 -0.19700605736E-01  0.23558138836E-01  0.00000000000E+00 0. -1.
     999901    1    3    3    0    0  0.89518676010E-01 -0.37162910976E-02 -0.73256788298E-01  0.88757758039E+00  0.88000000000E+00 0. -1.
        -11    1    4    4    0    0 -0.36219751465E-01  0.10383027176E-01  0.25660726028E-01  0.45589600029E-01  0.51100000000E-03 0.  1.
         11    1    4    4    0    0 -0.55118696008E-01  0.61223401541E-02  0.67296668006E-01  0.87204680748E-01  0.51100000000E-03 0. -1.
</event>
<event>
 8    1  0.1233916E+005  0.1043930E+01  0.7957747E-01            NaN
         13   -1    0    0    0    0  0.00000000000E+00  0.00000000000E+00  0.74505805969E-08  0.10566000000E+00  0.10566000000E+00 0. -1.
     999900   -1    0    0    0    0 -0.00000000000E+00 -0.00000000000E+00 -0.74505805969E-08  0.93827000000E+00  0.93827000000E+00 0.  1.
     999902    2    1    2    0    0  0.21130660745E-01 -0.73586484635E-02 -0.53725625676E-03  0.10215482401E+01  0.10213030225E+01 0.  0.
     999903    2    3    3    0    0 -0.12221822567E-01  0.12835114529E+00 -0.34703557429E-02  0.13051617598E+00  0.19975970082E-01 0.  0.
         14    1    1    2    0    0 -0.21130660745E-01  0.73586484635E-02  0.53725625676E-03  0.22381759873E-01  0.00000000000E+00 0. -1.
     999901    1    3    3    0    0  0.33352483312E-01 -0.13570979375E+00  0.29330994861E-02  0.89103206415E+00  0.88000000000E+00 0.  1.
        -11    1    4    4    0    0 -0.87093929884E-03  0.88278462750E-01 -0.78582257959E-02  0.88633280174E-01  0.51100000000E-03 0.  1.
         11    1    4    4    0    0 -0.11350883268E-01  0.40072682537E-01  0.43878700530E-02  0.41882895808E-01  0.51100000000E-03 0. -1.
</event>
<event>
 8    1  0.1233916E+005  0.1043930E+01  0.7957747E-01            NaN
         13   -1    0    0    0    0  0.00000000000E+00  0.00000000000E+00  0.74505805969E-08  0.10566000000E+00  0.10566000000E+00 0.  1.
     999900   -1    0    0    0    0 -0.00000000000E+00 -0.00000000000E+00 -0.74505805969E-08  0.93827000000E+00  0.93827000000E+00 0.  1.
     999902    2    1    2    0    0  0.45720602859E-02  0.36084871410E-01 -0.45878728211E-02  0.10072684362E+01  0.10066010294E+01 0.  0.
     999903    2    3    3    0    0  0.50345112986E-01  0.11014699282E+00 -0.76777511272E-02  0.12296649826E+00  0.19870113302E-01 0.  0.
         14    1    1    2    0    0 -0.45720602859E-02 -0.36084871410E-01  0.45878728211E-02  0.36661563755E-01  0.00000000000E+00 0.  1.
     999901    1    3    3    0    0 -0.45773052701E-01 -0.74062121409E-01  0.30898783062E-02  0.88430193799E+00  0.88000000000E+00 0.  1.
        -11    1    4    4    0    0  0.27523441697E-01  0.81643319800E-01 -0.37952042162E-02  0.86242890761E-01  0.51100000000E-03 0.  1.
         11    1    4    4    0    0  0.22821671290E-01  0.28503673019E-01 -0.38825469110E-02  0.36723607496E-01  0.51100000000E-03 0. -1.
</event>
<event>
 8    1  0.1233916E+005  0.1043930E+01  0.7957747E-01            NaN
         13   -1    0    0    0    0  0.00000000000E+00  0.00000000000E+00  0.74505805969E-08  0.10566000000E+00  0.10566000000E+00 0. -1.
     999900   -1    0    0    0    0 -0.00000000000E+00 -0.00000000000E+00 -0.74505805969E-08  0.93827000000E+00  0.93827000000E+00 0. -1.
     999902    2    1    2    0    0 -0.31830845094E-02  0.23400813156E-01 -0.23134887425E-02  0.10202006445E+01  0.10199246407E+01 0.  0.
     999903    2    3    3    0    0  0.41076176931E-01 -0.11779802549E+00  0.18209086894E-01  0.12761049756E+00  0.19729194632E-01 0.  0.
         14    1    1    2    0    0  0.31830845094E-02 -0.23400813156E-01  0.23134887425E-02  0.23729355523E-01  0.00000000000E+00 0.  1.
     999901    1    3    3    0    0 -0.44259261440E-01  0.14119883865E+00 -0.20522575636E-01  0.89259014692E+00  0.88000000000E+00 0. -1.
        -11    1    4    4    0    0  0.20726105315E-02 -0.31145033369E-01  0.28273895724E-02  0.31345878051E-01  0.51100000000E-03 0.  1.
         11    1    4    4    0    0  0.39003566399E-01 -0.86652992126E-01  0.15381697321E-01  0.96264619512E-01  0.51100000000E-03 0. -1.
</event>
<event>
 8    1  0.1233916E+005  0.1043930E+01  0.7957747E-01            NaN
         13   -1    0    0    0    0  0.00000000000E+00  0.00000000000E+00  0.74505805969E-08  0.10566000000E+00  0.10566000000E+00 0.  1.
     999900   -1    0    0    0    0 -0.00000000000E+00 -0.00000000000E+00 -0.74505805969E-08  0.93827000000E+00  0.93827000000E+00 0.  1.
     999902    2    1    2    0    0 -0.12483407606E-01  0.10266062521E-01 -0.16263190055E-01  0.10210014402E+01  0.10207439551E+01 0.  0.
     999903    2    3    3    0    0 -0.35422116646E-01  0.18560912083E-01  0.12159036239E+00  0.12993545450E+00  0.22355587758E-01 0.  0.
         14    1    1    2    0    0  0.12483407606E-01 -0.10266062521E-01  0.16263190055E-01  0.22928559831E-01  0.00000000000E+00 0.  1.
     999901    1    3    3    0    0  0.22938709040E-01 -0.82948495615E-02 -0.13785355244E+00  0.89106598567E+00  0.88000000000E+00 0.  1.
        -11    1    4    4    0    0  0.69697705864E-03  0.67519725490E-02  0.30210311393E-01  0.30967708113E-01  0.51100000000E-03 0. -1.
         11    1    4    4    0    0 -0.36119093705E-01  0.11808939534E-01  0.91380050997E-01  0.98967746383E-01  0.51100000000E-03 0.  1.
</event>
<event>
 8    1  0.1233916E+005  0.1043930E+01  0.7957747E-01            NaN
         13   -1    0    0    0    0  0.00000000000E+00  0.00000000000E+00  0.74505805969E-08  0.10566000000E+00  0.10566000000E+00 0. -1.
     999900   -1    0    0    0    0 -0.00000000000E+00 -0.00000000000E+00 -0.74505805969E-08  0.93827000000E+00  0.93827000000E+00 0.  1.
     999902    2    1    2    0    0 -0.35877232243E-02 -0.84412138810E-03 -0.23145386040E-01  0.10204929952E+01  0.10202238284E+01 0.  0.
     999903    2    3    3    0    0  0.12350104301E+00  0.35929180214E-01  0.15783611725E-02  0.13025982693E+00  0.20535765715E-01 0.  0.
         14    1    1    2    0    0  0.35877232243E-02  0.84412138810E-03  0.23145386040E-01  0.23437004795E-01  0.00000000000E+00 0. -1.
     999901    1    3    3    0    0 -0.12708876623E+00 -0.36773301602E-01 -0.24723747212E-01  0.89023316827E+00  0.88000000000E+00 0. -1.
        -11    1    4    4    0    0  0.54618065145E-01  0.22458027111E-01 -0.73165621219E-02  0.59508732336E-01  0.51100000000E-03 0.  1.
         11    1    4    4    0    0  0.68882977864E-01  0.13471153103E-01  0.88949232944E-02  0.70751094598E-01  0.51100000000E-03 0. -1.
</event>
<event>
 8    1  0.1233916E+005  0.1043930E+01  0.7957747E-01            NaN
         13   -1    0    0    0    0  0.00000000000E+00  0.00000000000E+00  0.74505805969E-08  0.10566000000E+00  0.10566000000E+00 0. -1.
     999900   -1    0    0    0    0 -0.00000000000E+00 -0.00000000000E+00 -0.74505805969E-08  0.93827000000E+00  0.93827000000E+00 0.  1.
     999902    2    1    2    0    0  0.22332959656E-01  0.52028960506E-02  0.49570425082E-02  0.10204693205E+01  0.10201996033E+01 0.  0.
     999903    2    3    3    0    0 -0.10510065500E+00 -0.67106634991E-01 -0.20707675521E-01  0.12798589082E+00  0.20053236185E-01 0.  0.
         14    1    1    2    0    0 -0.22332959656E-01 -0.52028960506E-02 -0.49570425082E-02  0.23460679545E-01  0.00000000000E+00 0. -1.
     999901    1    3    3    0    0  0.12743361466E+00  0.72309531042E-01  0.25664718029E-01  0.89248342964E+00  0.88000000000E+00 0. -1.
        -11    1    4    4    0    0 -0.57562175718E-01 -0.37391102597E-01 -0.12899701273E-02  0.68654379108E-01  0.51100000000E-03 0.  1.
         11    1    4    4    0    0 -0.47538479283E-01 -0.29715532394E-01 -0.19417705393E-01  0.59331511710E-01  0.51100000000E-03 0. -1.
</event>
<event>
 8    1  0.1233916E+005  0.1043930E+01  0.7957747E-01            NaN
         13   -1    0    0    0    0  0.00000000000E+00  0.00000000000E+00  0.74505805969E-08  0.10566000000E+00  0.10566000000E+00 0. -1.
     999900   -1    0    0    0    0 -0.00000000000E+00 -0.00000000000E+00 -0.74505805969E-08  0.93827000000E+00  0.93827000000E+00 0.  1.
     999902    2    1    2    0    0  0.12254934577E-01 -0.43478183996E-02  0.19562163113E-01  0.10204403178E+01  0.10201699255E+01 0.  0.
     999903    2    3    3    0    0 -0.34146002702E-01  0.11515960344E+00 -0.42749725297E-01  0.12897083298E+00  0.19448726957E-01 0.  0.
         14    1    1    2    0    0 -0.12254934577E-01  0.43478183996E-02 -0.19562163113E-01  0.23489682245E-01  0.00000000000E+00 0.  1.
     999901    1    3    3    0    0  0.46400937280E-01 -0.11950742184E+00  0.62311888410E-01  0.89146948478E+00  0.88000000000E+00 0. -1.
        -11    1    4    4    0    0 -0.32102413671E-01  0.98470155554E-01 -0.43008684902E-01  0.11214697765E+00  0.51100000000E-03 0.  1.
         11    1    4    4    0    0 -0.20435890311E-02  0.16689447887E-01  0.25895960475E-03  0.16823855324E-01  0.51100000000E-03 0. -1.
</event>
<event>
 8    1  0.1233916E+005  0.1043930E+01  0.7957747E-01            NaN
         13   -1    0    0    0    0  0.00000000000E+00  0.00000000000E+00  0.74505805969E-08  0.10566000000E+00  0.10566000000E+00 0. -1.
     999900   -1    0    0    0    0 -0.00000000000E+00 -0.00000000000E+00 -0.74505805969E-08  0.93827000000E+00  0.93827000000E+00 0. -1.
     999902    2    1    2    0    0 -0.63860234689E-02  0.20945942883E-01  0.94272189050E-02  0.10200891469E+01  0.10198105125E+01 0.  0.
     999903    2    3    3    0    0 -0.11476282857E+00  0.52136430895E-01 -0.32819155982E-01  0.13188695451E+00  0.20696799800E-01 0.  0.
         14    1    1    2    0    0  0.63860234689E-02 -0.20945942883E-01 -0.94272189050E-02  0.23840853074E-01  0.00000000000E+00 0. -1.
     999901    1    3    3    0    0  0.10837680510E+00 -0.31190488012E-01  0.42246374887E-01  0.88820219242E+00  0.88000000000E+00 0.  1.
        -11    1    4    4    0    0 -0.26762833399E-01  0.48164278583E-02 -0.17632230216E-02  0.27254674925E-01  0.51100000000E-03 0.  1.
         11    1    4    4    0    0 -0.87999995172E-01  0.47320003036E-01 -0.31055932960E-01  0.10463227958E+00  0.51100000000E-03 0. -1.
</event>
<event>
 8    1  0.1233916E+005  0.1043930E+01  0.7957747E-01            NaN
         13   -1    0    0    0    0  0.00000000000E+00  0.00000000000E+00  0.74505805969E-08  0.10566000000E+00  0.10566000000E+00 0. -1.
     999900   -1    0    0    0    0 -0.00000000000E+00 -0.00000000000E+00 -0.74505805969E-08  0.93827000000E+00  0.93827000000E+00 0.  1.
     999902    2    1    2    0    0 -0.18245062608E-02 -0.21626408836E-01  0.94929944586E-02  0.10202414516E+01  0.10199664074E+01 0.  0.
     999903    2    3    3    0    0 -0.23636763315E-01 -0.12285928044E+00 -0.40565456599E-01  0.13275639967E+00  0.18044556343E-01 0.  0.
         14    1    1    2    0    0  0.18245062608E-02  0.21626408836E-01 -0.94929944586E-02  0.23688548415E-01  0.00000000000E+00 0.  1.
     999901    1    3    3    0    0  0.21812257054E-01  0.10123287161E+00  0.50058451058E-01  0.88748505192E+00  0.88000000000E+00 0. -1.
        -11    1    4    4    0    0 -0.24476709349E-02 -0.46268295017E-01 -0.21233107059E-01  0.50969129609E-01  0.51100000000E-03 0.  1.
         11    1    4    4    0    0 -0.21189092380E-01 -0.76590985424E-01 -0.19332349540E-01  0.81787270060E-01  0.51100000000E-03 0. -1.
</event>
<event>
 8    1  0.1233916E+005  0.1043930E+01  0.7957747E-01            NaN
         13   -1    0    0    0    0  0.00000000000E+00  0.00000000000E+00  0.74505805969E-08  0.10566000000E+00  0.10566000000E+00 0. -1.
     999900   -1    0    0    0    0 -0.00000000000E+00 -0.00000000000E+00 -0.74505805969E-08  0.93827000000E+00  0.93827000000E+00 0.  1.
     999902    2    1    2    0    0 -0.16115562006E-01  0.15008968049E-01  0.92794547612E-02  0.10200325369E+01  0.10197525620E+01 0.  0.
     999903    2    3    3    0    0 -0.33604398125E-01  0.11806965486E+00  0.46407411483E-01  0.13306813532E+00  0.21995040879E-01 0.  0.
         14    1    1    2    0    0  0.16115562006E-01 -0.15008968049E-01 -0.92794547612E-02  0.23897463073E-01  0.00000000000E+00 0. -1.
     999901    1    3    3    0    0  0.17488836119E-01 -0.10306068681E+00 -0.37127956722E-01  0.88696440161E+00  0.88000000000E+00 0.  1.
        -11    1    4    4    0    0 -0.12982009470E-01  0.83030272345E-01  0.30401839674E-01  0.89370530222E-01  0.51100000000E-03 0. -1.
         11    1    4    4    0    0 -0.20622388655E-01  0.35039382517E-01  0.16005571809E-01  0.43697605094E-01  0.51100000000E-03 0.  1.
</event>
<event>
 8    1  0.1233916E+005  0.1043930E+01  0.7957747E-01            NaN
         13   -1    0    0    0    0  0.00000000000E+00  0.00000000000E+00  0.74505805969E-08  0.10566000000E+00  0.10566000000E+00 0.  1.
     999900   -1    0    0    0    0 -0.00000000000E+00 -0.00000000000E+00 -0.74505805969E-08  0.93827000000E+00  0.93827000000E+00 0. -1.
     999902    2    1    2    0    0  0.10274785048E-01  0.21092679255E-01 -0.26198301871E-02  0.10203220387E+01  0.10200488845E+01 0.  0.
     999903    2    3    3    0    0 -0.10759564582E+00  0.57370282642E-01  0.42241888433E-01  0.13059057542E+00  0.20033694608E-01 0.  0.
         14    1    1    2    0    0 -0.10274785048E-01 -0.21092679255E-01  0.26198301871E-02  0.23607961287E-01  0.00000000000E+00 0.  1.
     999901    1    3    3    0    0  0.11787043087E+00 -0.36277603387E-01 -0.44861718620E-01  0.88973146330E+00  0.88000000000E+00 0.  1.
        -11    1    4    4    0    0 -0.10026847757E+00  0.55365132896E-01  0.34246103696E-01  0.11954966446E+00  0.51100000000E-03 0. -1.
         11    1    4    4    0    0 -0.73271682533E-02  0.20051497459E-02  0.79957847371E-02  0.11040910953E-01  0.51100000000E-03 0.  1.
</event>
<event>
 8    1  0.1233916E+005  0.1043930E+01  0.7957747E-01            NaN
         13   -1    0    0    0    0  0.00000000000E+00  0.00000000000E+00  0.74505805969E-08  0.10566000000E+00  0.10566000000E+00 0. -1.
     999900   -1    0    0    0    0 -0.00000000000E+00 -0.00000000000E+00 -0.74505805969E-08  0.93827000000E+00  0.93827000000E+00 0.  1.
     999902    2    1    2    0    0 -0.56984861227E-02  0.25204083704E-01 -0.24251024319E-01  0.10084922975E+01  0.10078694773E+01 0.  0.
     999903    2    3    3    0    0  0.93619038779E-01  0.70408162191E-01  0.21135385324E-01  0.12059179312E+00  0.19335002708E-01 0.  0.
         14    1    1    2    0    0  0.56984861227E-02 -0.25204083704E-01  0.24251024319E-01  0.35437702521E-01  0.00000000000E+00 0. -1.
     999901    1    3    3    0    0 -0.99317524901E-01 -0.45204078487E-01 -0.45386409643E-01  0.88790050436E+00  0.88000000000E+00 0.  1.
        -11    1    4    4    0    0  0.65002956741E-02  0.37337791701E-02  0.64592231288E-02  0.99084628056E-02  0.51100000000E-03 0. -1.
         11    1    4    4    0    0  0.87118743104E-01  0.66674383021E-01  0.14676162195E-01  0.11068333031E+00  0.51100000000E-03 0.  1.
</event>
<event>
 8    1  0.1233916E+005  0.1043930E+01  0.7957747E-01            NaN
         13   -1    0    0    0    0  0.00000000000E+00  0.00000000000E+00  0.74505805969E-08  0.10566000000E+00  0.10566000000E+00 0.  1.
     999900   -1    0    0    0    0 -0.00000000000E+00 -0.00000000000E+00 -0.74505805969E-08  0.93827000000E+00  0.93827000000E+00 0. -1.
     999902    2    1    2    0    0 -0.69443286198E-02 -0.22337921146E-01  0.40094116027E-02  0.10201964414E+01  0.10199203387E+01 0.  0.
     999903    2    3    3    0    0  0.25383731309E-01 -0.12280354732E+00  0.40034401047E-01  0.13315853617E+00  0.20084756339E-01 0.  0.
         14    1    1    2    0    0  0.69443286198E-02  0.22337921146E-01 -0.40094116027E-02  0.23733558573E-01  0.00000000000E+00 0. -1.
     999901    1    3    3    0    0 -0.32328059929E-01  0.10046562618E+00 -0.36024989445E-01  0.88703790526E+00  0.88000000000E+00 0.  1.
        -11    1    4    4    0    0  0.28336017436E-01 -0.11189112529E+00  0.33968670539E-01  0.12031909866E+00  0.51100000000E-03 0. -1.
         11    1    4    4    0    0 -0.29522861266E-02 -0.10912422035E-01  0.60657305080E-02  0.12839437513E-01  0.51100000000E-03 0.  1.
</event>
<event>
 8    1  0.1233916E+005  0.1043930E+01  0.7957747E-01            NaN
         13   -1    0    0    0    0  0.00000000000E+00  0.00000000000E+00  0.74505805969E-08  0.10566000000E+00  0.10566000000E+00 0. -1.
     999900   -1    0    0    0    0 -0.00000000000E+00 -0.00000000000E+00 -0.74505805969E-08  0.93827000000E+00  0.93827000000E+00 0. -1.
     999902    2    1    2    0    0 -0.20635461061E-01 -0.18472561771E-02  0.10047073744E-01  0.10209043990E+01  0.10206447049E+01 0.  0.
     999903    2    3    3    0    0 -0.40270790351E-01 -0.21895963664E-01 -0.11988750567E+00  0.13092097686E+00  0.25809269419E-01 0.  0.
         14    1    1    2    0    0  0.20635461061E-01  0.18472561771E-02 -0.10047073744E-01  0.23025600956E-01  0.00000000000E+00 0. -1.
     999901    1    3    3    0    0  0.19635329291E-01  0.20048707487E-01  0.12993457941E+00  0.88998342218E+00  0.88000000000E+00 0.  1.
        -11    1    4    4    0    0 -0.42025209683E-01 -0.16594115273E-01 -0.92271070202E-01  0.10274090922E+00  0.51100000000E-03 0.  1.
         11    1    4    4    0    0  0.17544193321E-02 -0.53018483919E-02 -0.27616435464E-01  0.28180067642E-01  0.51100000000E-03 0. -1.
</event>
<event>
 8    1  0.1233916E+005  0.1043930E+01  0.7957747E-01            NaN
         13   -1    0    0    0    0  0.00000000000E+00  0.00000000000E+00  0.74505805969E-08  0.10566000000E+00  0.10566000000E+00 0.  1.
     999900   -1    0    0    0    0 -0.00000000000E+00 -0.00000000000E+00 -0.74505805969E-08  0.93827000000E+00  0.93827000000E+00 0. -1.
     999902    2    1    2    0    0 -0.12916639553E-01 -0.83327773997E-02  0.19132636121E-01  0.10193875364E+01  0.10190920551E+01 0.  0.
     999903    2    3    3    0    0 -0.22878139917E-01 -0.12673804250E+00  0.17070142706E-01  0.13139919625E+00  0.19708330762E-01 0.  0.
         14    1    1    2    0    0  0.12916639553E-01  0.83327773997E-02 -0.19132636121E-01  0.24542463639E-01  0.00000000000E+00 0. -1.
     999901    1    3    3    0    0  0.99615003637E-02  0.11840526510E+00  0.20624934149E-02  0.88798834011E+00  0.88000000000E+00 0. -1.
        -11    1    4    4    0    0 -0.13607942819E-01 -0.85132136285E-01  0.21722440175E-02  0.86241732945E-01  0.51100000000E-03 0. -1.
         11    1    4    4    0    0 -0.92701970976E-02 -0.41605906212E-01  0.14897898688E-01  0.45157463306E-01  0.51100000000E-03 0.  1.
</event>
<event>
 8    1  0.1233916E+005  0.1043930E+01  0.7957747E-01            NaN
         13   -1    0    0    0    0  0.00000000000E+00  0.00000000000E+00  0.74505805969E-08  0.10566000000E+00  0.10566000000E+00 0.  1.
     999900   -1    0    0    0    0 -0.00000000000E+00 -0.00000000000E+00 -0.74505805969E-08  0.93827000000E+00  0.93827000000E+00 0. -1.
     999902    2    1    2    0    0 -0.17482653996E-01  0.13612802151E-01  0.74407036934E-02  0.10205566039E+01  0.10202889131E+01 0.  0.
     999903    2    3    3    0    0  0.46690729003E-01  0.12001398484E+00  0.19665362732E-01  0.13174341935E+00  0.19652514312E-01 0.  0.
         14    1    1    2    0    0  0.17482653996E-01 -0.13612802151E-01 -0.74407036934E-02  0.23373396086E-01  0.00000000000E+00 0. -1.
     999901    1    3    3    0    0 -0.64173382999E-01 -0.10640118269E+00 -0.12224659039E-01  0.88881318456E+00  0.88000000000E+00 0. -1.
        -11    1    4    4    0    0  0.29910240725E-01  0.64800181775E-01  0.19673426721E-01  0.74033714605E-01  0.51100000000E-03 0.  1.
         11    1    4    4    0    0  0.16780488278E-01  0.55213803066E-01 -0.80639891839E-05  0.57709704747E-01  0.51100000000E-03 0. -1.
</event>
<event>
 8    1  0.1233916E+005  0.1043930E+01  0.7957747E-01            NaN
         13   -1    0    0    0    0  0.00000000000E+00  0.00000000000E+00  0.74505805969E-08  0.10566000000E+00  0.10566000000E+00 0.  1.
     999900   -1    0    0    0    0 -0.00000000000E+00 -0.00000000000E+00 -0.74505805969E-08  0.93827000000E+00  0.93827000000E+00 0. -1.
     999902    2    1    2    0    0  0.78157194679E-03 -0.17573966411E-01 -0.14547065654E-01  0.10211029925E+01  0.10208478090E+01 0.  0.
     999903    2    3    3    0    0 -0.11860557626E+00  0.44649867838E-01  0.20479714439E-01  0.13017540176E+00  0.21571349105E-01 0.  0.
         14    1    1    2    0    0 -0.78157194679E-03  0.17573966411E-01  0.14547065654E-01  0.22827007453E-01  0.00000000000E+00 0.  1.
     999901    1    3    3    0    0  0.11938714820E+00 -0.62223834248E-01 -0.35026780093E-01  0.89092759079E+00  0.88000000000E+00 0.  1.
        -11    1    4    4    0    0 -0.76516699426E-01  0.17740584004E-01  0.10784739542E-01  0.79284962886E-01  0.51100000000E-03 0.  1.
         11    1    4    4    0    0 -0.42088876832E-01  0.26909283834E-01  0.96949748978E-02  0.50890438873E-01  0.51100000000E-03 0. -1.
</event>
<event>
 8    1  0.1233916E+005  0.1043930E+01  0.7957747E-01            NaN
         13   -1    0    0    0    0  0.00000000000E+00  0.00000000000E+00  0.74505805969E-08  0.10566000000E+00  0.10566000000E+00 0. -1.
     999900   -1    0    0    0    0 -0.00000000000E+00 -0.00000000000E+00 -0.74505805969E-08  0.93827000000E+00  0.93827000000E+00 0.  1.
     999902    2    1    2    0    0 -0.18782468281E-01 -0.13555358718E-01 -0.59757117748E-03  0.10207592004E+01  0.10204961828E+01 0.  0.
     999903    2    3    3    0    0 -0.60301097206E-01  0.11147453048E+00  0.24705261054E-01  0.13059264119E+00  0.19526769802E-01 0.  0.
         14    1    1    2    0    0  0.18782468281E-01  0.13555358718E-01  0.59757117748E-03  0.23170799641E-01  0.00000000000E+00 0.  1.
     999901    1    3    3    0    0  0.41518628926E-01 -0.12502988920E+00 -0.25302832231E-01  0.89016655917E+00  0.88000000000E+00 0. -1.
        -11    1    4    4    0    0 -0.20884405519E-01  0.50689691569E-01  0.18569449306E-01  0.57885134480E-01  0.51100000000E-03 0.  1.
         11    1    4    4    0    0 -0.39416691687E-01  0.60784838914E-01  0.61358117477E-02  0.72707506711E-01  0.51100000000E-03 0. -1.
</event>
<event>
 8    1  0.1233916E+005  0.1043930E+01  0.7957747E-01            NaN
         13   -1    0    0    0    0  0.00000000000E+00  0.00000000000E+00  0.74505805969E-08  0.10566000000E+00  0.10566000000E+00 0.  1.
     999900   -1    0    0    0    0 -0.00000000000E+00 -0.00000000000E+00 -0.74505805969E-08  0.93827000000E+00  0.93827000000E+00 0.  1.
     999902    2    1    2    0    0 -0.29928430329E-02 -0.98121348964E-02 -0.21536994110E-01  0.10200746606E+01  0.10197956835E+01 0.  0.
     999903    2    3    3    0    0 -0.67919811057E-01  0.87547647908E-01 -0.67305808207E-01  0.13114877912E+00  0.19805026109E-01 0.  0.
         14    1    1    2    0    0  0.29928430329E-02  0.98121348964E-02  0.21536994110E-01  0.23855339360E-01  0.00000000000E+00 0.  1.
     999901    1    3    3    0    0  0.64926968024E-01 -0.97359782805E-01  0.45768814097E-01  0.88892588152E+00  0.88000000000E+00 0.  1.
        -11    1    4    4    0    0 -0.27881813325E-01  0.24020896574E-01 -0.28951940827E-01  0.46828143089E-01  0.51100000000E-03 0.  1.
         11    1    4    4    0    0 -0.40037997732E-01  0.63526751334E-01 -0.38353867380E-01  0.84320636036E-01  0.51100000000E-03 0. -1.
</event>
<event>
 8    1  0.1233916E+005  0.1043930E+01  0.7957747E-01            NaN
         13   -1    0    0    0    0  0.00000000000E+00  0.00000000000E+00  0.74505805969E-08  0.10566000000E+00  0.10566000000E+00 0.  1.
     999900   -1    0    0    0    0 -0.00000000000E+00 -0.00000000000E+00 -0.74505805969E-08  0.93827000000E+00  0.93827000000E+00 0.  1.
     999902    2    1    2    0    0 -0.70995296854E-03  0.41040845084E-02 -0.18038471905E-01  0.10254169232E+01  0.10252497903E+01 0.  0.
     999903    2    3    3    0    0  0.10585593388E+00  0.24857658665E-01  0.75497957005E-01  0.13382505325E+00  0.19642337798E-01 0.  0.
         14    1    1    2    0    0  0.70995296854E-03 -0.41040845084E-02  0.18038471905E-01  0.18513076771E-01  0.00000000000E+00 0.  1.
     999901    1    3    3    0    0 -0.10656588684E+00 -0.20753574157E-01 -0.93536428910E-01  0.89159186998E+00  0.88000000000E+00 0.  1.
        -11    1    4    4    0    0  0.92399828920E-01  0.20677221986E-01  0.56833997443E-01  0.11043387288E+00  0.51100000000E-03 0.  1.
         11    1    4    4    0    0  0.13456104956E-01  0.41804366789E-02  0.18663959562E-01  0.23391180367E-01  0.51100000000E-03 0. -1.
</event>
<event>
 8    1  0.1233916E+005  0.1043930E+01  0.7957747E-01            NaN
         13   -1    0    0    0    0  0.00000000000E+00  0.00000000000E+00  0.74505805969E-08  0.10566000000E+00  0.10566000000E+00 0. -1.
     999900   -1    0    0    0    0 -0.00000000000E+00 -0.00000000000E+00 -0.74505805969E-08  0.93827000000E+00  0.93827000000E+00 0.  1.
     999902    2    1    2    0    0 -0.22980335833E-01 -0.54054366826E-02 -0.63144861221E-02  0.10194925837E+01  0.10191996570E+01 0.  0.
     999903    2    3    3    0    0 -0.80442526352E-01  0.26774503872E-01 -0.99009752253E-01  0.13217648203E+00  0.21904731370E-01 0.  0.
         14    1    1    2    0    0  0.22980335833E-01  0.54054366826E-02  0.63144861221E-02  0.24437416306E-01  0.00000000000E+00 0.  1.
     999901    1    3    3    0    0  0.57462190518E-01 -0.32179940554E-01  0.92695266131E-01  0.88731610167E+00  0.88000000000E+00 0. -1.
        -11    1    4    4    0    0 -0.27167991920E-01  0.13275696159E-04 -0.23188982887E-01  0.35722402068E-01  0.51100000000E-03 0. -1.
         11    1    4    4    0    0 -0.53274534432E-01  0.26761228176E-01 -0.75820769367E-01  0.96454079959E-01  0.51100000000E-03 0.  1.
</event>
<event>
 8    1  0.1233916E+005  0.1043930E+01  0.7957747E-01            NaN
         13   -1    0    0    0    0  0.00000000000E+00  0.00000000000E+00  0.74505805969E-08  0.10566000000E+00  0.10566000000E+00 0. -1.
     999900   -1    0    0    0    0 -0.00000000000E+00 -0.00000000000E+00 -0.74505805969E-08  0.93827000000E+00  0.93827000000E+00 0.  1.
     999902    2    1    2    0    0 -0.17610588785E-01 -0.16764830680E-01  0.68663995456E-04  0.10196154550E+01  0.10193255019E+01 0.  0.
     999903    2    3    3    0    0  0.11398682714E+00 -0.44621324833E-02 -0.54728067896E-01  0.12805955763E+00  0.19778308738E-01 0.  0.
         14    1    1    2    0    0  0.17610588785E-01  0.16764830680E-01 -0.68663995456E-04  0.24314545026E-01  0.00000000000E+00 0. -1.
     999901    1    3    3    0    0 -0.13159741593E+00 -0.12302698197E-01  0.54796731892E-01  0.89155589734E+00  0.88000000000E+00 0. -1.
        -11    1    4    4    0    0  0.84872923916E-01 -0.11237985672E-01 -0.44294615692E-01  0.96394914992E-01  0.51100000000E-03 0.  1.
         11    1    4    4    0    0  0.29113903227E-01  0.67758531889E-02 -0.10433452204E-01  0.31664642639E-01  0.51100000000E-03 0. -1.
</event>
<event>
 8    1  0.1233916E+005  0.1043930E+01  0.7957747E-01            NaN
         13   -1    0    0    0    0  0.00000000000E+00  0.00000000000E+00  0.74505805969E-08  0.10566000000E+00  0.10566000000E+00 0.  1.
     999900   -1    0    0    0    0 -0.00000000000E+00 -0.00000000000E+00 -0.74505805969E-08  0.93827000000E+00  0.93827000000E+00 0. -1.
     999902    2    1    2    0    0  0.89244269650E-02 -0.42194995850E-02  0.19536983239E-01  0.10220406581E+01  0.10218062260E+01 0.  0.
     999903    2    3    3    0    0 -0.11024054053E+00  0.62693464215E-01 -0.22400321341E-01  0.13050469603E+00  0.21124726197E-01 0.  0.
         14    1    1    2    0    0 -0.89244269650E-02  0.42194995850E-02 -0.19536983239E-01  0.21889341869E-01  0.00000000000E+00 0. -1.
     999901    1    3    3    0    0  0.11916496750E+00 -0.66912963800E-01  0.41937304580E-01  0.89153596210E+00  0.88000000000E+00 0. -1.
        -11    1    4    4    0    0 -0.68566834126E-01  0.28989828367E-01 -0.18812507579E-01  0.76785366139E-01  0.51100000000E-03 0.  1.
         11    1    4    4    0    0 -0.41673706409E-01  0.33703635849E-01 -0.35878137625E-02  0.53719329890E-01  0.51100000000E-03 0. -1.
</event>
<event>
 8    1  0.1233916E+005  0.1043930E+01  0.7957747E-01            NaN
         13   -1    0    0    0    0  0.00000000000E+00  0.00000000000E+00  0.74505805969E-08  0.10566000000E+00  0.10566000000E+00 0.  1.
     999900   -1    0    0    0    0 -0.00000000000E+00 -0.00000000000E+00 -0.74505805969E-08  0.93827000000E+00  0.93827000000E+00 0.  1.
     999902    2    1    2    0    0  0.18682500166E-01 -0.35859196016E-02 -0.13840547228E-01  0.10204043676E+01  0.10201331374E+01 0.  0.
     999903    2    3    3    0    0  0.40795517085E-01 -0.51825706112E-01  0.11052646267E+00  0.13007677865E+00  0.18806684044E-01 0.  0.
         14    1    1    2    0    0 -0.18682500166E-01  0.35859196016E-02  0.13840547228E-01  0.23525632391E-01  0.00000000000E+00 0.  1.
     999901    1    3    3    0    0 -0.22113016919E-01  0.48239786510E-01 -0.12436700990E+00  0.89032758896E+00  0.88000000000E+00 0.  1.
        -11    1    4    4    0    0  0.30286833993E-01 -0.40873598351E-01  0.68033937886E-01  0.84951875675E-01  0.51100000000E-03 0.  1.
         11    1    4    4    0    0  0.10508683092E-01 -0.10952107761E-01  0.42492524782E-01  0.45124902970E-01  0.51100000000E-03 0. -1.
</event>
<event>
 8    1  0.1233916E+005  0.1043930E+01  0.7957747E-01            NaN
         13   -1    0    0    0    0  0.00000000000E+00  0.00000000000E+00  0.74505805969E-08  0.10566000000E+00  0.10566000000E+00 0.  1.
     999900   -1    0    0    0    0 -0.00000000000E+00 -0.00000000000E+00 -0.74505805969E-08  0.93827000000E+00  0.93827000000E+00 0. -1.
     999902    2    1    2    0    0  0.22336320500E-01  0.68731009476E-02  0.20470541954E-01  0.10128624314E+01  0.10123858509E+01 0.  0.
     999903    2    3    3    0    0  0.55608630656E-01  0.10707422549E+00 -0.26197450223E-01  0.12532357960E+00  0.21505432762E-01 0.  0.
         14    1    1    2    0    0 -0.22336320500E-01 -0.68731009476E-02 -0.20470541954E-01  0.31067568588E-01  0.00000000000E+00 0. -1.
     999901    1    3    3    0    0 -0.33272310156E-01 -0.10020112454E+00  0.46667992177E-01  0.88753885181E+00  0.88000000000E+00 0.  1.
        -11    1    4    4    0    0  0.47256978220E-01  0.83566561774E-01 -0.28811854213E-01  0.10023460631E+00  0.51100000000E-03 0.  1.
         11    1    4    4    0    0  0.83516524359E-02  0.23507663714E-01  0.26144039900E-02  0.25088973294E-01  0.51100000000E-03 0. -1.
</event>
<event>
 8    1  0.1233916E+005  0.1043930E+01  0.7957747E-01            NaN
         13   -1    0    0    0    0  0.00000000000E+00  0.00000000000E+00  0.74505805969E-08  0.10566000000E+00  0.10566000000E+00 0. -1.
     999900   -1    0    0    0    0 -0.00000000000E+00 -0.00000000000E+00 -0.74505805969E-08  0.93827000000E+00  0.93827000000E+00 0. -1.
     999902    2    1    2    0    0 -0.13800582707E-01  0.12563253904E-01 -0.16719271203E-01  0.10188735545E+01  0.10185654101E+01 0.  0.
     999903    2    3    3    0    0 -0.64312151763E-01 -0.52169003418E-01  0.95383890852E-01  0.12797019122E+00  0.20509154691E-01 0.  0.
         14    1    1    2    0    0  0.13800582707E-01 -0.12563253904E-01  0.16719271203E-01  0.25056445503E-01  0.00000000000E+00 0. -1.
     999901    1    3    3    0    0  0.50511569056E-01  0.64732257322E-01 -0.11210316205E+00  0.89090336327E+00  0.88000000000E+00 0.  1.
        -11    1    4    4    0    0 -0.17603129339E-01 -0.10295493505E-01  0.37112243403E-01  0.42349109559E-01  0.51100000000E-03 0. -1.
         11    1    4    4    0    0 -0.46709022424E-01 -0.41873509914E-01  0.58271647449E-01  0.85621081666E-01  0.51100000000E-03 0.  1.
</event>
<event>
 8    1  0.1233916E+005  0.1043930E+01  0.7957747E-01            NaN
         13   -1    0    0    0    0  0.00000000000E+00  0.00000000000E+00  0.74505805969E-08  0.10566000000E+00  0.10566000000E+00 0. -1.
     999900   -1    0    0    0    0 -0.00000000000E+00 -0.00000000000E+00 -0.74505805969E-08  0.93827000000E+00  0.93827000000E+00 0.  1.
     999902    2    1    2    0    0 -0.73928197907E-02  0.19233452741E-01 -0.11926769990E-01  0.10201218642E+01  0.10198440030E+01 0.  0.
     999903    2    3    3    0    0  0.11944688190E+00 -0.17104674683E-01  0.40126799040E-01  0.12876427966E+00  0.20247276932E-01 0.  0.
         14    1    1    2    0    0  0.73928197907E-02 -0.19233452741E-01  0.11926769990E-01  0.23808135819E-01  0.00000000000E+00 0. -1.
     999901    1    3    3    0    0 -0.12683970169E+00  0.36338127424E-01 -0.52053569030E-01  0.89135758452E+00  0.88000000000E+00 0. -1.
        -11    1    4    4    0    0  0.90338515008E-01 -0.18218287094E-01  0.23062227070E-01  0.95000424825E-01  0.51100000000E-03 0. -1.
         11    1    4    4    0    0  0.29108366895E-01  0.11136124112E-02  0.17064571970E-01  0.33763854837E-01  0.51100000000E-03 0.  1.
</event>
<event>
 8    1  0.1233916E+005  0.1043930E+01  0.7957747E-01            NaN
         13   -1    0    0    0    0  0.00000000000E+00  0.00000000000E+00  0.74505805969E-08  0.10566000000E+00  0.10566000000E+00 0.  1.
     999900   -1    0    0    0    0 -0.00000000000E+00 -0.00000000000E+00 -0.74505805969E-08  0.93827000000E+00  0.93827000000E+00 0. -1.
     999902    2    1    2    0    0  0.46255614596E-02 -0.24544443036E-01 -0.63558426396E-03  0.10189454154E+01  0.10186390578E+01 0.  0.
     999903    2    3    3    0    0  0.66276493335E-01  0.10583357711E+00 -0.13466640093E-01  0.12711364784E+00  0.19575736494E-01 0.  0.
         14    1    1    2    0    0 -0.46255614596E-02  0.24544443036E-01  0.63558426396E-03  0.24984584650E-01  0.00000000000E+00 0. -1.
     999901    1    3    3    0    0 -0.61650931876E-01 -0.13037802015E+00  0.12831055829E-01  0.89183176751E+00  0.88000000000E+00 0.  1.
        -11    1    4    4    0    0  0.35200728813E-01  0.70611729427E-01 -0.28362779690E-02  0.78951967900E-01  0.51100000000E-03 0. -1.
         11    1    4    4    0    0  0.31075764522E-01  0.35221847687E-01 -0.10630362124E-01  0.48161679944E-01  0.51100000000E-03 0.  1.
</event>
<event>
 8    1  0.1233916E+005  0.1043930E+01  0.7957747E-01            NaN
         13   -1    0    0    0    0  0.00000000000E+00  0.00000000000E+00  0.74505805969E-08  0.10566000000E+00  0.10566000000E+00 0.  1.
     999900   -1    0    0    0    0 -0.00000000000E+00 -0.00000000000E+00 -0.74505805969E-08  0.93827000000E+00  0.93827000000E+00 0.  1.
     999902    2    1    2    0    0  0.14236843619E-01  0.11965148787E-01 -0.15092532663E-01  0.10199792788E+01  0.10196980397E+01 0.  0.
     999903    2    3    3    0    0  0.64823302350E-01 -0.21304722979E-01  0.10812279471E+00  0.12933462969E+00  0.19518092945E-01 0.  0.
         14    1    1    2    0    0 -0.14236843619E-01 -0.11965148787E-01  0.15092532663E-01  0.23950721156E-01  0.00000000000E+00 0.  1.
     999901    1    3    3    0    0 -0.50586458731E-01  0.33269871766E-01 -0.12321532737E+00  0.89064464916E+00  0.88000000000E+00 0.  1.
        -11    1    4    4    0    0  0.14907877200E-01 -0.13737749905E-02  0.38966925519E-01  0.41747029424E-01  0.51100000000E-03 0. -1.
         11    1    4    4    0    0  0.49915425151E-01 -0.19930947989E-01  0.69155869187E-01  0.87587600262E-01  0.51100000000E-03 0.  1.
</event>
<event>
 8    1  0.1233916E+005  0.1043930E+01  0.7957747E-01            NaN
         13   -1    0    0    0    0  0.00000000000E+00  0.00000000000E+00  0.74505805969E-08  0.10566000000E+00  0.10566000000E+00 0. -1.
     999900   -1    0    0    0    0 -0.00000000000E+00 -0.00000000000E+00 -0.74505805969E-08  0.93827000000E+00  0.93827000000E+00 0. -1.
     999902    2    1    2    0    0  0.95844295567E-03  0.66385309528E-02  0.12420673461E-01  0.10298139866E+01  0.10297172355E+01 0.  0.
     999903    2    3    3    0    0 -0.61221089618E-01 -0.87229342618E-01 -0.84309208939E-01  0.13738239697E+00  0.20221282283E-01 0.  0.
         14    1    1    2    0    0 -0.95844295567E-03 -0.66385309528E-02 -0.12420673461E-01  0.14116013436E-01  0.00000000000E+00 0.  1.
     999901    1    3    3    0    0  0.62179532574E-01  0.93867873571E-01  0.96729882400E-01  0.89243158960E+00  0.88000000000E+00 0.  1.
        -11    1    4    4    0    0 -0.21705160740E-01 -0.36813609953E-01 -0.22213493956E-01  0.48166962902E-01  0.51100000000E-03 0.  1.
         11    1    4    4    0    0 -0.39515928878E-01 -0.50415732665E-01 -0.62095714983E-01  0.89215434066E-01  0.51100000000E-03 0. -1.
</event>
<event>
 8    1  0.1233916E+005  0.1043930E+01  0.7957747E-01            NaN
         13   -1    0    0    0    0  0.00000000000E+00  0.00000000000E+00  0.74505805969E-08  0.10566000000E+00  0.10566000000E+00 0. -1.
     999900   -1    0    0    0    0 -0.00000000000E+00 -0.00000000000E+00 -0.74505805969E-08  0.93827000000E+00  0.93827000000E+00 0. -1.
     999902    2    1    2    0    0 -0.52536803344E-02 -0.11901911673E-01 -0.20677764168E-01  0.10194999654E+01  0.10192072178E+01 0.  0.
     999903    2    3    3    0    0 -0.22929220535E-01  0.10582577524E+00 -0.69705767160E-01  0.13013166260E+00  0.18721959699E-01 0.  0.
         14    1    1    2    0    0  0.52536803344E-02  0.11901911673E-01  0.20677764168E-01  0.24430034578E-01  0.00000000000E+00 0. -1.
     999901    1    3    3    0    0  0.17675540201E-01 -0.11772768692E+00  0.49028002992E-01  0.88936830282E+00  0.88000000000E+00 0. -1.
        -11    1    4    4    0    0 -0.12516894125E-01  0.47637770506E-01 -0.21042321429E-01  0.53563702537E-01  0.51100000000E-03 0. -1.
         11    1    4    4    0    0 -0.10412326410E-01  0.58188004738E-01 -0.48663445730E-01  0.76567960062E-01  0.51100000000E-03 0.  1.
</event>
<event>
 8    1  0.1233916E+005  0.1043930E+01  0.7957747E-01            NaN
         13   -1    0    0    0    0  0.00000000000E+00  0.00000000000E+00  0.74505805969E-08  0.10566000000E+00  0.10566000000E+00 0. -1.
     999900   -1    0    0    0    0 -0.00000000000E+00 -0.00000000000E+00 -0.74505805969E-08  0.93827000000E+00  0.93827000000E+00 0. -1.
     999902    2    1    2    0    0 -0.24036888333E-01 -0.65516934633E-02 -0.19652339291E-02  0.10189388249E+01  0.10186323037E+01 0.  0.
     999903    2    3    3    0    0  0.12298738860E+00 -0.21366669451E-01 -0.74033265261E-02  0.12660189618E+00  0.19768625543E-01 0.  0.
         14    1    1    2    0    0  0.24036888333E-01  0.65516934633E-02  0.19652339291E-02  0.24991175090E-01  0.00000000000E+00 0. -1.
     999901    1    3    3    0    0 -0.14702427693E+00  0.14814975988E-01  0.54380925969E-02  0.89233692873E+00  0.88000000000E+00 0.  1.
        -11    1    4    4    0    0  0.10840685977E+00 -0.24194017413E-01 -0.99676618270E-02  0.11152135727E+00  0.51100000000E-03 0. -1.
         11    1    4    4    0    0  0.14580528827E-01  0.28273479622E-02  0.25643353009E-02  0.15080538913E-01  0.51100000000E-03 0.  1.
</event>
<event>
 8    1  0.1233916E+005  0.1043930E+01  0.7957747E-01            NaN
         13   -1    0    0    0    0  0.00000000000E+00  0.00000000000E+00  0.74505805969E-08  0.10566000000E+00  0.10566000000E+00 0. -1.
     999900   -1    0    0    0    0 -0.00000000000E+00 -0.00000000000E+00 -0.74505805969E-08  0.93827000000E+00  0.93827000000E+00 0.  1.
     999902    2    1    2    0    0 -0.13512354459E-01 -0.15671249297E-01 -0.10335323289E-01  0.10208001343E+01  0.10205380559E+01 0.  0.
     999903    2    3    3    0    0 -0.29152512046E-02 -0.10763492963E+00 -0.76467358782E-01  0.13347659515E+00  0.19364083427E-01 0.  0.
         14    1    1    2    0    0  0.13512354459E-01  0.15671249297E-01  0.10335323289E-01  0.23129865651E-01  0.00000000000E+00 0. -1.
     999901    1    3    3    0    0 -0.10597103255E-01  0.91963680335E-01  0.66132035494E-01  0.88732353920E+00  0.88000000000E+00 0. -1.
        -11    1    4    4    0    0 -0.61006730887E-02 -0.10889598779E-01 -0.68918316962E-02  0.14267446823E-01  0.51100000000E-03 0. -1.
         11    1    4    4    0    0  0.31854218841E-02 -0.96745330853E-01 -0.69575527086E-01  0.11920914833E+00  0.51100000000E-03 0.  1.
</event>
<event>
 8    1  0.1233916E+005  0.1043930E+01  0.7957747E-01            NaN
         13   -1    0    0    0    0  0.00000000000E+00  0.00000000000E+00  0.74505805969E-08  0.10566000000E+00  0.10566000000E+00 0.  1.
     999900   -1    0    0    0    0 -0.00000000000E+00 -0.00000000000E+00 -0.74505805969E-08  0.93827000000E+00  0.93827000000E+00 0. -1.
     999902    2    1    2    0    0 -0.24769531857E-03 -0.13380779956E-01 -0.17742374432E-01  0.10217061732E+01  0.10214644419E+01 0.  0.
     999903    2    3    3    0    0 -0.83564739842E-01  0.96011542122E-01 -0.23588630419E-01  0.13100836324E+00  0.20136677681E-01 0.  0.
         14    1    1    2    0    0  0.24769531857E-03  0.13380779956E-01  0.17742374432E-01  0.22223826756E-01  0.00000000000E+00 0.  1.
     999901    1    3    3    0    0  0.83317044524E-01 -0.10939232208E+00  0.58462559872E-02  0.89069781000E+00  0.88000000000E+00 0.  1.
        -11    1    4    4    0    0 -0.50931985568E-01  0.69766007706E-01 -0.98934522058E-02  0.86945411050E-01  0.51100000000E-03 0.  1.
         11    1    4    4    0    0 -0.32632754275E-01  0.26245534416E-01 -0.13695178213E-01  0.44062952189E-01  0.51100000000E-03 0. -1.
</event>
<event>
 8    1  0.1233916E+005  0.1043930E+01  0.7957747E-01            NaN
         13   -1    0    0    0    0  0.00000000000E+00  0.00000000000E+00  0.74505805969E-08  0.10566000000E+00  0.10566000000E+00 0. -1.
     999900   -1    0    0    0    0 -0.00000000000E+00 -0.00000000000E+00 -0.74505805969E-08  0.93827000000E+00  0.93827000000E+00 0.  1.
     999902    2    1    2    0    0  0.23854030814E-01 -0.30556566621E-02  0.20780728791E-02  0.10197914373E+01  0.10195057162E+01 0.  0.
     999903    2    3    3    0    0 -0.25161237407E-01 -0.53721031780E-01 -0.11301389667E+00  0.12950180001E+00  0.21898361638E-01 0.  0.
         14    1    1    2    0    0 -0.23854030814E-01  0.30556566621E-02 -0.20780728791E-02  0.24138562729E-01  0.00000000000E+00 0.  1.
     999901    1    3    3    0    0  0.49015268221E-01  0.50665375118E-01  0.11509196955E+00  0.89028963726E+00  0.88000000000E+00 0. -1.
        -11    1    4    4    0    0 -0.13924165120E-01 -0.33351845076E-01 -0.45618189600E-01  0.58202304831E-01  0.51100000000E-03 0. -1.
         11    1    4    4    0    0 -0.11237072287E-01 -0.20369186704E-01 -0.67395707072E-01  0.71299495182E-01  0.51100000000E-03 0.  1.
</event>
<event>
 8    1  0.1233916E+005  0.1043930E+01  0.7957747E-01            NaN
         13   -1    0    0    0    0  0.00000000000E+00  0.00000000000E+00  0.74505805969E-08  0.10566000000E+00  0.10566000000E+00 0. -1.
     999900   -1    0    0    0    0 -0.00000000000E+00 -0.00000000000E+00 -0.74505805969E-08  0.93827000000E+00  0.93827000000E+00 0. -1.
     999902    2    1    2    0    0  0.70710334983E-02  0.24983003883E-01  0.40907198708E-03  0.10179623791E+01  0.10176311158E+01 0.  0.
     999903    2    3    3    0    0  0.84461388596E-01 -0.67874542649E-01  0.63533710702E-01  0.12745886361E+00  0.21646011478E-01 0.  0.
         14    1    1    2    0    0 -0.70710334983E-02 -0.24983003883E-01 -0.40907198708E-03  0.25967620947E-01  0.00000000000E+00 0. -1.
     999901    1    3    3    0    0 -0.77390355098E-01  0.92857546532E-01 -0.63124638715E-01  0.89050351545E+00  0.88000000000E+00 0. -1.
        -11    1    4    4    0    0  0.58382564827E-01 -0.50106223845E-01  0.33579553455E-01  0.83946441706E-01  0.51100000000E-03 0.  1.
         11    1    4    4    0    0  0.26078823769E-01 -0.17768318803E-01  0.29954157247E-01  0.43512421901E-01  0.51100000000E-03 0. -1.
</event>
<event>
 8    1  0.1233916E+005  0.1043930E+01  0.7957747E-01            NaN
         13   -1    0    0    0    0  0.00000000000E+00  0.00000000000E+00  0.74505805969E-08  0.10566000000E+00  0.10566000000E+00 0. -1.
     999900   -1    0    0    0    0 -0.00000000000E+00 -0.00000000000E+00 -0.74505805969E-08  0.93827000000E+00  0.93827000000E+00 0. -1.
     999902    2    1    2    0    0  0.16540377974E-01  0.13870427375E-01  0.15070492266E-01  0.10176033482E+01  0.10172627397E+01 0.  0.
     999903    2    3    3    0    0 -0.33993010933E-01 -0.77806001208E-01  0.93624953438E-01  0.12792419572E+00  0.19740043749E-01 0.  0.
         14    1    1    2    0    0 -0.16540377974E-01 -0.13870427375E-01 -0.15070492266E-01  0.26326651823E-01  0.00000000000E+00 0. -1.
     999901    1    3    3    0    0  0.50533388907E-01  0.91676428583E-01 -0.78554461172E-01  0.88967915246E+00  0.88000000000E+00 0. -1.
        -11    1    4    4    0    0 -0.16868060921E-01 -0.19881429373E-01  0.21147173723E-01  0.33574793977E-01  0.51100000000E-03 0.  1.
         11    1    4    4    0    0 -0.17124950013E-01 -0.57924571836E-01  0.72477779714E-01  0.94349401739E-01  0.51100000000E-03 0. -1.
</event>
<event>
 8    1  0.1233916E+005  0.1043930E+01  0.7957747E-01            NaN
         13   -1    0    0    0    0  0.00000000000E+00  0.00000000000E+00  0.74505805969E-08  0.10566000000E+00  0.10566000000E+00 0. -1.
     999900   -1    0    0    0    0 -0.00000000000E+00 -0.00000000000E+00 -0.74505805969E-08  0.93827000000E+00  0.93827000000E+00 0.  1.
     999902    2    1    2    0    0 -0.12130284197E-01  0.18291741016E-01 -0.87832092618E-02  0.10202894342E+01  0.10200155162E+01 0.  0.
     999903    2    3    3    0    0 -0.11627470290E+00  0.57470464390E-01  0.20186661505E-01  0.13280969604E+00  0.20205277718E-01 0.  0.
         14    1    1    2    0    0  0.12130284197E-01 -0.18291741016E-01  0.87832092618E-02  0.23640565751E-01  0.00000000000E+00 0. -1.
     999901    1    3    3    0    0  0.10414441871E+00 -0.39178723374E-01 -0.28969870767E-01  0.88747973821E+00  0.88000000000E+00 0. -1.
        -11    1    4    4    0    0 -0.50887346996E-01  0.35409618120E-01  0.53907722756E-02  0.62230898165E-01  0.51100000000E-03 0. -1.
         11    1    4    4    0    0 -0.65387355909E-01  0.22060846270E-01  0.14795889229E-01  0.70578797879E-01  0.51100000000E-03 0.  1.
</event>
<event>
 8    1  0.1233916E+005  0.1043930E+01  0.7957747E-01            NaN
         13   -1    0    0    0    0  0.00000000000E+00  0.00000000000E+00  0.74505805969E-08  0.10566000000E+00  0.10566000000E+00 0. -1.
     999900   -1    0    0    0    0 -0.00000000000E+00 -0.00000000000E+00 -0.74505805969E-08  0.93827000000E+00  0.93827000000E+00 0. -1.
     999902    2    1    2    0    0 -0.39124693126E-02 -0.18334462712E-01 -0.81034996017E-02  0.10235063215E+01  0.10233025278E+01 0.  0.
     999903    2    3    3    0    0 -0.54913596462E-01 -0.12071408402E+00  0.20309252904E-01  0.13564935870E+00  0.20022227788E-01 0.  0.
         14    1    1    2    0    0  0.39124693126E-02  0.18334462712E-01  0.81034996017E-02  0.20423678534E-01  0.00000000000E+00 0. -1.
     999901    1    3    3    0    0  0.51001127149E-01  0.10237962130E+00 -0.28412752506E-01  0.88785696277E+00  0.88000000000E+00 0. -1.
        -11    1    4    4    0    0 -0.35277399996E-01 -0.54143612020E-01  0.73346562021E-02  0.65039095747E-01  0.51100000000E-03 0.  1.
         11    1    4    4    0    0 -0.19636196466E-01 -0.66570471997E-01  0.12974596702E-01  0.70610262952E-01  0.51100000000E-03 0. -1.
</event>
<event>
 8    1  0.1233916E+005  0.1043930E+01  0.7957747E-01            NaN
         13   -1    0    0    0    0  0.00000000000E+00  0.00000000000E+00  0.74505805969E-08  0.10566000000E+00  0.10566000000E+00 0. -1.
     999900   -1    0    0    0    0 -0.00000000000E+00 -0.00000000000E+00 -0.74505805969E-08  0.93827000000E+00  0.93827000000E+00 0.  1.
     999902    2    1    2    0    0  0.15246983055E-01 -0.15104173324E-01 -0.11327180362E-01  0.10196624999E+01  0.10193736814E+01 0.  0.
     999903    2    3    3    0    0  0.80915490812E-01  0.76308522318E-01 -0.65283865582E-01  0.13085433295E+00  0.22148727151E-01 0.  0.
         14    1    1    2    0    0 -0.15246983055E-01  0.15104173324E-01  0.11327180362E-01  0.24267500057E-01  0.00000000000E+00 0. -1.
     999901    1    3    3    0    0 -0.65668507757E-01 -0.91412695641E-01  0.53956685221E-01  0.88880816699E+00  0.88000000000E+00 0. -1.
        -11    1    4    4    0    0  0.57482002216E-01  0.60075633215E-01 -0.38101494420E-01  0.91461725782E-01  0.51100000000E-03 0. -1.
         11    1    4    4    0    0  0.23433488596E-01  0.16232889103E-01 -0.27182371163E-01  0.39392607167E-01  0.51100000000E-03 0.  1.
</event>
<event>
 8    1  0.1233916E+005  0.1043930E+01  0.7957747E-01            NaN
         13   -1    0    0    0    0  0.00000000000E+00  0.00000000000E+00  0.74505805969E-08  0.10566000000E+00  0.10566000000E+00 0. -1.
     999900   -1    0    0    0    0 -0.00000000000E+00 -0.00000000000E+00 -0.74505805969E-08  0.93827000000E+00  0.93827000000E+00 0.  1.
     999902    2    1    2    0    0  0.21056813010E-01  0.11482946904E-01 -0.22884155302E-01  0.10107798566E+01  0.10102361043E+01 0.  0.
     999903    2    3    3    0    0  0.88381053940E-01  0.55127134957E-02  0.81549142479E-01  0.12203101087E+00  0.19992605336E-01 0.  0.
         14    1    1    2    0    0 -0.21056813010E-01 -0.11482946904E-01  0.22884155302E-01  0.33150143403E-01  0.00000000000E+00 0. -1.
     999901    1    3    3    0    0 -0.67324240930E-01  0.59702334086E-02 -0.10443329778E+00  0.88874884573E+00  0.88000000000E+00 0.  1.
        -11    1    4    4    0    0  0.70969910666E-01 -0.33140421223E-02  0.67238409497E-01  0.97821142540E-01  0.51100000000E-03 0. -1.
         11    1    4    4    0    0  0.17411143275E-01  0.88267556180E-02  0.14310732982E-01  0.24209868326E-01  0.51100000000E-03 0.  1.
</event>
<event>
 8    1  0.1233916E+005  0.1043930E+01  0.7957747E-01            NaN
         13   -1    0    0    0    0  0.00000000000E+00  0.00000000000E+00  0.74505805969E-08  0.10566000000E+00  0.10566000000E+00 0. -1.
     999900   -1    0    0    0    0 -0.00000000000E+00 -0.00000000000E+00 -0.74505805969E-08  0.93827000000E+00  0.93827000000E+00 0. -1.
     999902    2    1    2    0    0 -0.18972709722E-01  0.36832385937E-02 -0.14302241947E-01  0.10198866208E+01  0.10196031753E+01 0.  0.
     999903    2    3    3    0    0  0.61792666946E-01 -0.76948260928E-01  0.78637395982E-01  0.12766340817E+00  0.19358129824E-01 0.  0.
         14    1    1    2    0    0  0.18972709722E-01 -0.36832385937E-02  0.14302241947E-01  0.24043379243E-01  0.00000000000E+00 0. -1.
     999901    1    3    3    0    0 -0.80765376667E-01  0.80631499522E-01 -0.92939637929E-01  0.89222321259E+00  0.88000000000E+00 0.  1.
        -11    1    4    4    0    0  0.16898001010E-01 -0.90732072104E-02  0.14720251443E-01  0.24182895831E-01  0.51100000000E-03 0.  1.
         11    1    4    4    0    0  0.44894665935E-01 -0.67875053718E-01  0.63917144539E-01  0.10348051234E+00  0.51100000000E-03 0. -1.
</event>
<event>
 8    1  0.1233916E+005  0.1043930E+01  0.7957747E-01            NaN
         13   -1    0    0    0    0  0.00000000000E+00  0.00000000000E+00  0.74505805969E-08  0.10566000000E+00  0.10566000000E+00 0. -1.
     999900   -1    0    0    0    0 -0.00000000000E+00 -0.00000000000E+00 -0.74505805969E-08  0.93827000000E+00  0.93827000000E+00 0.  1.
     999902    2    1    2    0    0  0.14924080370E-01 -0.18094169500E-01 -0.47610718070E-02  0.10199968650E+01  0.10197160437E+01 0.  0.
     999903    2    3    3    0    0  0.12685339815E+00 -0.33545043933E-01  0.11310164699E-02  0.13275303248E+00  0.20125452479E-01 0.  0.
         14    1    1    2    0    0 -0.14924080370E-01  0.18094169500E-01  0.47610718070E-02  0.23933134970E-01  0.00000000000E+00 0. -1.
     999901    1    3    3    0    0 -0.11192931778E+00  0.15450874433E-01 -0.58920882769E-02  0.88724383255E+00  0.88000000000E+00 0.  1.
        -11    1    4    4    0    0  0.10436164431E+00 -0.21964543482E-01  0.66451843580E-02  0.10685604133E+00  0.51100000000E-03 0.  1.
         11    1    4    4    0    0  0.22491753844E-01 -0.11580500451E-01 -0.55141678881E-02  0.25896991141E-01  0.51100000000E-03 0. -1.
</event>
<event>
 8    1  0.1233916E+005  0.1043930E+01  0.7957747E-01            NaN
         13   -1    0    0    0    0  0.00000000000E+00  0.00000000000E+00  0.74505805969E-08  0.10566000000E+00  0.10566000000E+00 0.  1.
     999900   -1    0    0    0    0 -0.00000000000E+00 -0.00000000000E+00 -0.74505805969E-08  0.93827000000E+00  0.93827000000E+00 0. -1.
     999902    2    1    2    0    0 -0.11271676655E-01 -0.11074493867E-01  0.18100779427E-01  0.10199022385E+01  0.10196191655E+01 0.  0.
     999903    2    3    3    0    0  0.43323371249E-01 -0.89962496204E-01 -0.79898175320E-01  0.12928013492E+00  0.18959684768E-01 0.  0.
         14    1    1    2    0    0  0.11271676655E-01  0.11074493867E-01 -0.18100779427E-01  0.24027761545E-01  0.00000000000E+00 0. -1.
     999901    1    3    3    0    0 -0.54595047904E-01  0.78888002337E-01  0.97998954747E-01  0.89062210353E+00  0.88000000000E+00 0.  1.
        -11    1    4    4    0    0  0.28127941489E-01 -0.48738648419E-01 -0.55423617146E-01  0.78985285975E-01  0.51100000000E-03 0. -1.
         11    1    4    4    0    0  0.15195429760E-01 -0.41223847785E-01 -0.24474558175E-01  0.50294848948E-01  0.51100000000E-03 0.  1.
</event>
<event>
 8    1  0.1233916E+005  0.1043930E+01  0.7957747E-01            NaN
         13   -1    0    0    0    0  0.00000000000E+00  0.00000000000E+00  0.74505805969E-08  0.10566000000E+00  0.10566000000E+00 0.  1.
     999900   -1    0    0    0    0 -0.00000000000E+00 -0.00000000000E+00 -0.74505805969E-08  0.93827000000E+00  0.93827000000E+00 0.  1.
     999902    2    1    2    0    0  0.28969472285E-02 -0.19044941461E-01 -0.12766096052E-01  0.10208199306E+01  0.10205583058E+01 0.  0.
     999903    2    3    3    0    0  0.57531449103E-01 -0.83956480484E-01 -0.84498554530E-01  0.13383403316E+00  0.20322019146E-01 0.  0.
         14    1    1    2    0    0 -0.28969472285E-02  0.19044941461E-01  0.12766096052E-01  0.23110069383E-01  0.00000000000E+00 0. -1.
     999901    1    3    3    0    0 -0.54634501874E-01  0.64911539024E-01  0.71732458477E-01  0.88698589746E+00  0.88000000000E+00 0. -1.
        -11    1    4    4    0    0  0.34477558571E-01 -0.39450532091E-01 -0.32747656749E-01  0.61787674101E-01  0.51100000000E-03 0. -1.
         11    1    4    4    0    0  0.23053890532E-01 -0.44505948393E-01 -0.51750897781E-01  0.72046359055E-01  0.51100000000E-03 0.  1.
</event>
<event>
 8    1  0.1233916E+005  0.1043930E+01  0.7957747E-01            NaN
         13   -1    0    0    0    0  0.00000000000E+00  0.00000000000E+00  0.74505805969E-08  0.10566000000E+00  0.10566000000E+00 0. -1.
     999900   -1    0    0    0    0 -0.00000000000E+00 -0.00000000000E+00 -0.74505805969E-08  0.93827000000E+00  0.93827000000E+00 0.  1.
     999902    2    1    2    0    0 -0.71165319212E-02  0.11735876379E-01  0.91889495340E-02  0.10274129599E+01  0.10272801845E+01 0.  0.
     999903    2    3    3    0    0 -0.13554424852E+00  0.14438378752E-01  0.92349161373E-02  0.13808681946E+00  0.20049337764E-01 0.  0.
         14    1    1    2    0    0  0.71165319212E-02 -0.11735876379E-01 -0.91889495340E-02  0.16517040125E-01  0.00000000000E+00 0. -1.
     999901    1    3    3    0    0  0.12842771660E+00 -0.27025023730E-02 -0.45966603331E-04  0.88932614041E+00  0.88000000000E+00 0.  1.
        -11    1    4    4    0    0 -0.30538285685E-01  0.32501029312E-02 -0.62834269532E-02  0.31351118591E-01  0.51100000000E-03 0. -1.
         11    1    4    4    0    0 -0.10500596284E+00  0.11188275820E-01  0.15518343091E-01  0.10673570087E+00  0.51100000000E-03 0.  1.
</event>
<event>
 8    1  0.1233916E+005  0.1043930E+01  0.7957747E-01            NaN
         13   -1    0    0    0    0  0.00000000000E+00  0.00000000000E+00  0.74505805969E-08  0.10566000000E+00  0.10566000000E+00 0.  1.
     999900   -1    0    0    0    0 -0.00000000000E+00 -0.00000000000E+00 -0.74505805969E-08  0.93827000000E+00  0.93827000000E+00 0.  1.
     999902    2    1    2    0    0  0.65025237020E-02 -0.16246065020E-01 -0.90247511508E-02  0.10242408259E+01  0.10240515641E+01 0.  0.
     999903    2    3    3    0    0 -0.41756282930E-01  0.12227479547E+00  0.15782007437E-01  0.13175423414E+00  0.20381209128E-01 0.  0.
         14    1    1    2    0    0 -0.65025237020E-02  0.16246065020E-01  0.90247511508E-02  0.19689174093E-01  0.00000000000E+00 0.  1.
     999901    1    3    3    0    0  0.48258806632E-01 -0.13852086049E+00 -0.24806758588E-01  0.89248659176E+00  0.88000000000E+00 0.  1.
        -11    1    4    4    0    0 -0.76030977961E-02  0.40112971968E-01  0.12553677643E-01  0.42716666063E-01  0.51100000000E-03 0.  1.
         11    1    4    4    0    0 -0.34153185134E-01  0.82161823498E-01  0.32283297944E-02  0.89037568080E-01  0.51100000000E-03 0. -1.
</event>
<event>
 8    1  0.1233916E+005  0.1043930E+01  0.7957747E-01            NaN
         13   -1    0    0    0    0  0.00000000000E+00  0.00000000000E+00  0.74505805969E-08  0.10566000000E+00  0.10566000000E+00 0.  1.
     999900   -1    0    0    0    0 -0.00000000000E+00 -0.00000000000E+00 -0.74505805969E-08  0.93827000000E+00  0.93827000000E+00 0.  1.
     999902    2    1    2    0    0 -0.81136707302E-02 -0.98682733779E-02  0.20163833073E-01  0.10200596285E+01  0.10197802955E+01 0.  0.
     999903    2    3    3    0    0 -0.15756683949E-01  0.24933318484E-01 -0.12283309132E+00  0.12780535596E+00  0.19398382105E-01 0.  0.
         14    1    1    2    0    0  0.81136707302E-02  0.98682733779E-02 -0.20163833073E-01  0.23870371517E-01  0.00000000000E+00 0. -1.
     999901    1    3    3    0    0  0.76430132190E-02 -0.34801591862E-01  0.14299692440E+00  0.89225427252E+00  0.88000000000E+00 0. -1.
        -11    1    4    4    0    0 -0.16311240236E-03 -0.23189933572E-03 -0.37075284834E-01  0.37079890095E-01  0.51100000000E-03 0.  1.
         11    1    4    4    0    0 -0.15593571547E-01  0.25165217820E-01 -0.85757806490E-01  0.90725465866E-01  0.51100000000E-03 0. -1.
</event>
<event>
 8    1  0.1233916E+005  0.1043930E+01  0.7957747E-01            NaN
         13   -1    0    0    0    0  0.00000000000E+00  0.00000000000E+00  0.74505805969E-08  0.10566000000E+00  0.10566000000E+00 0. -1.
     999900   -1    0    0    0    0 -0.00000000000E+00 -0.00000000000E+00 -0.74505805969E-08  0.93827000000E+00  0.93827000000E+00 0.  1.
     999902    2    1    2    0    0 -0.69580852708E-02  0.21922781141E-01 -0.69035484319E-02  0.10199157904E+01  0.10196330404E+01 0.  0.
     999903    2    3    3    0    0 -0.22525811908E-01 -0.70886863510E-01  0.10239300792E+00  0.12817495274E+00  0.20301005331E-01 0.  0.
         14    1    1    2    0    0  0.69580852708E-02 -0.21922781141E-01  0.69035484319E-02  0.24014209638E-01  0.00000000000E+00 0. -1.
     999901    1    3    3    0    0  0.15567726637E-01  0.92809644651E-01 -0.10929655636E+00  0.89174083762E+00  0.88000000000E+00 0.  1.
        -11    1    4    4    0    0  0.31361670180E-03 -0.21367370092E-02  0.12631692365E-01  0.12825161733E-01  0.51100000000E-03 0.  1.
         11    1    4    4    0    0 -0.22839428610E-01 -0.68750126501E-01  0.89761315560E-01  0.11534979101E+00  0.51100000000E-03 0. -1.
</event>
<event>
 8    1  0.1233916E+005  0.1043930E+01  0.7957747E-01            NaN
         13   -1    0    0    0    0  0.00000000000E+00  0.00000000000E+00  0.74505805969E-08  0.10566000000E+00  0.10566000000E+00 0.  1.
     999900   -1    0    0    0    0 -0.00000000000E+00 -0.00000000000E+00 -0.74505805969E-08  0.93827000000E+00  0.93827000000E+00 0.  1.
     999902    2    1    2    0    0 -0.18628720707E-01  0.40533649484E-02  0.14984663381E-01  0.10196813064E+01  0.10193929407E+01 0.  0.
     999903    2    3    3    0    0 -0.10134723587E+00 -0.79345071580E-01 -0.16053822012E-01  0.13133394221E+00  0.20590691388E-01 0.  0.
         14    1    1    2    0    0  0.18628720707E-01 -0.40533649484E-02 -0.14984663381E-01  0.24248693557E-01  0.00000000000E+00 0. -1.
     999901    1    3    3    0    0  0.82718515167E-01  0.83398436528E-01  0.31038485393E-01  0.88834736423E+00  0.88000000000E+00 0. -1.
        -11    1    4    4    0    0 -0.11359316824E-01 -0.18372000963E-01 -0.14192657462E-02  0.21652711939E-01  0.51100000000E-03 0. -1.
         11    1    4    4    0    0 -0.89987919050E-01 -0.60973070617E-01 -0.14634556266E-01  0.10968123027E+00  0.51100000000E-03 0.  1.
</event>
<event>
 8    1  0.1233916E+005  0.1043930E+01  0.7957747E-01            NaN
         13   -1    0    0    0    0  0.00000000000E+00  0.00000000000E+00  0.74505805969E-08  0.10566000000E+00  0.10566000000E+00 0. -1.
     999900   -1    0    0    0    0 -0.00000000000E+00 -0.00000000000E+00 -0.74505805969E-08  0.93827000000E+00  0.93827000000E+00 0.  1.
     999902    2    1    2    0    0 -0.14071471858E-01  0.18201339900E-01 -0.55697023394E-02  0.10202589908E+01  0.10199843585E+01 0.  0.
     999903    2    3    3    0    0  0.24221646644E-01  0.90997692043E-01 -0.90781827082E-01  0.13232499658E+00  0.20032385495E-01 0.  0.
         14    1    1    2    0    0  0.14071471858E-01 -0.18201339900E-01  0.55697023394E-02  0.23671009242E-01  0.00000000000E+00 0.  1.
     999901    1    3    3    0    0 -0.38293118502E-01 -0.72796352143E-01  0.85212124743E-01  0.88793399418E+00  0.88000000000E+00 0. -1.
        -11    1    4    4    0    0  0.79776792030E-02  0.53751712715E-01 -0.41068250957E-01  0.68115727574E-01  0.51100000000E-03 0.  1.
         11    1    4    4    0    0  0.16243967441E-01  0.37245979328E-01 -0.49713576126E-01  0.64209269008E-01  0.51100000000E-03 0. -1.
</event>
<event>
 8    1  0.1233916E+005  0.1043930E+01  0.7957747E-01            NaN
         13   -1    0    0    0    0  0.00000000000E+00  0.00000000000E+00  0.74505805969E-08  0.10566000000E+00  0.10566000000E+00 0.  1.
     999900   -1    0    0    0    0 -0.00000000000E+00 -0.00000000000E+00 -0.74505805969E-08  0.93827000000E+00  0.93827000000E+00 0.  1.
     999902    2    1    2    0    0  0.15658248064E-01  0.12525434109E-01 -0.14727104036E-01  0.10190511973E+01  0.10187474603E+01 0.  0.
     999903    2    3    3    0    0 -0.91221716228E-01 -0.76695456362E-01 -0.41144403917E-01  0.12771424202E+00  0.20358563359E-01 0.  0.
         14    1    1    2    0    0 -0.15658248064E-01 -0.12525434109E-01  0.14727104036E-01  0.24878802732E-01  0.00000000000E+00 0.  1.
     999901    1    3    3    0    0  0.10687996429E+00  0.89220890471E-01  0.26417299881E-01  0.89133695525E+00  0.88000000000E+00 0.  1.
        -11    1    4    4    0    0 -0.73253960982E-01 -0.70730833374E-01 -0.32448962643E-01  0.10687464567E+00  0.51100000000E-03 0.  1.
         11    1    4    4    0    0 -0.17967755246E-01 -0.59646229881E-02 -0.86954412741E-02  0.20839596347E-01  0.51100000000E-03 0. -1.
</event>
<event>
 8    1  0.1233916E+005  0.1043930E+01  0.7957747E-01            NaN
         13   -1    0    0    0    0  0.00000000000E+00  0.00000000000E+00  0.74505805969E-08  0.10566000000E+00  0.10566000000E+00 0. -1.
     999900   -1    0    0    0    0 -0.00000000000E+00 -0.00000000000E+00 -0.74505805969E-08  0.93827000000E+00  0.93827000000E+00 0.  1.
     999902    2    1    2    0    0  0.15592660678E-01 -0.98377686867E-02  0.15147601060E-01  0.10200686803E+01  0.10197895616E+01 0.  0.
     999903    2    3    3    0    0 -0.12523190469E+00 -0.21975145768E-01  0.16507451522E-02  0.12868714625E+00  0.19791909155E-01 0.  0.
         14    1    1    2    0    0 -0.15592660678E-01  0.98377686867E-02 -0.15147601060E-01  0.23861319696E-01  0.00000000000E+00 0.  1.
     999901    1    3    3    0    0  0.14082456536E+00  0.12137377081E-01  0.13496855908E-01  0.89138153405E+00  0.88000000000E+00 0.  1.
        -11    1    4    4    0    0 -0.91589929602E-01 -0.14636866087E-01 -0.74971400543E-02  0.93056011538E-01  0.51100000000E-03 0. -1.
         11    1    4    4    0    0 -0.33641975083E-01 -0.73382796806E-02  0.91478852065E-02  0.35631134713E-01  0.51100000000E-03 0.  1.
</event>
<event>
 8    1  0.1233916E+005  0.1043930E+01  0.7957747E-01            NaN
         13   -1    0    0    0    0  0.00000000000E+00  0.00000000000E+00  0.74505805969E-08  0.10566000000E+00  0.10566000000E+00 0. -1.
     999900   -1    0    0    0    0 -0.00000000000E+00 -0.00000000000E+00 -0.74505805969E-08  0.93827000000E+00  0.93827000000E+00 0.  1.
     999902    2    1    2    0    0  0.19662752659E-01 -0.14507105390E-01 -0.22520996501E-02  0.10193912164E+01  0.10190958248E+01 0.  0.
     999903    2    3    3    0    0 -0.86425948119E-01 -0.86247062985E-01  0.37486600082E-01  0.12923359089E+00  0.19699630652E-01 0.  0.
         14    1    1    2    0    0 -0.19662752659E-01  0.14507105390E-01  0.22520996501E-02  0.24538783624E-01  0.00000000000E+00 0.  1.
     999901    1    3    3    0    0  0.10608870078E+00  0.71739957595E-01 -0.39738699732E-01  0.89015762548E+00  0.88000000000E+00 0.  1.
        -11    1    4    4    0    0 -0.53858703458E-01 -0.58387959845E-01  0.15028371992E-01  0.80845697961E-01  0.51100000000E-03 0. -1.
         11    1    4    4    0    0 -0.32567244661E-01 -0.27859103140E-01  0.22458228089E-01  0.48387892932E-01  0.51100000000E-03 0.  1.
</event>
<event>
 8    1  0.1233916E+005  0.1043930E+01  0.7957747E-01            NaN
         13   -1    0    0    0    0  0.00000000000E+00  0.00000000000E+00  0.74505805969E-08  0.10566000000E+00  0.10566000000E+00 0.  1.
     999900   -1    0    0    0    0 -0.00000000000E+00 -0.00000000000E+00 -0.74505805969E-08  0.93827000000E+00  0.93827000000E+00 0.  1.
     999902    2    1    2    0    0 -0.11198193856E-01 -0.78862931154E-02  0.19267389615E-01  0.10202905104E+01  0.10200166176E+01 0.  0.
     999903    2    3    3    0    0 -0.81240730528E-01  0.92123601346E-01 -0.37890586322E-01  0.13002371325E+00  0.19587119614E-01 0.  0.
         14    1    1    2    0    0  0.11198193856E-01  0.78862931154E-02 -0.19267389615E-01  0.23639489574E-01  0.00000000000E+00 0. -1.
     999901    1    3    3    0    0  0.70042536673E-01 -0.10000989446E+00  0.57157975938E-01  0.89026679717E+00  0.88000000000E+00 0. -1.
        -11    1    4    4    0    0 -0.50418101000E-01  0.46243663652E-01 -0.27736396209E-01  0.73824319381E-01  0.51100000000E-03 0.  1.
         11    1    4    4    0    0 -0.30822629528E-01  0.45879937694E-01 -0.10154190114E-01  0.56199393873E-01  0.51100000000E-03 0. -1.
</event>
<event>
 8    1  0.1233916E+005  0.1043930E+01  0.7957747E-01            NaN
         13   -1    0    0    0    0  0.00000000000E+00  0.00000000000E+00  0.74505805969E-08  0.10566000000E+00  0.10566000000E+00 0. -1.
     999900   -1    0    0    0    0 -0.00000000000E+00 -0.00000000000E+00 -0.74505805969E-08  0.93827000000E+00  0.93827000000E+00 0. -1.
     999902    2    1    2    0    0  0.22698977731E-01 -0.72091308030E-02 -0.11718188550E-01  0.10173869953E+01  0.10170406910E+01 0.  0.
     999903    2    3    3    0    0 -0.58038507003E-01 -0.10644103239E+00 -0.35350683325E-01  0.12782305348E+00  0.19771204271E-01 0.  0.
         14    1    1    2    0    0 -0.22698977731E-01  0.72091308030E-02  0.11718188550E-01  0.26543004726E-01  0.00000000000E+00 0. -1.
     999901    1    3    3    0    0  0.80737484734E-01  0.99231901584E-01  0.23632494774E-01  0.88956394180E+00  0.88000000000E+00 0. -1.
        -11    1    4    4    0    0 -0.60962493767E-02 -0.24326033084E-01 -0.22930830103E-02  0.25188082356E-01  0.51100000000E-03 0. -1.
         11    1    4    4    0    0 -0.51942257626E-01 -0.82114999303E-01 -0.33057600314E-01  0.10263497112E+00  0.51100000000E-03 0.  1.
</event>
<event>
 8    1  0.1233916E+005  0.1043930E+01  0.7957747E-01            NaN
         13   -1    0    0    0    0  0.00000000000E+00  0.00000000000E+00  0.74505805969E-08  0.10566000000E+00  0.10566000000E+00 0. -1.
     999900   -1    0    0    0    0 -0.00000000000E+00 -0.00000000000E+00 -0.74505805969E-08  0.93827000000E+00  0.93827000000E+00 0. -1.
     999902    2    1    2    0    0 -0.22638791329E-01 -0.32777059995E-02  0.14218451293E-02  0.10210110150E+01  0.10207537474E+01 0.  0.
     999903    2    3    3    0    0  0.97917677537E-01 -0.78765858688E-01 -0.22624495961E-01  0.12926522730E+00  0.20141973624E-01 0.  0.
         14    1    1    2    0    0  0.22638791329E-01  0.32777059995E-02 -0.14218451293E-02  0.22918984991E-01  0.00000000000E+00 0. -1.
     999901    1    3    3    0    0 -0.12055646887E+00  0.75488152689E-01  0.24046341091E-01  0.89174578771E+00  0.88000000000E+00 0. -1.
        -11    1    4    4    0    0  0.91998962353E-01 -0.67651450774E-01 -0.23655564306E-01  0.11662064444E+00  0.51100000000E-03 0.  1.
         11    1    4    4    0    0  0.59187151847E-02 -0.11114407914E-01  0.10310683446E-02  0.12644582858E-01  0.51100000000E-03 0. -1.
</event>
<event>
 8    1  0.1233916E+005  0.1043930E+01  0.7957747E-01            NaN
         13   -1    0    0    0    0  0.00000000000E+00  0.00000000000E+00  0.74505805969E-08  0.10566000000E+00  0.10566000000E+00 0. -1.
     999900   -1    0    0    0    0 -0.00000000000E+00 -0.00000000000E+00 -0.74505805969E-08  0.93827000000E+00  0.93827000000E+00 0.  1.
     999902    2    1    2    0    0  0.14333825162E-01  0.19556194650E-01  0.49145671634E-02  0.10191902291E+01  0.10188899189E+01 0.  0.
     999903    2    3    3    0    0 -0.56040514386E-01 -0.13542697601E-01  0.11375222382E+00  0.12908140440E+00  0.19962380262E-01 0.  0.
         14    1    1    2    0    0 -0.14333825162E-01 -0.19556194650E-01 -0.49145671634E-02  0.24739770884E-01  0.00000000000E+00 0.  1.
     999901    1    3    3    0    0  0.70374339548E-01  0.33098892251E-01 -0.10883765666E+00  0.89010882472E+00  0.88000000000E+00 0.  1.
        -11    1    4    4    0    0 -0.27466199176E-01 -0.13432371261E-01  0.42904429577E-01  0.52686543758E-01  0.51100000000E-03 0.  1.
         11    1    4    4    0    0 -0.28574315209E-01 -0.11032633998E-03  0.70847794246E-01  0.76394860639E-01  0.51100000000E-03 0. -1.
</event>
<event>
 8    1  0.1233916E+005  0.1043930E+01  0.7957747E-01            NaN
         13   -1    0    0    0    0  0.00000000000E+00  0.00000000000E+00  0.74505805969E-08  0.10566000000E+00  0.10566000000E+00 0. -1.
     999900   -1    0    0    0    0 -0.00000000000E+00 -0.00000000000E+00 -0.74505805969E-08  0.93827000000E+00  0.93827000000E+00 0.  1.
     999902    2    1    2    0    0  0.10914261680E-01 -0.14433893610E-02 -0.19234397805E-01  0.10217677226E+01  0.10215273430E+01 0.  0.
     999903    2    3    3    0    0 -0.98619567467E-01  0.17109814038E-03 -0.86137225149E-01  0.13245548575E+00  0.19974628568E-01 0.  0.
         14    1    1    2    0    0 -0.10914261680E-01  0.14433893610E-02  0.19234397805E-01  0.22162277405E-01  0.00000000000E+00 0. -1.
     999901    1    3    3    0    0  0.10953382915E+00 -0.16144875014E-02  0.66902827344E-01  0.88931223685E+00  0.88000000000E+00 0. -1.
        -11    1    4    4    0    0 -0.20874944427E-01  0.72199451591E-02 -0.13949005492E-01  0.26129041088E-01  0.51100000000E-03 0.  1.
         11    1    4    4    0    0 -0.77744623040E-01 -0.70488470187E-02 -0.72188219657E-01  0.10632644466E+00  0.51100000000E-03 0. -1.
</event>
<event>
 8    1  0.1233916E+005  0.1043930E+01  0.7957747E-01            NaN
         13   -1    0    0    0    0  0.00000000000E+00  0.00000000000E+00  0.74505805969E-08  0.10566000000E+00  0.10566000000E+00 0. -1.
     999900   -1    0    0    0    0 -0.00000000000E+00 -0.00000000000E+00 -0.74505805969E-08  0.93827000000E+00  0.93827000000E+00 0. -1.
     999902    2    1    2    0    0 -0.42291518698E-02  0.13519434650E-01  0.17916359611E-01  0.10210901931E+01  0.10208347200E+01 0.  0.
     999903    2    3    3    0    0 -0.16526751690E-01 -0.10557747067E+00  0.73517055622E-01  0.13124372249E+00  0.20010531990E-01 0.  0.
         14    1    1    2    0    0  0.42291518698E-02 -0.13519434650E-01 -0.17916359611E-01  0.22839806928E-01  0.00000000000E+00 0.  1.
     999901    1    3    3    0    0  0.12297599821E-01  0.11909690532E+00 -0.55600696010E-01  0.88984647059E+00  0.88000000000E+00 0.  1.
        -11    1    4    4    0    0 -0.59627055605E-02 -0.82140366875E-01  0.61909010186E-01  0.10303193869E+00  0.51100000000E-03 0.  1.
         11    1    4    4    0    0 -0.10564046130E-01 -0.23437103793E-01  0.11608045436E-01  0.28211783791E-01  0.51100000000E-03 0. -1.
</event>
<event>
 8    1  0.1233916E+005  0.1043930E+01  0.7957747E-01            NaN
         13   -1    0    0    0    0  0.00000000000E+00  0.00000000000E+00  0.74505805969E-08  0.10566000000E+00  0.10566000000E+00 0.  1.
     999900   -1    0    0    0    0 -0.00000000000E+00 -0.00000000000E+00 -0.74505805969E-08  0.93827000000E+00  0.93827000000E+00 0.  1.
     999902    2    1    2    0    0 -0.16003772218E-01 -0.12381790221E-01  0.12848408895E-01  0.10199610395E+01  0.10196793668E+01 0.  0.
     999903    2    3    3    0    0 -0.84836649590E-01 -0.88330458095E-01 -0.45314645792E-01  0.13210457249E+00  0.19966822688E-01 0.  0.
         14    1    1    2    0    0  0.16003772218E-01  0.12381790221E-01 -0.12848408895E-01  0.23968960457E-01  0.00000000000E+00 0. -1.
     999901    1    3    3    0    0  0.68832877372E-01  0.75948667873E-01  0.58163054687E-01  0.88785646705E+00  0.88000000000E+00 0.  1.
        -11    1    4    4    0    0 -0.53156029807E-01 -0.44757023342E-01 -0.32554670630E-01  0.76738662642E-01  0.51100000000E-03 0.  1.
         11    1    4    4    0    0 -0.31680619782E-01 -0.43573434753E-01 -0.12759975162E-01  0.55365909847E-01  0.51100000000E-03 0. -1.
</event>
<event>
 8    1  0.1233916E+005  0.1043930E+01  0.7957747E-01            NaN
         13   -1    0    0    0    0  0.00000000000E+00  0.00000000000E+00  0.74505805969E-08  0.10566000000E+00  0.10566000000E+00 0.  1.
     999900   -1    0    0    0    0 -0.00000000000E+00 -0.00000000000E+00 -0.74505805969E-08  0.93827000000E+00  0.93827000000E+00 0.  1.
     999902    2    1    2    0    0  0.79681779944E-02 -0.19703636417E-01 -0.69511044740E-02  0.10215683587E+01  0.10213235866E+01 0.  0.
     999903    2    3    3    0    0  0.29770889489E-01  0.72557289689E-01  0.10142620648E+00  0.12986601023E+00  0.20664924516E-01 0.  0.
         14    1    1    2    0    0 -0.79681779944E-02  0.19703636417E-01  0.69511044740E-02  0.22361641309E-01  0.00000000000E+00 0.  1.
     999901    1    3    3    0    0 -0.21802711494E-01 -0.92260926106E-01 -0.10837731095E+00  0.89170234846E+00  0.88000000000E+00 0.  1.
        -11    1    4    4    0    0  0.22251870728E-01  0.27765649773E-01  0.47728551106E-01  0.59534467075E-01  0.51100000000E-03 0. -1.
         11    1    4    4    0    0  0.75190187608E-02  0.44791639916E-01  0.53697655374E-01  0.70331543159E-01  0.51100000000E-03 0.  1.
</event>
<event>
 8    1  0.1233916E+005  0.1043930E+01  0.7957747E-01            NaN
         13   -1    0    0    0    0  0.00000000000E+00  0.00000000000E+00  0.74505805969E-08  0.10566000000E+00  0.10566000000E+00 0.  1.
     999900   -1    0    0    0    0 -0.00000000000E+00 -0.00000000000E+00 -0.74505805969E-08  0.93827000000E+00  0.93827000000E+00 0. -1.
     999902    2    1    2    0    0 -0.37197962202E-02  0.11474079901E-01 -0.17615805490E-01  0.10225803397E+01  0.10223574439E+01 0.  0.
     999903    2    3    3    0    0 -0.89589391233E-01 -0.92042224285E-01 -0.24880466813E-01  0.13233206649E+00  0.19867262519E-01 0.  0.
         14    1    1    2    0    0  0.37197962202E-02 -0.11474079901E-01  0.17615805490E-01  0.21349660338E-01  0.00000000000E+00 0.  1.
     999901    1    3    3    0    0  0.85869595013E-01  0.10351630419E+00  0.72646613227E-02  0.89024827317E+00  0.88000000000E+00 0.  1.
        -11    1    4    4    0    0 -0.43079640622E-01 -0.48664685554E-01 -0.29690733101E-02  0.65062920112E-01  0.51100000000E-03 0.  1.
         11    1    4    4    0    0 -0.46509750611E-01 -0.43377538731E-01 -0.21911393503E-01  0.67269146378E-01  0.51100000000E-03 0. -1.
</event>
<event>
 8    1  0.1233916E+005  0.1043930E+01  0.7957747E-01            NaN
         13   -1    0    0    0    0  0.00000000000E+00  0.00000000000E+00  0.74505805969E-08  0.10566000000E+00  0.10566000000E+00 0.  1.
     999900   -1    0    0    0    0 -0.00000000000E+00 -0.00000000000E+00 -0.74505805969E-08  0.93827000000E+00  0.93827000000E+00 0. -1.
     999902    2    1    2    0    0 -0.38468894764E-02  0.20665159700E-01  0.88655689289E-02  0.10211167210E+01  0.10208618478E+01 0.  0.
     999903    2    3    3    0    0 -0.30130130158E-01 -0.12249771224E-01  0.12670496006E+00  0.13226334533E+00  0.19533662646E-01 0.  0.
         14    1    1    2    0    0  0.38468894764E-02 -0.20665159700E-01 -0.88655689289E-02  0.22813278951E-01  0.00000000000E+00 0.  1.
     999901    1    3    3    0    0  0.26283240682E-01  0.32914930923E-01 -0.11783939113E+00  0.88885337572E+00  0.88000000000E+00 0. -1.
        -11    1    4    4    0    0 -0.27419958010E-01 -0.32426671750E-02  0.10560663083E+00  0.10915764098E+00  0.51100000000E-03 0. -1.
         11    1    4    4    0    0 -0.27101721483E-02 -0.90071040485E-02  0.21098329233E-01  0.23105704357E-01  0.51100000000E-03 0.  1.
</event>
<event>
 8    1  0.1233916E+005  0.1043930E+01  0.7957747E-01            NaN
         13   -1    0    0    0    0  0.00000000000E+00  0.00000000000E+00  0.74505805969E-08  0.10566000000E+00  0.10566000000E+00 0.  1.
     999900   -1    0    0    0    0 -0.00000000000E+00 -0.00000000000E+00 -0.74505805969E-08  0.93827000000E+00  0.93827000000E+00 0. -1.
     999902    2    1    2    0    0 -0.55578475355E-02 -0.23839470624E-01  0.22401582296E-02  0.10193489435E+01  0.10190525209E+01 0.  0.
     999903    2    3    3    0    0  0.24527961473E-01 -0.23249339582E-02 -0.12550654795E+00  0.12935610527E+00  0.19341204257E-01 0.  0.
         14    1    1    2    0    0  0.55578475355E-02  0.23839470624E-01 -0.22401582296E-02  0.24581056481E-01  0.00000000000E+00 0.  1.
     999901    1    3    3    0    0 -0.30085809009E-01 -0.21514536666E-01  0.12774670617E+00  0.88999283825E+00  0.88000000000E+00 0.  1.
        -11    1    4    4    0    0  0.24517010415E-01 -0.77788002000E-02 -0.10745294210E+00  0.11048977066E+00  0.51100000000E-03 0. -1.
         11    1    4    4    0    0  0.10951058441E-04  0.54538662417E-02 -0.18053605843E-01  0.18866334616E-01  0.51100000000E-03 0.  1.
</event>
<event>
 8    1  0.1233916E+005  0.1043930E+01  0.7957747E-01            NaN
         13   -1    0    0    0    0  0.00000000000E+00  0.00000000000E+00  0.74505805969E-08  0.10566000000E+00  0.10566000000E+00 0. -1.
     999900   -1    0    0    0    0 -0.00000000000E+00 -0.00000000000E+00 -0.74505805969E-08  0.93827000000E+00  0.93827000000E+00 0.  1.
     999902    2    1    2    0    0  0.19354009118E-01  0.19871233284E-02 -0.14164316847E-01  0.10198643772E+01  0.10195804008E+01 0.  0.
     999903    2    3    3    0    0 -0.11642634913E+00  0.18771650442E-01 -0.47539217973E-01  0.12866747975E+00  0.19694503465E-01 0.  0.
         14    1    1    2    0    0 -0.19354009118E-01 -0.19871233284E-02  0.14164316847E-01  0.24065622780E-01  0.00000000000E+00 0. -1.
     999901    1    3    3    0    0  0.13578035825E+00 -0.16784527114E-01  0.33374901127E-01  0.89119689747E+00  0.88000000000E+00 0.  1.
        -11    1    4    4    0    0 -0.29951404115E-01  0.18555616176E-02 -0.36735524875E-02  0.30237159692E-01  0.51100000000E-03 0. -1.
         11    1    4    4    0    0 -0.86474945018E-01  0.16916088824E-01 -0.43865665486E-01  0.98430320056E-01  0.51100000000E-03 0.  1.
</event>
<event>
 8    1  0.1233916E+005  0.1043930E+01  0.7957747E-01            NaN
         13   -1    0    0    0    0  0.00000000000E+00  0.00000000000E+00  0.74505805969E-08  0.10566000000E+00  0.10566000000E+00 0. -1.
     999900   -1    0    0    0    0 -0.00000000000E+00 -0.00000000000E+00 -0.74505805969E-08  0.93827000000E+00  0.93827000000E+00 0. -1.
     999902    2    1    2    0    0  0.39172655124E-02 -0.12436203110E-01 -0.19425421049E-01  0.10205344641E+01  0.10202662600E+01 0.  0.
     999903    2    3    3    0    0 -0.61279326384E-01  0.34601140766E-01 -0.11018756740E+00  0.13222096397E+00  0.19715184957E-01 0.  0.
         14    1    1    2    0    0 -0.39172655124E-02  0.12436203110E-01  0.19425421049E-01  0.23395535895E-01  0.00000000000E+00 0. -1.
     999901    1    3    3    0    0  0.65196591896E-01 -0.47037343876E-01  0.90762146355E-01  0.88831350014E+00  0.88000000000E+00 0.  1.
        -11    1    4    4    0    0 -0.59730491993E-02  0.11843756509E-01 -0.20227109471E-01  0.24193986103E-01  0.51100000000E-03 0.  1.
         11    1    4    4    0    0 -0.55306277184E-01  0.22757384257E-01 -0.89960457933E-01  0.10802697787E+00  0.51100000000E-03 0. -1.
</event>
<event>
 8    1  0.1233916E+005  0.1043930E+01  0.7957747E-01            NaN
         13   -1    0    0    0    0  0.00000000000E+00  0.00000000000E+00  0.74505805969E-08  0.10566000000E+00  0.10566000000E+00 0. -1.
     999900   -1    0    0    0    0 -0.00000000000E+00 -0.00000000000E+00 -0.74505805969E-08  0.93827000000E+00  0.93827000000E+00 0. -1.
     999902    2    1    2    0    0  0.10505792070E-01  0.11081460831E-01  0.15234994053E-01  0.10223597546E+01  0.10221321795E+01 0.  0.
     999903    2    3    3    0    0 -0.85253764793E-01 -0.70395498749E-01  0.68684338410E-01  0.13181766126E+00  0.20847705409E-01 0.  0.
         14    1    1    2    0    0 -0.10505792070E-01 -0.11081460831E-01 -0.15234994053E-01  0.21570245361E-01  0.00000000000E+00 0.  1.
     999901    1    3    3    0    0  0.95759556863E-01  0.81476959580E-01 -0.53449344358E-01  0.89054209338E+00  0.88000000000E+00 0. -1.
        -11    1    4    4    0    0 -0.34779218994E-01 -0.40095977749E-01  0.26046807691E-01  0.59126802868E-01  0.51100000000E-03 0.  1.
         11    1    4    4    0    0 -0.50474545799E-01 -0.30299521000E-01  0.42637530720E-01  0.72690858389E-01  0.51100000000E-03 0. -1.
</event>
<event>
 8    1  0.1233916E+005  0.1043930E+01  0.7957747E-01            NaN
         13   -1    0    0    0    0  0.00000000000E+00  0.00000000000E+00  0.74505805969E-08  0.10566000000E+00  0.10566000000E+00 0. -1.
     999900   -1    0    0    0    0 -0.00000000000E+00 -0.00000000000E+00 -0.74505805969E-08  0.93827000000E+00  0.93827000000E+00 0. -1.
     999902    2    1    2    0    0 -0.20691800864E-02 -0.22891981824E-01  0.64561909527E-02  0.10200551861E+01  0.10197757479E+01 0.  0.
     999903    2    3    3    0    0 -0.70501562635E-01  0.34953485026E-01  0.10191576383E+00  0.13036893854E+00  0.20421086385E-01 0.  0.
         14    1    1    2    0    0  0.20691800864E-02  0.22891981824E-01 -0.64561909527E-02  0.23874813919E-01  0.00000000000E+00 0.  1.
     999901    1    3    3    0    0  0.68432382549E-01 -0.57845466850E-01 -0.95459572874E-01  0.88968624754E+00  0.88000000000E+00 0. -1.
        -11    1    4    4    0    0 -0.39415271830E-01  0.29180243276E-01  0.53874257029E-01  0.72854285684E-01  0.51100000000E-03 0. -1.
         11    1    4    4    0    0 -0.31086290805E-01  0.57732417507E-02  0.48041506797E-01  0.57514652852E-01  0.51100000000E-03 0.  1.
</event>
<event>
 8    1  0.1233916E+005  0.1043930E+01  0.7957747E-01            NaN
         13   -1    0    0    0    0  0.00000000000E+00  0.00000000000E+00  0.74505805969E-08  0.10566000000E+00  0.10566000000E+00 0.  1.
     999900   -1    0    0    0    0 -0.00000000000E+00 -0.00000000000E+00 -0.74505805969E-08  0.93827000000E+00  0.93827000000E+00 0.  1.
     999902    2    1    2    0    0 -0.44124033795E-02  0.67357225024E-02  0.23471302634E-01  0.10191158647E+01  0.10188137241E+01 0.  0.
     999903    2    3    3    0    0  0.47857983012E-01  0.12054786341E+00  0.79286901064E-02  0.13011250732E+00  0.66503025342E-02 0.  0.
         14    1    1    2    0    0  0.44124033795E-02 -0.67357225024E-02 -0.23471302634E-01  0.24814135257E-01  0.00000000000E+00 0. -1.
     999901    1    3    3    0    0 -0.52270386391E-01 -0.11381214090E+00  0.15542612528E-01  0.88900335743E+00  0.88000000000E+00 0. -1.
        -11    1    4    4    0    0  0.80294031188E-02  0.14400898716E-01  0.10995327448E-02  0.16532612967E-01  0.51100000000E-03 0.  1.
         11    1    4    4    0    0  0.39828579893E-01  0.10614696469E+00  0.68291573616E-02  0.11357989435E+00  0.51100000000E-03 0. -1.
</event>
<event>
 8    1  0.1233916E+005  0.1043930E+01  0.7957747E-01            NaN
         13   -1    0    0    0    0  0.00000000000E+00  0.00000000000E+00  0.74505805969E-08  0.10566000000E+00  0.10566000000E+00 0. -1.
     999900   -1    0    0    0    0 -0.00000000000E+00 -0.00000000000E+00 -0.74505805969E-08  0.93827000000E+00  0.93827000000E+00 0. -1.
     999902    2    1    2    0    0  0.28925293382E-02  0.21926766216E-01 -0.67112072146E-02  0.10208174470E+01  0.10205557653E+01 0.  0.
     999903    2    3    3    0    0 -0.12424380153E+00  0.15192360888E-01 -0.33943809993E-01  0.13123855030E+00  0.20100865654E-01 0.  0.
         14    1    1    2    0    0 -0.28925293382E-02 -0.21926766216E-01  0.67112072146E-02  0.23112552973E-01  0.00000000000E+00 0.  1.
     999901    1    3    3    0    0  0.12713633087E+00  0.67344053279E-02  0.27232602778E-01  0.88957889672E+00  0.88000000000E+00 0.  1.
        -11    1    4    4    0    0 -0.55424943692E-01  0.50743275453E-02 -0.25312434876E-01  0.61144530939E-01  0.51100000000E-03 0. -1.
         11    1    4    4    0    0 -0.68818857841E-01  0.10118033343E-01 -0.86313751164E-02  0.70094019364E-01  0.51100000000E-03 0.  1.
</event>
<event>
 8    1  0.1233916E+005  0.1043930E+01  0.7957747E-01            NaN
         13   -1    0    0    0    0  0.00000000000E+00  0.00000000000E+00  0.74505805969E-08  0.10566000000E+00  0.10566000000E+00 0.  1.
     999900   -1    0    0    0    0 -0.00000000000E+00 -0.00000000000E+00 -0.74505805969E-08  0.93827000000E+00  0.93827000000E+00 0. -1.
     999902    2    1    2    0    0  0.11656553783E-01 -0.46617766293E-02 -0.21256321243E-01  0.10192431898E+01  0.10189441797E+01 0.  0.
     999903    2    3    3    0    0 -0.95474015740E-01 -0.84224117835E-01 -0.82489995558E-02  0.12908796987E+00  0.19663882243E-01 0.  0.
         14    1    1    2    0    0 -0.11656553783E-01  0.46617766293E-02  0.21256321243E-01  0.24686810248E-01  0.00000000000E+00 0.  1.
     999901    1    3    3    0    0  0.10713056952E+00  0.79562341206E-01 -0.13007321688E-01  0.89015521988E+00  0.88000000000E+00 0. -1.
        -11    1    4    4    0    0 -0.44039596216E-01 -0.34501925347E-01  0.55727236287E-02  0.56224418692E-01  0.51100000000E-03 0. -1.
         11    1    4    4    0    0 -0.51434419524E-01 -0.49722192488E-01 -0.13821723185E-01  0.72863551179E-01  0.51100000000E-03 0.  1.
</event>
<event>
 8    1  0.1233916E+005  0.1043930E+01  0.7957747E-01            NaN
         13   -1    0    0    0    0  0.00000000000E+00  0.00000000000E+00  0.74505805969E-08  0.10566000000E+00  0.10566000000E+00 0.  1.
     999900   -1    0    0    0    0 -0.00000000000E+00 -0.00000000000E+00 -0.74505805969E-08  0.93827000000E+00  0.93827000000E+00 0. -1.
     999902    2    1    2    0    0 -0.11271754263E-01 -0.14376643256E-01 -0.65523325814E-02  0.10245219249E+01  0.10243380796E+01 0.  0.
     999903    2    3    3    0    0 -0.70445414350E-01  0.96742031660E-01 -0.56830414279E-01  0.13414179967E+00  0.21041609722E-01 0.  0.
         14    1    1    2    0    0  0.11271754263E-01  0.14376643256E-01  0.65523325814E-02  0.19408075065E-01  0.00000000000E+00 0.  1.
     999901    1    3    3    0    0  0.59173660087E-01 -0.11111867492E+00  0.50278081698E-01  0.89038012526E+00  0.88000000000E+00 0.  1.
        -11    1    4    4    0    0 -0.34397514288E-01  0.60663026746E-01 -0.40198508772E-01  0.80494552808E-01  0.51100000000E-03 0.  1.
         11    1    4    4    0    0 -0.36047900061E-01  0.36079004914E-01 -0.16631905507E-01  0.53647246865E-01  0.51100000000E-03 0. -1.
</event>
<event>
 8    1  0.1233916E+005  0.1043930E+01  0.7957747E-01            NaN
         13   -1    0    0    0    0  0.00000000000E+00  0.00000000000E+00  0.74505805969E-08  0.10566000000E+00  0.10566000000E+00 0.  1.
     999900   -1    0    0    0    0 -0.00000000000E+00 -0.00000000000E+00 -0.74505805969E-08  0.93827000000E+00  0.93827000000E+00 0. -1.
     999902    2    1    2    0    0 -0.10433547913E-01 -0.16093213142E-01  0.12334552528E-01  0.10211266753E+01  0.10208720269E+01 0.  0.
     999903    2    3    3    0    0 -0.22947712934E-01  0.46862700069E-01  0.11989078342E+00  0.13225750937E+00  0.19888153467E-01 0.  0.
         14    1    1    2    0    0  0.10433547913E-01  0.16093213142E-01 -0.12334552528E-01  0.22803324699E-01  0.00000000000E+00 0. -1.
     999901    1    3    3    0    0  0.12514165021E-01 -0.62955913211E-01 -0.10755623090E+00  0.88886916593E+00  0.88000000000E+00 0. -1.
        -11    1    4    4    0    0 -0.12476448850E-01  0.32185642132E-01  0.55263746722E-01  0.65160725580E-01  0.51100000000E-03 0. -1.
         11    1    4    4    0    0 -0.10471264083E-01  0.14677057937E-01  0.64627036703E-01  0.67096783792E-01  0.51100000000E-03 0.  1.
</event>
<event>
 8    1  0.1233916E+005  0.1043930E+01  0.7957747E-01            NaN
         13   -1    0    0    0    0  0.00000000000E+00  0.00000000000E+00  0.74505805969E-08  0.10566000000E+00  0.10566000000E+00 0. -1.
     999900   -1    0    0    0    0 -0.00000000000E+00 -0.00000000000E+00 -0.74505805969E-08  0.93827000000E+00  0.93827000000E+00 0.  1.
     999902    2    1    2    0    0  0.36804634899E-02 -0.60429469544E-02  0.22241752931E-01  0.10205899359E+01  0.10203230168E+01 0.  0.
     999903    2    3    3    0    0 -0.90611574611E-01 -0.17320129967E-01 -0.87533738480E-01  0.12869934741E+00  0.19771754979E-01 0.  0.
         14    1    1    2    0    0 -0.36804634899E-02  0.60429469544E-02 -0.22241752931E-01  0.23340064114E-01  0.00000000000E+00 0.  1.
     999901    1    3    3    0    0  0.94292038101E-01  0.11277183013E-01  0.10977549141E+00  0.89189058848E+00  0.88000000000E+00 0. -1.
        -11    1    4    4    0    0 -0.57552898230E-01 -0.12814925923E-02 -0.51835755625E-01  0.77467315690E-01  0.51100000000E-03 0.  1.
         11    1    4    4    0    0 -0.33058676381E-01 -0.16038637375E-01 -0.35697982854E-01  0.51232031716E-01  0.51100000000E-03 0. -1.
</event>
<event>
 8    1  0.1233916E+005  0.1043930E+01  0.7957747E-01            NaN
         13   -1    0    0    0    0  0.00000000000E+00  0.00000000000E+00  0.74505805969E-08  0.10566000000E+00  0.10566000000E+00 0.  1.
     999900   -1    0    0    0    0 -0.00000000000E+00 -0.00000000000E+00 -0.74505805969E-08  0.93827000000E+00  0.93827000000E+00 0. -1.
     999902    2    1    2    0    0 -0.12638732759E-01 -0.49651274368E-02 -0.19489830472E-01  0.10201761888E+01  0.10198996091E+01 0.  0.
     999903    2    3    3    0    0  0.19967572225E-01 -0.11739695348E+00  0.46779246332E-01  0.12995392598E+00  0.22781052726E-01 0.  0.
         14    1    1    2    0    0  0.12638732759E-01  0.49651274368E-02  0.19489830472E-01  0.23753811232E-01  0.00000000000E+00 0.  1.
     999901    1    3    3    0    0 -0.32606304984E-01  0.11243182604E+00 -0.66269076804E-01  0.89022226279E+00  0.88000000000E+00 0. -1.
        -11    1    4    4    0    0  0.73398359009E-02 -0.65333713488E-01  0.14239285666E-01  0.67270986959E-01  0.51100000000E-03 0.  1.
         11    1    4    4    0    0  0.12627736324E-01 -0.52063239987E-01  0.32539960665E-01  0.62682939017E-01  0.51100000000E-03 0. -1.
</event>
<event>
 8    1  0.1233916E+005  0.1043930E+01  0.7957747E-01            NaN
         13   -1    0    0    0    0  0.00000000000E+00  0.00000000000E+00  0.74505805969E-08  0.10566000000E+00  0.10566000000E+00 0. -1.
     999900   -1    0    0    0    0 -0.00000000000E+00 -0.00000000000E+00 -0.74505805969E-08  0.93827000000E+00  0.93827000000E+00 0.  1.
     999902    2    1    2    0    0 -0.18453374200E-01 -0.30574234023E-02  0.14732211059E-01  0.10201200672E+01  0.10198421636E+01 0.  0.
     999903    2    3    3    0    0  0.52795801045E-01  0.11164517065E+00 -0.29206047424E-01  0.12873704032E+00  0.21637735703E-01 0.  0.
         14    1    1    2    0    0  0.18453374200E-01  0.30574234023E-02 -0.14732211059E-01  0.23809932800E-01  0.00000000000E+00 0.  1.
     999901    1    3    3    0    0 -0.71249175246E-01 -0.11470259405E+00  0.43938258483E-01  0.89138302688E+00  0.88000000000E+00 0. -1.
        -11    1    4    4    0    0  0.99810886708E-02  0.15889792154E-01  0.30040999493E-02  0.19010348846E-01  0.51100000000E-03 0.  1.
         11    1    4    4    0    0  0.42814712374E-01  0.95755378495E-01 -0.32210147373E-01  0.10972669147E+00  0.51100000000E-03 0. -1.
</event>
<event>
 8    1  0.1233916E+005  0.1043930E+01  0.7957747E-01            NaN
         13   -1    0    0    0    0  0.00000000000E+00  0.00000000000E+00  0.74505805969E-08  0.10566000000E+00  0.10566000000E+00 0.  1.
     999900   -1    0    0    0    0 -0.00000000000E+00 -0.00000000000E+00 -0.74505805969E-08  0.93827000000E+00  0.93827000000E+00 0. -1.
     999902    2    1    2    0    0  0.22113944561E-01  0.44410547236E-02  0.53778824713E-02  0.10207422633E+01  0.10204788567E+01 0.  0.
     999903    2    3    3    0    0  0.11189784817E+00 -0.43875086183E-03  0.70335482555E-01  0.13377864986E+00  0.20696041272E-01 0.  0.
         14    1    1    2    0    0 -0.22113944561E-01 -0.44410547236E-02 -0.53778824713E-02  0.23187736651E-01  0.00000000000E+00 0.  1.
     999901    1    3    3    0    0 -0.89783903608E-01  0.48798055854E-02 -0.64957600083E-01  0.88696361349E+00  0.88000000000E+00 0. -1.
        -11    1    4    4    0    0  0.60101875665E-01 -0.15882423154E-02  0.25682142711E-01  0.65380360563E-01  0.51100000000E-03 0. -1.
         11    1    4    4    0    0  0.51795972504E-01  0.11494914535E-02  0.44653339844E-01  0.68398289295E-01  0.51100000000E-03 0.  1.
</event>
<event>
 8    1  0.1233916E+005  0.1043930E+01  0.7957747E-01            NaN
         13   -1    0    0    0    0  0.00000000000E+00  0.00000000000E+00  0.74505805969E-08  0.10566000000E+00  0.10566000000E+00 0.  1.
     999900   -1    0    0    0    0 -0.00000000000E+00 -0.00000000000E+00 -0.74505805969E-08  0.93827000000E+00  0.93827000000E+00 0.  1.
     999902    2    1    2    0    0  0.80870810443E-02  0.15486729172E-01 -0.14951851300E-01  0.10209344022E+01  0.10206753921E+01 0.  0.
     999903    2    3    3    0    0 -0.12060327807E+00 -0.42537658624E-01 -0.19663170287E-02  0.12958897971E+00  0.20852677943E-01 0.  0.
         14    1    1    2    0    0 -0.80870810443E-02 -0.15486729172E-01  0.14951851300E-01  0.22995597787E-01  0.00000000000E+00 0.  1.
     999901    1    3    3    0    0  0.12869035912E+00  0.58024387795E-01 -0.12985534272E-01  0.89134542250E+00  0.88000000000E+00 0. -1.
        -11    1    4    4    0    0 -0.31954005508E-01 -0.21966646062E-02 -0.31123635335E-02  0.32184339843E-01  0.51100000000E-03 0.  1.
         11    1    4    4    0    0 -0.88649272567E-01 -0.40340994017E-01  0.11460465048E-02  0.97404639872E-01  0.51100000000E-03 0. -1.
</event>
<event>
 8    1  0.1233916E+005  0.1043930E+01  0.7957747E-01            NaN
         13   -1    0    0    0    0  0.00000000000E+00  0.00000000000E+00  0.74505805969E-08  0.10566000000E+00  0.10566000000E+00 0. -1.
     999900   -1    0    0    0    0 -0.00000000000E+00 -0.00000000000E+00 -0.74505805969E-08  0.93827000000E+00  0.93827000000E+00 0.  1.
     999902    2    1    2    0    0 -0.23087745818E-01  0.53972028404E-02 -0.25573617474E-02  0.10200822767E+01  0.10198034798E+01 0.  0.
     999903    2    3    3    0    0 -0.96932808345E-01 -0.84190666161E-01 -0.25204634060E-01  0.13216787857E+00  0.18682530511E-01 0.  0.
         14    1    1    2    0    0  0.23087745818E-01 -0.53972028404E-02  0.25573617474E-02  0.23847723258E-01  0.00000000000E+00 0.  1.
     999901    1    3    3    0    0  0.73845062527E-01  0.89587869001E-01  0.22647272312E-01  0.88791439817E+00  0.88000000000E+00 0. -1.
        -11    1    4    4    0    0 -0.43932404863E-01 -0.50444549182E-01 -0.13938272227E-01  0.68331876111E-01  0.51100000000E-03 0.  1.
         11    1    4    4    0    0 -0.53000403482E-01 -0.33746116979E-01 -0.11266361833E-01  0.63836002463E-01  0.51100000000E-03 0. -1.
</event>
<event>
 8    1  0.1233916E+005  0.1043930E+01  0.7957747E-01            NaN
         13   -1    0    0    0    0  0.00000000000E+00  0.00000000000E+00  0.74505805969E-08  0.10566000000E+00  0.10566000000E+00 0. -1.
     999900   -1    0    0    0    0 -0.00000000000E+00 -0.00000000000E+00 -0.74505805969E-08  0.93827000000E+00  0.93827000000E+00 0.  1.
     999902    2    1    2    0    0  0.20103723047E-01  0.10544366153E-01  0.27978155023E-02  0.10210570660E+01  0.10208008429E+01 0.  0.
     999903    2    3    3    0    0  0.11078694520E+00 -0.74120686184E-02 -0.70662095132E-01  0.13317067755E+00  0.20312845289E-01 0.  0.
         14    1    1    2    0    0 -0.20103723047E-01 -0.10544366153E-01 -0.27978155023E-02  0.22872933994E-01  0.00000000000E+00 0. -1.
     999901    1    3    3    0    0 -0.90683222152E-01  0.17956434771E-01  0.73459910634E-01  0.88788638845E+00  0.88000000000E+00 0.  1.
        -11    1    4    4    0    0  0.66919355009E-01 -0.36378381402E-02 -0.30735972549E-01  0.73731913516E-01  0.51100000000E-03 0. -1.
         11    1    4    4    0    0  0.43867590191E-01 -0.37742304782E-02 -0.39926122582E-01  0.59438764037E-01  0.51100000000E-03 0.  1.
</event>
<event>
 8    1  0.1233916E+005  0.1043930E+01  0.7957747E-01            NaN
         13   -1    0    0    0    0  0.00000000000E+00  0.00000000000E+00  0.74505805969E-08  0.10566000000E+00  0.10566000000E+00 0.  1.
     999900   -1    0    0    0    0 -0.00000000000E+00 -0.00000000000E+00 -0.74505805969E-08  0.93827000000E+00  0.93827000000E+00 0.  1.
     999902    2    1    2    0    0  0.13396454354E-01  0.18846443107E-01 -0.47043298850E-02  0.10203337264E+01  0.10200608458E+01 0.  0.
     999903    2    3    3    0    0 -0.70203221977E-01 -0.49426990015E-01  0.92809567651E-01  0.12839251325E+00  0.22349538964E-01 0.  0.
         14    1    1    2    0    0 -0.13396454354E-01 -0.18846443107E-01  0.47043298850E-02  0.23596273577E-01  0.00000000000E+00 0.  1.
     999901    1    3    3    0    0  0.83599676331E-01  0.68273433122E-01 -0.97513897536E-01  0.89194121318E+00  0.88000000000E+00 0.  1.
        -11    1    4    4    0    0 -0.45840906703E-01 -0.19257697975E-01  0.47698984952E-01  0.68903569901E-01  0.51100000000E-03 0. -1.
         11    1    4    4    0    0 -0.24362315273E-01 -0.30169292040E-01  0.45110582699E-01  0.59488943344E-01  0.51100000000E-03 0.  1.
</event>
<event>
 8    1  0.1233916E+005  0.1043930E+01  0.7957747E-01            NaN
         13   -1    0    0    0    0  0.00000000000E+00  0.00000000000E+00  0.74505805969E-08  0.10566000000E+00  0.10566000000E+00 0.  1.
     999900   -1    0    0    0    0 -0.00000000000E+00 -0.00000000000E+00 -0.74505805969E-08  0.93827000000E+00  0.93827000000E+00 0. -1.
     999902    2    1    2    0    0 -0.14261299616E-01  0.68288487238E-02  0.16081479338E-01  0.10213771328E+01  0.10211281093E+01 0.  0.
     999903    2    3    3    0    0 -0.82301539947E-01 -0.81372783299E-01 -0.58520584097E-01  0.13122294948E+00  0.19993258065E-01 0.  0.
         14    1    1    2    0    0  0.14261299616E-01 -0.68288487238E-02 -0.16081479338E-01  0.22552867209E-01  0.00000000000E+00 0. -1.
     999901    1    3    3    0    0  0.68040240331E-01  0.88201632022E-01  0.74602063435E-01  0.89015418331E+00  0.88000000000E+00 0.  1.
        -11    1    4    4    0    0 -0.13929072911E-01 -0.24836926020E-01 -0.17956764602E-01  0.33668954279E-01  0.51100000000E-03 0. -1.
         11    1    4    4    0    0 -0.68372467036E-01 -0.56535857279E-01 -0.40563819495E-01  0.97553995202E-01  0.51100000000E-03 0.  1.
</event>
<event>
 8    1  0.1233916E+005  0.1043930E+01  0.7957747E-01            NaN
         13   -1    0    0    0    0  0.00000000000E+00  0.00000000000E+00  0.74505805969E-08  0.10566000000E+00  0.10566000000E+00 0. -1.
     999900   -1    0    0    0    0 -0.00000000000E+00 -0.00000000000E+00 -0.74505805969E-08  0.93827000000E+00  0.93827000000E+00 0. -1.
     999902    2    1    2    0    0  0.15492926320E-01  0.16831771264E-01  0.47945505844E-02  0.10205563609E+01  0.10202886644E+01 0.  0.
     999903    2    3    3    0    0 -0.76421875251E-01  0.65640702351E-01 -0.80372527628E-01  0.13034061529E+00  0.19491741218E-01 0.  0.
         14    1    1    2    0    0 -0.15492926320E-01 -0.16831771264E-01 -0.47945505844E-02  0.23373639108E-01  0.00000000000E+00 0.  1.
     999901    1    3    3    0    0  0.91914801570E-01 -0.48808931087E-01  0.85167078212E-01  0.89021574560E+00  0.88000000000E+00 0.  1.
        -11    1    4    4    0    0 -0.19871928064E-01  0.25298436224E-01 -0.17391956996E-01  0.36573838868E-01  0.51100000000E-03 0.  1.
         11    1    4    4    0    0 -0.56549947186E-01  0.40342266127E-01 -0.62980570632E-01  0.93766776425E-01  0.51100000000E-03 0. -1.
</event>
<event>
 8    1  0.1233916E+005  0.1043930E+01  0.7957747E-01            NaN
         13   -1    0    0    0    0  0.00000000000E+00  0.00000000000E+00  0.74505805969E-08  0.10566000000E+00  0.10566000000E+00 0. -1.
     999900   -1    0    0    0    0 -0.00000000000E+00 -0.00000000000E+00 -0.74505805969E-08  0.93827000000E+00  0.93827000000E+00 0. -1.
     999902    2    1    2    0    0  0.16834021255E-01 -0.84463446933E-02  0.14023632743E-01  0.10204483628E+01  0.10201781579E+01 0.  0.
     999903    2    3    3    0    0  0.29973739043E-01  0.10553091554E+00 -0.65591219794E-01  0.12943658242E+00  0.20406410418E-01 0.  0.
         14    1    1    2    0    0 -0.16834021255E-01  0.84463446933E-02 -0.14023632743E-01  0.23481637200E-01  0.00000000000E+00 0.  1.
     999901    1    3    3    0    0 -0.13139717788E-01 -0.11397726024E+00  0.79614852537E-01  0.89101178038E+00  0.88000000000E+00 0.  1.
        -11    1    4    4    0    0  0.29631326794E-01  0.94402829445E-01 -0.64773653463E-01  0.11826156197E+00  0.51100000000E-03 0. -1.
         11    1    4    4    0    0  0.34241224861E-03  0.11128086100E-01 -0.81756633072E-03  0.11175020452E-01  0.51100000000E-03 0.  1.
</event>
<event>
 8    1  0.1233916E+005  0.1043930E+01  0.7957747E-01            NaN
         13   -1    0    0    0    0  0.00000000000E+00  0.00000000000E+00  0.74505805969E-08  0.10566000000E+00  0.10566000000E+00 0. -1.
     999900   -1    0    0    0    0 -0.00000000000E+00 -0.00000000000E+00 -0.74505805969E-08  0.93827000000E+00  0.93827000000E+00 0. -1.
     999902    2    1    2    0    0  0.21705450512E-01  0.33045673166E-02  0.18041631624E-01  0.10155126247E+01  0.10151149411E+01 0.  0.
     999903    2    3    3    0    0 -0.11413349434E+00  0.36382954256E-01  0.27926610469E-01  0.12442109662E+00  0.18722708718E-01 0.  0.
         14    1    1    2    0    0 -0.21705450512E-01 -0.33045673166E-02 -0.18041631624E-01  0.28417375296E-01  0.00000000000E+00 0. -1.
     999901    1    3    3    0    0  0.13583894485E+00 -0.33078386940E-01 -0.98849788448E-02  0.89109152809E+00  0.88000000000E+00 0. -1.
        -11    1    4    4    0    0 -0.22554368947E-01  0.14907030481E-01  0.87547653074E-02  0.28422282684E-01  0.51100000000E-03 0. -1.
         11    1    4    4    0    0 -0.91579125388E-01  0.21475923775E-01  0.19171845161E-01  0.95998813934E-01  0.51100000000E-03 0.  1.
</event>
<event>
 8    1  0.1233916E+005  0.1043930E+01  0.7957747E-01            NaN
         13   -1    0    0    0    0  0.00000000000E+00  0.00000000000E+00  0.74505805969E-08  0.10566000000E+00  0.10566000000E+00 0. -1.
     999900   -1    0    0    0    0 -0.00000000000E+00 -0.00000000000E+00 -0.74505805969E-08  0.93827000000E+00  0.93827000000E+00 0.  1.
     999902    2    1    2    0    0  0.16497438694E-01 -0.10160363497E-01 -0.14645973751E-01  0.10196420808E+01  0.10193527701E+01 0.  0.
     999903    2    3    3    0    0 -0.99172558576E-01  0.19103751168E-01 -0.78160834786E-01  0.12932187201E+00  0.20368623020E-01 0.  0.
         14    1    1    2    0    0 -0.16497438694E-01  0.10160363497E-01  0.14645973751E-01  0.24287919157E-01  0.00000000000E+00 0. -1.
     999901    1    3    3    0    0  0.11566999727E+00 -0.29264114665E-01  0.63514861035E-01  0.89032020883E+00  0.88000000000E+00 0.  1.
        -11    1    4    4    0    0 -0.41223875549E-01  0.25286580461E-02 -0.21360767898E-01  0.46501027441E-01  0.51100000000E-03 0. -1.
         11    1    4    4    0    0 -0.57948683027E-01  0.16575093121E-01 -0.56800066888E-01  0.82820844574E-01  0.51100000000E-03 0.  1.
</event>
<event>
 8    1  0.1233916E+005  0.1043930E+01  0.7957747E-01            NaN
         13   -1    0    0    0    0  0.00000000000E+00  0.00000000000E+00  0.74505805969E-08  0.10566000000E+00  0.10566000000E+00 0.  1.
     999900   -1    0    0    0    0 -0.00000000000E+00 -0.00000000000E+00 -0.74505805969E-08  0.93827000000E+00  0.93827000000E+00 0. -1.
     999902    2    1    2    0    0  0.10441880534E-02  0.23568292243E-01 -0.20098325047E-01  0.10129381075E+01  0.10124638820E+01 0.  0.
     999903    2    3    3    0    0 -0.15230526256E-01 -0.73835764291E-01 -0.96438069348E-01  0.12412981938E+00  0.20596645887E-01 0.  0.
         14    1    1    2    0    0 -0.10441880534E-02 -0.23568292243E-01  0.20098325047E-01  0.30991892450E-01  0.00000000000E+00 0.  1.
     999901    1    3    3    0    0  0.16274714310E-01  0.97404056535E-01  0.76339744301E-01  0.88880828817E+00  0.88000000000E+00 0.  1.
        -11    1    4    4    0    0 -0.13047547841E-01 -0.19109286560E-01 -0.33174464637E-01  0.40450087298E-01  0.51100000000E-03 0.  1.
         11    1    4    4    0    0 -0.21829784155E-02 -0.54726477731E-01 -0.63263604711E-01  0.83679732084E-01  0.51100000000E-03 0. -1.
</event>
<event>
 8    1  0.1233916E+005  0.1043930E+01  0.7957747E-01            NaN
         13   -1    0    0    0    0  0.00000000000E+00  0.00000000000E+00  0.74505805969E-08  0.10566000000E+00  0.10566000000E+00 0. -1.
     999900   -1    0    0    0    0 -0.00000000000E+00 -0.00000000000E+00 -0.74505805969E-08  0.93827000000E+00  0.93827000000E+00 0. -1.
     999902    2    1    2    0    0 -0.16448796244E-02  0.66542164627E-02  0.22339619629E-01  0.10205624406E+01  0.10202948850E+01 0.  0.
     999903    2    3    3    0    0  0.71922880217E-01 -0.88650893472E-01  0.62691044497E-01  0.13144854649E+00  0.17795271890E-01 0.  0.
         14    1    1    2    0    0  0.16448796244E-02 -0.66542164627E-02 -0.22339619629E-01  0.23367559369E-01  0.00000000000E+00 0.  1.
     999901    1    3    3    0    0 -0.73567759841E-01  0.95305109935E-01 -0.40351424868E-01  0.88911389414E+00  0.88000000000E+00 0.  1.
        -11    1    4    4    0    0  0.38874719675E-01 -0.60702643028E-01  0.35737648334E-01  0.80458034589E-01  0.51100000000E-03 0.  1.
         11    1    4    4    0    0  0.33048160542E-01 -0.27948250444E-01  0.26953396163E-01  0.50990511900E-01  0.51100000000E-03 0. -1.
</event>
<event>
 7    1  0.1233916E+005  0.1043930E+01  0.7957747E-01            NaN
         13   -1    0    0    0    0  0.00000000000E+00  0.00000000000E+00  0.74505805969E-08  0.10566000000E+00  0.10566000000E+00 0.  1.
     999900   -1    0    0    0    0 -0.00000000000E+00 -0.00000000000E+00 -0.74505805969E-08  0.93827000000E+00  0.93827000000E+00 0. -1.
     999902    2    1    2    0    0 -0.10879107523E-01  0.19483905763E-01 -0.88437976023E-02  0.10199260353E+01  0.10196435295E+01 0.  0.
         14    1    1    2    0    0  0.10879107523E-01 -0.19483905763E-01  0.88437976023E-02  0.24003964679E-01  0.00000000000E+00 0. -1.
     999901    1    3    3    0    0  0.72498196564E-01 -0.67673401974E-01  0.33342094369E-01  0.88619826963E+00  0.88000000000E+00 0.  1.
        -11    1    3    3    0    0 -0.73616600576E-01  0.65109249602E-01 -0.47307070343E-01  0.10907262851E+00  0.51100000000E-03 0.  1.
         11    1    3    3    0    0 -0.97607035117E-02  0.22048058135E-01  0.51211783717E-02  0.24655137183E-01  0.51100000000E-03 0. -1.
</event>
<event>
 8    1  0.1233916E+005  0.1043930E+01  0.7957747E-01            NaN
         13   -1    0    0    0    0  0.00000000000E+00  0.00000000000E+00  0.74505805969E-08  0.10566000000E+00  0.10566000000E+00 0.  1.
     999900   -1    0    0    0    0 -0.00000000000E+00 -0.00000000000E+00 -0.74505805969E-08  0.93827000000E+00  0.93827000000E+00 0.  1.
     999902    2    1    2    0    0 -0.51148813994E-03 -0.35225954997E-02  0.28387397306E-01  0.10153203054E+01  0.10149171434E+01 0.  0.
     999903    2    3    3    0    0 -0.20753045284E-01 -0.94741907567E-01  0.82173440190E-01  0.12874057298E+00  0.20370147792E-01 0.  0.
         14    1    1    2    0    0  0.51148813994E-03  0.35225954997E-02 -0.28387397306E-01  0.28609694597E-01  0.00000000000E+00 0. -1.
     999901    1    3    3    0    0  0.20241557144E-01  0.91219312067E-01 -0.53786042885E-01  0.88657973242E+00  0.88000000000E+00 0.  1.
        -11    1    4    4    0    0 -0.83624868573E-02 -0.51606222553E-01  0.56731406380E-01  0.77148214389E-01  0.51100000000E-03 0. -1.
         11    1    4    4    0    0 -0.12390558427E-01 -0.43135685014E-01  0.25442033811E-01  0.51592358593E-01  0.51100000000E-03 0.  1.
</event>
<event>
 8    1  0.1233916E+005  0.1043930E+01  0.7957747E-01            NaN
         13   -1    0    0    0    0  0.00000000000E+00  0.00000000000E+00  0.74505805969E-08  0.10566000000E+00  0.10566000000E+00 0. -1.
     999900   -1    0    0    0    0 -0.00000000000E+00 -0.00000000000E+00 -0.74505805969E-08  0.93827000000E+00  0.93827000000E+00 0. -1.
     999902    2    1    2    0    0  0.14105370152E-01 -0.15366223069E-01  0.83316419491E-02  0.10214689551E+01  0.10212219777E+01 0.  0.
     999903    2    3    3    0    0 -0.43959599963E-01  0.11827917426E+00 -0.24594409705E-01  0.12887903930E+00  0.90836276304E-02 0.  0.
         14    1    1    2    0    0 -0.14105370152E-01  0.15366223069E-01 -0.83316419491E-02  0.22461044858E-01  0.00000000000E+00 0. -1.
     999901    1    3    3    0    0  0.58064970116E-01 -0.13364539733E+00  0.32926051654E-01  0.89258991584E+00  0.88000000000E+00 0.  1.
        -11    1    4    4    0    0 -0.24513299621E-01  0.55899343404E-01 -0.14772958061E-01  0.62802387392E-01  0.51100000000E-03 0.  1.
         11    1    4    4    0    0 -0.19446300342E-01  0.62379830853E-01 -0.98214516447E-02  0.66076651910E-01  0.51100000000E-03 0. -1.
</event>
<event>
 8    1  0.1233916E+005  0.1043930E+01  0.7957747E-01            NaN
         13   -1    0    0    0    0  0.00000000000E+00  0.00000000000E+00  0.74505805969E-08  0.10566000000E+00  0.10566000000E+00 0. -1.
     999900   -1    0    0    0    0 -0.00000000000E+00 -0.00000000000E+00 -0.74505805969E-08  0.93827000000E+00  0.93827000000E+00 0.  1.
     999902    2    1    2    0    0  0.14956884030E-01  0.50374142884E-02  0.18347860272E-01  0.10197281840E+01  0.10194409455E+01 0.  0.
     999903    2    3    3    0    0 -0.19964722968E-01  0.12375231657E+00 -0.27629815987E-01  0.12988174027E+00  0.19814986858E-01 0.  0.
         14    1    1    2    0    0 -0.14956884030E-01 -0.50374142884E-02 -0.18347860272E-01  0.24201816030E-01  0.00000000000E+00 0. -1.
     999901    1    3    3    0    0  0.34921606998E-01 -0.11871490228E+00  0.45977676259E-01  0.88984644370E+00  0.88000000000E+00 0.  1.
        -11    1    4    4    0    0 -0.31888268729E-02  0.76600886704E-01 -0.13230845620E-01  0.77802190570E-01  0.51100000000E-03 0.  1.
         11    1    4    4    0    0 -0.16775896095E-01  0.47151429863E-01 -0.14398970367E-01  0.52079549697E-01  0.51100000000E-03 0. -1.
</event>
<event>
 8    1  0.1233916E+005  0.1043930E+01  0.7957747E-01            NaN
         13   -1    0    0    0    0  0.00000000000E+00  0.00000000000E+00  0.74505805969E-08  0.10566000000E+00  0.10566000000E+00 0.  1.
     999900   -1    0    0    0    0 -0.00000000000E+00 -0.00000000000E+00 -0.74505805969E-08  0.93827000000E+00  0.93827000000E+00 0.  1.
     999902    2    1    2    0    0  0.11569457524E-01  0.16527536095E-01  0.11169855668E-01  0.10208696992E+01  0.10206092128E+01 0.  0.
     999903    2    3    3    0    0 -0.33355095260E-01  0.66375060194E-01  0.10845389408E+00  0.13296926829E+00  0.20009202224E-01 0.  0.
         14    1    1    2    0    0 -0.11569457524E-01 -0.16527536095E-01 -0.11169855668E-01  0.23060300788E-01  0.00000000000E+00 0. -1.
     999901    1    3    3    0    0  0.44924552784E-01 -0.49847524099E-01 -0.97284038409E-01  0.88790043092E+00  0.88000000000E+00 0.  1.
        -11    1    4    4    0    0 -0.20758000512E-02  0.11410846470E-01  0.74337879560E-02  0.13785452020E-01  0.51100000000E-03 0. -1.
         11    1    4    4    0    0 -0.31279295209E-01  0.54964213724E-01  0.10102010612E+00  0.11918381627E+00  0.51100000000E-03 0.  1.
</event>
<event>
 8    1  0.1233916E+005  0.1043930E+01  0.7957747E-01            NaN
         13   -1    0    0    0    0  0.00000000000E+00  0.00000000000E+00  0.74505805969E-08  0.10566000000E+00  0.10566000000E+00 0. -1.
     999900   -1    0    0    0    0 -0.00000000000E+00 -0.00000000000E+00 -0.74505805969E-08  0.93827000000E+00  0.93827000000E+00 0.  1.
     999902    2    1    2    0    0  0.86978106526E-02 -0.15227376427E-01 -0.23051003667E-01  0.10149666840E+01  0.10145533480E+01 0.  0.
     999903    2    3    3    0    0 -0.33116432785E-01  0.14590224973E-02 -0.12250206478E+00  0.12822129754E+00  0.18306239428E-01 0.  0.
         14    1    1    2    0    0 -0.86978106526E-02  0.15227376427E-01  0.23051003667E-01  0.28963315989E-01  0.00000000000E+00 0. -1.
     999901    1    3    3    0    0  0.41814243437E-01 -0.16686398924E-01  0.99451061112E-01  0.88674538647E+00  0.88000000000E+00 0. -1.
        -11    1    4    4    0    0 -0.30723347254E-01 -0.39199242063E-02 -0.11161592381E+00  0.11583464698E+00  0.51100000000E-03 0. -1.
         11    1    4    4    0    0 -0.23930855310E-02  0.53789467036E-02 -0.10886140969E-01  0.12386650564E-01  0.51100000000E-03 0.  1.
</event>
<event>
 8    1  0.1233916E+005  0.1043930E+01  0.7957747E-01            NaN
         13   -1    0    0    0    0  0.00000000000E+00  0.00000000000E+00  0.74505805969E-08  0.10566000000E+00  0.10566000000E+00 0. -1.
     999900   -1    0    0    0    0 -0.00000000000E+00 -0.00000000000E+00 -0.74505805969E-08  0.93827000000E+00  0.93827000000E+00 0.  1.
     999902    2    1    2    0    0 -0.21554864687E-01  0.98862234959E-02  0.20449496373E-01  0.10126165603E+01  0.10121322871E+01 0.  0.
     999903    2    3    3    0    0  0.10989084167E+00 -0.45799412512E-01  0.85811295190E-02  0.12103385410E+00  0.20049308893E-01 0.  0.
         14    1    1    2    0    0  0.21554864687E-01 -0.98862234959E-02 -0.20449496373E-01  0.31313439744E-01  0.00000000000E+00 0.  1.
     999901    1    3    3    0    0 -0.13144570635E+00  0.55685636008E-01  0.11868366854E-01  0.89158270615E+00  0.88000000000E+00 0.  1.
        -11    1    4    4    0    0  0.32930646357E-01 -0.22840748545E-01  0.71196146470E-02  0.40707214315E-01  0.51100000000E-03 0.  1.
         11    1    4    4    0    0  0.76960195308E-01 -0.22958663967E-01  0.14615148720E-02  0.80326639789E-01  0.51100000000E-03 0. -1.
</event>
<event>
 8    1  0.1233916E+005  0.1043930E+01  0.7957747E-01            NaN
         13   -1    0    0    0    0  0.00000000000E+00  0.00000000000E+00  0.74505805969E-08  0.10566000000E+00  0.10566000000E+00 0.  1.
     999900   -1    0    0    0    0 -0.00000000000E+00 -0.00000000000E+00 -0.74505805969E-08  0.93827000000E+00  0.93827000000E+00 0.  1.
     999902    2    1    2    0    0  0.17659496325E-01  0.23181162361E-01  0.31016847273E-02  0.10146239503E+01  0.10142006291E+01 0.  0.
     999903    2    3    3    0    0  0.75750302437E-01  0.10001770399E+00  0.21335000608E-01  0.12918007877E+00  0.22150870617E-01 0.  0.
         14    1    1    2    0    0 -0.17659496325E-01 -0.23181162361E-01 -0.31016847273E-02  0.29306049666E-01  0.00000000000E+00 0. -1.
     999901    1    3    3    0    0 -0.58090806112E-01 -0.76836541628E-01 -0.18233315881E-01  0.88544387157E+00  0.88000000000E+00 0. -1.
        -11    1    4    4    0    0  0.66183714668E-01  0.95364190041E-01  0.15722816019E-01  0.11714128604E+00  0.51100000000E-03 0.  1.
         11    1    4    4    0    0  0.95665877692E-02  0.46535139481E-02  0.56121845889E-02  0.12038792733E-01  0.51100000000E-03 0. -1.
</event>
<event>
 8    1  0.1233916E+005  0.1043930E+01  0.7957747E-01            NaN
         13   -1    0    0    0    0  0.00000000000E+00  0.00000000000E+00  0.74505805969E-08  0.10566000000E+00  0.10566000000E+00 0. -1.
     999900   -1    0    0    0    0 -0.00000000000E+00 -0.00000000000E+00 -0.74505805969E-08  0.93827000000E+00  0.93827000000E+00 0. -1.
     999902    2    1    2    0    0  0.18704449464E-01  0.12984249316E-01 -0.59687119029E-02  0.10203912515E+01  0.10201197152E+01 0.  0.
     999903    2    3    3    0    0  0.44686277507E-02  0.77108513652E-01  0.10413447681E+00  0.13110092090E+00  0.19436323971E-01 0.  0.
         14    1    1    2    0    0 -0.18704449464E-01 -0.12984249316E-01  0.59687119029E-02  0.23538748519E-01  0.00000000000E+00 0.  1.
     999901    1    3    3    0    0  0.14235821714E-01 -0.64124264336E-01 -0.11010318871E+00  0.88929033058E+00  0.88000000000E+00 0. -1.
        -11    1    4    4    0    0  0.94227469420E-02  0.71548024216E-01  0.95059593643E-01  0.11935030538E+00  0.51100000000E-03 0. -1.
         11    1    4    4    0    0 -0.49541191913E-02  0.55604894358E-02  0.90748831665E-02  0.11750615525E-01  0.51100000000E-03 0.  1.
</event>
<event>
 8    1  0.1233916E+005  0.1043930E+01  0.7957747E-01            NaN
         13   -1    0    0    0    0  0.00000000000E+00  0.00000000000E+00  0.74505805969E-08  0.10566000000E+00  0.10566000000E+00 0.  1.
     999900   -1    0    0    0    0 -0.00000000000E+00 -0.00000000000E+00 -0.74505805969E-08  0.93827000000E+00  0.93827000000E+00 0.  1.
     999902    2    1    2    0    0  0.87984511148E-02 -0.19894249387E-01 -0.93676589474E-02  0.10202456817E+01  0.10199707368E+01 0.  0.
     999903    2    3    3    0    0  0.80121367144E-01  0.61387976890E-01 -0.81047674648E-01  0.13073357758E+00  0.18292773508E-01 0.  0.
         14    1    1    2    0    0 -0.87984511148E-02  0.19894249387E-01  0.93676589474E-02  0.23684318332E-01  0.00000000000E+00 0.  1.
     999901    1    3    3    0    0 -0.71322916029E-01 -0.81282226277E-01  0.71680015701E-01  0.88951210408E+00  0.88000000000E+00 0. -1.
        -11    1    4    4    0    0  0.25847277215E-01  0.10114459282E-01 -0.18841608726E-01  0.33550728255E-01  0.51100000000E-03 0.  1.
         11    1    4    4    0    0  0.54274089928E-01  0.51273517609E-01 -0.62206065922E-01  0.97182849330E-01  0.51100000000E-03 0. -1.
</event>
<event>
 8    1  0.1233916E+005  0.1043930E+01  0.7957747E-01            NaN
         13   -1    0    0    0    0  0.00000000000E+00  0.00000000000E+00  0.74505805969E-08  0.10566000000E+00  0.10566000000E+00 0. -1.
     999900   -1    0    0    0    0 -0.00000000000E+00 -0.00000000000E+00 -0.74505805969E-08  0.93827000000E+00  0.93827000000E+00 0. -1.
     999902    2    1    2    0    0 -0.22458857259E-01 -0.68383561358E-02 -0.22696438632E-02  0.10203436763E+01  0.10200710284E+01 0.  0.
     999903    2    3    3    0    0 -0.11573119841E+00 -0.33166667084E-02 -0.63444468029E-01  0.13329548646E+00  0.18378673070E-01 0.  0.
         14    1    1    2    0    0  0.22458857259E-01  0.68383561358E-02  0.22696438632E-02  0.23586323734E-01  0.00000000000E+00 0.  1.
     999901    1    3    3    0    0  0.93272341154E-01 -0.35216894274E-02  0.61174824166E-01  0.88704818980E+00  0.88000000000E+00 0.  1.
        -11    1    4    4    0    0 -0.17014739239E-01 -0.68940867259E-02 -0.11770573967E-01  0.21813695598E-01  0.51100000000E-03 0.  1.
         11    1    4    4    0    0 -0.98716459174E-01  0.35774200175E-02 -0.51673894062E-01  0.11148179086E+00  0.51100000000E-03 0. -1.
</event>
<event>
 8    1  0.1233916E+005  0.1043930E+01  0.7957747E-01            NaN
         13   -1    0    0    0    0  0.00000000000E+00  0.00000000000E+00  0.74505805969E-08  0.10566000000E+00  0.10566000000E+00 0.  1.
     999900   -1    0    0    0    0 -0.00000000000E+00 -0.00000000000E+00 -0.74505805969E-08  0.93827000000E+00  0.93827000000E+00 0. -1.
     999902    2    1    2    0    0  0.19143298216E-02  0.73873951661E-02  0.23368041783E-01  0.10193474118E+01  0.10190509518E+01 0.  0.
     999903    2    3    3    0    0  0.11683299789E+00  0.31944020217E-01  0.46216527351E-01  0.13124191052E+00  0.20447539028E-01 0.  0.
         14    1    1    2    0    0 -0.19143298216E-02 -0.73873951661E-02 -0.23368041783E-01  0.24582588203E-01  0.00000000000E+00 0. -1.
     999901    1    3    3    0    0 -0.11491866807E+00 -0.24556625050E-01 -0.22848485568E-01  0.88810550128E+00  0.88000000000E+00 0.  1.
        -11    1    4    4    0    0  0.37143454208E-01  0.19802744297E-01  0.13018555871E-01  0.44062782369E-01  0.51100000000E-03 0. -1.
         11    1    4    4    0    0  0.79689543685E-01  0.12141275920E-01  0.33197971480E-01  0.87179128151E-01  0.51100000000E-03 0.  1.
</event>
<event>
 8    1  0.1233916E+005  0.1043930E+01  0.7957747E-01            NaN
         13   -1    0    0    0    0  0.00000000000E+00  0.00000000000E+00  0.74505805969E-08  0.10566000000E+00  0.10566000000E+00 0.  1.
     999900   -1    0    0    0    0 -0.00000000000E+00 -0.00000000000E+00 -0.74505805969E-08  0.93827000000E+00  0.93827000000E+00 0.  1.
     999902    2    1    2    0    0 -0.49987453413E-02  0.12824686324E-01  0.18810432231E-01  0.10206213665E+01  0.10203551741E+01 0.  0.
     999903    2    3    3    0    0 -0.11904644730E+00 -0.35398635934E-01  0.39251097481E-01  0.13171744149E+00  0.19588662447E-01 0.  0.
         14    1    1    2    0    0  0.49987453413E-02 -0.12824686324E-01 -0.18810432231E-01  0.23308633486E-01  0.00000000000E+00 0. -1.
     999901    1    3    3    0    0  0.11404770196E+00  0.48223322257E-01 -0.20440665250E-01  0.88890392503E+00  0.88000000000E+00 0.  1.
        -11    1    4    4    0    0 -0.63357960119E-01 -0.91667500870E-02  0.16751875997E-01  0.66175122879E-01  0.51100000000E-03 0.  1.
         11    1    4    4    0    0 -0.55688487186E-01 -0.26231885847E-01  0.22499221484E-01  0.65542318608E-01  0.51100000000E-03 0. -1.
</event>
<event>
 8    1  0.1233916E+005  0.1043930E+01  0.7957747E-01            NaN
         13   -1    0    0    0    0  0.00000000000E+00  0.00000000000E+00  0.74505805969E-08  0.10566000000E+00  0.10566000000E+00 0.  1.
     999900   -1    0    0    0    0 -0.00000000000E+00 -0.00000000000E+00 -0.74505805969E-08  0.93827000000E+00  0.93827000000E+00 0.  1.
     999902    2    1    2    0    0 -0.13908955178E-01  0.10058686369E-01  0.15565083541E-01  0.10207587240E+01  0.10204956955E+01 0.  0.
     999903    2    3    3    0    0  0.77044729500E-02 -0.94497786950E-01  0.88695316348E-01  0.13129415060E+00  0.19547485733E-01 0.  0.
         14    1    1    2    0    0  0.13908955178E-01 -0.10058686369E-01 -0.15565083541E-01  0.23171275995E-01  0.00000000000E+00 0. -1.
     999901    1    3    3    0    0 -0.21613428128E-01  0.10455647332E+00 -0.73130232807E-01  0.88946457340E+00  0.88000000000E+00 0.  1.
        -11    1    4    4    0    0 -0.55971353101E-02 -0.25563038899E-01  0.29726477108E-01  0.39607088301E-01  0.51100000000E-03 0.  1.
         11    1    4    4    0    0  0.13301608260E-01 -0.68934748050E-01  0.58968839240E-01  0.91687062301E-01  0.51100000000E-03 0. -1.
</event>
<event>
 8    1  0.1233916E+005  0.1043930E+01  0.7957747E-01            NaN
         13   -1    0    0    0    0  0.00000000000E+00  0.00000000000E+00  0.74505805969E-08  0.10566000000E+00  0.10566000000E+00 0.  1.
     999900   -1    0    0    0    0 -0.00000000000E+00 -0.00000000000E+00 -0.74505805969E-08  0.93827000000E+00  0.93827000000E+00 0. -1.
     999902    2    1    2    0    0 -0.90768585672E-02  0.17318180516E-01  0.12714386843E-01  0.10206069562E+01  0.10203404308E+01 0.  0.
     999903    2    3    3    0    0  0.35721515384E-01 -0.87464805956E-01  0.87361349782E-01  0.13012476234E+00  0.19347594053E-01 0.  0.
         14    1    1    2    0    0  0.90768585672E-02 -0.17318180516E-01 -0.12714386843E-01  0.23323043769E-01  0.00000000000E+00 0. -1.
     999901    1    3    3    0    0 -0.44798373951E-01  0.10478298647E+00 -0.74646962939E-01  0.89048219389E+00  0.88000000000E+00 0. -1.
        -11    1    4    4    0    0  0.18537048404E-01 -0.63359381837E-01  0.67840939806E-01  0.94660908854E-01  0.51100000000E-03 0.  1.
         11    1    4    4    0    0  0.17184466980E-01 -0.24105424119E-01  0.19520409977E-01  0.35463853485E-01  0.51100000000E-03 0. -1.
</event>
<event>
 8    1  0.1233916E+005  0.1043930E+01  0.7957747E-01            NaN
         13   -1    0    0    0    0  0.00000000000E+00  0.00000000000E+00  0.74505805969E-08  0.10566000000E+00  0.10566000000E+00 0. -1.
     999900   -1    0    0    0    0 -0.00000000000E+00 -0.00000000000E+00 -0.74505805969E-08  0.93827000000E+00  0.93827000000E+00 0.  1.
     999902    2    1    2    0    0  0.19975122294E-01  0.45007042796E-02 -0.82151726838E-02  0.10218675679E+01  0.10216293728E+01 0.  0.
     999903    2    3    3    0    0  0.42073116538E-01 -0.46363160106E-01 -0.11598603063E+00  0.13356018195E+00  0.21584094834E-01 0.  0.
         14    1    1    2    0    0 -0.19975122294E-01 -0.45007042796E-02  0.82151726838E-02  0.22062432139E-01  0.00000000000E+00 0.  1.
     999901    1    3    3    0    0 -0.22097994244E-01  0.50863864386E-01  0.10777085795E+00  0.88830738592E+00  0.88000000000E+00 0.  1.
        -11    1    4    4    0    0  0.21311064027E-01 -0.26289444890E-01 -0.83452802583E-01  0.90055137236E-01  0.51100000000E-03 0.  1.
         11    1    4    4    0    0  0.20762052511E-01 -0.20073715216E-01 -0.32533228047E-01  0.43505044710E-01  0.51100000000E-03 0. -1.
</event>
<event>
 8    1  0.1233916E+005  0.1043930E+01  0.7957747E-01            NaN
         13   -1    0    0    0    0  0.00000000000E+00  0.00000000000E+00  0.74505805969E-08  0.10566000000E+00  0.10566000000E+00 0.  1.
     999900   -1    0    0    0    0 -0.00000000000E+00 -0.00000000000E+00 -0.74505805969E-08  0.93827000000E+00  0.93827000000E+00 0.  1.
     999902    2    1    2    0    0 -0.22920157447E-01 -0.50491704717E-02 -0.15660626464E-02  0.10204080891E+01  0.10201369457E+01 0.  0.
     999903    2    3    3    0    0 -0.25987246890E-01 -0.77901050427E-01 -0.10114965152E+00  0.13179473414E+00  0.19866788530E-01 0.  0.
         14    1    1    2    0    0  0.22920157447E-01  0.50491704717E-02  0.15660626464E-02  0.23521910893E-01  0.00000000000E+00 0. -1.
     999901    1    3    3    0    0  0.30670894432E-02  0.72851879956E-01  0.99583588872E-01  0.88861335497E+00  0.88000000000E+00 0. -1.
        -11    1    4    4    0    0 -0.22608649675E-01 -0.77233625886E-01 -0.93331561722E-01  0.12323646190E+00  0.51100000000E-03 0. -1.
         11    1    4    4    0    0 -0.33785972146E-02 -0.66742454083E-03 -0.78180897960E-02  0.85582722388E-02  0.51100000000E-03 0.  1.
</event>
<event>
 8    1  0.1233916E+005  0.1043930E+01  0.7957747E-01            NaN
         13   -1    0    0    0    0  0.00000000000E+00  0.00000000000E+00  0.74505805969E-08  0.10566000000E+00  0.10566000000E+00 0. -1.
     999900   -1    0    0    0    0 -0.00000000000E+00 -0.00000000000E+00 -0.74505805969E-08  0.93827000000E+00  0.93827000000E+00 0. -1.
     999902    2    1    2    0    0  0.12218975121E-01 -0.20884069435E-01  0.23599495970E-02  0.10196191573E+01  0.10193292937E+01 0.  0.
     999903    2    3    3    0    0  0.28088772928E-01 -0.99490148764E-01  0.79552738477E-01  0.13260760563E+00  0.23850995932E-01 0.  0.
         14    1    1    2    0    0 -0.12218975121E-01  0.20884069435E-01 -0.23599495970E-02  0.24310842669E-01  0.00000000000E+00 0. -1.
     999901    1    3    3    0    0 -0.15869797807E-01  0.78606079329E-01 -0.77192788880E-01  0.88701155170E+00  0.88000000000E+00 0. -1.
        -11    1    4    4    0    0  0.81603892289E-02 -0.21094889117E-01  0.63159623480E-02  0.23489120899E-01  0.51100000000E-03 0.  1.
         11    1    4    4    0    0  0.19928383699E-01 -0.78395259647E-01  0.73236776129E-01  0.10911848473E+00  0.51100000000E-03 0. -1.
</event>
<event>
 8    1  0.1233916E+005  0.1043930E+01  0.7957747E-01            NaN
         13   -1    0    0    0    0  0.00000000000E+00  0.00000000000E+00  0.74505805969E-08  0.10566000000E+00  0.10566000000E+00 0. -1.
     999900   -1    0    0    0    0 -0.00000000000E+00 -0.00000000000E+00 -0.74505805969E-08  0.93827000000E+00  0.93827000000E+00 0. -1.
     999902    2    1    2    0    0 -0.31692526496E-02  0.22525281926E-01  0.60382334797E-02  0.10203950738E+01  0.10201236268E+01 0.  0.
     999903    2    3    3    0    0 -0.31237143754E-01  0.12608902366E+00  0.24854153802E-01  0.13367792950E+00  0.19438591445E-01 0.  0.
         14    1    1    2    0    0  0.31692526496E-02 -0.22525281926E-01 -0.60382334797E-02  0.23534926211E-01  0.00000000000E+00 0.  1.
     999901    1    3    3    0    0  0.28067891104E-01 -0.10356374173E+00 -0.18815920322E-01  0.88671714429E+00  0.88000000000E+00 0. -1.
        -11    1    4    4    0    0 -0.13611007592E-01  0.33141460856E-01  0.13930433056E-01  0.38443907729E-01  0.51100000000E-03 0.  1.
         11    1    4    4    0    0 -0.17626136163E-01  0.92947562805E-01  0.10923720746E-01  0.95234021774E-01  0.51100000000E-03 0. -1.
</event>
<event>
 8    1  0.1233916E+005  0.1043930E+01  0.7957747E-01            NaN
         13   -1    0    0    0    0  0.00000000000E+00  0.00000000000E+00  0.74505805969E-08  0.10566000000E+00  0.10566000000E+00 0.  1.
     999900   -1    0    0    0    0 -0.00000000000E+00 -0.00000000000E+00 -0.74505805969E-08  0.93827000000E+00  0.93827000000E+00 0.  1.
     999902    2    1    2    0    0 -0.74541873317E-02 -0.27339745050E-01 -0.12647273337E-02  0.10155640679E+01  0.10151678432E+01 0.  0.
     999903    2    3    3    0    0 -0.99022210915E-01 -0.80400152904E-01 -0.50745313833E-02  0.12921502581E+00  0.20029707551E-01 0.  0.
         14    1    1    2    0    0  0.74541873317E-02  0.27339745050E-01  0.12647273337E-02  0.28365932091E-01  0.00000000000E+00 0. -1.
     999901    1    3    3    0    0  0.91568023584E-01  0.53060407854E-01  0.38098040496E-02  0.88634904210E+00  0.88000000000E+00 0.  1.
        -11    1    4    4    0    0 -0.88146511718E-01 -0.67976795248E-01  0.17837739133E-02  0.11132877072E+00  0.51100000000E-03 0.  1.
         11    1    4    4    0    0 -0.10875699197E-01 -0.12423357656E-01 -0.68583052966E-02  0.17886255086E-01  0.51100000000E-03 0. -1.
</event>
<event>
 8    1  0.1233916E+005  0.1043930E+01  0.7957747E-01            NaN
         13   -1    0    0    0    0  0.00000000000E+00  0.00000000000E+00  0.74505805969E-08  0.10566000000E+00  0.10566000000E+00 0. -1.
     999900   -1    0    0    0    0 -0.00000000000E+00 -0.00000000000E+00 -0.74505805969E-08  0.93827000000E+00  0.93827000000E+00 0.  1.
     999902    2    1    2    0    0  0.11121645815E-01  0.81539748354E-02  0.20410346982E-01  0.10192974895E+01  0.10189998094E+01 0.  0.
     999903    2    3    3    0    0  0.96908472961E-01 -0.84415454093E-01  0.21376989514E-02  0.13010551438E+00  0.20140856365E-01 0.  0.
         14    1    1    2    0    0 -0.11121645815E-01 -0.81539748354E-02 -0.20410346982E-01  0.24632510533E-01  0.00000000000E+00 0.  1.
     999901    1    3    3    0    0 -0.85786827146E-01  0.92569428928E-01  0.18272648031E-01  0.88919197508E+00  0.88000000000E+00 0.  1.
        -11    1    4    4    0    0  0.66854597922E-01 -0.45487315027E-01  0.29368595120E-02  0.80916743363E-01  0.51100000000E-03 0. -1.
         11    1    4    4    0    0  0.30053875039E-01 -0.38928139066E-01 -0.79916056062E-03  0.49188771022E-01  0.51100000000E-03 0.  1.
</event>
<event>
 8    1  0.1233916E+005  0.1043930E+01  0.7957747E-01            NaN
         13   -1    0    0    0    0  0.00000000000E+00  0.00000000000E+00  0.74505805969E-08  0.10566000000E+00  0.10566000000E+00 0. -1.
     999900   -1    0    0    0    0 -0.00000000000E+00 -0.00000000000E+00 -0.74505805969E-08  0.93827000000E+00  0.93827000000E+00 0.  1.
     999902    2    1    2    0    0  0.12981874846E-01  0.16761124822E-01 -0.11326181017E-01  0.10198936368E+01  0.10196103587E+01 0.  0.
     999903    2    3    3    0    0  0.45101112619E-01  0.25416714445E-01  0.11742386198E+00  0.12990310974E+00  0.20157748551E-01 0.  0.
         14    1    1    2    0    0 -0.12981874846E-01 -0.16761124822E-01  0.11326181017E-01  0.24036363208E-01  0.00000000000E+00 0.  1.
     999901    1    3    3    0    0 -0.32119237772E-01 -0.86555896234E-02 -0.12875004299E+00  0.88999052705E+00  0.88000000000E+00 0. -1.
        -11    1    4    4    0    0  0.31117974201E-01  0.20170663836E-01  0.59746491106E-01  0.70321321933E-01  0.51100000000E-03 0.  1.
         11    1    4    4    0    0  0.13983138418E-01  0.52460506089E-02  0.57677370871E-01  0.59581787810E-01  0.51100000000E-03 0. -1.
</event>
<event>
 8    1  0.1233916E+005  0.1043930E+01  0.7957747E-01            NaN
         13   -1    0    0    0    0  0.00000000000E+00  0.00000000000E+00  0.74505805969E-08  0.10566000000E+00  0.10566000000E+00 0.  1.
     999900   -1    0    0    0    0 -0.00000000000E+00 -0.00000000000E+00 -0.74505805969E-08  0.93827000000E+00  0.93827000000E+00 0. -1.
     999902    2    1    2    0    0  0.19863119547E-01  0.59946147341E-02 -0.14913454309E-01  0.10183782869E+01  0.10180576826E+01 0.  0.
     999903    2    3    3    0    0  0.10496513638E+00  0.76592314356E-01 -0.37522931001E-02  0.13138845606E+00  0.19099324790E-01 0.  0.
         14    1    1    2    0    0 -0.19863119547E-01 -0.59946147341E-02  0.14913454309E-01  0.25551713120E-01  0.00000000000E+00 0.  1.
     999901    1    3    3    0    0 -0.85102016837E-01 -0.70597699622E-01 -0.11161161209E-01  0.88698983082E+00  0.88000000000E+00 0. -1.
        -11    1    4    4    0    0  0.35495516820E-01  0.21789892735E-01 -0.94795205390E-02  0.42718304863E-01  0.51100000000E-03 0. -1.
         11    1    4    4    0    0  0.69469619563E-01  0.54802421621E-01  0.57272274389E-02  0.88670151195E-01  0.51100000000E-03 0.  1.
</event>
<event>
 8    1  0.1233916E+005  0.1043930E+01  0.7957747E-01            NaN
         13   -1    0    0    0    0  0.00000000000E+00  0.00000000000E+00  0.74505805969E-08  0.10566000000E+00  0.10566000000E+00 0.  1.
     999900   -1    0    0    0    0 -0.00000000000E+00 -0.00000000000E+00 -0.74505805969E-08  0.93827000000E+00  0.93827000000E+00 0. -1.
     999902    2    1    2    0    0  0.20229466991E-01  0.10568225534E-02  0.14773849483E-01  0.10188578075E+01  0.10185492708E+01 0.  0.
     999903    2    3    3    0    0  0.41402189852E-01  0.26937266934E-01 -0.11679098422E+00  0.12844925685E+00  0.20477302412E-01 0.  0.
         14    1    1    2    0    0 -0.20229466991E-01 -0.10568225534E-02 -0.14773849483E-01  0.25072192509E-01  0.00000000000E+00 0. -1.
     999901    1    3    3    0    0 -0.21172722861E-01 -0.25880444380E-01  0.13156483371E+00  0.89040855065E+00  0.88000000000E+00 0.  1.
        -11    1    4    4    0    0  0.21107327324E-01  0.57471288644E-02 -0.68812424964E-01  0.72207753790E-01  0.51100000000E-03 0.  1.
         11    1    4    4    0    0  0.20294862528E-01  0.21190138069E-01 -0.47978559259E-01  0.56241503056E-01  0.51100000000E-03 0. -1.
</event>
<event>
 8    1  0.1233916E+005  0.1043930E+01  0.7957747E-01            NaN
         13   -1    0    0    0    0  0.00000000000E+00  0.00000000000E+00  0.74505805969E-08  0.10566000000E+00  0.10566000000E+00 0.  1.
     999900   -1    0    0    0    0 -0.00000000000E+00 -0.00000000000E+00 -0.74505805969E-08  0.93827000000E+00  0.93827000000E+00 0.  1.
     999902    2    1    2    0    0 -0.13705489785E-01 -0.20015653911E-01  0.14032856532E-01  0.10159052268E+01  0.10155186074E+01 0.  0.
     999903    2    3    3    0    0  0.84771409013E-01 -0.82235453111E-01  0.43154403991E-01  0.12775148584E+00  0.22567188947E-01 0.  0.
         14    1    1    2    0    0  0.13705489785E-01  0.20015653911E-01 -0.14032856532E-01  0.28024773222E-01  0.00000000000E+00 0.  1.
     999901    1    3    3    0    0 -0.98476898797E-01  0.62219799200E-01 -0.29121547460E-01  0.88815374093E+00  0.88000000000E+00 0.  1.
        -11    1    4    4    0    0  0.49096243269E-01 -0.39528588213E-01  0.12651190121E-01  0.64290466803E-01  0.51100000000E-03 0. -1.
         11    1    4    4    0    0  0.35675165744E-01 -0.42706864898E-01  0.30503213870E-01  0.63461019040E-01  0.51100000000E-03 0.  1.
</event>
<event>
 8    1  0.1233916E+005  0.1043930E+01  0.7957747E-01            NaN
         13   -1    0    0    0    0  0.00000000000E+00  0.00000000000E+00  0.74505805969E-08  0.10566000000E+00  0.10566000000E+00 0.  1.
     999900   -1    0    0    0    0 -0.00000000000E+00 -0.00000000000E+00 -0.74505805969E-08  0.93827000000E+00  0.93827000000E+00 0. -1.
     999902    2    1    2    0    0  0.18011751532E-01  0.25405152535E-02  0.23884310143E-01  0.10139077136E+01  0.10134631291E+01 0.  0.
     999903    2    3    3    0    0  0.52792093058E-01  0.10746369898E+00 -0.31158250946E-01  0.12528617987E+00  0.19756988055E-01 0.  0.
         14    1    1    2    0    0 -0.18011751532E-01 -0.25405152535E-02 -0.23884310143E-01  0.30022286422E-01  0.00000000000E+00 0. -1.
     999901    1    3    3    0    0 -0.34780341526E-01 -0.10492318372E+00  0.55042561089E-01  0.88862153371E+00  0.88000000000E+00 0.  1.
        -11    1    4    4    0    0  0.49769176339E-01  0.83672232319E-01 -0.25462084491E-01  0.10063097059E+00  0.51100000000E-03 0. -1.
         11    1    4    4    0    0  0.30229167192E-02  0.23791466658E-01 -0.56961664546E-02  0.24655209277E-01  0.51100000000E-03 0.  1.
</event>
<event>
 8    1  0.1233916E+005  0.1043930E+01  0.7957747E-01            NaN
         13   -1    0    0    0    0  0.00000000000E+00  0.00000000000E+00  0.74505805969E-08  0.10566000000E+00  0.10566000000E+00 0.  1.
     999900   -1    0    0    0    0 -0.00000000000E+00 -0.00000000000E+00 -0.74505805969E-08  0.93827000000E+00  0.93827000000E+00 0.  1.
     999902    2    1    2    0    0 -0.12631842572E-01  0.12243308488E-01  0.12942259053E-01  0.10220904918E+01  0.10218571374E+01 0.  0.
     999903    2    3    3    0    0  0.99828121983E-01 -0.76033551436E-02  0.83796247081E-01  0.13188746927E+00  0.18682306531E-01 0.  0.
         14    1    1    2    0    0  0.12631842572E-01 -0.12243308488E-01 -0.12942259053E-01  0.21839508211E-01  0.00000000000E+00 0. -1.
     999901    1    3    3    0    0 -0.11245996455E+00  0.19846663631E-01 -0.70853988028E-01  0.89020302252E+00  0.88000000000E+00 0.  1.
        -11    1    4    4    0    0  0.46818019904E-01  0.11853916921E-02  0.49466640726E-01  0.68121522347E-01  0.51100000000E-03 0. -1.
         11    1    4    4    0    0  0.53010102079E-01 -0.87887468357E-02  0.34329606355E-01  0.63765946921E-01  0.51100000000E-03 0.  1.
</event>
<event>
 8    1  0.1233916E+005  0.1043930E+01  0.7957747E-01            NaN
         13   -1    0    0    0    0  0.00000000000E+00  0.00000000000E+00  0.74505805969E-08  0.10566000000E+00  0.10566000000E+00 0. -1.
     999900   -1    0    0    0    0 -0.00000000000E+00 -0.00000000000E+00 -0.74505805969E-08  0.93827000000E+00  0.93827000000E+00 0. -1.
     999902    2    1    2    0    0 -0.14252061886E-01  0.57587691651E-02  0.15695029776E-01  0.10219614168E+01  0.10217252658E+01 0.  0.
     999903    2    3    3    0    0 -0.38665450869E-01  0.98778762431E-01 -0.76068085085E-01  0.13197871919E+00  0.19487630746E-01 0.  0.
         14    1    1    2    0    0  0.14252061886E-01 -0.57587691651E-02 -0.15695029776E-01  0.21968583249E-01  0.00000000000E+00 0.  1.
     999901    1    3    3    0    0  0.24413388983E-01 -0.93019993266E-01  0.91763114862E-01  0.88998269756E+00  0.88000000000E+00 0.  1.
        -11    1    4    4    0    0 -0.25627872793E-01  0.85381246503E-01 -0.62406354195E-01  0.10881892888E+00  0.51100000000E-03 0.  1.
         11    1    4    4    0    0 -0.13037578076E-01  0.13397515927E-01 -0.13661730891E-01  0.23159790307E-01  0.51100000000E-03 0. -1.
</event>
<event>
 8    1  0.1233916E+005  0.1043930E+01  0.7957747E-01            NaN
         13   -1    0    0    0    0  0.00000000000E+00  0.00000000000E+00  0.74505805969E-08  0.10566000000E+00  0.10566000000E+00 0. -1.
     999900   -1    0    0    0    0 -0.00000000000E+00 -0.00000000000E+00 -0.74505805969E-08  0.93827000000E+00  0.93827000000E+00 0.  1.
     999902    2    1    2    0    0 -0.17344955446E-01  0.16557042990E-01  0.50468736712E-02  0.10194258353E+01  0.10191312868E+01 0.  0.
     999903    2    3    3    0    0  0.32974269582E-01 -0.11951815181E+00 -0.20223220153E-01  0.12718872521E+00  0.19902314477E-01 0.  0.
         14    1    1    2    0    0  0.17344955446E-01 -0.16557042990E-01 -0.50468736712E-02  0.24504164664E-01  0.00000000000E+00 0. -1.
     999901    1    3    3    0    0 -0.50319225029E-01  0.13607519480E+00  0.25270093824E-01  0.89223711013E+00  0.88000000000E+00 0.  1.
        -11    1    4    4    0    0  0.22453678533E-01 -0.10208249421E+00 -0.21744303323E-01  0.10676178695E+00  0.51100000000E-03 0. -1.
         11    1    4    4    0    0  0.10520591050E-01 -0.17435657594E-01  0.15210831700E-02  0.20426938263E-01  0.51100000000E-03 0.  1.
</event>
<event>
 8    1  0.1233916E+005  0.1043930E+01  0.7957747E-01            NaN
         13   -1    0    0    0    0  0.00000000000E+00  0.00000000000E+00  0.74505805969E-08  0.10566000000E+00  0.10566000000E+00 0. -1.
     999900   -1    0    0    0    0 -0.00000000000E+00 -0.00000000000E+00 -0.74505805969E-08  0.93827000000E+00  0.93827000000E+00 0. -1.
     999902    2    1    2    0    0 -0.49598156863E-02  0.22328804447E-01 -0.99573213058E-02  0.10189835869E+01  0.10186781763E+01 0.  0.
     999903    2    3    3    0    0  0.86763603867E-01 -0.75042286603E-01  0.50345191189E-01  0.12683409937E+00  0.19823792575E-01 0.  0.
         14    1    1    2    0    0  0.49598156863E-02 -0.22328804447E-01  0.99573213058E-02  0.24946413114E-01  0.00000000000E+00 0. -1.
     999901    1    3    3    0    0 -0.91723419553E-01  0.97371091049E-01 -0.60302512495E-01  0.89214948752E+00  0.88000000000E+00 0.  1.
        -11    1    4    4    0    0  0.74957703153E-01 -0.55367288079E-01  0.43785070468E-01  0.10296401006E+00  0.51100000000E-03 0.  1.
         11    1    4    4    0    0  0.11805900713E-01 -0.19674998524E-01  0.65601207207E-02  0.23870089305E-01  0.51100000000E-03 0. -1.
</event>
<event>
 8    1  0.1233916E+005  0.1043930E+01  0.7957747E-01            NaN
         13   -1    0    0    0    0  0.00000000000E+00  0.00000000000E+00  0.74505805969E-08  0.10566000000E+00  0.10566000000E+00 0. -1.
     999900   -1    0    0    0    0 -0.00000000000E+00 -0.00000000000E+00 -0.74505805969E-08  0.93827000000E+00  0.93827000000E+00 0. -1.
     999902    2    1    2    0    0  0.11239876059E-01 -0.19565566994E-01 -0.96547973199E-02  0.10193869493E+01  0.10190914537E+01 0.  0.
     999903    2    3    3    0    0 -0.83214371592E-01 -0.25797069568E-01  0.92392703173E-01  0.12844692390E+00  0.19289381091E-01 0.  0.
         14    1    1    2    0    0 -0.11239876059E-01  0.19565566994E-01  0.96547973199E-02  0.24543050685E-01  0.00000000000E+00 0. -1.
     999901    1    3    3    0    0  0.94454247651E-01  0.62315025740E-02 -0.10204750049E+00  0.89094002541E+00  0.88000000000E+00 0. -1.
        -11    1    4    4    0    0 -0.51383322817E-01 -0.17560457948E-01  0.43763345673E-01  0.69743150865E-01  0.51100000000E-03 0. -1.
         11    1    4    4    0    0 -0.31831048775E-01 -0.82366116200E-02  0.48629357500E-01  0.58703773038E-01  0.51100000000E-03 0.  1.
</event>
<event>
 8    1  0.1233916E+005  0.1043930E+01  0.7957747E-01            NaN
         13   -1    0    0    0    0  0.00000000000E+00  0.00000000000E+00  0.74505805969E-08  0.10566000000E+00  0.10566000000E+00 0.  1.
     999900   -1    0    0    0    0 -0.00000000000E+00 -0.00000000000E+00 -0.74505805969E-08  0.93827000000E+00  0.93827000000E+00 0.  1.
     999902    2    1    2    0    0  0.10264877411E-01  0.16760683714E-01 -0.12859716119E-01  0.10204425454E+01  0.10201722050E+01 0.  0.
     999903    2    3    3    0    0 -0.65372862372E-01  0.11270711690E+00 -0.50504928301E-02  0.13196757684E+00  0.20332941860E-01 0.  0.
         14    1    1    2    0    0 -0.10264877411E-01 -0.16760683714E-01  0.12859716119E-01  0.23487454640E-01  0.00000000000E+00 0.  1.
     999901    1    3    3    0    0  0.75637739783E-01 -0.95946433184E-01 -0.78092232885E-02  0.88847496852E+00  0.88000000000E+00 0. -1.
        -11    1    4    4    0    0 -0.22917710513E-01  0.23537437898E-01 -0.48058966639E-02  0.33205273703E-01  0.51100000000E-03 0.  1.
         11    1    4    4    0    0 -0.42455151859E-01  0.89169679000E-01 -0.24459616625E-03  0.98762303135E-01  0.51100000000E-03 0. -1.
</event>
<event>
 8    1  0.1233916E+005  0.1043930E+01  0.7957747E-01            NaN
         13   -1    0    0    0    0  0.00000000000E+00  0.00000000000E+00  0.74505805969E-08  0.10566000000E+00  0.10566000000E+00 0. -1.
     999900   -1    0    0    0    0 -0.00000000000E+00 -0.00000000000E+00 -0.74505805969E-08  0.93827000000E+00  0.93827000000E+00 0.  1.
     999902    2    1    2    0    0  0.16516493832E-01  0.44178385593E-02  0.16668335804E-01  0.10200522848E+01  0.10197727778E+01 0.  0.
     999903    2    3    3    0    0  0.12831100002E+00  0.25690258316E-01  0.10009766981E-01  0.13269955671E+00  0.19628418668E-01 0.  0.
         14    1    1    2    0    0 -0.16516493832E-01 -0.44178385593E-02 -0.16668335804E-01  0.23877715228E-01  0.00000000000E+00 0.  1.
     999901    1    3    3    0    0 -0.11179450618E+00 -0.21272419757E-01  0.66585688228E-02  0.88735272806E+00  0.88000000000E+00 0.  1.
        -11    1    4    4    0    0  0.12312298110E+00  0.22131557657E-01  0.12893570859E-01  0.12576000800E+00  0.51100000000E-03 0.  1.
         11    1    4    4    0    0  0.51880189107E-02  0.35587006594E-02 -0.28838038773E-02  0.69395487176E-02  0.51100000000E-03 0. -1.
</event>
<event>
 8    1  0.1233916E+005  0.1043930E+01  0.7957747E-01            NaN
         13   -1    0    0    0    0  0.00000000000E+00  0.00000000000E+00  0.74505805969E-08  0.10566000000E+00  0.10566000000E+00 0. -1.
     999900   -1    0    0    0    0 -0.00000000000E+00 -0.00000000000E+00 -0.74505805969E-08  0.93827000000E+00  0.93827000000E+00 0.  1.
     999902    2    1    2    0    0  0.60064829108E-03  0.19499458847E-01  0.13167755556E-01  0.10203932317E+01  0.10201217417E+01 0.  0.
     999903    2    3    3    0    0 -0.10853459390E+00 -0.41512790082E-01  0.56947290370E-01  0.13047770582E+00  0.16684364621E-01 0.  0.
         14    1    1    2    0    0 -0.60064829108E-03 -0.19499458847E-01 -0.13167755556E-01  0.23536768259E-01  0.00000000000E+00 0.  1.
     999901    1    3    3    0    0  0.10913524219E+00  0.61012248929E-01 -0.43779534815E-01  0.88991552592E+00  0.88000000000E+00 0. -1.
        -11    1    4    4    0    0 -0.53135878123E-01 -0.12058670559E-01  0.23068625718E-01  0.59171409423E-01  0.51100000000E-03 0.  1.
         11    1    4    4    0    0 -0.55398715773E-01 -0.29454119523E-01  0.33878664652E-01  0.71306296397E-01  0.51100000000E-03 0. -1.
</event>
<event>
 8    1  0.1233916E+005  0.1043930E+01  0.7957747E-01            NaN
         13   -1    0    0    0    0  0.00000000000E+00  0.00000000000E+00  0.74505805969E-08  0.10566000000E+00  0.10566000000E+00 0. -1.
     999900   -1    0    0    0    0 -0.00000000000E+00 -0.00000000000E+00 -0.74505805969E-08  0.93827000000E+00  0.93827000000E+00 0.  1.
     999902    2    1    2    0    0 -0.10244403567E-01 -0.21285176456E-01  0.92106736163E-02  0.10185756503E+01  0.10182600416E+01 0.  0.
     999903    2    3    3    0    0  0.56665531974E-01  0.10193398665E+00 -0.42898725517E-01  0.12595294661E+00  0.20550522132E-01 0.  0.
         14    1    1    2    0    0  0.10244403567E-01  0.21285176456E-01 -0.92106736163E-02  0.25354349719E-01  0.00000000000E+00 0.  1.
     999901    1    3    3    0    0 -0.66909935542E-01 -0.12321916311E+00  0.52109399134E-01  0.89262270367E+00  0.88000000000E+00 0. -1.
        -11    1    4    4    0    0  0.22620795691E-01  0.55387176010E-01 -0.13999834211E-01  0.61446693508E-01  0.51100000000E-03 0. -1.
         11    1    4    4    0    0  0.34044736283E-01  0.46546810642E-01 -0.28898891306E-01  0.64506253102E-01  0.51100000000E-03 0.  1.
</event>
<event>
 8    1  0.1233916E+005  0.1043930E+01  0.7957747E-01            NaN
         13   -1    0    0    0    0  0.00000000000E+00  0.00000000000E+00  0.74505805969E-08  0.10566000000E+00  0.10566000000E+00 0. -1.
     999900   -1    0    0    0    0 -0.00000000000E+00 -0.00000000000E+00 -0.74505805969E-08  0.93827000000E+00  0.93827000000E+00 0.  1.
     999902    2    1    2    0    0 -0.10593094661E-01 -0.19817665386E-01  0.39196011468E-02  0.10211195465E+01  0.10208647371E+01 0.  0.
     999903    2    3    3    0    0 -0.28749436137E-01 -0.63815673095E-01 -0.11070974818E+00  0.13240960217E+00  0.19408353717E-01 0.  0.
         14    1    1    2    0    0  0.10593094661E-01  0.19817665386E-01 -0.39196011468E-02  0.22810453503E-01  0.00000000000E+00 0.  1.
     999901    1    3    3    0    0  0.18156341476E-01  0.43998007710E-01  0.11462934933E+00  0.88870994433E+00  0.88000000000E+00 0. -1.
        -11    1    4    4    0    0  0.21754876036E-02 -0.12139239098E-01 -0.21007827825E-01  0.24365627903E-01  0.51100000000E-03 0. -1.
         11    1    4    4    0    0 -0.30924923741E-01 -0.51676433997E-01 -0.89701920355E-01  0.10804397427E+00  0.51100000000E-03 0.  1.
</event>
<event>
 8    1  0.1233916E+005  0.1043930E+01  0.7957747E-01            NaN
         13   -1    0    0    0    0  0.00000000000E+00  0.00000000000E+00  0.74505805969E-08  0.10566000000E+00  0.10566000000E+00 0.  1.
     999900   -1    0    0    0    0 -0.00000000000E+00 -0.00000000000E+00 -0.74505805969E-08  0.93827000000E+00  0.93827000000E+00 0. -1.
     999902    2    1    2    0    0  0.15984153804E-01  0.14674953102E-01 -0.99958713990E-02  0.10200393142E+01  0.10197594999E+01 0.  0.
     999903    2    3    3    0    0 -0.12655962559E+00  0.97127382931E-02  0.54795362565E-03  0.12849317136E+00  0.19962933595E-01 0.  0.
         14    1    1    2    0    0 -0.15984153804E-01 -0.14674953102E-01  0.99958713990E-02  0.23890685767E-01  0.00000000000E+00 0.  1.
     999901    1    3    3    0    0  0.14254377940E+00  0.49622148094E-02 -0.10543825025E-01  0.89154614287E+00  0.88000000000E+00 0.  1.
        -11    1    4    4    0    0 -0.10091748225E+00  0.14459636090E-01 -0.39474227485E-02  0.10202579363E+00  0.51100000000E-03 0. -1.
         11    1    4    4    0    0 -0.25642143346E-01 -0.47468977966E-02  0.44953763741E-02  0.26467377728E-01  0.51100000000E-03 0.  1.
</event>
<event>
 8    1  0.1233916E+005  0.1043930E+01  0.7957747E-01            NaN
         13   -1    0    0    0    0  0.00000000000E+00  0.00000000000E+00  0.74505805969E-08  0.10566000000E+00  0.10566000000E+00 0.  1.
     999900   -1    0    0    0    0 -0.00000000000E+00 -0.00000000000E+00 -0.74505805969E-08  0.93827000000E+00  0.93827000000E+00 0.  1.
     999902    2    1    2    0    0 -0.48292932203E-03 -0.12802771472E-01  0.18289072201E-01  0.10215998782E+01  0.10213558032E+01 0.  0.
     999903    2    3    3    0    0  0.10368021653E+00 -0.16420776200E-01 -0.74917896310E-01  0.13056082748E+00  0.20352132433E-01 0.  0.
         14    1    1    2    0    0  0.48292932203E-03  0.12802771472E-01 -0.18289072201E-01  0.22330121811E-01  0.00000000000E+00 0. -1.
     999901    1    3    3    0    0 -0.10416314585E+00  0.36180047280E-02  0.93206968511E-01  0.89103905071E+00  0.88000000000E+00 0. -1.
        -11    1    4    4    0    0  0.23146598870E-01 -0.10894948393E-01 -0.24244876685E-01  0.35249682356E-01  0.51100000000E-03 0. -1.
         11    1    4    4    0    0  0.80533617657E-01 -0.55258278071E-02 -0.50673019625E-01  0.95311145123E-01  0.51100000000E-03 0.  1.
</event>
<event>
 8    1  0.1233916E+005  0.1043930E+01  0.7957747E-01            NaN
         13   -1    0    0    0    0  0.00000000000E+00  0.00000000000E+00  0.74505805969E-08  0.10566000000E+00  0.10566000000E+00 0.  1.
     999900   -1    0    0    0    0 -0.00000000000E+00 -0.00000000000E+00 -0.74505805969E-08  0.93827000000E+00  0.93827000000E+00 0.  1.
     999902    2    1    2    0    0 -0.72637120259E-03 -0.23761927270E-01  0.33169541289E-02  0.10199266880E+01  0.10196441977E+01 0.  0.
     999903    2    3    3    0    0 -0.94147295797E-01  0.55710286509E-01  0.65775645388E-01  0.12922786682E+00  0.20150848837E-01 0.  0.
         14    1    1    2    0    0  0.72637120259E-03  0.23761927270E-01 -0.33169541289E-02  0.24003312009E-01  0.00000000000E+00 0. -1.
     999901    1    3    3    0    0  0.93420924595E-01 -0.79472213779E-01 -0.62458691259E-01  0.89069882117E+00  0.88000000000E+00 0.  1.
        -11    1    4    4    0    0 -0.11707174395E-01  0.61404514945E-02  0.10255781645E-02  0.13269363528E-01  0.51100000000E-03 0.  1.
         11    1    4    4    0    0 -0.82440121402E-01  0.49569835014E-01  0.64750067223E-01  0.11595850330E+00  0.51100000000E-03 0. -1.
</event>
<event>
 8    1  0.1233916E+005  0.1043930E+01  0.7957747E-01            NaN
         13   -1    0    0    0    0  0.00000000000E+00  0.00000000000E+00  0.74505805969E-08  0.10566000000E+00  0.10566000000E+00 0. -1.
     999900   -1    0    0    0    0 -0.00000000000E+00 -0.00000000000E+00 -0.74505805969E-08  0.93827000000E+00  0.93827000000E+00 0. -1.
     999902    2    1    2    0    0  0.11491075920E-01  0.97587696069E-02 -0.17887631018E-01  0.10205367156E+01  0.10202685638E+01 0.  0.
     999903    2    3    3    0    0 -0.36364658873E-01  0.10539804019E+00 -0.68975614571E-01  0.13259132120E+00  0.19791103080E-01 0.  0.
         14    1    1    2    0    0 -0.11491075920E-01 -0.97587696069E-02  0.17887631018E-01  0.23393284367E-01  0.00000000000E+00 0. -1.
     999901    1    3    3    0    0  0.47855734793E-01 -0.95639270585E-01  0.51087983553E-01  0.88794539443E+00  0.88000000000E+00 0. -1.
        -11    1    4    4    0    0 -0.28635712919E-01  0.52866021614E-01 -0.37604524620E-01  0.70916723617E-01  0.51100000000E-03 0.  1.
         11    1    4    4    0    0 -0.77289459538E-02  0.52532018577E-01 -0.31371089951E-01  0.61674597584E-01  0.51100000000E-03 0. -1.
</event>
<event>
 8    1  0.1233916E+005  0.1043930E+01  0.7957747E-01            NaN
         13   -1    0    0    0    0  0.00000000000E+00  0.00000000000E+00  0.74505805969E-08  0.10566000000E+00  0.10566000000E+00 0. -1.
     999900   -1    0    0    0    0 -0.00000000000E+00 -0.00000000000E+00 -0.74505805969E-08  0.93827000000E+00  0.93827000000E+00 0.  1.
     999902    2    1    2    0    0 -0.16126998809E-01 -0.13382472714E-01 -0.28175779594E-02  0.10227850381E+01  0.10225664403E+01 0.  0.
     999903    2    3    3    0    0 -0.38863032107E-01  0.58905263583E-01  0.11017988285E+00  0.13232960962E+00  0.19782660459E-01 0.  0.
         14    1    1    2    0    0  0.16126998809E-01  0.13382472714E-01  0.28175779594E-02  0.21144961860E-01  0.00000000000E+00 0.  1.
     999901    1    3    3    0    0  0.22736033298E-01 -0.72287736297E-01 -0.11299746081E+00  0.89045542852E+00  0.88000000000E+00 0.  1.
        -11    1    4    4    0    0 -0.20543763954E-01  0.47203156005E-01  0.79956321233E-01  0.95097100904E-01  0.51100000000E-03 0. -1.
         11    1    4    4    0    0 -0.18319268153E-01  0.11702107578E-01  0.30223561618E-01  0.37232508716E-01  0.51100000000E-03 0.  1.
</event>
<event>
 8    1  0.1233916E+005  0.1043930E+01  0.7957747E-01            NaN
         13   -1    0    0    0    0  0.00000000000E+00  0.00000000000E+00  0.74505805969E-08  0.10566000000E+00  0.10566000000E+00 0.  1.
     999900   -1    0    0    0    0 -0.00000000000E+00 -0.00000000000E+00 -0.74505805969E-08  0.93827000000E+00  0.93827000000E+00 0.  1.
     999902    2    1    2    0    0  0.64448315883E-02  0.18588290991E-01 -0.88699723836E-02  0.10223490634E+01  0.10221212602E+01 0.  0.
     999903    2    3    3    0    0  0.92098409596E-02  0.92458253578E-01 -0.95988728612E-01  0.13496296118E+00  0.19178504782E-01 0.  0.
         14    1    1    2    0    0 -0.64448315883E-02 -0.18588290991E-01  0.88699723836E-02  0.21580936640E-01  0.00000000000E+00 0.  1.
     999901    1    3    3    0    0 -0.27650093713E-02 -0.73869962587E-01  0.87118756229E-01  0.88738610218E+00  0.88000000000E+00 0. -1.
        -11    1    4    4    0    0 -0.56034708099E-02  0.36148235326E-01 -0.39442748430E-01  0.53796703682E-01  0.51100000000E-03 0.  1.
         11    1    4    4    0    0  0.14813311769E-01  0.56310018252E-01 -0.56545980182E-01  0.81166257502E-01  0.51100000000E-03 0. -1.
</event>
<event>
 8    1  0.1233916E+005  0.1043930E+01  0.7957747E-01            NaN
         13   -1    0    0    0    0  0.00000000000E+00  0.00000000000E+00  0.74505805969E-08  0.10566000000E+00  0.10566000000E+00 0. -1.
     999900   -1    0    0    0    0 -0.00000000000E+00 -0.00000000000E+00 -0.74505805969E-08  0.93827000000E+00  0.93827000000E+00 0. -1.
     999902    2    1    2    0    0 -0.28004853827E-01 -0.88652132413E-02 -0.13923973196E-01  0.10114224490E+01  0.10108999107E+01 0.  0.
     999903    2    3    3    0    0 -0.81647596900E-01  0.65172560735E-01 -0.66004819366E-01  0.12515412031E+00  0.19827377535E-01 0.  0.
         14    1    1    2    0    0  0.28004853827E-01  0.88652132413E-02  0.13923973196E-01  0.32507551019E-01  0.00000000000E+00 0.  1.
     999901    1    3    3    0    0  0.53642743073E-01 -0.74037773976E-01  0.52080846170E-01  0.88626832867E+00  0.88000000000E+00 0.  1.
        -11    1    4    4    0    0 -0.75030697477E-01  0.62185979726E-01 -0.54829114805E-01  0.11181768460E+00  0.51100000000E-03 0.  1.
         11    1    4    4    0    0 -0.66168994236E-02  0.29865810086E-02 -0.11175704561E-01  0.13336435713E-01  0.51100000000E-03 0. -1.
</event>
<event>
 8    1  0.1233916E+005  0.1043930E+01  0.7957747E-01            NaN
         13   -1    0    0    0    0  0.00000000000E+00  0.00000000000E+00  0.74505805969E-08  0.10566000000E+00  0.10566000000E+00 0.  1.
     999900   -1    0    0    0    0 -0.00000000000E+00 -0.00000000000E+00 -0.74505805969E-08  0.93827000000E+00  0.93827000000E+00 0.  1.
     999902    2    1    2    0    0  0.11315148882E-01  0.19895280567E-01 -0.43534669786E-02  0.10206317714E+01  0.10203658193E+01 0.  0.
     999903    2    3    3    0    0 -0.22457170368E-01  0.12396425630E+00  0.37594111802E-01  0.13286461685E+00  0.19189263361E-01 0.  0.
         14    1    1    2    0    0 -0.11315148882E-01 -0.19895280567E-01  0.43534669786E-02  0.23298228641E-01  0.00000000000E+00 0. -1.
     999901    1    3    3    0    0  0.33772319250E-01 -0.10406897573E+00 -0.41947578781E-01  0.88776715451E+00  0.88000000000E+00 0.  1.
        -11    1    4    4    0    0 -0.53757894660E-02  0.48504071936E-01  0.23707590174E-01  0.54257304206E-01  0.51100000000E-03 0.  1.
         11    1    4    4    0    0 -0.17081380902E-01  0.75460184362E-01  0.13886521628E-01  0.78607312646E-01  0.51100000000E-03 0. -1.
</event>
<event>
 8    1  0.1233916E+005  0.1043930E+01  0.7957747E-01            NaN
         13   -1    0    0    0    0  0.00000000000E+00  0.00000000000E+00  0.74505805969E-08  0.10566000000E+00  0.10566000000E+00 0.  1.
     999900   -1    0    0    0    0 -0.00000000000E+00 -0.00000000000E+00 -0.74505805969E-08  0.93827000000E+00  0.93827000000E+00 0. -1.
     999902    2    1    2    0    0 -0.11647195324E-01 -0.17042188608E-01 -0.11456583539E-01  0.10203218095E+01  0.10200486500E+01 0.  0.
     999903    2    3    3    0    0 -0.11937532190E-02 -0.86975397192E-01  0.95892035584E-01  0.13098292352E+00  0.19877097441E-01 0.  0.
         14    1    1    2    0    0  0.11647195324E-01  0.17042188608E-01  0.11456583539E-01  0.23608190483E-01  0.00000000000E+00 0.  1.
     999901    1    3    3    0    0 -0.10453442105E-01  0.69933208584E-01 -0.10734861912E+00  0.88933888599E+00  0.88000000000E+00 0. -1.
        -11    1    4    4    0    0  0.66773167841E-02 -0.61660531782E-01  0.59435579472E-01  0.85903765734E-01  0.51100000000E-03 0. -1.
         11    1    4    4    0    0 -0.78710700031E-02 -0.25314865410E-01  0.36456456112E-01  0.45079157789E-01  0.51100000000E-03 0.  1.
</event>
<event>
 8    1  0.1233916E+005  0.1043930E+01  0.7957747E-01            NaN
         13   -1    0    0    0    0  0.00000000000E+00  0.00000000000E+00  0.74505805969E-08  0.10566000000E+00  0.10566000000E+00 0.  1.
     999900   -1    0    0    0    0 -0.00000000000E+00 -0.00000000000E+00 -0.74505805969E-08  0.93827000000E+00  0.93827000000E+00 0.  1.
     999902    2    1    2    0    0  0.17584866152E-01 -0.97902672162E-02 -0.11042876464E-01  0.10209730409E+01  0.10207149104E+01 0.  0.
     999903    2    3    3    0    0 -0.11085995474E-01 -0.11741522003E+00 -0.57829353221E-01  0.13271962934E+00  0.19000861238E-01 0.  0.
         14    1    1    2    0    0 -0.17584866152E-01  0.97902672162E-02  0.11042876464E-01  0.22956959083E-01  0.00000000000E+00 0.  1.
     999901    1    3    3    0    0  0.28670861625E-01  0.10762495281E+00  0.46786476757E-01  0.88825341158E+00  0.88000000000E+00 0.  1.
        -11    1    4    4    0    0 -0.51227594653E-02 -0.71854043520E-01 -0.45270057951E-01  0.85081640221E-01  0.51100000000E-03 0.  1.
         11    1    4    4    0    0 -0.59632360082E-02 -0.45561176508E-01 -0.12559295270E-01  0.47637989117E-01  0.51100000000E-03 0. -1.
</event>
<event>
 8    1  0.1233916E+005  0.1043930E+01  0.7957747E-01            NaN
         13   -1    0    0    0    0  0.00000000000E+00  0.00000000000E+00  0.74505805969E-08  0.10566000000E+00  0.10566000000E+00 0. -1.
     999900   -1    0    0    0    0 -0.00000000000E+00 -0.00000000000E+00 -0.74505805969E-08  0.93827000000E+00  0.93827000000E+00 0. -1.
     999902    2    1    2    0    0 -0.54582103894E-02  0.19324299055E-01  0.11674353508E-01  0.10207026212E+01  0.10204383028E+01 0.  0.
     999903    2    3    3    0    0 -0.36634290494E-01 -0.18842763530E-01  0.12373335185E+00  0.13222870955E+00  0.21848759492E-01 0.  0.
         14    1    1    2    0    0  0.54582103894E-02 -0.19324299055E-01 -0.11674353508E-01  0.23227378769E-01  0.00000000000E+00 0.  1.
     999901    1    3    3    0    0  0.31176080105E-01  0.38167062585E-01 -0.11205899834E+00  0.88847391169E+00  0.88000000000E+00 0. -1.
        -11    1    4    4    0    0 -0.16807461418E-01 -0.16359070010E-01  0.42216790101E-01  0.48297292039E-01  0.51100000000E-03 0. -1.
         11    1    4    4    0    0 -0.19826829076E-01 -0.24836935204E-02  0.81516561746E-01  0.83931417507E-01  0.51100000000E-03 0.  1.
</event>
<event>
 8    1  0.1233916E+005  0.1043930E+01  0.7957747E-01            NaN
         13   -1    0    0    0    0  0.00000000000E+00  0.00000000000E+00  0.74505805969E-08  0.10566000000E+00  0.10566000000E+00 0.  1.
     999900   -1    0    0    0    0 -0.00000000000E+00 -0.00000000000E+00 -0.74505805969E-08  0.93827000000E+00  0.93827000000E+00 0. -1.
     999902    2    1    2    0    0 -0.78659174352E-02  0.62596343375E-02 -0.20272427111E-01  0.10213019868E+01  0.10210512824E+01 0.  0.
     999903    2    3    3    0    0 -0.12963039968E+00  0.19620745052E-01 -0.10901893501E-02  0.13261021424E+00  0.19881304028E-01 0.  0.
         14    1    1    2    0    0  0.78659174352E-02 -0.62596343375E-02  0.20272427111E-01  0.22628013172E-01  0.00000000000E+00 0.  1.
     999901    1    3    3    0    0  0.12176448225E+00 -0.13361110714E-01 -0.19182237761E-01  0.88869177259E+00  0.88000000000E+00 0.  1.
        -11    1    4    4    0    0 -0.11179933265E-01 -0.17561235770E-02  0.43183784752E-02  0.12123711951E-01  0.51100000000E-03 0. -1.
         11    1    4    4    0    0 -0.11845046642E+00  0.21376868629E-01 -0.54085678253E-02  0.12048650229E+00  0.51100000000E-03 0.  1.
</event>
<event>
 8    1  0.1233916E+005  0.1043930E+01  0.7957747E-01            NaN
         13   -1    0    0    0    0  0.00000000000E+00  0.00000000000E+00  0.74505805969E-08  0.10566000000E+00  0.10566000000E+00 0.  1.
     999900   -1    0    0    0    0 -0.00000000000E+00 -0.00000000000E+00 -0.74505805969E-08  0.93827000000E+00  0.93827000000E+00 0.  1.
     999902    2    1    2    0    0  0.14561870050E-01  0.76918433334E-02 -0.17106337861E-01  0.10201846992E+01  0.10199083200E+01 0.  0.
     999903    2    3    3    0    0  0.78391012935E-02  0.12547817726E+00  0.29757217226E-01  0.13107558958E+00  0.22115463568E-01 0.  0.
         14    1    1    2    0    0 -0.14561870050E-01 -0.76918433334E-02  0.17106337861E-01  0.23745300761E-01  0.00000000000E+00 0.  1.
     999901    1    3    3    0    0  0.67227687569E-02 -0.11778633393E+00 -0.46863555087E-01  0.88910910966E+00  0.88000000000E+00 0. -1.
        -11    1    4    4    0    0  0.44368698384E-02  0.40837073790E-01 -0.61263695742E-03  0.41085141533E-01  0.51100000000E-03 0.  1.
         11    1    4    4    0    0  0.34022314551E-02  0.84641103472E-01  0.30369854184E-01  0.89990448049E-01  0.51100000000E-03 0. -1.
</event>
<event>
 8    1  0.1233916E+005  0.1043930E+01  0.7957747E-01            NaN
         13   -1    0    0    0    0  0.00000000000E+00  0.00000000000E+00  0.74505805969E-08  0.10566000000E+00  0.10566000000E+00 0.  1.
     999900   -1    0    0    0    0 -0.00000000000E+00 -0.00000000000E+00 -0.74505805969E-08  0.93827000000E+00  0.93827000000E+00 0. -1.
     999902    2    1    2    0    0  0.13047790270E-01 -0.59289390844E-02  0.19800436026E-01  0.10194871193E+01  0.10191940600E+01 0.  0.
     999903    2    3    3    0    0 -0.28571978053E-02  0.42877143866E-01 -0.11806104530E+00  0.12727593892E+00  0.20350458633E-01 0.  0.
         14    1    1    2    0    0 -0.13047790270E-01  0.59289390844E-02 -0.19800436026E-01  0.24442880690E-01  0.00000000000E+00 0. -1.
     999901    1    3    3    0    0  0.15904988076E-01 -0.48806082950E-01  0.13786148132E+00  0.89221118039E+00  0.88000000000E+00 0.  1.
        -11    1    4    4    0    0  0.82835724084E-02  0.17926130258E-01 -0.58464952036E-01  0.61712036552E-01  0.51100000000E-03 0. -1.
         11    1    4    4    0    0 -0.11140770214E-01  0.24951013608E-01 -0.59596093260E-01  0.65563902369E-01  0.51100000000E-03 0.  1.
</event>
<event>
 8    1  0.1233916E+005  0.1043930E+01  0.7957747E-01            NaN
         13   -1    0    0    0    0  0.00000000000E+00  0.00000000000E+00  0.74505805969E-08  0.10566000000E+00  0.10566000000E+00 0. -1.
     999900   -1    0    0    0    0 -0.00000000000E+00 -0.00000000000E+00 -0.74505805969E-08  0.93827000000E+00  0.93827000000E+00 0. -1.
     999902    2    1    2    0    0 -0.23050704712E-01  0.10458882340E-02 -0.21430158431E-02  0.10207562781E+01  0.10204931935E+01 0.  0.
     999903    2    3    3    0    0  0.11011299406E+00  0.14268591232E-01  0.60994305953E-01  0.12840335915E+00  0.20944047524E-01 0.  0.
         14    1    1    2    0    0  0.23050704712E-01 -0.10458882340E-02  0.21430158431E-02  0.23173721902E-01  0.00000000000E+00 0. -1.
     999901    1    3    3    0    0 -0.13316369877E+00 -0.13222702998E-01 -0.63137321796E-01  0.89235291894E+00  0.88000000000E+00 0. -1.
        -11    1    4    4    0    0  0.73790159716E-01  0.19091469066E-01  0.43993729314E-01  0.88006711119E-01  0.51100000000E-03 0. -1.
         11    1    4    4    0    0  0.36322834344E-01 -0.48228778342E-02  0.17000576639E-01  0.40396648035E-01  0.51100000000E-03 0.  1.
</event>
<event>
 8    1  0.1233916E+005  0.1043930E+01  0.7957747E-01            NaN
         13   -1    0    0    0    0  0.00000000000E+00  0.00000000000E+00  0.74505805969E-08  0.10566000000E+00  0.10566000000E+00 0.  1.
     999900   -1    0    0    0    0 -0.00000000000E+00 -0.00000000000E+00 -0.74505805969E-08  0.93827000000E+00  0.93827000000E+00 0. -1.
     999902    2    1    2    0    0 -0.13764956107E-01 -0.14902918178E-01 -0.11914841283E-01  0.10204026876E+01  0.10201314182E+01 0.  0.
     999903    2    3    3    0    0  0.37399230772E-02  0.89525991337E-01 -0.92768646255E-01  0.13037507244E+00  0.19045934893E-01 0.  0.
         14    1    1    2    0    0  0.13764956107E-01  0.14902918178E-01  0.11914841283E-01  0.23527312419E-01  0.00000000000E+00 0.  1.
     999901    1    3    3    0    0 -0.17504879184E-01 -0.10442890951E+00  0.80853804971E-01  0.89002761514E+00  0.88000000000E+00 0.  1.
        -11    1    4    4    0    0 -0.17095974017E-02  0.33552423208E-01 -0.22799871018E-01  0.40605209836E-01  0.51100000000E-03 0. -1.
         11    1    4    4    0    0  0.54495204789E-02  0.55973568129E-01 -0.69968775237E-01  0.89769862603E-01  0.51100000000E-03 0.  1.
</event>
<event>
 8    1  0.1233916E+005  0.1043930E+01  0.7957747E-01            NaN
         13   -1    0    0    0    0  0.00000000000E+00  0.00000000000E+00  0.74505805969E-08  0.10566000000E+00  0.10566000000E+00 0. -1.
     999900   -1    0    0    0    0 -0.00000000000E+00 -0.00000000000E+00 -0.74505805969E-08  0.93827000000E+00  0.93827000000E+00 0.  1.
     999902    2    1    2    0    0  0.22004656082E-01  0.81465906745E-02  0.92349358012E-02  0.10187138173E+01  0.10184016819E+01 0.  0.
     999903    2    3    3    0    0 -0.81904581083E-01  0.48400791096E-01  0.84007248167E-01  0.12854055953E+00  0.20358308333E-01 0.  0.
         14    1    1    2    0    0 -0.22004656082E-01 -0.81465906745E-02 -0.92349358012E-02  0.25216182664E-01  0.00000000000E+00 0. -1.
     999901    1    3    3    0    0  0.10390923716E+00 -0.40254200421E-01 -0.74772312365E-01  0.89017325781E+00  0.88000000000E+00 0.  1.
        -11    1    4    4    0    0 -0.24047096123E-01  0.13356642585E-01  0.37250335801E-01  0.46308869251E-01  0.51100000000E-03 0.  1.
         11    1    4    4    0    0 -0.57857484960E-01  0.35044148511E-01  0.46756912366E-01  0.82231690277E-01  0.51100000000E-03 0. -1.
</event>
<event>
 8    1  0.1233916E+005  0.1043930E+01  0.7957747E-01            NaN
         13   -1    0    0    0    0  0.00000000000E+00  0.00000000000E+00  0.74505805969E-08  0.10566000000E+00  0.10566000000E+00 0.  1.
     999900   -1    0    0    0    0 -0.00000000000E+00 -0.00000000000E+00 -0.74505805969E-08  0.93827000000E+00  0.93827000000E+00 0. -1.
     999902    2    1    2    0    0  0.52679600669E-03  0.21583912186E-01  0.14204761844E-01  0.10180858897E+01  0.10177578104E+01 0.  0.
     999903    2    3    3    0    0 -0.87075589082E-01  0.94055849837E-01 -0.13557053070E-01  0.13033757062E+00  0.19375952235E-01 0.  0.
         14    1    1    2    0    0 -0.52679600669E-03 -0.21583912186E-01 -0.14204761844E-01  0.25844110322E-01  0.00000000000E+00 0. -1.
     999901    1    3    3    0    0  0.87602385089E-01 -0.72471937652E-01  0.27761814914E-01  0.88774831906E+00  0.88000000000E+00 0. -1.
        -11    1    4    4    0    0 -0.55128604889E-01  0.45468130045E-01 -0.64235716725E-02  0.71749824535E-01  0.51100000000E-03 0.  1.
         11    1    4    4    0    0 -0.31946984193E-01  0.48587719792E-01 -0.71334813979E-02  0.58587746087E-01  0.51100000000E-03 0. -1.
</event>
<event>
 8    1  0.1233916E+005  0.1043930E+01  0.7957747E-01            NaN
         13   -1    0    0    0    0  0.00000000000E+00  0.00000000000E+00  0.74505805969E-08  0.10566000000E+00  0.10566000000E+00 0.  1.
     999900   -1    0    0    0    0 -0.00000000000E+00 -0.00000000000E+00 -0.74505805969E-08  0.93827000000E+00  0.93827000000E+00 0. -1.
     999902    2    1    2    0    0 -0.30634836181E-02 -0.22688154674E-01 -0.43443762606E-02  0.10206274057E+01  0.10203613529E+01 0.  0.
     999903    2    3    3    0    0  0.18085397076E-01 -0.66672255467E-01 -0.11148458107E+00  0.13278682333E+00  0.20766737754E-01 0.  0.
         14    1    1    2    0    0  0.30634836181E-02  0.22688154674E-01  0.43443762606E-02  0.23302594265E-01  0.00000000000E+00 0.  1.
     999901    1    3    3    0    0 -0.21148880694E-01  0.43984100793E-01  0.10714020481E+00  0.88784058240E+00  0.88000000000E+00 0.  1.
        -11    1    4    4    0    0  0.17054898237E-01 -0.44622981857E-01 -0.90451669346E-01  0.10229294048E+00  0.51100000000E-03 0. -1.
         11    1    4    4    0    0  0.10304988387E-02 -0.22049273610E-01 -0.21032911726E-01  0.30493882850E-01  0.51100000000E-03 0.  1.
</event>
<event>
 8    1  0.1233916E+005  0.1043930E+01  0.7957747E-01            NaN
         13   -1    0    0    0    0  0.00000000000E+00  0.00000000000E+00  0.74505805969E-08  0.10566000000E+00  0.10566000000E+00 0.  1.
     999900   -1    0    0    0    0 -0.00000000000E+00 -0.00000000000E+00 -0.74505805969E-08  0.93827000000E+00  0.93827000000E+00 0.  1.
     999902    2    1    2    0    0 -0.70918408355E-02 -0.61657372864E-02  0.23918732855E-01  0.10182314338E+01  0.10179070864E+01 0.  0.
     999903    2    3    3    0    0  0.10789567901E+00  0.22074886885E-01 -0.59095932624E-01  0.12642927119E+00  0.19059202026E-01 0.  0.
         14    1    1    2    0    0  0.70918408355E-02  0.61657372864E-02 -0.23918732855E-01  0.25698566188E-01  0.00000000000E+00 0. -1.
     999901    1    3    3    0    0 -0.11498751984E+00 -0.28240624171E-01  0.83014665479E-01  0.89180216262E+00  0.88000000000E+00 0. -1.
        -11    1    4    4    0    0  0.37674741962E-01  0.15963283245E-01 -0.16872817637E-01  0.44262463667E-01  0.51100000000E-03 0. -1.
         11    1    4    4    0    0  0.70220937044E-01  0.61116036401E-02 -0.42223114987E-01  0.82166807524E-01  0.51100000000E-03 0.  1.
</event>
<event>
 8    1  0.1233916E+005  0.1043930E+01  0.7957747E-01            NaN
         13   -1    0    0    0    0  0.00000000000E+00  0.00000000000E+00  0.74505805969E-08  0.10566000000E+00  0.10566000000E+00 0.  1.
     999900   -1    0    0    0    0 -0.00000000000E+00 -0.00000000000E+00 -0.74505805969E-08  0.93827000000E+00  0.93827000000E+00 0. -1.
     999902    2    1    2    0    0  0.71098687841E-02  0.11280290753E-01 -0.19821297512E-01  0.10200411108E+01  0.10197613391E+01 0.  0.
     999903    2    3    3    0    0 -0.42581689684E-01  0.12256940487E+00 -0.74033292663E-02  0.13155435013E+00  0.20378381819E-01 0.  0.
         14    1    1    2    0    0 -0.71098687841E-02 -0.11280290753E-01  0.19821297512E-01  0.23888889230E-01  0.00000000000E+00 0.  1.
     999901    1    3    3    0    0  0.49691558468E-01 -0.11128911412E+00 -0.12417968246E-01  0.88848676064E+00  0.88000000000E+00 0.  1.
        -11    1    4    4    0    0 -0.24487043992E-01  0.61803709763E-01 -0.13569416541E-01  0.67850600957E-01  0.51100000000E-03 0.  1.
         11    1    4    4    0    0 -0.18094645692E-01  0.60765695110E-01  0.61660872747E-02  0.63703749169E-01  0.51100000000E-03 0. -1.
</event>
<event>
 8    1  0.1233916E+005  0.1043930E+01  0.7957747E-01            NaN
         13   -1    0    0    0    0  0.00000000000E+00  0.00000000000E+00  0.74505805969E-08  0.10566000000E+00  0.10566000000E+00 0.  1.
     999900   -1    0    0    0    0 -0.00000000000E+00 -0.00000000000E+00 -0.74505805969E-08  0.93827000000E+00  0.93827000000E+00 0.  1.
     999902    2    1    2    0    0 -0.30385336787E-02  0.15111808470E-02  0.23342281515E-01  0.10203423240E+01  0.10200696445E+01 0.  0.
     999903    2    3    3    0    0  0.11750871909E+00  0.52501986629E-01  0.81640783372E-02  0.13053218676E+00  0.20180236451E-01 0.  0.
         14    1    1    2    0    0  0.30385336787E-02 -0.15111808470E-02 -0.23342281515E-01  0.23587676036E-01  0.00000000000E+00 0. -1.
     999901    1    3    3    0    0 -0.12054725277E+00 -0.50990805782E-01  0.15178203178E-01  0.88981013721E+00  0.88000000000E+00 0. -1.
        -11    1    4    4    0    0  0.58297711140E-01  0.15464702286E-01  0.10137881487E-02  0.60324696670E-01  0.51100000000E-03 0. -1.
         11    1    4    4    0    0  0.59211007947E-01  0.37037284343E-01  0.71502901884E-02  0.70207490087E-01  0.51100000000E-03 0.  1.
</event>
<event>
 8    1  0.1233916E+005  0.1043930E+01  0.7957747E-01            NaN
         13   -1    0    0    0    0  0.00000000000E+00  0.00000000000E+00  0.74505805969E-08  0.10566000000E+00  0.10566000000E+00 0. -1.
     999900   -1    0    0    0    0 -0.00000000000E+00 -0.00000000000E+00 -0.74505805969E-08  0.93827000000E+00  0.93827000000E+00 0. -1.
     999902    2    1    2    0    0  0.10194062910E-01  0.18899114449E-01  0.97303338089E-02  0.10203551227E+01  0.10200827425E+01 0.  0.
     999903    2    3    3    0    0  0.10602437213E+00  0.56925157504E-01  0.53318094075E-01  0.13326475468E+00  0.20857484057E-01 0.  0.
         14    1    1    2    0    0 -0.10194062910E-01 -0.18899114449E-01 -0.97303338089E-02  0.23574877340E-01  0.00000000000E+00 0.  1.
     999901    1    3    3    0    0 -0.95830309223E-01 -0.38026043055E-01 -0.43587760266E-01  0.88709036798E+00  0.88000000000E+00 0.  1.
        -11    1    4    4    0    0  0.38730263134E-01  0.31358648255E-01  0.17180627871E-01  0.52714639312E-01  0.51100000000E-03 0. -1.
         11    1    4    4    0    0  0.67294109000E-01  0.25566509249E-01  0.36137466204E-01  0.80550115369E-01  0.51100000000E-03 0.  1.
</event>
<event>
 8    1  0.1233916E+005  0.1043930E+01  0.7957747E-01            NaN
         13   -1    0    0    0    0  0.00000000000E+00  0.00000000000E+00  0.74505805969E-08  0.10566000000E+00  0.10566000000E+00 0.  1.
     999900   -1    0    0    0    0 -0.00000000000E+00 -0.00000000000E+00 -0.74505805969E-08  0.93827000000E+00  0.93827000000E+00 0. -1.
     999902    2    1    2    0    0  0.11504103481E-01  0.97744946314E-02  0.16463687688E-01  0.10215930764E+01  0.10213488511E+01 0.  0.
     999903    2    3    3    0    0  0.55568681541E-02 -0.12511797400E+00 -0.31128351424E-01  0.13002347742E+00  0.15866449395E-01 0.  0.
         14    1    1    2    0    0 -0.11504103481E-01 -0.97744946314E-02 -0.16463687688E-01  0.22336923568E-01  0.00000000000E+00 0. -1.
     999901    1    3    3    0    0  0.59472353272E-02  0.13489246863E+00  0.47592039112E-01  0.89156959901E+00  0.88000000000E+00 0.  1.
        -11    1    4    4    0    0  0.10538883934E-03 -0.96495757446E-01 -0.29200675111E-01  0.10081856406E+00  0.51100000000E-03 0.  1.
         11    1    4    4    0    0  0.54514793147E-02 -0.28622216551E-01 -0.19276763131E-02  0.29204913354E-01  0.51100000000E-03 0. -1.
</event>
<event>
 8    1  0.1233916E+005  0.1043930E+01  0.7957747E-01            NaN
         13   -1    0    0    0    0  0.00000000000E+00  0.00000000000E+00  0.74505805969E-08  0.10566000000E+00  0.10566000000E+00 0. -1.
     999900   -1    0    0    0    0 -0.00000000000E+00 -0.00000000000E+00 -0.74505805969E-08  0.93827000000E+00  0.93827000000E+00 0. -1.
     999902    2    1    2    0    0  0.16520223010E-01 -0.16307472318E-01  0.16232341351E-02  0.10206601416E+01  0.10203948443E+01 0.  0.
     999903    2    3    3    0    0 -0.10608548679E+00  0.57374480921E-01  0.39119554238E-01  0.12832210904E+00  0.19755064546E-01 0.  0.
         14    1    1    2    0    0 -0.16520223010E-01  0.16307472318E-01 -0.16232341351E-02  0.23269858417E-01  0.00000000000E+00 0.  1.
     999901    1    3    3    0    0  0.12260570980E+00 -0.73681953239E-01 -0.37496320103E-01  0.89233803255E+00  0.88000000000E+00 0. -1.
        -11    1    4    4    0    0 -0.31328642971E-01  0.87292127224E-02  0.15642903340E-01  0.36092167724E-01  0.51100000000E-03 0.  1.
         11    1    4    4    0    0 -0.74756843819E-01  0.48645268199E-01  0.23476650898E-01  0.92229941311E-01  0.51100000000E-03 0. -1.
</event>
<event>
 8    1  0.1233916E+005  0.1043930E+01  0.7957747E-01            NaN
         13   -1    0    0    0    0  0.00000000000E+00  0.00000000000E+00  0.74505805969E-08  0.10566000000E+00  0.10566000000E+00 0.  1.
     999900   -1    0    0    0    0 -0.00000000000E+00 -0.00000000000E+00 -0.74505805969E-08  0.93827000000E+00  0.93827000000E+00 0.  1.
     999902    2    1    2    0    0  0.91126099982E-02 -0.25646152011E-02 -0.21005585804E-01  0.10208897841E+01  0.10206297565E+01 0.  0.
     999903    2    3    3    0    0 -0.40153191062E-01  0.65887706598E-01  0.10082981542E+00  0.12850158133E+00  0.19812523638E-01 0.  0.
         14    1    1    2    0    0 -0.91126099982E-02  0.25646152011E-02  0.21005585804E-01  0.23040215864E-01  0.00000000000E+00 0. -1.
     999901    1    3    3    0    0  0.49265801060E-01 -0.68452321799E-01 -0.12183540123E+00  0.89238820281E+00  0.88000000000E+00 0.  1.
        -11    1    4    4    0    0 -0.33684762916E-01  0.49774791654E-01  0.89337174496E-01  0.10767351116E+00  0.51100000000E-03 0.  1.
         11    1    4    4    0    0 -0.64684281463E-02  0.16112914944E-01  0.11492640927E-01  0.20828070174E-01  0.51100000000E-03 0. -1.
</event>
<event>
 8    1  0.1233916E+005  0.1043930E+01  0.7957747E-01            NaN
         13   -1    0    0    0    0  0.00000000000E+00  0.00000000000E+00  0.74505805969E-08  0.10566000000E+00  0.10566000000E+00 0. -1.
     999900   -1    0    0    0    0 -0.00000000000E+00 -0.00000000000E+00 -0.74505805969E-08  0.93827000000E+00  0.93827000000E+00 0. -1.
     999902    2    1    2    0    0 -0.17559159667E-01  0.14578753447E-01 -0.59451335236E-02  0.10203459216E+01  0.10200733263E+01 0.  0.
     999903    2    3    3    0    0 -0.10430221288E+00  0.27243089183E-01 -0.75792796329E-01  0.13323632373E+00  0.19652797876E-01 0.  0.
         14    1    1    2    0    0  0.17559159667E-01 -0.14578753447E-01  0.59451335236E-02  0.23584078377E-01  0.00000000000E+00 0.  1.
     999901    1    3    3    0    0  0.86743053215E-01 -0.12664335736E-01  0.69847662806E-01  0.88710959790E+00  0.88000000000E+00 0.  1.
        -11    1    4    4    0    0 -0.52415823047E-01  0.42110612602E-02 -0.40669337755E-01  0.66478625867E-01  0.51100000000E-03 0. -1.
         11    1    4    4    0    0 -0.51886389835E-01  0.23032027923E-01 -0.35123458574E-01  0.66757697860E-01  0.51100000000E-03 0.  1.
</event>
<event>
 8    1  0.1233916E+005  0.1043930E+01  0.7957747E-01            NaN
         13   -1    0    0    0    0  0.00000000000E+00  0.00000000000E+00  0.74505805969E-08  0.10566000000E+00  0.10566000000E+00 0.  1.
     999900   -1    0    0    0    0 -0.00000000000E+00 -0.00000000000E+00 -0.74505805969E-08  0.93827000000E+00  0.93827000000E+00 0.  1.
     999902    2    1    2    0    0 -0.61688762167E-02  0.12415355368E-01 -0.20703885128E-01  0.10190131996E+01  0.10187085226E+01 0.  0.
     999903    2    3    3    0    0 -0.10782260551E+00 -0.28715552025E-01 -0.65553034099E-01  0.13107363049E+00  0.20803825231E-01 0.  0.
         14    1    1    2    0    0  0.61688762167E-02 -0.12415355368E-01  0.20703885128E-01  0.24916800399E-01  0.00000000000E+00 0.  1.
     999901    1    3    3    0    0  0.10165372929E+00  0.41130907393E-01  0.44849148971E-01  0.88793956911E+00  0.88000000000E+00 0. -1.
        -11    1    4    4    0    0 -0.88337814395E-01 -0.27739160976E-01 -0.45779230367E-01  0.10329099456E+00  0.51100000000E-03 0.  1.
         11    1    4    4    0    0 -0.19484791116E-01 -0.97639104903E-03 -0.19773803732E-01  0.27782635932E-01  0.51100000000E-03 0. -1.
</event>
<event>
 8    1  0.1233916E+005  0.1043930E+01  0.7957747E-01            NaN
         13   -1    0    0    0    0  0.00000000000E+00  0.00000000000E+00  0.74505805969E-08  0.10566000000E+00  0.10566000000E+00 0.  1.
     999900   -1    0    0    0    0 -0.00000000000E+00 -0.00000000000E+00 -0.74505805969E-08  0.93827000000E+00  0.93827000000E+00 0.  1.
     999902    2    1    2    0    0  0.46357242415E-02  0.11537491797E-01 -0.20169452371E-01  0.10202358981E+01  0.10199607234E+01 0.  0.
     999903    2    3    3    0    0  0.34715737999E-01  0.97653724219E-01 -0.82548986140E-01  0.13332439239E+00  0.14819789981E-01 0.  0.
         14    1    1    2    0    0 -0.46357242415E-02 -0.11537491797E-01  0.20169452371E-01  0.23694101906E-01  0.00000000000E+00 0.  1.
     999901    1    3    3    0    0 -0.30080013758E-01 -0.86116232422E-01  0.62379533770E-01  0.88691150570E+00  0.88000000000E+00 0.  1.
        -11    1    4    4    0    0  0.23539978546E-01  0.44225456489E-01 -0.40181349701E-01  0.64224789422E-01  0.51100000000E-03 0. -1.
         11    1    4    4    0    0  0.11175759454E-01  0.53428267730E-01 -0.42367636440E-01  0.69099602969E-01  0.51100000000E-03 0.  1.
</event>
<event>
 8    1  0.1233916E+005  0.1043930E+01  0.7957747E-01            NaN
         13   -1    0    0    0    0  0.00000000000E+00  0.00000000000E+00  0.74505805969E-08  0.10566000000E+00  0.10566000000E+00 0. -1.
     999900   -1    0    0    0    0 -0.00000000000E+00 -0.00000000000E+00 -0.74505805969E-08  0.93827000000E+00  0.93827000000E+00 0.  1.
     999902    2    1    2    0    0  0.21360111843E-01 -0.98515942476E-02 -0.16308042113E-02  0.10203510304E+01  0.10200785545E+01 0.  0.
     999903    2    3    3    0    0  0.40722152695E-01 -0.18600060764E-01  0.12197199812E+00  0.13145898008E+00  0.20000978414E-01 0.  0.
         14    1    1    2    0    0 -0.21360111843E-01  0.98515942476E-02  0.16308042113E-02  0.23578969646E-01  0.00000000000E+00 0.  1.
     999901    1    3    3    0    0 -0.19362040852E-01  0.87484665163E-02 -0.12360280233E+00  0.88889205027E+00  0.88000000000E+00 0.  1.
        -11    1    4    4    0    0  0.14792098680E-01 -0.17566595515E-01  0.61618482875E-01  0.65760854725E-01  0.51100000000E-03 0. -1.
         11    1    4    4    0    0  0.25930054015E-01 -0.10334652492E-02  0.60353515247E-01  0.65698125357E-01  0.51100000000E-03 0.  1.
</event>
<event>
 8    1  0.1233916E+005  0.1043930E+01  0.7957747E-01            NaN
         13   -1    0    0    0    0  0.00000000000E+00  0.00000000000E+00  0.74505805969E-08  0.10566000000E+00  0.10566000000E+00 0.  1.
     999900   -1    0    0    0    0 -0.00000000000E+00 -0.00000000000E+00 -0.74505805969E-08  0.93827000000E+00  0.93827000000E+00 0.  1.
     999902    2    1    2    0    0 -0.21802640487E-01 -0.70367863674E-02 -0.48333385805E-02  0.10205156314E+01  0.10202469903E+01 0.  0.
     999903    2    3    3    0    0 -0.42940203706E-01 -0.92591171211E-01  0.81162011232E-01  0.13194287157E+00  0.20116242444E-01 0.  0.
         14    1    1    2    0    0  0.21802640487E-01  0.70367863674E-02  0.48333385805E-02  0.23414368589E-01  0.00000000000E+00 0.  1.
     999901    1    3    3    0    0  0.21137563220E-01  0.85554384844E-01 -0.85995349813E-01  0.88857275984E+00  0.88000000000E+00 0.  1.
        -11    1    4    4    0    0 -0.19430686319E-01 -0.22031358278E-01  0.27372679660E-01  0.40155410982E-01  0.51100000000E-03 0.  1.
         11    1    4    4    0    0 -0.23509517387E-01 -0.70559812933E-01  0.53789331572E-01  0.91787460587E-01  0.51100000000E-03 0. -1.
</event>
<event>
 8    1  0.1233916E+005  0.1043930E+01  0.7957747E-01            NaN
         13   -1    0    0    0    0  0.00000000000E+00  0.00000000000E+00  0.74505805969E-08  0.10566000000E+00  0.10566000000E+00 0. -1.
     999900   -1    0    0    0    0 -0.00000000000E+00 -0.00000000000E+00 -0.74505805969E-08  0.93827000000E+00  0.93827000000E+00 0.  1.
     999902    2    1    2    0    0 -0.18970725905E-01 -0.28975867901E-02 -0.12750101097E-01  0.10208898279E+01  0.10206298013E+01 0.  0.
     999903    2    3    3    0    0 -0.67774132488E-02 -0.12950790652E+00  0.73628465246E-02  0.13151736345E+00  0.20600344596E-01 0.  0.
         14    1    1    2    0    0  0.18970725905E-01  0.28975867901E-02  0.12750101097E-01  0.23040172060E-01  0.00000000000E+00 0. -1.
     999901    1    3    3    0    0 -0.12193312656E-01  0.12661031973E+00 -0.20112947621E-01  0.88937246449E+00  0.88000000000E+00 0.  1.
        -11    1    4    4    0    0 -0.10249874990E-01 -0.32864337321E-01  0.49203527699E-02  0.34779240895E-01  0.51100000000E-03 0.  1.
         11    1    4    4    0    0  0.34724617412E-02 -0.96643569200E-01  0.24424937547E-02  0.96738122553E-01  0.51100000000E-03 0. -1.
</event>
<event>
 8    1  0.1233916E+005  0.1043930E+01  0.7957747E-01            NaN
         13   -1    0    0    0    0  0.00000000000E+00  0.00000000000E+00  0.74505805969E-08  0.10566000000E+00  0.10566000000E+00 0.  1.
     999900   -1    0    0    0    0 -0.00000000000E+00 -0.00000000000E+00 -0.74505805969E-08  0.93827000000E+00  0.93827000000E+00 0.  1.
     999902    2    1    2    0    0  0.19105115837E-01 -0.12197545236E-01 -0.42300436009E-02  0.10208718381E+01  0.10206114006E+01 0.  0.
     999903    2    3    3    0    0 -0.10774952989E+00 -0.39910478827E-01  0.55818608570E-01  0.12931928864E+00  0.20123464923E-01 0.  0.
         14    1    1    2    0    0 -0.19105115837E-01  0.12197545236E-01  0.42300436009E-02  0.23058161891E-01  0.00000000000E+00 0.  1.
     999901    1    3    3    0    0  0.12685464573E+00  0.27712933591E-01 -0.60048652171E-01  0.89155254947E+00  0.88000000000E+00 0.  1.
        -11    1    4    4    0    0 -0.12808404792E-01  0.18074294342E-02  0.58951314137E-02  0.14224476435E-01  0.51100000000E-03 0.  1.
         11    1    4    4    0    0 -0.94941125099E-01 -0.41717908261E-01  0.49923477157E-01  0.11509481221E+00  0.51100000000E-03 0. -1.
</event>
<event>
 8    1  0.1233916E+005  0.1043930E+01  0.7957747E-01            NaN
         13   -1    0    0    0    0  0.00000000000E+00  0.00000000000E+00  0.74505805969E-08  0.10566000000E+00  0.10566000000E+00 0.  1.
     999900   -1    0    0    0    0 -0.00000000000E+00 -0.00000000000E+00 -0.74505805969E-08  0.93827000000E+00  0.93827000000E+00 0. -1.
     999902    2    1    2    0    0  0.23714211648E-02 -0.93890313892E-02  0.19542155852E-01  0.10221200618E+01  0.10218873457E+01 0.  0.
     999903    2    3    3    0    0 -0.10250828675E-01  0.76330669208E-01 -0.10246823779E+00  0.12948703283E+00  0.18322154997E-01 0.  0.
         14    1    1    2    0    0 -0.23714211648E-02  0.93890313892E-02 -0.19542155852E-01  0.21809938196E-01  0.00000000000E+00 0. -1.
     999901    1    3    3    0    0  0.12622249840E-01 -0.85719700597E-01  0.12201039365E+00  0.89263302898E+00  0.88000000000E+00 0.  1.
        -11    1    4    4    0    0  0.32952179368E-02  0.41822790409E-01 -0.50616486702E-01  0.65744156439E-01  0.51100000000E-03 0.  1.
         11    1    4    4    0    0 -0.13546046612E-01  0.34507878799E-01 -0.51851751092E-01  0.63742876389E-01  0.51100000000E-03 0. -1.
</event>
<event>
 8    1  0.1233916E+005  0.1043930E+01  0.7957747E-01            NaN
         13   -1    0    0    0    0  0.00000000000E+00  0.00000000000E+00  0.74505805969E-08  0.10566000000E+00  0.10566000000E+00 0.  1.
     999900   -1    0    0    0    0 -0.00000000000E+00 -0.00000000000E+00 -0.74505805969E-08  0.93827000000E+00  0.93827000000E+00 0.  1.
     999902    2    1    2    0    0 -0.18907411478E-01 -0.13163723504E-01 -0.14381947499E-02  0.10208466244E+01  0.10205856105E+01 0.  0.
     999903    2    3    3    0    0 -0.13082112801E+00  0.12968350706E-01 -0.86037660311E-02  0.13334512543E+00  0.20604660419E-01 0.  0.
         14    1    1    2    0    0  0.18907411478E-01  0.13163723504E-01  0.14381947499E-02  0.23083375608E-01  0.00000000000E+00 0.  1.
     999901    1    3    3    0    0  0.11191371653E+00 -0.26132074210E-01  0.71655712813E-02  0.88750149896E+00  0.88000000000E+00 0. -1.
        -11    1    4    4    0    0 -0.77948515356E-02  0.53865285059E-02  0.17559024217E-02  0.96498038385E-02  0.51100000000E-03 0. -1.
         11    1    4    4    0    0 -0.12302627648E+00  0.75818222000E-02 -0.10359668453E-01  0.12369532159E+00  0.51100000000E-03 0.  1.
</event>
<event>
 8    1  0.1233916E+005  0.1043930E+01  0.7957747E-01            NaN
         13   -1    0    0    0    0  0.00000000000E+00  0.00000000000E+00  0.74505805969E-08  0.10566000000E+00  0.10566000000E+00 0. -1.
     999900   -1    0    0    0    0 -0.00000000000E+00 -0.00000000000E+00 -0.74505805969E-08  0.93827000000E+00  0.93827000000E+00 0.  1.
     999902    2    1    2    0    0 -0.11265544454E-02 -0.23711910295E-01 -0.54868347420E-02  0.10195654936E+01  0.10192743334E+01 0.  0.
     999903    2    3    3    0    0 -0.90325010686E-01 -0.94759118067E-01  0.32587849264E-02  0.13216448159E+00  0.17858681408E-01 0.  0.
         14    1    1    2    0    0  0.11265544454E-02  0.23711910295E-01  0.54868347420E-02  0.24364506362E-01  0.00000000000E+00 0. -1.
     999901    1    3    3    0    0  0.89198456240E-01  0.71047207771E-01 -0.87456196684E-02  0.88740101205E+00  0.88000000000E+00 0.  1.
        -11    1    4    4    0    0 -0.17942462879E-01 -0.21559505268E-01 -0.63776393145E-02  0.28769422063E-01  0.51100000000E-03 0. -1.
         11    1    4    4    0    0 -0.72382547806E-01 -0.73199612798E-01  0.96364242409E-02  0.10339505952E+00  0.51100000000E-03 0.  1.
</event>
<event>
 8    1  0.1233916E+005  0.1043930E+01  0.7957747E-01            NaN
         13   -1    0    0    0    0  0.00000000000E+00  0.00000000000E+00  0.74505805969E-08  0.10566000000E+00  0.10566000000E+00 0. -1.
     999900   -1    0    0    0    0 -0.00000000000E+00 -0.00000000000E+00 -0.74505805969E-08  0.93827000000E+00  0.93827000000E+00 0.  1.
     999902    2    1    2    0    0  0.71399152150E-02  0.13164160941E-01  0.11258477581E-01  0.10251942897E+01  0.10250230753E+01 0.  0.
     999903    2    3    3    0    0 -0.21210139394E-01 -0.12972603374E+00  0.77792746867E-02  0.13321142094E+00  0.20150724810E-01 0.  0.
         14    1    1    2    0    0 -0.71399152150E-02 -0.13164160941E-01 -0.11258477581E-01  0.18735710288E-01  0.00000000000E+00 0.  1.
     999901    1    3    3    0    0  0.28350054609E-01  0.14289019468E+00  0.34792028941E-02  0.89198286877E+00  0.88000000000E+00 0.  1.
        -11    1    4    4    0    0 -0.10501223271E-01 -0.75551050020E-01 -0.52837271355E-02  0.76461858091E-01  0.51100000000E-03 0.  1.
         11    1    4    4    0    0 -0.10708916122E-01 -0.54174983721E-01  0.13063001822E-01  0.56749562847E-01  0.51100000000E-03 0. -1.
</event>
<event>
 8    1  0.1233916E+005  0.1043930E+01  0.7957747E-01            NaN
         13   -1    0    0    0    0  0.00000000000E+00  0.00000000000E+00  0.74505805969E-08  0.10566000000E+00  0.10566000000E+00 0.  1.
     999900   -1    0    0    0    0 -0.00000000000E+00 -0.00000000000E+00 -0.74505805969E-08  0.93827000000E+00  0.93827000000E+00 0.  1.
     999902    2    1    2    0    0  0.77332891524E-02  0.22017521690E-01  0.26079289491E-02  0.10204485964E+01  0.10201783969E+01 0.  0.
     999903    2    3    3    0    0 -0.33270706262E-02  0.13001835295E+00  0.22780881956E-01  0.13354755391E+00  0.20003476440E-01 0.  0.
         14    1    1    2    0    0 -0.77332891524E-02 -0.22017521690E-01 -0.26079289491E-02  0.23481403618E-01  0.00000000000E+00 0.  1.
     999901    1    3    3    0    0  0.11060359779E-01 -0.10800083126E+00 -0.20172953006E-01  0.88690104248E+00  0.88000000000E+00 0.  1.
        -11    1    4    4    0    0 -0.35404030482E-02  0.23980523329E-01  0.11729237370E-01  0.26933920679E-01  0.51100000000E-03 0.  1.
         11    1    4    4    0    0  0.21333242209E-03  0.10603782962E+00  0.11051644585E-01  0.10661363323E+00  0.51100000000E-03 0. -1.
</event>
<event>
 8    1  0.1233916E+005  0.1043930E+01  0.7957747E-01            NaN
         13   -1    0    0    0    0  0.00000000000E+00  0.00000000000E+00  0.74505805969E-08  0.10566000000E+00  0.10566000000E+00 0.  1.
     999900   -1    0    0    0    0 -0.00000000000E+00 -0.00000000000E+00 -0.74505805969E-08  0.93827000000E+00  0.93827000000E+00 0.  1.
     999902    2    1    2    0    0 -0.87820839258E-02  0.21340631558E-01  0.43148148753E-02  0.10204530926E+01  0.10201829978E+01 0.  0.
     999903    2    3    3    0    0  0.21884487814E-01 -0.10090237632E+00  0.74319187704E-01  0.12872196507E+00  0.19641341038E-01 0.  0.
         14    1    1    2    0    0  0.87820839258E-02 -0.21340631558E-01 -0.43148148753E-02  0.23476907394E-01  0.00000000000E+00 0. -1.
     999901    1    3    3    0    0 -0.30666571740E-01  0.12224300788E+00 -0.70004372828E-01  0.89173112753E+00  0.88000000000E+00 0. -1.
        -11    1    4    4    0    0  0.78488241441E-02 -0.76792120198E-01  0.55037146722E-01  0.94804970362E-01  0.51100000000E-03 0.  1.
         11    1    4    4    0    0  0.14035663670E-01 -0.24110256120E-01  0.19282040982E-01  0.33916994711E-01  0.51100000000E-03 0. -1.
</event>
<event>
 8    1  0.1233916E+005  0.1043930E+01  0.7957747E-01            NaN
         13   -1    0    0    0    0  0.00000000000E+00  0.00000000000E+00  0.74505805969E-08  0.10566000000E+00  0.10566000000E+00 0. -1.
     999900   -1    0    0    0    0 -0.00000000000E+00 -0.00000000000E+00 -0.74505805969E-08  0.93827000000E+00  0.93827000000E+00 0.  1.
     999902    2    1    2    0    0 -0.19534113193E-01 -0.72258253887E-02 -0.15420421234E-01  0.10180150714E+01  0.10176851685E+01 0.  0.
     999903    2    3    3    0    0  0.28249116738E-01  0.10259164137E+00 -0.68814859479E-01  0.12829934207E+00  0.20054396391E-01 0.  0.
         14    1    1    2    0    0  0.19534113193E-01  0.72258253887E-02  0.15420421234E-01  0.25914928551E-01  0.00000000000E+00 0. -1.
     999901    1    3    3    0    0 -0.47783229930E-01 -0.10981746676E+00  0.53394438244E-01  0.88971572938E+00  0.88000000000E+00 0. -1.
        -11    1    4    4    0    0  0.91236753455E-02  0.94141048643E-02 -0.71958725109E-02  0.14963573250E-01  0.51100000000E-03 0. -1.
         11    1    4    4    0    0  0.19125441392E-01  0.93177536508E-01 -0.61618986968E-01  0.11333576882E+00  0.51100000000E-03 0.  1.
</event>
<event>
 8    1  0.1233916E+005  0.1043930E+01  0.7957747E-01            NaN
         13   -1    0    0    0    0  0.00000000000E+00  0.00000000000E+00  0.74505805969E-08  0.10566000000E+00  0.10566000000E+00 0. -1.
     999900   -1    0    0    0    0 -0.00000000000E+00 -0.00000000000E+00 -0.74505805969E-08  0.93827000000E+00  0.93827000000E+00 0. -1.
     999902    2    1    2    0    0 -0.10236515654E-01  0.20668686557E-01  0.27393018365E-02  0.10207031915E+01  0.10204388863E+01 0.  0.
     999903    2    3    3    0    0  0.36804546882E-01  0.38413854970E-01  0.11871242184E+00  0.13167140520E+00  0.20359786892E-01 0.  0.
         14    1    1    2    0    0  0.10236515654E-01 -0.20668686557E-01 -0.27393018365E-02  0.23226808461E-01  0.00000000000E+00 0.  1.
     999901    1    3    3    0    0 -0.47041062536E-01 -0.17745168414E-01 -0.11597312000E+00  0.88903178634E+00  0.88000000000E+00 0. -1.
        -11    1    4    4    0    0  0.34772057024E-01  0.27582874870E-01  0.10551182349E+00  0.11446797348E+00  0.51100000000E-03 0.  1.
         11    1    4    4    0    0  0.20324898581E-02  0.10830980100E-01  0.13200598350E-01  0.17203431715E-01  0.51100000000E-03 0. -1.
</event>
<event>
 8    1  0.1233916E+005  0.1043930E+01  0.7957747E-01            NaN
         13   -1    0    0    0    0  0.00000000000E+00  0.00000000000E+00  0.74505805969E-08  0.10566000000E+00  0.10566000000E+00 0.  1.
     999900   -1    0    0    0    0 -0.00000000000E+00 -0.00000000000E+00 -0.74505805969E-08  0.93827000000E+00  0.93827000000E+00 0.  1.
     999902    2    1    2    0    0 -0.73668326722E-02  0.20758364313E-01 -0.44042584738E-02  0.10214671995E+01  0.10212201831E+01 0.  0.
     999903    2    3    3    0    0  0.12424097537E+00  0.36229054762E-01  0.10404900598E-01  0.13142266772E+00  0.20378696350E-01 0.  0.
         14    1    1    2    0    0  0.73668326722E-02 -0.20758364313E-01  0.44042584738E-02  0.22462800477E-01  0.00000000000E+00 0. -1.
     999901    1    3    3    0    0 -0.13160780804E+00 -0.15470690448E-01 -0.14809159072E-01  0.89004453180E+00  0.88000000000E+00 0. -1.
        -11    1    4    4    0    0  0.72690784588E-01  0.12057660914E-01  0.10866623225E-01  0.74482762919E-01  0.51100000000E-03 0. -1.
         11    1    4    4    0    0  0.51550190779E-01  0.24171393847E-01 -0.46172262721E-03  0.56939904800E-01  0.51100000000E-03 0.  1.
</event>
<event>
 8    1  0.1233916E+005  0.1043930E+01  0.7957747E-01            NaN
         13   -1    0    0    0    0  0.00000000000E+00  0.00000000000E+00  0.74505805969E-08  0.10566000000E+00  0.10566000000E+00 0.  1.
     999900   -1    0    0    0    0 -0.00000000000E+00 -0.00000000000E+00 -0.74505805969E-08  0.93827000000E+00  0.93827000000E+00 0. -1.
     999902    2    1    2    0    0  0.22956647249E-01  0.87281796585E-03  0.98130167343E-03  0.10209358178E+01  0.10206768399E+01 0.  0.
     999903    2    3    3    0    0  0.98755461359E-01  0.63481564728E-01 -0.60154642916E-01  0.13335319112E+00  0.19543344336E-01 0.  0.
         14    1    1    2    0    0 -0.22956647249E-01 -0.87281796585E-03 -0.98130167343E-03  0.22994182244E-01  0.00000000000E+00 0.  1.
     999901    1    3    3    0    0 -0.75798814110E-01 -0.62608746762E-01  0.61135944590E-01  0.88758262664E+00  0.88000000000E+00 0. -1.
        -11    1    4    4    0    0  0.71326018665E-01  0.52030209898E-01 -0.37250103053E-01  0.95824709648E-01  0.51100000000E-03 0.  1.
         11    1    4    4    0    0  0.27429442694E-01  0.11451354830E-01 -0.22904539863E-01  0.37528481467E-01  0.51100000000E-03 0. -1.
</event>
<event>
 8    1  0.1233916E+005  0.1043930E+01  0.7957747E-01            NaN
         13   -1    0    0    0    0  0.00000000000E+00  0.00000000000E+00  0.74505805969E-08  0.10566000000E+00  0.10566000000E+00 0. -1.
     999900   -1    0    0    0    0 -0.00000000000E+00 -0.00000000000E+00 -0.74505805969E-08  0.93827000000E+00  0.93827000000E+00 0. -1.
     999902    2    1    2    0    0 -0.15979282142E-01 -0.17585810018E-01  0.13832792427E-02  0.10201284951E+01  0.10198507905E+01 0.  0.
     999903    2    3    3    0    0  0.14980713773E-01 -0.90085109808E-01 -0.92598855531E-01  0.13162001940E+00  0.20236913484E-01 0.  0.
         14    1    1    2    0    0  0.15979282142E-01  0.17585810018E-01 -0.13832792427E-02  0.23801504852E-01  0.00000000000E+00 0. -1.
     999901    1    3    3    0    0 -0.30959995915E-01  0.72499299790E-01  0.93982134774E-01  0.88850847575E+00  0.88000000000E+00 0.  1.
        -11    1    4    4    0    0  0.18905140429E-01 -0.56134170857E-01 -0.61926925618E-01  0.85695126524E-01  0.51100000000E-03 0. -1.
         11    1    4    4    0    0 -0.39244266566E-02 -0.33950938951E-01 -0.30671929913E-01  0.45924892878E-01  0.51100000000E-03 0.  1.
</event>
<event>
 8    1  0.1233916E+005  0.1043930E+01  0.7957747E-01            NaN
         13   -1    0    0    0    0  0.00000000000E+00  0.00000000000E+00  0.74505805969E-08  0.10566000000E+00  0.10566000000E+00 0. -1.
     999900   -1    0    0    0    0 -0.00000000000E+00 -0.00000000000E+00 -0.74505805969E-08  0.93827000000E+00  0.93827000000E+00 0. -1.
     999902    2    1    2    0    0  0.40299249743E-02 -0.21693476651E-01  0.92500895269E-02  0.10200048797E+01  0.10197242486E+01 0.  0.
     999903    2    3    3    0    0  0.21888908084E-02  0.71859768775E-01  0.10595860822E+00  0.12977561895E+00  0.21115563136E-01 0.  0.
         14    1    1    2    0    0 -0.40299249743E-02  0.21693476651E-01 -0.92500895269E-02  0.23925120288E-01  0.00000000000E+00 0.  1.
     999901    1    3    3    0    0  0.18410341659E-02 -0.93553245427E-01 -0.96708518689E-01  0.89022926077E+00  0.88000000000E+00 0. -1.
        -11    1    4    4    0    0 -0.72285550860E-02  0.47398041211E-01  0.59342008147E-01  0.76292603647E-01  0.51100000000E-03 0. -1.
         11    1    4    4    0    0  0.94174458944E-02  0.24461727564E-01  0.46616600069E-01  0.53483015300E-01  0.51100000000E-03 0.  1.
</event>
<event>
 8    1  0.1233916E+005  0.1043930E+01  0.7957747E-01            NaN
         13   -1    0    0    0    0  0.00000000000E+00  0.00000000000E+00  0.74505805969E-08  0.10566000000E+00  0.10566000000E+00 0.  1.
     999900   -1    0    0    0    0 -0.00000000000E+00 -0.00000000000E+00 -0.74505805969E-08  0.93827000000E+00  0.93827000000E+00 0. -1.
     999902    2    1    2    0    0 -0.40102090815E-02 -0.12337305586E-01  0.19486952729E-01  0.10205199122E+01  0.10202513704E+01 0.  0.
     999903    2    3    3    0    0  0.78131086190E-01  0.14672698204E-01  0.10380318289E+00  0.13227109603E+00  0.20019674446E-01 0.  0.
         14    1    1    2    0    0  0.40102090815E-02  0.12337305586E-01 -0.19486952729E-01  0.23410087839E-01  0.00000000000E+00 0. -1.
     999901    1    3    3    0    0 -0.82141295271E-01 -0.27010003790E-01 -0.84316230159E-01  0.88824881613E+00  0.88000000000E+00 0. -1.
        -11    1    4    4    0    0  0.74522089135E-01  0.12590018936E-01  0.88395088215E-01  0.11630134603E+00  0.51100000000E-03 0.  1.
         11    1    4    4    0    0  0.36089970546E-02  0.20826792680E-02  0.15408094673E-01  0.15969750002E-01  0.51100000000E-03 0. -1.
</event>
<event>
 8    1  0.1233916E+005  0.1043930E+01  0.7957747E-01            NaN
         13   -1    0    0    0    0  0.00000000000E+00  0.00000000000E+00  0.74505805969E-08  0.10566000000E+00  0.10566000000E+00 0. -1.
     999900   -1    0    0    0    0 -0.00000000000E+00 -0.00000000000E+00 -0.74505805969E-08  0.93827000000E+00  0.93827000000E+00 0. -1.
     999902    2    1    2    0    0  0.77827136184E-02  0.20522217990E-01  0.66780199288E-02  0.10209881602E+01  0.10207303735E+01 0.  0.
     999903    2    3    3    0    0  0.36379785211E-01  0.72910489156E-02 -0.12159053540E+00  0.13113104886E+00  0.32162796986E-01 0.  0.
         14    1    1    2    0    0 -0.77827136184E-02 -0.20522217990E-01 -0.66780199288E-02  0.22941839784E-01  0.00000000000E+00 0. -1.
     999901    1    3    3    0    0 -0.28597071593E-01  0.13231169074E-01  0.12826855533E+00  0.88985711135E+00  0.88000000000E+00 0.  1.
        -11    1    4    4    0    0  0.24818521908E-01  0.71582365446E-02 -0.33607738641E-01  0.42390336135E-01  0.51100000000E-03 0.  1.
         11    1    4    4    0    0  0.11561263304E-01  0.13281237095E-03 -0.87982796762E-01  0.88740712728E-01  0.51100000000E-03 0. -1.
</event>
<event>
 8    1  0.1233916E+005  0.1043930E+01  0.7957747E-01            NaN
         13   -1    0    0    0    0  0.00000000000E+00  0.00000000000E+00  0.74505805969E-08  0.10566000000E+00  0.10566000000E+00 0.  1.
     999900   -1    0    0    0    0 -0.00000000000E+00 -0.00000000000E+00 -0.74505805969E-08  0.93827000000E+00  0.93827000000E+00 0. -1.
     999902    2    1    2    0    0  0.97691134609E-02 -0.32403421729E-02  0.21405589056E-01  0.10201784814E+01  0.10199019557E+01 0.  0.
     999903    2    3    3    0    0 -0.10516913125E+00 -0.51976149777E-01 -0.48808655168E-01  0.12859785172E+00  0.19825648411E-01 0.  0.
         14    1    1    2    0    0 -0.97691134609E-02  0.32403421729E-02 -0.21405589056E-01  0.23751518647E-01  0.00000000000E+00 0. -1.
     999901    1    3    3    0    0  0.11493824471E+00  0.48735807604E-01  0.70214244224E-01  0.89158062963E+00  0.88000000000E+00 0.  1.
        -11    1    4    4    0    0 -0.84958233310E-01 -0.49033609788E-01 -0.36038122706E-01  0.10450456308E+00  0.51100000000E-03 0.  1.
         11    1    4    4    0    0 -0.20210897940E-01 -0.29425399893E-02 -0.12770532462E-01  0.24093288640E-01  0.51100000000E-03 0. -1.
</event>
<event>
 8    1  0.1233916E+005  0.1043930E+01  0.7957747E-01            NaN
         13   -1    0    0    0    0  0.00000000000E+00  0.00000000000E+00  0.74505805969E-08  0.10566000000E+00  0.10566000000E+00 0.  1.
     999900   -1    0    0    0    0 -0.00000000000E+00 -0.00000000000E+00 -0.74505805969E-08  0.93827000000E+00  0.93827000000E+00 0. -1.
     999902    2    1    2    0    0  0.29133767806E-02  0.20293002042E-01  0.70093430823E-02  0.10222637916E+01  0.10220341653E+01 0.  0.
     999903    2    3    3    0    0  0.10753666670E+00  0.70618252594E-01 -0.34737977025E-01  0.13365729693E+00  0.10318608907E-01 0.  0.
         14    1    1    2    0    0 -0.29133767806E-02 -0.20293002042E-01 -0.70093430823E-02  0.21666208403E-01  0.00000000000E+00 0. -1.
     999901    1    3    3    0    0 -0.10462328992E+00 -0.50325250552E-01  0.41747320107E-01  0.88860649467E+00  0.88000000000E+00 0. -1.
        -11    1    4    4    0    0  0.90411270527E-01  0.60017578054E-01 -0.25408559725E-01  0.11145476007E+00  0.51100000000E-03 0. -1.
         11    1    4    4    0    0  0.17125396171E-01  0.10600674540E-01 -0.93294172996E-02  0.22202536856E-01  0.51100000000E-03 0.  1.
</event>
<event>
 8    1  0.1233916E+005  0.1043930E+01  0.7957747E-01            NaN
         13   -1    0    0    0    0  0.00000000000E+00  0.00000000000E+00  0.74505805969E-08  0.10566000000E+00  0.10566000000E+00 0. -1.
     999900   -1    0    0    0    0 -0.00000000000E+00 -0.00000000000E+00 -0.74505805969E-08  0.93827000000E+00  0.93827000000E+00 0. -1.
     999902    2    1    2    0    0  0.11530854855E-01 -0.10850669150E-01 -0.17992288638E-01  0.10199629375E+01  0.10196813099E+01 0.  0.
     999903    2    3    3    0    0 -0.64708170120E-01 -0.11170450394E+00  0.13706946633E-02  0.13071673422E+00  0.20492494238E-01 0.  0.
         14    1    1    2    0    0 -0.11530854855E-01  0.10850669150E-01  0.17992288638E-01  0.23967062505E-01  0.00000000000E+00 0.  1.
     999901    1    3    3    0    0  0.76239024975E-01  0.10085383479E+00 -0.19362983301E-01  0.88924620328E+00  0.88000000000E+00 0. -1.
        -11    1    4    4    0    0 -0.46040023646E-01 -0.62617787758E-01  0.62328435487E-02  0.77972947750E-01  0.51100000000E-03 0. -1.
         11    1    4    4    0    0 -0.18668146474E-01 -0.49086716181E-01 -0.48621488854E-02  0.52743786468E-01  0.51100000000E-03 0.  1.
</event>
<event>
 8    1  0.1233916E+005  0.1043930E+01  0.7957747E-01            NaN
         13   -1    0    0    0    0  0.00000000000E+00  0.00000000000E+00  0.74505805969E-08  0.10566000000E+00  0.10566000000E+00 0. -1.
     999900   -1    0    0    0    0 -0.00000000000E+00 -0.00000000000E+00 -0.74505805969E-08  0.93827000000E+00  0.93827000000E+00 0. -1.
     999902    2    1    2    0    0 -0.20618767150E-02  0.12365806264E-01 -0.14374695641E-01  0.10248565531E+01  0.10246790513E+01 0.  0.
     999903    2    3    3    0    0  0.18632365599E-01 -0.14091106819E-02  0.12983356857E+00  0.13277246324E+00  0.20557743719E-01 0.  0.
         14    1    1    2    0    0  0.20618767150E-02 -0.12365806264E-01  0.14374695641E-01  0.19073446855E-01  0.00000000000E+00 0. -1.
     999901    1    3    3    0    0 -0.20694242314E-01  0.13774916946E-01 -0.14420826421E+00  0.89208408991E+00  0.88000000000E+00 0. -1.
        -11    1    4    4    0    0  0.17457123904E-01  0.21391912131E-02  0.52959681508E-01  0.55806059711E-01  0.51100000000E-03 0. -1.
         11    1    4    4    0    0  0.11752416946E-02 -0.35483018950E-02  0.76873887057E-01  0.76966403525E-01  0.51100000000E-03 0.  1.
</event>
<event>
 8    1  0.1233916E+005  0.1043930E+01  0.7957747E-01            NaN
         13   -1    0    0    0    0  0.00000000000E+00  0.00000000000E+00  0.74505805969E-08  0.10566000000E+00  0.10566000000E+00 0.  1.
     999900   -1    0    0    0    0 -0.00000000000E+00 -0.00000000000E+00 -0.74505805969E-08  0.93827000000E+00  0.93827000000E+00 0. -1.
     999902    2    1    2    0    0  0.22797261051E-01 -0.20409003560E-02  0.71006342419E-02  0.10199654555E+01  0.10196838878E+01 0.  0.
     999903    2    3    3    0    0 -0.98956717595E-01  0.37027753319E-01 -0.68502711487E-01  0.12751587324E+00  0.20104476477E-01 0.  0.
         14    1    1    2    0    0 -0.22797261051E-01  0.20409003560E-02 -0.71006342419E-02  0.23964544484E-01  0.00000000000E+00 0.  1.
     999901    1    3    3    0    0  0.12175397865E+00 -0.39068653675E-01  0.75603345729E-01  0.89244958227E+00  0.88000000000E+00 0.  1.
        -11    1    4    4    0    0 -0.51650776844E-01  0.29566852997E-01 -0.34682679918E-01  0.68885056087E-01  0.51100000000E-03 0. -1.
         11    1    4    4    0    0 -0.47305940751E-01  0.74609003224E-02 -0.33820031569E-01  0.58630817155E-01  0.51100000000E-03 0.  1.
</event>
<event>
 8    1  0.1233916E+005  0.1043930E+01  0.7957747E-01            NaN
         13   -1    0    0    0    0  0.00000000000E+00  0.00000000000E+00  0.74505805969E-08  0.10566000000E+00  0.10566000000E+00 0. -1.
     999900   -1    0    0    0    0 -0.00000000000E+00 -0.00000000000E+00 -0.74505805969E-08  0.93827000000E+00  0.93827000000E+00 0.  1.
     999902    2    1    2    0    0 -0.19844771664E-02  0.87715360510E-02 -0.22116805788E-01  0.10200546761E+01  0.10197752258E+01 0.  0.
     999903    2    3    3    0    0  0.69273153033E-01  0.74969074402E-01 -0.83043090769E-01  0.13260226825E+00  0.16372989144E-01 0.  0.
         14    1    1    2    0    0  0.19844771664E-02 -0.87715360510E-02  0.22116805788E-01  0.23875323927E-01  0.00000000000E+00 0. -1.
     999901    1    3    3    0    0 -0.71257630199E-01 -0.66197538351E-01  0.60926284981E-01  0.88745240782E+00  0.88000000000E+00 0.  1.
        -11    1    4    4    0    0  0.41929495170E-01  0.35557178982E-01 -0.50344910607E-01  0.74547076988E-01  0.51100000000E-03 0.  1.
         11    1    4    4    0    0  0.27343657863E-01  0.39411895420E-01 -0.32698180162E-01  0.58055191265E-01  0.51100000000E-03 0. -1.
</event>
<event>
 8    1  0.1233916E+005  0.1043930E+01  0.7957747E-01            NaN
         13   -1    0    0    0    0  0.00000000000E+00  0.00000000000E+00  0.74505805969E-08  0.10566000000E+00  0.10566000000E+00 0. -1.
     999900   -1    0    0    0    0 -0.00000000000E+00 -0.00000000000E+00 -0.74505805969E-08  0.93827000000E+00  0.93827000000E+00 0.  1.
     999902    2    1    2    0    0  0.11349126878E-01  0.17780314154E-01  0.77913753106E-02  0.10214433866E+01  0.10211958403E+01 0.  0.
     999903    2    3    3    0    0  0.45383854330E-01  0.73279949141E-01  0.10058205763E+00  0.13417303160E+00  0.21354318353E-01 0.  0.
         14    1    1    2    0    0 -0.11349126878E-01 -0.17780314154E-01 -0.77913753106E-02  0.22486613386E-01  0.00000000000E+00 0. -1.
     999901    1    3    3    0    0 -0.34034727452E-01 -0.55499634986E-01 -0.92790682320E-01  0.88727035501E+00  0.88000000000E+00 0.  1.
        -11    1    4    4    0    0  0.26822729770E-01  0.23509127826E-01  0.39481473864E-01  0.53208888571E-01  0.51100000000E-03 0.  1.
         11    1    4    4    0    0  0.18561124560E-01  0.49770821314E-01  0.61100583767E-01  0.80964143032E-01  0.51100000000E-03 0. -1.
</event>
<event>
 8    1  0.1233916E+005  0.1043930E+01  0.7957747E-01            NaN
         13   -1    0    0    0    0  0.00000000000E+00  0.00000000000E+00  0.74505805969E-08  0.10566000000E+00  0.10566000000E+00 0. -1.
     999900   -1    0    0    0    0 -0.00000000000E+00 -0.00000000000E+00 -0.74505805969E-08  0.93827000000E+00  0.93827000000E+00 0.  1.
     999902    2    1    2    0    0  0.11587277909E-01 -0.15462803269E-01 -0.12559730629E-01  0.10208841733E+01  0.10206240175E+01 0.  0.
     999903    2    3    3    0    0 -0.84857756761E-01 -0.98278444646E-01 -0.86073734361E-02  0.13174093609E+00  0.20544970186E-01 0.  0.
         14    1    1    2    0    0 -0.11587277909E-01  0.15462803269E-01  0.12559730629E-01  0.23045826688E-01  0.00000000000E+00 0. -1.
     999901    1    3    3    0    0  0.96445034670E-01  0.82815641377E-01 -0.39523571925E-02  0.88914323722E+00  0.88000000000E+00 0. -1.
        -11    1    4    4    0    0 -0.16379900224E-01 -0.31526754508E-01 -0.62758045826E-02  0.36081632797E-01  0.51100000000E-03 0.  1.
         11    1    4    4    0    0 -0.68477856538E-01 -0.66751690138E-01 -0.23315688535E-02  0.95659303293E-01  0.51100000000E-03 0. -1.
</event>
<event>
 8    1  0.1233916E+005  0.1043930E+01  0.7957747E-01            NaN
         13   -1    0    0    0    0  0.00000000000E+00  0.00000000000E+00  0.74505805969E-08  0.10566000000E+00  0.10566000000E+00 0. -1.
     999900   -1    0    0    0    0 -0.00000000000E+00 -0.00000000000E+00 -0.74505805969E-08  0.93827000000E+00  0.93827000000E+00 0. -1.
     999902    2    1    2    0    0 -0.11810312139E-01 -0.97837256059E-02 -0.18243819279E-01  0.10200963746E+01  0.10198179110E+01 0.  0.
     999903    2    3    3    0    0  0.25215176253E-01  0.93143104276E-01  0.81191352222E-01  0.12776674240E+00  0.20514916552E-01 0.  0.
         14    1    1    2    0    0  0.11810312139E-01  0.97837256059E-02  0.18243819279E-01  0.23833625436E-01  0.00000000000E+00 0. -1.
     999901    1    3    3    0    0 -0.37025488392E-01 -0.10292682988E+00 -0.99435171500E-01  0.89232963216E+00  0.88000000000E+00 0. -1.
        -11    1    4    4    0    0  0.11237038866E-01  0.74495295431E-01  0.61664851068E-01  0.97358281939E-01  0.51100000000E-03 0. -1.
         11    1    4    4    0    0  0.13978137387E-01  0.18647808845E-01  0.19526501154E-01  0.30408460464E-01  0.51100000000E-03 0.  1.
</event>
<event>
 8    1  0.1233916E+005  0.1043930E+01  0.7957747E-01            NaN
         13   -1    0    0    0    0  0.00000000000E+00  0.00000000000E+00  0.74505805969E-08  0.10566000000E+00  0.10566000000E+00 0.  1.
     999900   -1    0    0    0    0 -0.00000000000E+00 -0.00000000000E+00 -0.74505805969E-08  0.93827000000E+00  0.93827000000E+00 0.  1.
     999902    2    1    2    0    0 -0.71306886250E-02 -0.21714724801E-01  0.15740129764E-02  0.10210203184E+01  0.10207632620E+01 0.  0.
     999903    2    3    3    0    0  0.31229008185E-01 -0.10610225796E+00  0.72104009205E-01  0.13334515122E+00  0.18681571496E-01 0.  0.
         14    1    1    2    0    0  0.71306886250E-02  0.21714724801E-01 -0.15740129764E-02  0.22909681585E-01  0.00000000000E+00 0.  1.
     999901    1    3    3    0    0 -0.38359696810E-01  0.84387533158E-01 -0.70529996229E-01  0.88767516720E+00  0.88000000000E+00 0.  1.
        -11    1    4    4    0    0  0.15796647505E-01 -0.45211831549E-01  0.41933367183E-01  0.63657773984E-01  0.51100000000E-03 0. -1.
         11    1    4    4    0    0  0.15432360680E-01 -0.60890426410E-01  0.30170642023E-01  0.69687377233E-01  0.51100000000E-03 0.  1.
</event>
<event>
 8    1  0.1233916E+005  0.1043930E+01  0.7957747E-01            NaN
         13   -1    0    0    0    0  0.00000000000E+00  0.00000000000E+00  0.74505805969E-08  0.10566000000E+00  0.10566000000E+00 0. -1.
     999900   -1    0    0    0    0 -0.00000000000E+00 -0.00000000000E+00 -0.74505805969E-08  0.93827000000E+00  0.93827000000E+00 0. -1.
     999902    2    1    2    0    0 -0.19410610664E-01  0.72085793277E-02 -0.10798824930E-01  0.10205772691E+01  0.10203100568E+01 0.  0.
     999903    2    3    3    0    0 -0.12673794778E+00  0.94097547668E-02 -0.35879716915E-01  0.13369900594E+00  0.20905004401E-01 0.  0.
         14    1    1    2    0    0  0.19410610664E-01 -0.72085793277E-02  0.10798824930E-01  0.23352730936E-01  0.00000000000E+00 0.  1.
     999901    1    3    3    0    0  0.10732733712E+00 -0.22011754391E-02  0.25080891985E-01  0.88687826313E+00  0.88000000000E+00 0.  1.
        -11    1    4    4    0    0 -0.60138473829E-01 -0.57019099376E-02 -0.19336853796E-01  0.63429668509E-01  0.51100000000E-03 0. -1.
         11    1    4    4    0    0 -0.66599473955E-01  0.15111664704E-01 -0.16542863119E-01  0.70269337427E-01  0.51100000000E-03 0.  1.
</event>
<event>
 8    1  0.1233916E+005  0.1043930E+01  0.7957747E-01            NaN
         13   -1    0    0    0    0  0.00000000000E+00  0.00000000000E+00  0.74505805969E-08  0.10566000000E+00  0.10566000000E+00 0. -1.
     999900   -1    0    0    0    0 -0.00000000000E+00 -0.00000000000E+00 -0.74505805969E-08  0.93827000000E+00  0.93827000000E+00 0.  1.
     999902    2    1    2    0    0  0.31697178197E-02  0.15362627599E-01  0.18480124671E-01  0.10196901063E+01  0.10194019524E+01 0.  0.
     999903    2    3    3    0    0  0.97745004094E-01  0.54860389638E-01  0.67617644446E-01  0.13238009633E+00  0.19712835588E-01 0.  0.
         14    1    1    2    0    0 -0.31697178197E-02 -0.15362627599E-01 -0.18480124671E-01  0.24239893681E-01  0.00000000000E+00 0.  1.
     999901    1    3    3    0    0 -0.94575286274E-01 -0.39497762038E-01 -0.49137519775E-01  0.88731000999E+00  0.88000000000E+00 0.  1.
        -11    1    4    4    0    0  0.27577662157E-01  0.24942400903E-01  0.27029809085E-01  0.45973062907E-01  0.51100000000E-03 0.  1.
         11    1    4    4    0    0  0.70167341937E-01  0.29917988734E-01  0.40587835361E-01  0.86407033421E-01  0.51100000000E-03 0. -1.
</event>
<event>
 8    1  0.1233916E+005  0.1043930E+01  0.7957747E-01            NaN
         13   -1    0    0    0    0  0.00000000000E+00  0.00000000000E+00  0.74505805969E-08  0.10566000000E+00  0.10566000000E+00 0. -1.
     999900   -1    0    0    0    0 -0.00000000000E+00 -0.00000000000E+00 -0.74505805969E-08  0.93827000000E+00  0.93827000000E+00 0.  1.
     999902    2    1    2    0    0 -0.18493012107E-01  0.15905084335E-01 -0.16746368208E-02  0.10194807134E+01  0.10191874987E+01 0.  0.
     999903    2    3    3    0    0 -0.18313020774E-01  0.86533403770E-01  0.95807988056E-01  0.13128520904E+00  0.15272158924E-01 0.  0.
         14    1    1    2    0    0  0.18493012107E-01 -0.15905084335E-01  0.16746368208E-02  0.24449286554E-01  0.00000000000E+00 0. -1.
     999901    1    3    3    0    0 -0.17999133314E-03 -0.70628319435E-01 -0.97482624877E-01  0.88819550441E+00  0.88000000000E+00 0.  1.
        -11    1    4    4    0    0 -0.57147766825E-02  0.23624244960E-01  0.17014941120E-01  0.29673775708E-01  0.51100000000E-03 0.  1.
         11    1    4    4    0    0 -0.12598244092E-01  0.62909158811E-01  0.78793046936E-01  0.10161143333E+00  0.51100000000E-03 0. -1.
</event>
<event>
 8    1  0.1233916E+005  0.1043930E+01  0.7957747E-01            NaN
         13   -1    0    0    0    0  0.00000000000E+00  0.00000000000E+00  0.74505805969E-08  0.10566000000E+00  0.10566000000E+00 0. -1.
     999900   -1    0    0    0    0 -0.00000000000E+00 -0.00000000000E+00 -0.74505805969E-08  0.93827000000E+00  0.93827000000E+00 0. -1.
     999902    2    1    2    0    0  0.22011244399E-01  0.65238566620E-02  0.17502536550E-02  0.10209056873E+01  0.10206460226E+01 0.  0.
     999903    2    3    3    0    0 -0.11915158396E+00 -0.39148794330E-01  0.17908985257E-01  0.12833970111E+00  0.20508999724E-01 0.  0.
         14    1    1    2    0    0 -0.22011244399E-01 -0.65238566620E-02 -0.17502536550E-02  0.23024312663E-01  0.00000000000E+00 0.  1.
     999901    1    3    3    0    0  0.14116282836E+00  0.45672650992E-01 -0.16158731602E-01  0.89256598623E+00  0.88000000000E+00 0. -1.
        -11    1    4    4    0    0 -0.49754703348E-01 -0.24362144374E-01  0.14663202067E-01  0.57308945198E-01  0.51100000000E-03 0.  1.
         11    1    4    4    0    0 -0.69396880616E-01 -0.14786649955E-01  0.32457831896E-02  0.71030755914E-01  0.51100000000E-03 0. -1.
</event>
<event>
 8    1  0.1233916E+005  0.1043930E+01  0.7957747E-01            NaN
         13   -1    0    0    0    0  0.00000000000E+00  0.00000000000E+00  0.74505805969E-08  0.10566000000E+00  0.10566000000E+00 0.  1.
     999900   -1    0    0    0    0 -0.00000000000E+00 -0.00000000000E+00 -0.74505805969E-08  0.93827000000E+00  0.93827000000E+00 0.  1.
     999902    2    1    2    0    0 -0.10201584694E-01  0.17127476973E-02  0.21159398322E-01  0.10203773787E+01  0.10201055185E+01 0.  0.
     999903    2    3    3    0    0  0.44475498307E-01 -0.11500881856E+00 -0.33356734615E-01  0.12931872953E+00  0.20138613797E-01 0.  0.
         14    1    1    2    0    0  0.10201584694E-01 -0.17127476973E-02 -0.21159398322E-01  0.23552621347E-01  0.00000000000E+00 0. -1.
     999901    1    3    3    0    0 -0.54677083001E-01  0.11672156626E+00  0.54516132937E-01  0.89105864913E+00  0.88000000000E+00 0. -1.
        -11    1    4    4    0    0  0.94218546364E-02 -0.48642325432E-01 -0.17926630827E-01  0.52692242143E-01  0.51100000000E-03 0. -1.
         11    1    4    4    0    0  0.35053643671E-01 -0.66366493128E-01 -0.15430103788E-01  0.76626487383E-01  0.51100000000E-03 0.  1.
</event>
<event>
 8    1  0.1233916E+005  0.1043930E+01  0.7957747E-01            NaN
         13   -1    0    0    0    0  0.00000000000E+00  0.00000000000E+00  0.74505805969E-08  0.10566000000E+00  0.10566000000E+00 0. -1.
     999900   -1    0    0    0    0 -0.00000000000E+00 -0.00000000000E+00 -0.74505805969E-08  0.93827000000E+00  0.93827000000E+00 0.  1.
     999902    2    1    2    0    0  0.20273057149E-01 -0.28765944356E-02 -0.11231077097E-01  0.10205760124E+01  0.10203087711E+01 0.  0.
     999903    2    3    3    0    0 -0.28319502606E-01  0.10151679698E-01  0.12363661709E+00  0.12888084720E+00  0.20474590624E-01 0.  0.
         14    1    1    2    0    0 -0.20273057149E-01  0.28765944356E-02  0.11231077097E-01  0.23353987550E-01  0.00000000000E+00 0. -1.
     999901    1    3    3    0    0  0.48592559756E-01 -0.13028274133E-01 -0.13486769419E+00  0.89169516525E+00  0.88000000000E+00 0.  1.
        -11    1    4    4    0    0 -0.34946990839E-02  0.82612610154E-02  0.15515296661E-01  0.17928940480E-01  0.51100000000E-03 0.  1.
         11    1    4    4    0    0 -0.24824803522E-01  0.18904186823E-02  0.10812132043E+00  0.11095190672E+00  0.51100000000E-03 0. -1.
</event>
<event>
 8    1  0.1233916E+005  0.1043930E+01  0.7957747E-01            NaN
         13   -1    0    0    0    0  0.00000000000E+00  0.00000000000E+00  0.74505805969E-08  0.10566000000E+00  0.10566000000E+00 0.  1.
     999900   -1    0    0    0    0 -0.00000000000E+00 -0.00000000000E+00 -0.74505805969E-08  0.93827000000E+00  0.93827000000E+00 0.  1.
     999902    2    1    2    0    0  0.11338379246E-01  0.35152392071E-02  0.15594934858E-01  0.10243310780E+01  0.10241435640E+01 0.  0.
     999903    2    3    3    0    0 -0.75670399226E-01  0.62407134469E-01 -0.86510658263E-01  0.13221878965E+00  0.19417893625E-01 0.  0.
         14    1    1    2    0    0 -0.11338379246E-01 -0.35152392071E-02 -0.15594934858E-01  0.19598922007E-01  0.00000000000E+00 0. -1.
     999901    1    3    3    0    0  0.87008778472E-01 -0.58891895262E-01  0.10210559312E+00  0.89211228834E+00  0.88000000000E+00 0. -1.
        -11    1    4    4    0    0 -0.19547200436E-01  0.25041668734E-01 -0.35706728546E-01  0.47795499812E-01  0.51100000000E-03 0. -1.
         11    1    4    4    0    0 -0.56123198790E-01  0.37365465735E-01 -0.50803929717E-01  0.84423289842E-01  0.51100000000E-03 0.  1.
</event>
<event>
 8    1  0.1233916E+005  0.1043930E+01  0.7957747E-01            NaN
         13   -1    0    0    0    0  0.00000000000E+00  0.00000000000E+00  0.74505805969E-08  0.10566000000E+00  0.10566000000E+00 0. -1.
     999900   -1    0    0    0    0 -0.00000000000E+00 -0.00000000000E+00 -0.74505805969E-08  0.93827000000E+00  0.93827000000E+00 0.  1.
     999902    2    1    2    0    0 -0.64315341702E-02  0.15248767519E-01  0.16448709475E-01  0.10205965565E+01  0.10203297906E+01 0.  0.
     999903    2    3    3    0    0 -0.43019294434E-01  0.10826801283E+00  0.62484897078E-01  0.13374224220E+00  0.20248523209E-01 0.  0.
         14    1    1    2    0    0  0.64315341702E-02 -0.15248767519E-01 -0.16448709475E-01  0.23333443510E-01  0.00000000000E+00 0.  1.
     999901    1    3    3    0    0  0.36587760264E-01 -0.93019245306E-01 -0.46036187602E-01  0.88685431429E+00  0.88000000000E+00 0.  1.
        -11    1    4    4    0    0 -0.32644010022E-01  0.56539091291E-01  0.30697915560E-01  0.72145154896E-01  0.51100000000E-03 0. -1.
         11    1    4    4    0    0 -0.10375284413E-01  0.51728921535E-01  0.31786981518E-01  0.61597087308E-01  0.51100000000E-03 0.  1.
</event>
<event>
 8    1  0.1233916E+005  0.1043930E+01  0.7957747E-01            NaN
         13   -1    0    0    0    0  0.00000000000E+00  0.00000000000E+00  0.74505805969E-08  0.10566000000E+00  0.10566000000E+00 0. -1.
     999900   -1    0    0    0    0 -0.00000000000E+00 -0.00000000000E+00 -0.74505805969E-08  0.93827000000E+00  0.93827000000E+00 0.  1.
     999902    2    1    2    0    0  0.42650546788E-02  0.22758342143E-01 -0.32211165233E-02  0.10205524805E+01  0.10202846941E+01 0.  0.
     999903    2    3    3    0    0  0.91727963209E-01  0.59659606561E-01  0.71760596797E-01  0.13227677944E+00  0.19346194357E-01 0.  0.
         14    1    1    2    0    0 -0.42650546788E-02 -0.22758342143E-01  0.32211165233E-02  0.23377519546E-01  0.00000000000E+00 0. -1.
     999901    1    3    3    0    0 -0.87462908530E-01 -0.36901264419E-01 -0.74981713320E-01  0.88827570102E+00  0.88000000000E+00 0.  1.
        -11    1    4    4    0    0  0.83934477685E-01  0.52265615982E-01  0.57387633974E-01  0.11432538131E+00  0.51100000000E-03 0.  1.
         11    1    4    4    0    0  0.77934855235E-02  0.73939905795E-02  0.14372962823E-01  0.17951398124E-01  0.51100000000E-03 0. -1.
</event>
<event>
 8    1  0.1233916E+005  0.1043930E+01  0.7957747E-01            NaN
         13   -1    0    0    0    0  0.00000000000E+00  0.00000000000E+00  0.74505805969E-08  0.10566000000E+00  0.10566000000E+00 0.  1.
     999900   -1    0    0    0    0 -0.00000000000E+00 -0.00000000000E+00 -0.74505805969E-08  0.93827000000E+00  0.93827000000E+00 0.  1.
     999902    2    1    2    0    0  0.49336152507E-02 -0.15910091989E-01  0.17017753548E-01  0.10201166524E+01  0.10198386681E+01 0.  0.
     999903    2    3    3    0    0  0.58558996045E-01 -0.94449958366E-01  0.70999478657E-01  0.13334823919E+00  0.19770591110E-01 0.  0.
         14    1    1    2    0    0 -0.49336152507E-02  0.15910091989E-01 -0.17017753548E-01  0.23813347567E-01  0.00000000000E+00 0. -1.
     999901    1    3    3    0    0 -0.53625380794E-01  0.78539866377E-01 -0.53981725109E-01  0.88676841324E+00  0.88000000000E+00 0.  1.
        -11    1    4    4    0    0  0.46201724943E-01 -0.56706083930E-01  0.45163784047E-01  0.85966318130E-01  0.51100000000E-03 0. -1.
         11    1    4    4    0    0  0.12357271102E-01 -0.37743874436E-01  0.25835694609E-01  0.47381921062E-01  0.51100000000E-03 0.  1.
</event>
<event>
 8    1  0.1233916E+005  0.1043930E+01  0.7957747E-01            NaN
         13   -1    0    0    0    0  0.00000000000E+00  0.00000000000E+00  0.74505805969E-08  0.10566000000E+00  0.10566000000E+00 0. -1.
     999900   -1    0    0    0    0 -0.00000000000E+00 -0.00000000000E+00 -0.74505805969E-08  0.93827000000E+00  0.93827000000E+00 0. -1.
     999902    2    1    2    0    0 -0.22433447285E-01  0.70733430053E-02  0.59199767525E-02  0.10196743231E+01  0.10193857892E+01 0.  0.
     999903    2    3    3    0    0 -0.10311382801E+00 -0.35423596799E-02 -0.79118342806E-01  0.13183788951E+00  0.21829042654E-01 0.  0.
         14    1    1    2    0    0  0.22433447285E-01 -0.70733430053E-02 -0.59199767525E-02  0.24255676925E-01  0.00000000000E+00 0. -1.
     999901    1    3    3    0    0  0.80680380720E-01  0.10615702685E-01  0.85038319559E-01  0.88783643357E+00  0.88000000000E+00 0.  1.
        -11    1    4    4    0    0 -0.73364905993E-01 -0.11359437922E-01 -0.61368736708E-01  0.96321488918E-01  0.51100000000E-03 0. -1.
         11    1    4    4    0    0 -0.29748922013E-01  0.78170782422E-02 -0.17749606099E-01  0.35516400589E-01  0.51100000000E-03 0.  1.
</event>
<event>
 8    1  0.1233916E+005  0.1043930E+01  0.7957747E-01            NaN
         13   -1    0    0    0    0  0.00000000000E+00  0.00000000000E+00  0.74505805969E-08  0.10566000000E+00  0.10566000000E+00 0. -1.
     999900   -1    0    0    0    0 -0.00000000000E+00 -0.00000000000E+00 -0.74505805969E-08  0.93827000000E+00  0.93827000000E+00 0. -1.
     999902    2    1    2    0    0  0.42582397925E-02  0.13223009947E-01 -0.20699275399E-01  0.10190012896E+01  0.10186963177E+01 0.  0.
     999903    2    3    3    0    0  0.78560083531E-01  0.14404767222E-01 -0.10332811983E+00  0.13201217670E+00  0.19269935347E-01 0.  0.
         14    1    1    2    0    0 -0.42582397925E-02 -0.13223009947E-01  0.20699275399E-01  0.24928710360E-01  0.00000000000E+00 0. -1.
     999901    1    3    3    0    0 -0.74301843738E-01 -0.11817572750E-02  0.82628844428E-01  0.88698911293E+00  0.88000000000E+00 0.  1.
        -11    1    4    4    0    0  0.70980857842E-01  0.71682037829E-02 -0.93724634044E-01  0.11778893612E+00  0.51100000000E-03 0. -1.
         11    1    4    4    0    0  0.75792256883E-02  0.72365634387E-02 -0.96034857829E-02  0.14223240581E-01  0.51100000000E-03 0.  1.
</event>
<event>
 8    1  0.1233916E+005  0.1043930E+01  0.7957747E-01            NaN
         13   -1    0    0    0    0  0.00000000000E+00  0.00000000000E+00  0.74505805969E-08  0.10566000000E+00  0.10566000000E+00 0.  1.
     999900   -1    0    0    0    0 -0.00000000000E+00 -0.00000000000E+00 -0.74505805969E-08  0.93827000000E+00  0.93827000000E+00 0. -1.
     999902    2    1    2    0    0 -0.42500899543E-02  0.73232362443E-02  0.22170296830E-01  0.10201978464E+01  0.10199217767E+01 0.  0.
     999903    2    3    3    0    0  0.67724754951E-01  0.79890705849E-01 -0.74033435024E-01  0.12907407610E+00  0.14491387281E-01 0.  0.
         14    1    1    2    0    0  0.42500899543E-02 -0.73232362443E-02 -0.22170296830E-01  0.23732153615E-01  0.00000000000E+00 0. -1.
     999901    1    3    3    0    0 -0.71974844905E-01 -0.72567469605E-01  0.96203731854E-01  0.89112377028E+00  0.88000000000E+00 0.  1.
        -11    1    4    4    0    0  0.40663133567E-01  0.38940872727E-01 -0.44703077266E-01  0.71892337828E-01  0.51100000000E-03 0. -1.
         11    1    4    4    0    0  0.27061621384E-01  0.40949833122E-01 -0.29330357758E-01  0.57181738272E-01  0.51100000000E-03 0.  1.
</event>
<event>
 8    1  0.1233916E+005  0.1043930E+01  0.7957747E-01            NaN
         13   -1    0    0    0    0  0.00000000000E+00  0.00000000000E+00  0.74505805969E-08  0.10566000000E+00  0.10566000000E+00 0.  1.
     999900   -1    0    0    0    0 -0.00000000000E+00 -0.00000000000E+00 -0.74505805969E-08  0.93827000000E+00  0.93827000000E+00 0.  1.
     999902    2    1    2    0    0 -0.21139654132E-01 -0.93195776899E-02 -0.21110319942E-02  0.10207309491E+01  0.10204672825E+01 0.  0.
     999903    2    3    3    0    0  0.47536588019E-01 -0.67170100247E-01  0.99098722658E-01  0.13039027072E+00  0.20236509047E-01 0.  0.
         14    1    1    2    0    0  0.21139654132E-01  0.93195776899E-02  0.21110319942E-02  0.23199050869E-01  0.00000000000E+00 0.  1.
     999901    1    3    3    0    0 -0.68676242151E-01  0.57850522557E-01 -0.10120975465E+00  0.89034067841E+00  0.88000000000E+00 0.  1.
        -11    1    4    4    0    0  0.29873035289E-01 -0.40242402424E-01  0.74820390634E-01  0.90056655311E-01  0.51100000000E-03 0. -1.
         11    1    4    4    0    0  0.17663552730E-01 -0.26927697823E-01  0.24278332023E-01  0.40333615409E-01  0.51100000000E-03 0.  1.
</event>
<event>
 8    1  0.1233916E+005  0.1043930E+01  0.7957747E-01            NaN
         13   -1    0    0    0    0  0.00000000000E+00  0.00000000000E+00  0.74505805969E-08  0.10566000000E+00  0.10566000000E+00 0. -1.
     999900   -1    0    0    0    0 -0.00000000000E+00 -0.00000000000E+00 -0.74505805969E-08  0.93827000000E+00  0.93827000000E+00 0.  1.
     999902    2    1    2    0    0  0.19799492801E-01 -0.78319396484E-02  0.10161042485E-01  0.10203375017E+01  0.10200647094E+01 0.  0.
     999903    2    3    3    0    0  0.23843113007E-01 -0.92025225561E-01 -0.87857602806E-01  0.13089244147E+00  0.19409705980E-01 0.  0.
         14    1    1    2    0    0 -0.19799492801E-01  0.78319396484E-02 -0.10161042485E-01  0.23592498346E-01  0.00000000000E+00 0.  1.
     999901    1    3    3    0    0 -0.40436202063E-02  0.84193285913E-01  0.98018645291E-01  0.88944506018E+00  0.88000000000E+00 0. -1.
        -11    1    4    4    0    0  0.14993351320E-01 -0.58990027566E-01 -0.43194406519E-01  0.74636732322E-01  0.51100000000E-03 0. -1.
         11    1    4    4    0    0  0.88497616873E-02 -0.33035197995E-01 -0.44663196287E-01  0.56255709151E-01  0.51100000000E-03 0.  1.
</event>
<event>
 8    1  0.1233916E+005  0.1043930E+01  0.7957747E-01            NaN
         13   -1    0    0    0    0  0.00000000000E+00  0.00000000000E+00  0.74505805969E-08  0.10566000000E+00  0.10566000000E+00 0.  1.
     999900   -1    0    0    0    0 -0.00000000000E+00 -0.00000000000E+00 -0.74505805969E-08  0.93827000000E+00  0.93827000000E+00 0.  1.
     999902    2    1    2    0    0 -0.19283317194E-01  0.10842302436E-01  0.91005905596E-02  0.10200088254E+01  0.10197282880E+01 0.  0.
     999903    2    3    3    0    0  0.43461349560E-01  0.12164903538E+00 -0.18492251398E-02  0.13077605291E+00  0.20287426317E-01 0.  0.
         14    1    1    2    0    0  0.19283317194E-01 -0.10842302436E-01 -0.91005905596E-02  0.23921174566E-01  0.00000000000E+00 0. -1.
     999901    1    3    3    0    0 -0.62744666753E-01 -0.11080673294E+00  0.10949815699E-01  0.88923277253E+00  0.88000000000E+00 0.  1.
        -11    1    4    4    0    0  0.57024097810E-02  0.35815212821E-01  0.56325978975E-02  0.36704689439E-01  0.51100000000E-03 0.  1.
         11    1    4    4    0    0  0.37758939778E-01  0.85833822556E-01 -0.74818230373E-02  0.94071363468E-01  0.51100000000E-03 0. -1.
</event>
<event>
 8    1  0.1233916E+005  0.1043930E+01  0.7957747E-01            NaN
         13   -1    0    0    0    0  0.00000000000E+00  0.00000000000E+00  0.74505805969E-08  0.10566000000E+00  0.10566000000E+00 0. -1.
     999900   -1    0    0    0    0 -0.00000000000E+00 -0.00000000000E+00 -0.74505805969E-08  0.93827000000E+00  0.93827000000E+00 0.  1.
     999902    2    1    2    0    0 -0.20639232966E-02  0.22643712264E-01 -0.59447495014E-02  0.10204281377E+01  0.10201574617E+01 0.  0.
     999903    2    3    3    0    0  0.98191066593E-02  0.71706678804E-01 -0.10969018195E+00  0.13289701384E+00  0.19784277320E-01 0.  0.
         14    1    1    2    0    0  0.20639232966E-02 -0.22643712264E-01  0.59447495014E-02  0.23501862290E-01  0.00000000000E+00 0. -1.
     999901    1    3    3    0    0 -0.11883029956E-01 -0.49062966539E-01  0.10374543245E+00  0.88753112387E+00  0.88000000000E+00 0. -1.
        -11    1    4    4    0    0  0.12954835537E-01  0.26944083635E-01 -0.49299730371E-01  0.57658788943E-01  0.51100000000E-03 0.  1.
         11    1    4    4    0    0 -0.31357288774E-02  0.44762595169E-01 -0.60390451583E-01  0.75238224894E-01  0.51100000000E-03 0. -1.
</event>
<event>
 8    1  0.1233916E+005  0.1043930E+01  0.7957747E-01            NaN
         13   -1    0    0    0    0  0.00000000000E+00  0.00000000000E+00  0.74505805969E-08  0.10566000000E+00  0.10566000000E+00 0.  1.
     999900   -1    0    0    0    0 -0.00000000000E+00 -0.00000000000E+00 -0.74505805969E-08  0.93827000000E+00  0.93827000000E+00 0. -1.
     999902    2    1    2    0    0  0.13693393679E-01  0.12977002513E-01  0.18003448346E-01  0.10178525044E+01  0.10175183954E+01 0.  0.
     999903    2    3    3    0    0  0.10258170924E+00 -0.68057220010E-01  0.35413058250E-01  0.12949966212E+00  0.19007512438E-01 0.  0.
         14    1    1    2    0    0 -0.13693393679E-01 -0.12977002513E-01 -0.18003448346E-01  0.26077495605E-01  0.00000000000E+00 0. -1.
     999901    1    3    3    0    0 -0.88888315557E-01  0.81034222523E-01 -0.17409609903E-01  0.88835284228E+00  0.88000000000E+00 0.  1.
        -11    1    4    4    0    0  0.48895818622E-01 -0.27451677451E-01  0.24948541186E-01  0.61376595718E-01  0.51100000000E-03 0.  1.
         11    1    4    4    0    0  0.53685890614E-01 -0.40605542559E-01  0.10464517064E-01  0.68123066401E-01  0.51100000000E-03 0. -1.
</event>
<event>
 8    1  0.1233916E+005  0.1043930E+01  0.7957747E-01            NaN
         13   -1    0    0    0    0  0.00000000000E+00  0.00000000000E+00  0.74505805969E-08  0.10566000000E+00  0.10566000000E+00 0.  1.
     999900   -1    0    0    0    0 -0.00000000000E+00 -0.00000000000E+00 -0.74505805969E-08  0.93827000000E+00  0.93827000000E+00 0. -1.
     999902    2    1    2    0    0 -0.10130449981E-01 -0.90195719056E-02 -0.19368801990E-01  0.10202840874E+01  0.10200100439E+01 0.  0.
     999903    2    3    3    0    0  0.12639779729E+00  0.74638290721E-02  0.14252445865E-01  0.12896929834E+00  0.19945821526E-01 0.  0.
         14    1    1    2    0    0  0.10130449981E-01  0.90195719056E-02  0.19368801990E-01  0.23645912642E-01  0.00000000000E+00 0.  1.
     999901    1    3    3    0    0 -0.13652824727E+00 -0.16483400978E-01 -0.33621247855E-01  0.89131478902E+00  0.88000000000E+00 0. -1.
        -11    1    4    4    0    0  0.40407758914E-01 -0.47789137368E-02  0.10520116360E-01  0.42030452843E-01  0.51100000000E-03 0. -1.
         11    1    4    4    0    0  0.85990038380E-01  0.12242742809E-01  0.37323295052E-02  0.86938845498E-01  0.51100000000E-03 0.  1.
</event>
<event>
 8    1  0.1233916E+005  0.1043930E+01  0.7957747E-01            NaN
         13   -1    0    0    0    0  0.00000000000E+00  0.00000000000E+00  0.74505805969E-08  0.10566000000E+00  0.10566000000E+00 0.  1.
     999900   -1    0    0    0    0 -0.00000000000E+00 -0.00000000000E+00 -0.74505805969E-08  0.93827000000E+00  0.93827000000E+00 0.  1.
     999902    2    1    2    0    0  0.10616270168E-01 -0.22427093259E-01 -0.41308189454E-02  0.10187756093E+01  0.10184650209E+01 0.  0.
     999903    2    3    3    0    0 -0.84335018786E-01  0.48030496223E-01  0.79247908389E-01  0.12696170983E+00  0.20487089046E-01 0.  0.
         14    1    1    2    0    0 -0.10616270168E-01  0.22427093259E-01  0.41308189454E-02  0.25154390660E-01  0.00000000000E+00 0. -1.
     999901    1    3    3    0    0  0.94951288954E-01 -0.70457589481E-01 -0.83378727335E-01  0.89181389951E+00  0.88000000000E+00 0.  1.
        -11    1    4    4    0    0 -0.21480236323E-01  0.21234138764E-01  0.17781111932E-01  0.35053077812E-01  0.51100000000E-03 0. -1.
         11    1    4    4    0    0 -0.62854782462E-01  0.26796357459E-01  0.61466796458E-01  0.91908632017E-01  0.51100000000E-03 0.  1.
</event>
<event>
 8    1  0.1233916E+005  0.1043930E+01  0.7957747E-01            NaN
         13   -1    0    0    0    0  0.00000000000E+00  0.00000000000E+00  0.74505805969E-08  0.10566000000E+00  0.10566000000E+00 0. -1.
     999900   -1    0    0    0    0 -0.00000000000E+00 -0.00000000000E+00 -0.74505805969E-08  0.93827000000E+00  0.93827000000E+00 0.  1.
     999902    2    1    2    0    0  0.11255598837E-01 -0.12733605885E-01  0.11214104833E-01  0.10235685322E+01  0.10233659906E+01 0.  0.
     999903    2    3    3    0    0  0.25771081216E-01  0.11360514243E+00  0.61105860461E-01  0.13302860281E+00  0.19809239494E-01 0.  0.
         14    1    1    2    0    0 -0.11255598837E-01  0.12733605885E-01 -0.11214104833E-01  0.20361467806E-01  0.00000000000E+00 0.  1.
     999901    1    3    3    0    0 -0.14515482379E-01 -0.12633874831E+00 -0.49891755628E-01  0.89053992939E+00  0.88000000000E+00 0.  1.
        -11    1    4    4    0    0  0.23829096977E-01  0.61820340096E-01  0.36773601246E-01  0.75776904014E-01  0.51100000000E-03 0.  1.
         11    1    4    4    0    0  0.19419842389E-02  0.51784802330E-01  0.24332259215E-01  0.57251698793E-01  0.51100000000E-03 0. -1.
</event>
<event>
 8    1  0.1233916E+005  0.1043930E+01  0.7957747E-01            NaN
         13   -1    0    0    0    0  0.00000000000E+00  0.00000000000E+00  0.74505805969E-08  0.10566000000E+00  0.10566000000E+00 0. -1.
     999900   -1    0    0    0    0 -0.00000000000E+00 -0.00000000000E+00 -0.74505805969E-08  0.93827000000E+00  0.93827000000E+00 0.  1.
     999902    2    1    2    0    0  0.25336613031E-02 -0.13916229701E-01 -0.18150563769E-01  0.10209186147E+01  0.10206592448E+01 0.  0.
     999903    2    3    3    0    0 -0.64254020549E-02 -0.64645805794E-01  0.11078991100E+00  0.13003175277E+00  0.20334363783E-01 0.  0.
         14    1    1    2    0    0 -0.25336613031E-02  0.13916229701E-01  0.18150563769E-01  0.23011385309E-01  0.00000000000E+00 0.  1.
     999901    1    3    3    0    0  0.89590633580E-02  0.50729576093E-01 -0.12894047477E+00  0.89088686192E+00  0.88000000000E+00 0.  1.
        -11    1    4    4    0    0  0.57569773954E-02 -0.14984150327E-01  0.18309643789E-01  0.24355117048E-01  0.51100000000E-03 0.  1.
         11    1    4    4    0    0 -0.12182379450E-01 -0.49661655467E-01  0.92480267214E-01  0.10567663572E+00  0.51100000000E-03 0. -1.
</event>
<event>
 8    1  0.1233916E+005  0.1043930E+01  0.7957747E-01            NaN
         13   -1    0    0    0    0  0.00000000000E+00  0.00000000000E+00  0.74505805969E-08  0.10566000000E+00  0.10566000000E+00 0.  1.
     999900   -1    0    0    0    0 -0.00000000000E+00 -0.00000000000E+00 -0.74505805969E-08  0.93827000000E+00  0.93827000000E+00 0. -1.
     999902    2    1    2    0    0  0.17245916776E-01 -0.55340832736E-02 -0.15234885441E-01  0.10202625232E+01  0.10199879739E+01 0.  0.
     999903    2    3    3    0    0  0.89480858694E-02  0.12272471233E+00  0.34815068371E-01  0.12951891783E+00  0.20533821714E-01 0.  0.
         14    1    1    2    0    0 -0.17245916776E-01  0.55340832736E-02  0.15234885441E-01  0.23667476788E-01  0.00000000000E+00 0.  1.
     999901    1    3    3    0    0  0.82978309064E-02 -0.12825879560E+00 -0.50049953812E-01  0.89074360538E+00  0.88000000000E+00 0.  1.
        -11    1    4    4    0    0  0.43836490167E-03  0.56041727547E-01  0.25773365393E-01  0.61687882723E-01  0.51100000000E-03 0.  1.
         11    1    4    4    0    0  0.85097209677E-02  0.66682984781E-01  0.90417029781E-02  0.67831035109E-01  0.51100000000E-03 0. -1.
</event>
<event>
 8    1  0.1233916E+005  0.1043930E+01  0.7957747E-01            NaN
         13   -1    0    0    0    0  0.00000000000E+00  0.00000000000E+00  0.74505805969E-08  0.10566000000E+00  0.10566000000E+00 0.  1.
     999900   -1    0    0    0    0 -0.00000000000E+00 -0.00000000000E+00 -0.74505805969E-08  0.93827000000E+00  0.93827000000E+00 0. -1.
     999902    2    1    2    0    0 -0.80968497490E-02  0.19679748058E-01  0.11059902020E-01  0.10199472376E+01  0.10196652365E+01 0.  0.
     999903    2    3    3    0    0 -0.15765944540E-01 -0.11248657508E+00 -0.50702401027E-01  0.12790388997E+00  0.29780480500E-01 0.  0.
         14    1    1    2    0    0  0.80968497490E-02 -0.19679748058E-01 -0.11059902020E-01  0.23982762397E-01  0.00000000000E+00 0. -1.
     999901    1    3    3    0    0  0.76690947909E-02  0.13216632314E+00  0.61762303047E-01  0.89204334764E+00  0.88000000000E+00 0.  1.
        -11    1    4    4    0    0 -0.18114913977E-01 -0.95590717867E-01 -0.52820685197E-01  0.11070691648E+00  0.51100000000E-03 0.  1.
         11    1    4    4    0    0  0.23489694368E-02 -0.16895857210E-01  0.21182841700E-02  0.17196973487E-01  0.51100000000E-03 0. -1.
</event>
<event>
 8    1  0.1233916E+005  0.1043930E+01  0.7957747E-01            NaN
         13   -1    0    0    0    0  0.00000000000E+00  0.00000000000E+00  0.74505805969E-08  0.10566000000E+00  0.10566000000E+00 0. -1.
     999900   -1    0    0    0    0 -0.00000000000E+00 -0.00000000000E+00 -0.74505805969E-08  0.93827000000E+00  0.93827000000E+00 0.  1.
     999902    2    1    2    0    0 -0.13351896650E-02  0.22962277146E-01 -0.66160871651E-02  0.10199963101E+01  0.10197154756E+01 0.  0.
     999903    2    3    3    0    0  0.44407096526E-01  0.10766136604E+00 -0.61186801090E-01  0.13306663124E+00  0.19998594057E-01 0.  0.
         14    1    1    2    0    0  0.13351896650E-02 -0.22962277146E-01  0.66160871651E-02  0.23933689907E-01  0.00000000000E+00 0. -1.
     999901    1    3    3    0    0 -0.45742286191E-01 -0.84699088890E-01  0.54570713925E-01  0.88692967885E+00  0.88000000000E+00 0.  1.
        -11    1    4    4    0    0  0.15982705405E-01  0.51105151384E-01 -0.37968330800E-01  0.65643268008E-01  0.51100000000E-03 0.  1.
         11    1    4    4    0    0  0.28424391121E-01  0.56556214652E-01 -0.23218470290E-01  0.67423363236E-01  0.51100000000E-03 0. -1.
</event>
<event>
 8    1  0.1233916E+005  0.1043930E+01  0.7957747E-01            NaN
         13   -1    0    0    0    0  0.00000000000E+00  0.00000000000E+00  0.74505805969E-08  0.10566000000E+00  0.10566000000E+00 0.  1.
     999900   -1    0    0    0    0 -0.00000000000E+00 -0.00000000000E+00 -0.74505805969E-08  0.93827000000E+00  0.93827000000E+00 0. -1.
     999902    2    1    2    0    0 -0.21432726895E-02 -0.22542840842E-01  0.94971894399E-02  0.10193745546E+01  0.10190787569E+01 0.  0.
     999903    2    3    3    0    0  0.81830482056E-01  0.95615489828E-01 -0.13998895852E-02  0.12744870067E+00  0.20066437736E-01 0.  0.
         14    1    1    2    0    0  0.21432726895E-02  0.22542840842E-01 -0.94971894399E-02  0.24555445390E-01  0.00000000000E+00 0. -1.
     999901    1    3    3    0    0 -0.83973754745E-01 -0.11815833067E+00  0.10897079025E-01  0.89192585394E+00  0.88000000000E+00 0.  1.
        -11    1    4    4    0    0  0.47660455719E-01  0.42535361597E-01 -0.59244740242E-02  0.64157123837E-01  0.51100000000E-03 0. -1.
         11    1    4    4    0    0  0.34170026337E-01  0.53080128230E-01  0.45245844390E-02  0.63291576834E-01  0.51100000000E-03 0.  1.
</event>
<event>
 8    1  0.1233916E+005  0.1043930E+01  0.7957747E-01            NaN
         13   -1    0    0    0    0  0.00000000000E+00  0.00000000000E+00  0.74505805969E-08  0.10566000000E+00  0.10566000000E+00 0.  1.
     999900   -1    0    0    0    0 -0.00000000000E+00 -0.00000000000E+00 -0.74505805969E-08  0.93827000000E+00  0.93827000000E+00 0.  1.
     999902    2    1    2    0    0  0.19009638870E-01  0.12981751660E-01 -0.65704455976E-02  0.10199912657E+01  0.10197103113E+01 0.  0.
     999903    2    3    3    0    0 -0.51624548122E-01 -0.56889092951E-01  0.10033904501E+00  0.12797065913E+00  0.20176788136E-01 0.  0.
         14    1    1    2    0    0 -0.19009638870E-01 -0.12981751660E-01  0.65704455976E-02  0.23938734333E-01  0.00000000000E+00 0.  1.
     999901    1    3    3    0    0  0.70634186992E-01  0.69870844611E-01 -0.10690949061E+00  0.89202060653E+00  0.88000000000E+00 0.  1.
        -11    1    4    4    0    0 -0.10866080707E-01 -0.20267665590E-02  0.14814752094E-01  0.18491011147E-01  0.51100000000E-03 0. -1.
         11    1    4    4    0    0 -0.40758467415E-01 -0.54862326392E-01  0.85524292917E-01  0.10947964799E+00  0.51100000000E-03 0.  1.
</event>
<event>
 8    1  0.1233916E+005  0.1043930E+01  0.7957747E-01            NaN
         13   -1    0    0    0    0  0.00000000000E+00  0.00000000000E+00  0.74505805969E-08  0.10566000000E+00  0.10566000000E+00 0.  1.
     999900   -1    0    0    0    0 -0.00000000000E+00 -0.00000000000E+00 -0.74505805969E-08  0.93827000000E+00  0.93827000000E+00 0. -1.
     999902    2    1    2    0    0  0.17339466503E-02  0.94743604583E-02  0.20840588753E-01  0.10209713368E+01  0.10207131675E+01 0.  0.
     999903    2    3    3    0    0 -0.68989410919E-01 -0.10191499271E+00 -0.31177019396E-01  0.12961550836E+00  0.26114534509E-01 0.  0.
         14    1    1    2    0    0 -0.17339466503E-02 -0.94743604583E-02 -0.20840588753E-01  0.22958663215E-01  0.00000000000E+00 0. -1.
     999901    1    3    3    0    0  0.70723357570E-01  0.11138935316E+00  0.52017608149E-01  0.89135582842E+00  0.88000000000E+00 0.  1.
        -11    1    4    4    0    0 -0.48422858618E-01 -0.75166305431E-01 -0.10475127671E-01  0.90026307986E-01  0.51100000000E-03 0.  1.
         11    1    4    4    0    0 -0.20566552301E-01 -0.26748687275E-01 -0.20701891725E-01  0.39589200377E-01  0.51100000000E-03 0. -1.
</event>
<event>
 8    1  0.1233916E+005  0.1043930E+01  0.7957747E-01            NaN
         13   -1    0    0    0    0  0.00000000000E+00  0.00000000000E+00  0.74505805969E-08  0.10566000000E+00  0.10566000000E+00 0.  1.
     999900   -1    0    0    0    0 -0.00000000000E+00 -0.00000000000E+00 -0.74505805969E-08  0.93827000000E+00  0.93827000000E+00 0.  1.
     999902    2    1    2    0    0 -0.15708361890E-01  0.12586594132E-01 -0.12598262907E-01  0.10201836063E+01  0.10199072014E+01 0.  0.
     999903    2    3    3    0    0 -0.84864270141E-01  0.10021445459E+00  0.79061630719E-03  0.13303060729E+00  0.21251732814E-01 0.  0.
         14    1    1    2    0    0  0.15708361890E-01 -0.12586594132E-01  0.12598262907E-01  0.23746393692E-01  0.00000000000E+00 0.  1.
     999901    1    3    3    0    0  0.69155908250E-01 -0.87627860457E-01 -0.13388879214E-01  0.88715299901E+00  0.88000000000E+00 0.  1.
        -11    1    4    4    0    0 -0.33840425432E-01  0.55044883672E-01  0.45744512748E-02  0.64778857179E-01  0.51100000000E-03 0. -1.
         11    1    4    4    0    0 -0.51023844708E-01  0.45169570917E-01 -0.37838349676E-02  0.68251750115E-01  0.51100000000E-03 0.  1.
</event>
<event>
 8    1  0.1233916E+005  0.1043930E+01  0.7957747E-01            NaN
         13   -1    0    0    0    0  0.00000000000E+00  0.00000000000E+00  0.74505805969E-08  0.10566000000E+00  0.10566000000E+00 0.  1.
     999900   -1    0    0    0    0 -0.00000000000E+00 -0.00000000000E+00 -0.74505805969E-08  0.93827000000E+00  0.93827000000E+00 0. -1.
     999902    2    1    2    0    0 -0.15569100425E-01 -0.15839339331E-01  0.81104131426E-02  0.10202855427E+01  0.10200115334E+01 0.  0.
     999903    2    3    3    0    0  0.11944647559E-02 -0.11888356513E+00 -0.54010955275E-01  0.13193978008E+00  0.18873088620E-01 0.  0.
         14    1    1    2    0    0  0.15569100425E-01  0.15839339331E-01 -0.81104131426E-02  0.23644457275E-01  0.00000000000E+00 0.  1.
     999901    1    3    3    0    0 -0.16763565181E-01  0.10304422580E+00  0.62121368418E-01  0.88834576264E+00  0.88000000000E+00 0.  1.
        -11    1    4    4    0    0 -0.72599170601E-02 -0.75450540067E-01 -0.38748760331E-01  0.85130593445E-01  0.51100000000E-03 0.  1.
         11    1    4    4    0    0  0.84543818161E-02 -0.43433025066E-01 -0.15262194944E-01  0.46809186638E-01  0.51100000000E-03 0. -1.
</event>
<event>
 8    1  0.1233916E+005  0.1043930E+01  0.7957747E-01            NaN
         13   -1    0    0    0    0  0.00000000000E+00  0.00000000000E+00  0.74505805969E-08  0.10566000000E+00  0.10566000000E+00 0.  1.
     999900   -1    0    0    0    0 -0.00000000000E+00 -0.00000000000E+00 -0.74505805969E-08  0.93827000000E+00  0.93827000000E+00 0.  1.
     999902    2    1    2    0    0 -0.21833850364E-01  0.15081811133E-01  0.56765365824E-02  0.10167932884E+01  0.10164311045E+01 0.  0.
     999903    2    3    3    0    0 -0.94102468582E-01  0.85549917976E-01  0.23551907093E-01  0.13084293080E+00  0.19776682083E-01 0.  0.
         14    1    1    2    0    0  0.21833850364E-01 -0.15081811133E-01 -0.56765365824E-02  0.27136711598E-01  0.00000000000E+00 0. -1.
     999901    1    3    3    0    0  0.72268618218E-01 -0.70468106843E-01 -0.17875370511E-01  0.88595035760E+00  0.88000000000E+00 0. -1.
        -11    1    4    4    0    0 -0.23221727147E-01  0.23372758317E-01 -0.24275840257E-02  0.33040713192E-01  0.51100000000E-03 0.  1.
         11    1    4    4    0    0 -0.70880741435E-01  0.62177159659E-01  0.25979491119E-01  0.97802217610E-01  0.51100000000E-03 0. -1.
</event>
<event>
 8    1  0.1233916E+005  0.1043930E+01  0.7957747E-01            NaN
         13   -1    0    0    0    0  0.00000000000E+00  0.00000000000E+00  0.74505805969E-08  0.10566000000E+00  0.10566000000E+00 0. -1.
     999900   -1    0    0    0    0 -0.00000000000E+00 -0.00000000000E+00 -0.74505805969E-08  0.93827000000E+00  0.93827000000E+00 0.  1.
     999902    2    1    2    0    0  0.22572196398E-01  0.83290808639E-03 -0.73271232270E-02  0.10201837472E+01  0.10199073456E+01 0.  0.
     999903    2    3    3    0    0 -0.86445571250E-01 -0.42025672296E-01 -0.84805519193E-01  0.12904703862E+00  0.14905306811E-01 0.  0.
         14    1    1    2    0    0 -0.22572196398E-01 -0.83290808639E-03  0.73271232270E-02  0.23746252776E-01  0.00000000000E+00 0. -1.
     999901    1    3    3    0    0  0.10901776765E+00  0.42858580382E-01  0.77478395966E-01  0.89113670860E+00  0.88000000000E+00 0. -1.
        -11    1    4    4    0    0 -0.59206215622E-01 -0.36150988519E-01 -0.61833177322E-01  0.92929397275E-01  0.51100000000E-03 0.  1.
         11    1    4    4    0    0 -0.27239355628E-01 -0.58746837771E-02 -0.22972341871E-01  0.36117641348E-01  0.51100000000E-03 0. -1.
</event>
<event>
 8    1  0.1233916E+005  0.1043930E+01  0.7957747E-01            NaN
         13   -1    0    0    0    0  0.00000000000E+00  0.00000000000E+00  0.74505805969E-08  0.10566000000E+00  0.10566000000E+00 0.  1.
     999900   -1    0    0    0    0 -0.00000000000E+00 -0.00000000000E+00 -0.74505805969E-08  0.93827000000E+00  0.93827000000E+00 0.  1.
     999902    2    1    2    0    0  0.71812858824E-02 -0.83141519364E-03 -0.15156674931E-01  0.10271375340E+01  0.10270002565E+01 0.  0.
     999903    2    3    3    0    0  0.81718439507E-01  0.87277982444E-01 -0.61450627018E-01  0.13839562368E+00  0.32891024888E-01 0.  0.
         14    1    1    2    0    0 -0.71812858824E-02  0.83141519364E-03  0.15156674931E-01  0.16792465963E-01  0.00000000000E+00 0.  1.
     999901    1    3    3    0    0 -0.74537153625E-01 -0.88109397638E-01  0.46293952087E-01  0.88874191036E+00  0.88000000000E+00 0.  1.
        -11    1    4    4    0    0  0.71567060151E-01  0.80526757212E-01 -0.64827481427E-01  0.12573490444E+00  0.51100000000E-03 0. -1.
         11    1    4    4    0    0  0.10151379356E-01  0.67512252327E-02  0.33768544089E-02  0.12660719240E-01  0.51100000000E-03 0.  1.
</event>
<event>
 8    1  0.1233916E+005  0.1043930E+01  0.7957747E-01            NaN
         13   -1    0    0    0    0  0.00000000000E+00  0.00000000000E+00  0.74505805969E-08  0.10566000000E+00  0.10566000000E+00 0. -1.
     999900   -1    0    0    0    0 -0.00000000000E+00 -0.00000000000E+00 -0.74505805969E-08  0.93827000000E+00  0.93827000000E+00 0. -1.
     999902    2    1    2    0    0  0.18940417458E-01  0.15066475014E-01 -0.83141003250E-04  0.10197278308E+01  0.10194405838E+01 0.  0.
     999903    2    3    3    0    0  0.99724700797E-01 -0.63960175450E-01  0.51871684321E-01  0.13098117633E+00  0.20723825047E-01 0.  0.
         14    1    1    2    0    0 -0.18940417458E-01 -0.15066475014E-01  0.83141003250E-04  0.24202169226E-01  0.00000000000E+00 0. -1.
     999901    1    3    3    0    0 -0.80784283339E-01  0.79026650465E-01 -0.51954825325E-01  0.88874665445E+00  0.88000000000E+00 0.  1.
        -11    1    4    4    0    0  0.52354851111E-01 -0.21508256447E-01  0.22387509540E-01  0.60869509893E-01  0.51100000000E-03 0. -1.
         11    1    4    4    0    0  0.47369849686E-01 -0.42451919004E-01  0.29484174781E-01  0.70111666432E-01  0.51100000000E-03 0.  1.
</event>
<event>
 8    1  0.1233916E+005  0.1043930E+01  0.7957747E-01            NaN
         13   -1    0    0    0    0  0.00000000000E+00  0.00000000000E+00  0.74505805969E-08  0.10566000000E+00  0.10566000000E+00 0. -1.
     999900   -1    0    0    0    0 -0.00000000000E+00 -0.00000000000E+00 -0.74505805969E-08  0.93827000000E+00  0.93827000000E+00 0. -1.
     999902    2    1    2    0    0  0.21639165784E-01 -0.37974851282E-03 -0.10472489089E-01  0.10198868984E+01  0.10196034596E+01 0.  0.
     999903    2    3    3    0    0 -0.15849072638E-01 -0.52037232836E-01  0.11424784736E+00  0.12880383496E+00  0.24058066580E-01 0.  0.
         14    1    1    2    0    0 -0.21639165784E-01  0.37974851282E-03  0.10472489089E-01  0.24043101557E-01  0.00000000000E+00 0.  1.
     999901    1    3    3    0    0  0.37488238422E-01  0.51657484324E-01 -0.12472033645E+00  0.89108306349E+00  0.88000000000E+00 0. -1.
        -11    1    4    4    0    0 -0.11766138267E-01 -0.59593002942E-02  0.26752102331E-01  0.29831047079E-01  0.51100000000E-03 0. -1.
         11    1    4    4    0    0 -0.40829343714E-02 -0.46077932542E-01  0.87495745034E-01  0.98972787878E-01  0.51100000000E-03 0.  1.
</event>
<event>
 8    1  0.1233916E+005  0.1043930E+01  0.7957747E-01            NaN
         13   -1    0    0    0    0  0.00000000000E+00  0.00000000000E+00  0.74505805969E-08  0.10566000000E+00  0.10566000000E+00 0.  1.
     999900   -1    0    0    0    0 -0.00000000000E+00 -0.00000000000E+00 -0.74505805969E-08  0.93827000000E+00  0.93827000000E+00 0.  1.
     999902    2    1    2    0    0  0.25186277521E-02  0.71340957612E-02 -0.23450713257E-01  0.10192890836E+01  0.10189911978E+01 0.  0.
     999903    2    3    3    0    0 -0.11184963300E-01  0.21880550557E-01 -0.12913126346E+00  0.13273754815E+00  0.18452956170E-01 0.  0.
         14    1    1    2    0    0 -0.25186277521E-02 -0.71340957612E-02  0.23450713257E-01  0.24640916386E-01  0.00000000000E+00 0.  1.
     999901    1    3    3    0    0  0.13703591052E-01 -0.14746454796E-01  0.10568055020E+00  0.88655153546E+00  0.88000000000E+00 0. -1.
        -11    1    4    4    0    0 -0.54068339209E-02  0.15199609453E-01 -0.39498108631E-01  0.42668767114E-01  0.51100000000E-03 0.  1.
         11    1    4    4    0    0 -0.57781293788E-02  0.66809411040E-02 -0.89633154825E-01  0.90068781040E-01  0.51100000000E-03 0. -1.
</event>
<event>
 8    1  0.1233916E+005  0.1043930E+01  0.7957747E-01            NaN
         13   -1    0    0    0    0  0.00000000000E+00  0.00000000000E+00  0.74505805969E-08  0.10566000000E+00  0.10566000000E+00 0. -1.
     999900   -1    0    0    0    0 -0.00000000000E+00 -0.00000000000E+00 -0.74505805969E-08  0.93827000000E+00  0.93827000000E+00 0.  1.
     999902    2    1    2    0    0 -0.92194221616E-02 -0.45156106845E-02 -0.21225075901E-01  0.10203526309E+01  0.10200801925E+01 0.  0.
     999903    2    3    3    0    0  0.11869294950E-01 -0.12924708454E+00 -0.68797561367E-02  0.13119096804E+00  0.17833957109E-01 0.  0.
         14    1    1    2    0    0  0.92194221616E-02  0.45156106845E-02  0.21225075901E-01  0.23577369061E-01  0.00000000000E+00 0. -1.
     999901    1    3    3    0    0 -0.21088717112E-01  0.12473147386E+00 -0.14345319765E-01  0.88916166289E+00  0.88000000000E+00 0.  1.
        -11    1    4    4    0    0 -0.23159233363E-02 -0.55539574422E-01  0.18650313875E-02  0.55621464300E-01  0.51100000000E-03 0.  1.
         11    1    4    4    0    0  0.14185218286E-01 -0.73707510123E-01 -0.87447875241E-02  0.75569503745E-01  0.51100000000E-03 0. -1.
</event>
<event>
 8    1  0.1233916E+005  0.1043930E+01  0.7957747E-01            NaN
         13   -1    0    0    0    0  0.00000000000E+00  0.00000000000E+00  0.74505805969E-08  0.10566000000E+00  0.10566000000E+00 0.  1.
     999900   -1    0    0    0    0 -0.00000000000E+00 -0.00000000000E+00 -0.74505805969E-08  0.93827000000E+00  0.93827000000E+00 0. -1.
     999902    2    1    2    0    0  0.14721160386E-02 -0.11429555445E-01 -0.22543227516E-01  0.10186120425E+01  0.10182973506E+01 0.  0.
     999903    2    3    3    0    0  0.58247460639E-01 -0.88324745620E-01  0.70255972186E-01  0.12858507581E+00  0.20104545128E-01 0.  0.
         14    1    1    2    0    0 -0.14721160386E-02  0.11429555445E-01  0.22543227516E-01  0.25317957464E-01  0.00000000000E+00 0.  1.
     999901    1    3    3    0    0 -0.56775344600E-01  0.76895190174E-01 -0.92799199702E-01  0.89002696672E+00  0.88000000000E+00 0.  1.
        -11    1    4    4    0    0  0.11909270961E-01 -0.32985747893E-01  0.28536550739E-01  0.45215994382E-01  0.51100000000E-03 0.  1.
         11    1    4    4    0    0  0.46338189678E-01 -0.55338997727E-01  0.41719421447E-01  0.83369081433E-01  0.51100000000E-03 0. -1.
</event>
<event>
 8    1  0.1233916E+005  0.1043930E+01  0.7957747E-01            NaN
         13   -1    0    0    0    0  0.00000000000E+00  0.00000000000E+00  0.74505805969E-08  0.10566000000E+00  0.10566000000E+00 0. -1.
     999900   -1    0    0    0    0 -0.00000000000E+00 -0.00000000000E+00 -0.74505805969E-08  0.93827000000E+00  0.93827000000E+00 0.  1.
     999902    2    1    2    0    0 -0.18007154781E-01 -0.11959182140E-01  0.99829657082E-02  0.10201195135E+01  0.10198415968E+01 0.  0.
     999903    2    3    3    0    0  0.11600350057E-01 -0.11522382663E+00 -0.58172060846E-01  0.13097087649E+00  0.18928377638E-01 0.  0.
         14    1    1    2    0    0  0.18007154781E-01  0.11959182140E-01 -0.99829657082E-02  0.23810486452E-01  0.00000000000E+00 0.  1.
     999901    1    3    3    0    0 -0.29607504838E-01  0.10326464449E+00  0.68155026554E-01  0.88914863706E+00  0.88000000000E+00 0. -1.
        -11    1    4    4    0    0 -0.41573038846E-02 -0.38287935276E-01 -0.14851428642E-01  0.41280445940E-01  0.51100000000E-03 0.  1.
         11    1    4    4    0    0  0.15757653942E-01 -0.76935891353E-01 -0.43320632204E-01  0.89690430546E-01  0.51100000000E-03 0. -1.
</event>
<event>
 8    1  0.1233916E+005  0.1043930E+01  0.7957747E-01            NaN
         13   -1    0    0    0    0  0.00000000000E+00  0.00000000000E+00  0.74505805969E-08  0.10566000000E+00  0.10566000000E+00 0.  1.
     999900   -1    0    0    0    0 -0.00000000000E+00 -0.00000000000E+00 -0.74505805969E-08  0.93827000000E+00  0.93827000000E+00 0. -1.
     999902    2    1    2    0    0 -0.84279984837E-02  0.16774537393E-01 -0.11859144624E-01  0.10217251453E+01  0.10214838309E+01 0.  0.
     999903    2    3    3    0    0  0.66672851539E-01 -0.91137868757E-01  0.59643517990E-01  0.12908980210E+00  0.18853315765E-01 0.  0.
         14    1    1    2    0    0  0.84279984837E-02 -0.16774537393E-01  0.11859144624E-01  0.22204854748E-01  0.00000000000E+00 0.  1.
     999901    1    3    3    0    0 -0.75100850022E-01  0.10791240615E+00 -0.71502662613E-01  0.89263534315E+00  0.88000000000E+00 0. -1.
        -11    1    4    4    0    0  0.35445266590E-01 -0.55736540833E-01  0.25402294477E-01  0.70770520652E-01  0.51100000000E-03 0. -1.
         11    1    4    4    0    0  0.31227584948E-01 -0.35401327924E-01  0.34241223513E-01  0.58319281453E-01  0.51100000000E-03 0.  1.
</event>
<event>
 8    1  0.1233916E+005  0.1043930E+01  0.7957747E-01            NaN
         13   -1    0    0    0    0  0.00000000000E+00  0.00000000000E+00  0.74505805969E-08  0.10566000000E+00  0.10566000000E+00 0.  1.
     999900   -1    0    0    0    0 -0.00000000000E+00 -0.00000000000E+00 -0.74505805969E-08  0.93827000000E+00  0.93827000000E+00 0. -1.
     999902    2    1    2    0    0 -0.93087788010E-02  0.16577095972E-01 -0.16491872237E-01  0.10187618590E+01  0.10184509266E+01 0.  0.
     999903    2    3    3    0    0 -0.40640898498E-01  0.12307328171E+00  0.94138163450E-02  0.13140948025E+00  0.19522199122E-01 0.  0.
         14    1    1    2    0    0  0.93087788010E-02 -0.16577095972E-01  0.16491872237E-01  0.25168141042E-01  0.00000000000E+00 0.  1.
     999901    1    3    3    0    0  0.31332119697E-01 -0.10649618574E+00 -0.25905688582E-01  0.88735237871E+00  0.88000000000E+00 0. -1.
        -11    1    4    4    0    0 -0.27734485902E-01  0.55164772078E-01  0.82433016865E-03  0.61751877930E-01  0.51100000000E-03 0.  1.
         11    1    4    4    0    0 -0.12906412597E-01  0.67908509634E-01  0.85894861764E-02  0.69657602317E-01  0.51100000000E-03 0. -1.
</event>
<event>
 8    1  0.1233916E+005  0.1043930E+01  0.7957747E-01            NaN
         13   -1    0    0    0    0  0.00000000000E+00  0.00000000000E+00  0.74505805969E-08  0.10566000000E+00  0.10566000000E+00 0.  1.
     999900   -1    0    0    0    0 -0.00000000000E+00 -0.00000000000E+00 -0.74505805969E-08  0.93827000000E+00  0.93827000000E+00 0. -1.
     999902    2    1    2    0    0  0.16559262040E-02  0.23477983920E-01  0.27536980077E-02  0.10202331506E+01  0.10199579113E+01 0.  0.
     999903    2    3    3    0    0 -0.52624015149E-01 -0.69798986383E-01  0.92777421753E-01  0.12908154951E+00  0.20327591252E-01 0.  0.
         14    1    1    2    0    0 -0.16559262040E-02 -0.23477983920E-01 -0.27536980077E-02  0.23696849438E-01  0.00000000000E+00 0. -1.
     999901    1    3    3    0    0  0.54279941353E-01  0.93276970303E-01 -0.90023723745E-01  0.89115160105E+00  0.88000000000E+00 0.  1.
        -11    1    4    4    0    0 -0.47833924325E-01 -0.53020024649E-01  0.81204074944E-01  0.10813681260E+00  0.51100000000E-03 0.  1.
         11    1    4    4    0    0 -0.47900908240E-02 -0.16778961734E-01  0.11573346809E-01  0.20944736913E-01  0.51100000000E-03 0. -1.
</event>
<event>
 8    1  0.1233916E+005  0.1043930E+01  0.7957747E-01            NaN
         13   -1    0    0    0    0  0.00000000000E+00  0.00000000000E+00  0.74505805969E-08  0.10566000000E+00  0.10566000000E+00 0.  1.
     999900   -1    0    0    0    0 -0.00000000000E+00 -0.00000000000E+00 -0.74505805969E-08  0.93827000000E+00  0.93827000000E+00 0.  1.
     999902    2    1    2    0    0  0.30023907968E-01  0.11535180474E-01  0.11637548378E-01  0.10097257902E+01  0.10091462943E+01 0.  0.
     999903    2    3    3    0    0 -0.36171910859E-01  0.10447836505E+00 -0.43864010112E-01  0.12062470199E+00  0.20053215467E-01 0.  0.
         14    1    1    2    0    0 -0.30023907968E-01 -0.11535180474E-01 -0.11637548378E-01  0.34204209836E-01  0.00000000000E+00 0. -1.
     999901    1    3    3    0    0  0.66195818828E-01 -0.92943184571E-01  0.55501558489E-01  0.88910108817E+00  0.88000000000E+00 0. -1.
        -11    1    4    4    0    0 -0.35367692770E-02  0.29572704990E-01 -0.18523540126E-01  0.35077575132E-01  0.51100000000E-03 0. -1.
         11    1    4    4    0    0 -0.32635141582E-01  0.74905660056E-01 -0.25340469985E-01  0.85547126863E-01  0.51100000000E-03 0.  1.
</event>
<event>
 8    1  0.1233916E+005  0.1043930E+01  0.7957747E-01            NaN
         13   -1    0    0    0    0  0.00000000000E+00  0.00000000000E+00  0.74505805969E-08  0.10566000000E+00  0.10566000000E+00 0.  1.
     999900   -1    0    0    0    0 -0.00000000000E+00 -0.00000000000E+00 -0.74505805969E-08  0.93827000000E+00  0.93827000000E+00 0.  1.
     999902    2    1    2    0    0  0.37377174207E-02 -0.31738173488E-01  0.19994825500E-01  0.10062328485E+01  0.10055264641E+01 0.  0.
     999903    2    3    3    0    0  0.57622292724E-01  0.37840460587E-01 -0.89878081461E-01  0.11504443434E+00  0.20122705292E-01 0.  0.
         14    1    1    2    0    0 -0.37377174207E-02  0.31738173488E-01 -0.19994825500E-01  0.37697151546E-01  0.00000000000E+00 0.  1.
     999901    1    3    3    0    0 -0.53884575303E-01 -0.69578634076E-01  0.10987290696E+00  0.89118841412E+00  0.88000000000E+00 0.  1.
        -11    1    4    4    0    0  0.10893474448E-01  0.12140755658E-01 -0.10471277377E-01  0.19390062001E-01  0.51100000000E-03 0. -1.
         11    1    4    4    0    0  0.46728818276E-01  0.25699704930E-01 -0.79406804084E-01  0.95654372335E-01  0.51100000000E-03 0.  1.
</event>
<event>
 8    1  0.1233916E+005  0.1043930E+01  0.7957747E-01            NaN
         13   -1    0    0    0    0  0.00000000000E+00  0.00000000000E+00  0.74505805969E-08  0.10566000000E+00  0.10566000000E+00 0.  1.
     999900   -1    0    0    0    0 -0.00000000000E+00 -0.00000000000E+00 -0.74505805969E-08  0.93827000000E+00  0.93827000000E+00 0. -1.
     999902    2    1    2    0    0  0.21966789938E-01  0.77625529293E-02  0.82252734527E-03  0.10206174789E+01  0.10203511967E+01 0.  0.
     999903    2    3    3    0    0  0.10375012065E+00 -0.79171103320E-01 -0.11129262622E-01  0.13247964104E+00  0.19870673566E-01 0.  0.
         14    1    1    2    0    0 -0.21966789938E-01 -0.77625529293E-02 -0.82252734527E-03  0.23312521086E-01  0.00000000000E+00 0.  1.
     999901    1    3    3    0    0 -0.81783330717E-01  0.86933656250E-01  0.11951789968E-01  0.88813783787E+00  0.88000000000E+00 0. -1.
        -11    1    4    4    0    0  0.41633933882E-01 -0.42855004394E-01 -0.95329146318E-02  0.60506804861E-01  0.51100000000E-03 0.  1.
         11    1    4    4    0    0  0.62116186773E-01 -0.36316098926E-01 -0.15963479904E-02  0.71972836183E-01  0.51100000000E-03 0. -1.
</event>
<event>
 8    1  0.1233916E+005  0.1043930E+01  0.7957747E-01            NaN
         13   -1    0    0    0    0  0.00000000000E+00  0.00000000000E+00  0.74505805969E-08  0.10566000000E+00  0.10566000000E+00 0. -1.
     999900   -1    0    0    0    0 -0.00000000000E+00 -0.00000000000E+00 -0.74505805969E-08  0.93827000000E+00  0.93827000000E+00 0.  1.
     999902    2    1    2    0    0 -0.16434050211E-01  0.34569474406E-02 -0.69576013599E-02  0.10257520818E+01  0.10255909987E+01 0.  0.
     999903    2    3    3    0    0 -0.72784133074E-01  0.78424196326E-01  0.82152928084E-01  0.13629375977E+00  0.19467941916E-01 0.  0.
         14    1    1    2    0    0  0.16434050211E-01 -0.34569474406E-02  0.69576013599E-02  0.18177918160E-01  0.00000000000E+00 0.  1.
     999901    1    3    3    0    0  0.56350082863E-01 -0.74967248885E-01 -0.89110529444E-01  0.88945832207E+00  0.88000000000E+00 0.  1.
        -11    1    4    4    0    0 -0.21375533086E-01  0.18529148318E-01  0.12154214614E-01  0.30793324049E-01  0.51100000000E-03 0. -1.
         11    1    4    4    0    0 -0.51408599987E-01  0.59895048009E-01  0.69998713471E-01  0.10550043572E+00  0.51100000000E-03 0.  1.
</event>
<event>
 8    1  0.1233916E+005  0.1043930E+01  0.7957747E-01            NaN
         13   -1    0    0    0    0  0.00000000000E+00  0.00000000000E+00  0.74505805969E-08  0.10566000000E+00  0.10566000000E+00 0.  1.
     999900   -1    0    0    0    0 -0.00000000000E+00 -0.00000000000E+00 -0.74505805969E-08  0.93827000000E+00  0.93827000000E+00 0.  1.
     999902    2    1    2    0    0 -0.15388908922E-01  0.73193626823E-02 -0.17091813972E-01  0.10197945138E+01  0.10195088664E+01 0.  0.
     999903    2    3    3    0    0 -0.45473654156E-01 -0.79679733347E-01 -0.92453107862E-01  0.13178930032E+00  0.20102969839E-01 0.  0.
         14    1    1    2    0    0  0.15388908922E-01 -0.73193626823E-02  0.17091813972E-01  0.24135486171E-01  0.00000000000E+00 0.  1.
     999901    1    3    3    0    0  0.30084745234E-01  0.86999096030E-01  0.75361293890E-01  0.88800521351E+00  0.88000000000E+00 0. -1.
        -11    1    4    4    0    0 -0.13988807995E-01 -0.14174560188E-01 -0.11525025408E-01  0.23015043717E-01  0.51100000000E-03 0. -1.
         11    1    4    4    0    0 -0.31484846161E-01 -0.65505173159E-01 -0.80928082453E-01  0.10877425660E+00  0.51100000000E-03 0.  1.
</event>
<event>
 8    1  0.1233916E+005  0.1043930E+01  0.7957747E-01            NaN
         13   -1    0    0    0    0  0.00000000000E+00  0.00000000000E+00  0.74505805969E-08  0.10566000000E+00  0.10566000000E+00 0.  1.
     999900   -1    0    0    0    0 -0.00000000000E+00 -0.00000000000E+00 -0.74505805969E-08  0.93827000000E+00  0.93827000000E+00 0. -1.
     999902    2    1    2    0    0  0.23075919267E-01 -0.42222042127E-02  0.69665936465E-02  0.10194584147E+01  0.10191646584E+01 0.  0.
     999903    2    3    3    0    0 -0.52095600857E-01 -0.10065285729E+00 -0.57440684874E-01  0.12867340935E+00  0.20309226590E-01 0.  0.
         14    1    1    2    0    0 -0.23075919267E-01  0.42222042127E-02 -0.69665936465E-02  0.24471585266E-01  0.00000000000E+00 0. -1.
     999901    1    3    3    0    0  0.75171520124E-01  0.96430653081E-01  0.64407278521E-01  0.89078500538E+00  0.88000000000E+00 0. -1.
        -11    1    4    4    0    0 -0.30607744512E-01 -0.54884868619E-01 -0.42792673302E-01  0.76030630911E-01  0.51100000000E-03 0. -1.
         11    1    4    4    0    0 -0.21487856345E-01 -0.45767988675E-01 -0.14648011572E-01  0.52642778438E-01  0.51100000000E-03 0.  1.
</event>
<event>
 8    1  0.1233916E+005  0.1043930E+01  0.7957747E-01            NaN
         13   -1    0    0    0    0  0.00000000000E+00  0.00000000000E+00  0.74505805969E-08  0.10566000000E+00  0.10566000000E+00 0. -1.
     999900   -1    0    0    0    0 -0.00000000000E+00 -0.00000000000E+00 -0.74505805969E-08  0.93827000000E+00  0.93827000000E+00 0. -1.
     999902    2    1    2    0    0 -0.47553162835E-02  0.19655481254E-01  0.12299743419E-01  0.10202607232E+01  0.10199861316E+01 0.  0.
     999903    2    3    3    0    0  0.30332202425E-01  0.68527080945E-01 -0.10491992442E+00  0.13045174496E+00  0.19835924388E-01 0.  0.
         14    1    1    2    0    0  0.47553162835E-02 -0.19655481254E-01 -0.12299743419E-01  0.23669276804E-01  0.00000000000E+00 0. -1.
     999901    1    3    3    0    0 -0.35087518709E-01 -0.48871599692E-01  0.11721966783E+00  0.88980897824E+00  0.88000000000E+00 0.  1.
        -11    1    4    4    0    0  0.19269779555E-01  0.20572733152E-01 -0.34883956309E-01  0.44852126842E-01  0.51100000000E-03 0.  1.
         11    1    4    4    0    0  0.11062422871E-01  0.47954347793E-01 -0.70035968106E-01  0.85599618116E-01  0.51100000000E-03 0. -1.
</event>
<event>
 8    1  0.1233916E+005  0.1043930E+01  0.7957747E-01            NaN
         13   -1    0    0    0    0  0.00000000000E+00  0.00000000000E+00  0.74505805969E-08  0.10566000000E+00  0.10566000000E+00 0.  1.
     999900   -1    0    0    0    0 -0.00000000000E+00 -0.00000000000E+00 -0.74505805969E-08  0.93827000000E+00  0.93827000000E+00 0. -1.
     999902    2    1    2    0    0  0.18261115199E-01  0.84398264945E-02 -0.30548715038E-02  0.10235822424E+01  0.10233799762E+01 0.  0.
     999903    2    3    3    0    0  0.11932109110E+00 -0.24024347855E-01 -0.56142488727E-01  0.13561527429E+00  0.20611441225E-01 0.  0.
         14    1    1    2    0    0 -0.18261115199E-01 -0.84398264945E-02  0.30548715038E-02  0.20347757603E-01  0.00000000000E+00 0.  1.
     999901    1    3    3    0    0 -0.10105997590E+00  0.32464174349E-01  0.53087617223E-01  0.88796696811E+00  0.88000000000E+00 0.  1.
        -11    1    4    4    0    0  0.85679533951E-01 -0.10138587945E-01 -0.46266162799E-01  0.97900931787E-01  0.51100000000E-03 0. -1.
         11    1    4    4    0    0  0.33641557148E-01 -0.13885759910E-01 -0.98763259282E-02  0.37714342504E-01  0.51100000000E-03 0.  1.
</event>
<event>
 8    1  0.1233916E+005  0.1043930E+01  0.7957747E-01            NaN
         13   -1    0    0    0    0  0.00000000000E+00  0.00000000000E+00  0.74505805969E-08  0.10566000000E+00  0.10566000000E+00 0.  1.
     999900   -1    0    0    0    0 -0.00000000000E+00 -0.00000000000E+00 -0.74505805969E-08  0.93827000000E+00  0.93827000000E+00 0. -1.
     999902    2    1    2    0    0  0.16338595740E-01 -0.26094055183E-02  0.17133913389E-01  0.10201113162E+01  0.10198332059E+01 0.  0.
     999903    2    3    3    0    0  0.48453254402E-01 -0.31066531960E-01  0.11850573157E+00  0.13325315122E+00  0.19998665550E-01 0.  0.
         14    1    1    2    0    0 -0.16338595740E-01  0.26094055183E-02 -0.17133913389E-01  0.23818683758E-01  0.00000000000E+00 0. -1.
     999901    1    3    3    0    0 -0.32114658662E-01  0.28457126442E-01 -0.10137181818E+00  0.88685816502E+00  0.88000000000E+00 0. -1.
        -11    1    4    4    0    0  0.60227903338E-02 -0.76034646122E-02  0.38451261752E-01  0.39659139285E-01  0.51100000000E-03 0. -1.
         11    1    4    4    0    0  0.42430464068E-01 -0.23463067348E-01  0.80054469821E-01  0.93594011934E-01  0.51100000000E-03 0.  1.
</event>
<event>
 8    1  0.1233916E+005  0.1043930E+01  0.7957747E-01            NaN
         13   -1    0    0    0    0  0.00000000000E+00  0.00000000000E+00  0.74505805969E-08  0.10566000000E+00  0.10566000000E+00 0.  1.
     999900   -1    0    0    0    0 -0.00000000000E+00 -0.00000000000E+00 -0.74505805969E-08  0.93827000000E+00  0.93827000000E+00 0.  1.
     999902    2    1    2    0    0  0.34692835667E-02 -0.21828205966E-01 -0.87773184431E-02  0.10201487506E+01  0.10198715240E+01 0.  0.
     999903    2    3    3    0    0 -0.92643535145E-02 -0.60629304580E-01  0.11367280770E+00  0.13073225415E+00  0.20190944601E-01 0.  0.
         14    1    1    2    0    0 -0.34692835667E-02  0.21828205966E-01  0.87773184431E-02  0.23781249404E-01  0.00000000000E+00 0. -1.
     999901    1    3    3    0    0  0.12733637081E-01  0.38801098614E-01 -0.12245012614E+00  0.88941649645E+00  0.88000000000E+00 0.  1.
        -11    1    4    4    0    0 -0.15026355166E-01 -0.45836018675E-01  0.78465751795E-01  0.92107911079E-01  0.51100000000E-03 0. -1.
         11    1    4    4    0    0  0.57620016513E-02 -0.14793285904E-01  0.35207055904E-01  0.38624343066E-01  0.51100000000E-03 0.  1.
</event>
<event>
 8    1  0.1233916E+005  0.1043930E+01  0.7957747E-01            NaN
         13   -1    0    0    0    0  0.00000000000E+00  0.00000000000E+00  0.74505805969E-08  0.10566000000E+00  0.10566000000E+00 0. -1.
     999900   -1    0    0    0    0 -0.00000000000E+00 -0.00000000000E+00 -0.74505805969E-08  0.93827000000E+00  0.93827000000E+00 0.  1.
     999902    2    1    2    0    0  0.24312692658E-01  0.91290935689E-03  0.18171003849E-02  0.10195324124E+01  0.10192404513E+01 0.  0.
     999903    2    3    3    0    0 -0.13670947719E-01  0.27820967931E-01  0.12428386921E+00  0.12983307552E+00  0.21195430725E-01 0.  0.
         14    1    1    2    0    0 -0.24312692658E-01 -0.91290935689E-03 -0.18171003849E-02  0.24397587618E-01  0.00000000000E+00 0.  1.
     999901    1    3    3    0    0  0.37983640377E-01 -0.26908058574E-01 -0.12246676883E+00  0.88969933687E+00  0.88000000000E+00 0.  1.
        -11    1    4    4    0    0 -0.15159858554E-01  0.23366346786E-01  0.69935906586E-01  0.75280140970E-01  0.51100000000E-03 0. -1.
         11    1    4    4    0    0  0.14889108343E-02  0.44546211449E-02  0.54347962626E-01  0.54552934546E-01  0.51100000000E-03 0.  1.
</event>
<event>
 8    1  0.1233916E+005  0.1043930E+01  0.7957747E-01            NaN
         13   -1    0    0    0    0  0.00000000000E+00  0.00000000000E+00  0.74505805969E-08  0.10566000000E+00  0.10566000000E+00 0. -1.
     999900   -1    0    0    0    0 -0.00000000000E+00 -0.00000000000E+00 -0.74505805969E-08  0.93827000000E+00  0.93827000000E+00 0. -1.
     999902    2    1    2    0    0  0.41366075344E-02 -0.10023177979E-01 -0.20550454219E-01  0.10206943208E+01  0.10204298113E+01 0.  0.
     999903    2    3    3    0    0 -0.75264239908E-01 -0.18266141473E-03 -0.10767329343E+00  0.13278006850E+00  0.19294281546E-01 0.  0.
         14    1    1    2    0    0 -0.41366075344E-02  0.10023177979E-01  0.20550454219E-01  0.23235679187E-01  0.00000000000E+00 0. -1.
     999901    1    3    3    0    0  0.79400847443E-01 -0.98405165645E-02  0.87122839208E-01  0.88791425231E+00  0.88000000000E+00 0.  1.
        -11    1    4    4    0    0 -0.99143753800E-02  0.33107428156E-02 -0.66119654312E-02  0.12378815171E-01  0.51100000000E-03 0. -1.
         11    1    4    4    0    0 -0.65349864528E-01 -0.34934042303E-02 -0.10106132800E+00  0.12040125333E+00  0.51100000000E-03 0.  1.
</event>
<event>
 8    1  0.1233916E+005  0.1043930E+01  0.7957747E-01            NaN
         13   -1    0    0    0    0  0.00000000000E+00  0.00000000000E+00  0.74505805969E-08  0.10566000000E+00  0.10566000000E+00 0.  1.
     999900   -1    0    0    0    0 -0.00000000000E+00 -0.00000000000E+00 -0.74505805969E-08  0.93827000000E+00  0.93827000000E+00 0.  1.
     999902    2    1    2    0    0 -0.32770742401E-02 -0.22404609291E-01 -0.81392074305E-02  0.10198685696E+01  0.10195846934E+01 0.  0.
     999903    2    3    3    0    0 -0.12286107599E+00  0.27615284714E-01  0.24299655211E-01  0.12978171822E+00  0.19883993506E-01 0.  0.
         14    1    1    2    0    0  0.32770742401E-02  0.22404609291E-01  0.81392074305E-02  0.24061430354E-01  0.00000000000E+00 0. -1.
     999901    1    3    3    0    0  0.11958400175E+00 -0.50019894005E-01 -0.32438862642E-01  0.89008685143E+00  0.88000000000E+00 0. -1.
        -11    1    4    4    0    0 -0.52486483387E-01  0.12283210280E-01  0.45089765306E-03  0.53908928971E-01  0.51100000000E-03 0.  1.
         11    1    4    4    0    0 -0.70374592603E-01  0.15332074434E-01  0.23848757558E-01  0.75872789250E-01  0.51100000000E-03 0. -1.
</event>
<event>
 8    1  0.1233916E+005  0.1043930E+01  0.7957747E-01            NaN
         13   -1    0    0    0    0  0.00000000000E+00  0.00000000000E+00  0.74505805969E-08  0.10566000000E+00  0.10566000000E+00 0. -1.
     999900   -1    0    0    0    0 -0.00000000000E+00 -0.00000000000E+00 -0.74505805969E-08  0.93827000000E+00  0.93827000000E+00 0. -1.
     999902    2    1    2    0    0 -0.14836840380E-01  0.12444993301E-01  0.14241305677E-01  0.10198920201E+01  0.10196087035E+01 0.  0.
     999903    2    3    3    0    0 -0.35821923627E-01 -0.89973415949E-01  0.85590529422E-01  0.13083599486E+00  0.20344361239E-01 0.  0.
         14    1    1    2    0    0  0.14836840380E-01 -0.12444993301E-01 -0.14241305677E-01  0.24037979909E-01  0.00000000000E+00 0. -1.
     999901    1    3    3    0    0  0.20985083247E-01  0.10241840925E+00 -0.71349223745E-01  0.88905602523E+00  0.88000000000E+00 0. -1.
        -11    1    4    4    0    0 -0.21856615021E-01 -0.63803613341E-01  0.47212206681E-01  0.82327797713E-01  0.51100000000E-03 0. -1.
         11    1    4    4    0    0 -0.13965308606E-01 -0.26169802608E-01  0.38378322740E-01  0.48508197146E-01  0.51100000000E-03 0.  1.
</event>
<event>
 8    1  0.1233916E+005  0.1043930E+01  0.7957747E-01            NaN
         13   -1    0    0    0    0  0.00000000000E+00  0.00000000000E+00  0.74505805969E-08  0.10566000000E+00  0.10566000000E+00 0.  1.
     999900   -1    0    0    0    0 -0.00000000000E+00 -0.00000000000E+00 -0.74505805969E-08  0.93827000000E+00  0.93827000000E+00 0.  1.
     999902    2    1    2    0    0 -0.13458586904E-01 -0.18294947024E-01  0.52604078072E-02  0.10206166875E+01  0.10203503870E+01 0.  0.
     999903    2    3    3    0    0  0.68275798469E-01  0.10159571786E+00  0.32902438381E-01  0.12830599997E+00  0.19914432773E-01 0.  0.
         14    1    1    2    0    0  0.13458586904E-01  0.18294947024E-01 -0.52604078072E-02  0.23313312470E-01  0.00000000000E+00 0.  1.
     999901    1    3    3    0    0 -0.81734385373E-01 -0.11989066488E+00 -0.27642030574E-01  0.89231068756E+00  0.88000000000E+00 0.  1.
        -11    1    4    4    0    0  0.40928881772E-01  0.43142875843E-01  0.14990249240E-01  0.61330659481E-01  0.51100000000E-03 0.  1.
         11    1    4    4    0    0  0.27346916697E-01  0.58452842018E-01  0.17912189141E-01  0.66975340489E-01  0.51100000000E-03 0. -1.
</event>
<event>
 8    1  0.1233916E+005  0.1043930E+01  0.7957747E-01            NaN
         13   -1    0    0    0    0  0.00000000000E+00  0.00000000000E+00  0.74505805969E-08  0.10566000000E+00  0.10566000000E+00 0. -1.
     999900   -1    0    0    0    0 -0.00000000000E+00 -0.00000000000E+00 -0.74505805969E-08  0.93827000000E+00  0.93827000000E+00 0.  1.
     999902    2    1    2    0    0  0.97424593393E-02 -0.21594612101E-01  0.11587227211E-02  0.10202111167E+01  0.10199353593E+01 0.  0.
     999903    2    3    3    0    0  0.65798077473E-01  0.23427765113E-01 -0.10874239293E+00  0.13046536540E+00  0.17834134981E-01 0.  0.
         14    1    1    2    0    0 -0.97424593393E-02  0.21594612101E-01 -0.11587227211E-02  0.23718883282E-01  0.00000000000E+00 0. -1.
     999901    1    3    3    0    0 -0.56055618134E-01 -0.45022377214E-01  0.10990111565E+00  0.88974575132E+00  0.88000000000E+00 0. -1.
        -11    1    4    4    0    0  0.40284746048E-01  0.65483777625E-02 -0.70810661736E-01  0.81732202661E-01  0.51100000000E-03 0.  1.
         11    1    4    4    0    0  0.25513331425E-01  0.16879387350E-01 -0.37931731194E-01  0.48733162735E-01  0.51100000000E-03 0. -1.
</event>
<event>
 8    1  0.1233916E+005  0.1043930E+01  0.7957747E-01            NaN
         13   -1    0    0    0    0  0.00000000000E+00  0.00000000000E+00  0.74505805969E-08  0.10566000000E+00  0.10566000000E+00 0. -1.
     999900   -1    0    0    0    0 -0.00000000000E+00 -0.00000000000E+00 -0.74505805969E-08  0.93827000000E+00  0.93827000000E+00 0. -1.
     999902    2    1    2    0    0 -0.69949713576E-02 -0.16115537904E-01  0.15517944379E-01  0.10204897188E+01  0.10202204758E+01 0.  0.
     999903    2    3    3    0    0 -0.10107645080E+00 -0.71432258315E-01 -0.40847567709E-01  0.13195815755E+00  0.20625593863E-01 0.  0.
         14    1    1    2    0    0  0.69949713576E-02  0.16115537904E-01 -0.15517944379E-01  0.23440281226E-01  0.00000000000E+00 0. -1.
     999901    1    3    3    0    0  0.94081479445E-01  0.55316720412E-01  0.56365512088E-01  0.88853156122E+00  0.88000000000E+00 0.  1.
        -11    1    4    4    0    0 -0.19650501731E-01 -0.75131995930E-02 -0.13088761956E-01  0.24782396917E-01  0.51100000000E-03 0. -1.
         11    1    4    4    0    0 -0.81425949072E-01 -0.63919058722E-01 -0.27758805753E-01  0.10717576064E+00  0.51100000000E-03 0.  1.
</event>
<event>
 8    1  0.1233916E+005  0.1043930E+01  0.7957747E-01            NaN
         13   -1    0    0    0    0  0.00000000000E+00  0.00000000000E+00  0.74505805969E-08  0.10566000000E+00  0.10566000000E+00 0.  1.
     999900   -1    0    0    0    0 -0.00000000000E+00 -0.00000000000E+00 -0.74505805969E-08  0.93827000000E+00  0.93827000000E+00 0.  1.
     999902    2    1    2    0    0 -0.52346964076E-02 -0.13332036020E-01  0.18335407956E-01  0.10206634486E+01  0.10203982276E+01 0.  0.
     999903    2    3    3    0    0 -0.37836750011E-01 -0.15649610005E-01 -0.12076536037E+00  0.12913818880E+00  0.20392881036E-01 0.  0.
         14    1    1    2    0    0  0.52346964076E-02  0.13332036020E-01 -0.18335407956E-01  0.23266551438E-01  0.00000000000E+00 0. -1.
     999901    1    3    3    0    0  0.32602053603E-01  0.23175739854E-02  0.13910076832E+00  0.89152525976E+00  0.88000000000E+00 0. -1.
        -11    1    4    4    0    0 -0.16189995004E-01  0.24787097508E-02 -0.31423568472E-01  0.35439550178E-01  0.51100000000E-03 0. -1.
         11    1    4    4    0    0 -0.21646755007E-01 -0.18128319756E-01 -0.89341791894E-01  0.93698638621E-01  0.51100000000E-03 0.  1.
</event>
<event>
 8    1  0.1233916E+005  0.1043930E+01  0.7957747E-01            NaN
         13   -1    0    0    0    0  0.00000000000E+00  0.00000000000E+00  0.74505805969E-08  0.10566000000E+00  0.10566000000E+00 0.  1.
     999900   -1    0    0    0    0 -0.00000000000E+00 -0.00000000000E+00 -0.74505805969E-08  0.93827000000E+00  0.93827000000E+00 0.  1.
     999902    2    1    2    0    0  0.87976596773E-02  0.19568406593E-01  0.10655670675E-01  0.10199745273E+01  0.10196931753E+01 0.  0.
     999903    2    3    3    0    0 -0.10358909189E+00 -0.45285899133E-01 -0.57508349878E-01  0.12785166776E+00  0.16041384754E-01 0.  0.
         14    1    1    2    0    0 -0.87976596773E-02 -0.19568406593E-01 -0.10655670675E-01  0.23955472651E-01  0.00000000000E+00 0. -1.
     999901    1    3    3    0    0  0.11238675157E+00  0.64854305726E-01  0.68164020553E-01  0.89212285959E+00  0.88000000000E+00 0. -1.
        -11    1    4    4    0    0 -0.57385994918E-01 -0.26187378952E-01 -0.40847883366E-01  0.75151459904E-01  0.51100000000E-03 0. -1.
         11    1    4    4    0    0 -0.46203096972E-01 -0.19098520181E-01 -0.16660466512E-01  0.52700207859E-01  0.51100000000E-03 0.  1.
</event>
<event>
 8    1  0.1233916E+005  0.1043930E+01  0.7957747E-01            NaN
         13   -1    0    0    0    0  0.00000000000E+00  0.00000000000E+00  0.74505805969E-08  0.10566000000E+00  0.10566000000E+00 0.  1.
     999900   -1    0    0    0    0 -0.00000000000E+00 -0.00000000000E+00 -0.74505805969E-08  0.93827000000E+00  0.93827000000E+00 0.  1.
     999902    2    1    2    0    0 -0.72253104693E-02  0.22085277715E-01  0.64865425677E-02  0.10198044982E+01  0.10195190899E+01 0.  0.
     999903    2    3    3    0    0  0.89006403838E-01 -0.85971114907E-02  0.92108880980E-01  0.12989824656E+00  0.19835782185E-01 0.  0.
         14    1    1    2    0    0  0.72253104693E-02 -0.22085277715E-01 -0.64865425677E-02  0.24125501811E-01  0.00000000000E+00 0. -1.
     999901    1    3    3    0    0 -0.96231714308E-01  0.30682389206E-01 -0.85622338412E-01  0.88990625162E+00  0.88000000000E+00 0. -1.
        -11    1    4    4    0    0  0.74221188260E-01 -0.12431069988E-01  0.83291030760E-01  0.11225405656E+00  0.51100000000E-03 0. -1.
         11    1    4    4    0    0  0.14785215579E-01  0.38339584977E-02  0.88178502203E-02  0.17644190006E-01  0.51100000000E-03 0.  1.
</event>
<event>
 8    1  0.1233916E+005  0.1043930E+01  0.7957747E-01            NaN
         13   -1    0    0    0    0  0.00000000000E+00  0.00000000000E+00  0.74505805969E-08  0.10566000000E+00  0.10566000000E+00 0. -1.
     999900   -1    0    0    0    0 -0.00000000000E+00 -0.00000000000E+00 -0.74505805969E-08  0.93827000000E+00  0.93827000000E+00 0. -1.
     999902    2    1    2    0    0 -0.39358988422E-03  0.18906581240E-01 -0.10130440702E-01  0.10224768055E+01  0.10222517196E+01 0.  0.
     999903    2    3    3    0    0  0.15143653833E-01 -0.20150552554E-01  0.12683131152E+00  0.13089092221E+00  0.20270099051E-01 0.  0.
         14    1    1    2    0    0  0.39358988422E-03 -0.18906581240E-01  0.10130440702E-01  0.21453194541E-01  0.00000000000E+00 0. -1.
     999901    1    3    3    0    0 -0.15537243717E-01  0.39057133794E-01 -0.13696175222E+00  0.89158588325E+00  0.88000000000E+00 0. -1.
        -11    1    4    4    0    0 -0.25077822265E-03 -0.12586862227E-01  0.80576815013E-01  0.81555969917E-01  0.51100000000E-03 0.  1.
         11    1    4    4    0    0  0.15394432055E-01 -0.75636903272E-02  0.46254496505E-01  0.49334952291E-01  0.51100000000E-03 0. -1.
</event>
<event>
 8    1  0.1233916E+005  0.1043930E+01  0.7957747E-01            NaN
         13   -1    0    0    0    0  0.00000000000E+00  0.00000000000E+00  0.74505805969E-08  0.10566000000E+00  0.10566000000E+00 0. -1.
     999900   -1    0    0    0    0 -0.00000000000E+00 -0.00000000000E+00 -0.74505805969E-08  0.93827000000E+00  0.93827000000E+00 0.  1.
     999902    2    1    2    0    0  0.20198898497E-01  0.34462044642E-02  0.12055350752E-01  0.10201559951E+01  0.10198789394E+01 0.  0.
     999903    2    3    3    0    0 -0.10024242536E+00 -0.43026498876E-02 -0.76130851568E-01  0.12755139985E+00  0.20159275934E-01 0.  0.
         14    1    1    2    0    0 -0.20198898497E-01 -0.34462044642E-02 -0.12055350752E-01  0.23774004867E-01  0.00000000000E+00 0. -1.
     999901    1    3    3    0    0  0.12044132385E+00  0.77488543518E-02  0.88186202320E-01  0.89260459528E+00  0.88000000000E+00 0.  1.
        -11    1    4    4    0    0 -0.46190573144E-01 -0.87977214013E-02 -0.26211263520E-01  0.53835493920E-01  0.51100000000E-03 0. -1.
         11    1    4    4    0    0 -0.54051852214E-01  0.44950715136E-02 -0.49919588048E-01  0.73715905933E-01  0.51100000000E-03 0.  1.
</event>
<event>
 8    1  0.1233916E+005  0.1043930E+01  0.7957747E-01            NaN
         13   -1    0    0    0    0  0.00000000000E+00  0.00000000000E+00  0.74505805969E-08  0.10566000000E+00  0.10566000000E+00 0.  1.
     999900   -1    0    0    0    0 -0.00000000000E+00 -0.00000000000E+00 -0.74505805969E-08  0.93827000000E+00  0.93827000000E+00 0.  1.
     999902    2    1    2    0    0  0.92624869934E-02  0.18410914324E-02 -0.21027915979E-01  0.10208788279E+01  0.10206185501E+01 0.  0.
     999903    2    3    3    0    0 -0.10599102956E+00 -0.24741497115E-01 -0.71068809137E-01  0.13155655897E+00  0.20251235732E-01 0.  0.
         14    1    1    2    0    0 -0.92624869934E-02 -0.18410914324E-02  0.21027915979E-01  0.23051172061E-01  0.00000000000E+00 0.  1.
     999901    1    3    3    0    0  0.11525351656E+00  0.26582588547E-01  0.50040893157E-01  0.88932226897E+00  0.88000000000E+00 0. -1.
        -11    1    4    4    0    0 -0.59529909115E-01 -0.19290134977E-01 -0.50665901317E-01  0.80518408230E-01  0.51100000000E-03 0. -1.
         11    1    4    4    0    0 -0.46461120450E-01 -0.54513621376E-02 -0.20402907820E-01  0.51038150742E-01  0.51100000000E-03 0.  1.
</event>
<event>
 8    1  0.1233916E+005  0.1043930E+01  0.7957747E-01            NaN
         13   -1    0    0    0    0  0.00000000000E+00  0.00000000000E+00  0.74505805969E-08  0.10566000000E+00  0.10566000000E+00 0. -1.
     999900   -1    0    0    0    0 -0.00000000000E+00 -0.00000000000E+00 -0.74505805969E-08  0.93827000000E+00  0.93827000000E+00 0.  1.
     999902    2    1    2    0    0 -0.11858130176E-01  0.93557333905E-02 -0.19613042693E-01  0.10191748704E+01  0.10188741826E+01 0.  0.
     999903    2    3    3    0    0 -0.11972491237E-01 -0.53390863756E-01  0.11264650585E+00  0.12708197348E+00  0.21602495781E-01 0.  0.
         14    1    1    2    0    0  0.11858130176E-01 -0.93557333905E-02  0.19613042693E-01  0.24755129614E-01  0.00000000000E+00 0. -1.
     999901    1    3    3    0    0  0.11436106089E-03  0.62746597147E-01 -0.13225954854E+00  0.89209289691E+00  0.88000000000E+00 0.  1.
        -11    1    4    4    0    0 -0.24084020508E-03 -0.42733302619E-01  0.86969109116E-01  0.96902426276E-01  0.51100000000E-03 0.  1.
         11    1    4    4    0    0 -0.11731651032E-01 -0.10657561137E-01  0.25677396733E-01  0.30179547202E-01  0.51100000000E-03 0. -1.
</event>
<event>
 8    1  0.1233916E+005  0.1043930E+01  0.7957747E-01            NaN
         13   -1    0    0    0    0  0.00000000000E+00  0.00000000000E+00  0.74505805969E-08  0.10566000000E+00  0.10566000000E+00 0.  1.
     999900   -1    0    0    0    0 -0.00000000000E+00 -0.00000000000E+00 -0.74505805969E-08  0.93827000000E+00  0.93827000000E+00 0. -1.
     999902    2    1    2    0    0  0.79673878478E-02  0.13132453588E-01 -0.17421953984E-01  0.10207036123E+01  0.10204393167E+01 0.  0.
     999903    2    3    3    0    0 -0.86209466918E-01 -0.12055510984E-01  0.92664585551E-01  0.12850253644E+00  0.18675356054E-01 0.  0.
         14    1    1    2    0    0 -0.79673878478E-02 -0.13132453588E-01  0.17421953984E-01  0.23226387730E-01  0.00000000000E+00 0.  1.
     999901    1    3    3    0    0  0.94176854766E-01  0.25187964571E-01 -0.11008653953E+00  0.89220107583E+00  0.88000000000E+00 0. -1.
        -11    1    4    4    0    0 -0.41531164405E-01 -0.11601177143E-01  0.56136837886E-01  0.70788633387E-01  0.51100000000E-03 0.  1.
         11    1    4    4    0    0 -0.44678302513E-01 -0.45433384055E-03  0.36527747665E-01  0.57713903049E-01  0.51100000000E-03 0. -1.
</event>
<event>
 8    1  0.1233916E+005  0.1043930E+01  0.7957747E-01            NaN
         13   -1    0    0    0    0  0.00000000000E+00  0.00000000000E+00  0.74505805969E-08  0.10566000000E+00  0.10566000000E+00 0.  1.
     999900   -1    0    0    0    0 -0.00000000000E+00 -0.00000000000E+00 -0.74505805969E-08  0.93827000000E+00  0.93827000000E+00 0. -1.
     999902    2    1    2    0    0 -0.77001091739E-02  0.16322150448E-01 -0.15311158328E-01  0.10202628108E+01  0.10199882682E+01 0.  0.
     999903    2    3    3    0    0 -0.11949604368E+00 -0.48284616859E-01 -0.10586751039E-01  0.13082777358E+00  0.19827212667E-01 0.  0.
         14    1    1    2    0    0  0.77001091739E-02 -0.16322150448E-01  0.15311158328E-01  0.23667189227E-01  0.00000000000E+00 0.  1.
     999901    1    3    3    0    0  0.11179593451E+00  0.64606767307E-01 -0.47244072894E-02  0.88943503719E+00  0.88000000000E+00 0.  1.
        -11    1    4    4    0    0 -0.65379696369E-01 -0.17292376859E-01 -0.10648591736E-01  0.68463016451E-01  0.51100000000E-03 0.  1.
         11    1    4    4    0    0 -0.54116347316E-01 -0.30992240000E-01  0.61840696977E-04  0.62364757133E-01  0.51100000000E-03 0. -1.
</event>
<event>
 8    1  0.1233916E+005  0.1043930E+01  0.7957747E-01            NaN
         13   -1    0    0    0    0  0.00000000000E+00  0.00000000000E+00  0.74505805969E-08  0.10566000000E+00  0.10566000000E+00 0.  1.
     999900   -1    0    0    0    0 -0.00000000000E+00 -0.00000000000E+00 -0.74505805969E-08  0.93827000000E+00  0.93827000000E+00 0. -1.
     999902    2    1    2    0    0  0.18734563553E-01 -0.42665013813E-02  0.13526225840E-01  0.10204322194E+01  0.10201616386E+01 0.  0.
     999903    2    3    3    0    0 -0.41022617055E-01 -0.10285109713E+00 -0.63948885377E-01  0.12953815391E+00  0.20723660020E-01 0.  0.
         14    1    1    2    0    0 -0.18734563553E-01  0.42665013813E-02 -0.13526225840E-01  0.23497780555E-01  0.00000000000E+00 0. -1.
     999901    1    3    3    0    0  0.59757180608E-01  0.98584595753E-01  0.77475111217E-01  0.89089406554E+00  0.88000000000E+00 0.  1.
        -11    1    4    4    0    0 -0.27658343084E-01 -0.49861055030E-01 -0.41165504995E-01  0.70327581171E-01  0.51100000000E-03 0. -1.
         11    1    4    4    0    0 -0.13364273971E-01 -0.52990042105E-01 -0.22783380383E-01  0.59210572736E-01  0.51100000000E-03 0.  1.
</event>
<event>
 8    1  0.1233916E+005  0.1043930E+01  0.7957747E-01            NaN
         13   -1    0    0    0    0  0.00000000000E+00  0.00000000000E+00  0.74505805969E-08  0.10566000000E+00  0.10566000000E+00 0. -1.
     999900   -1    0    0    0    0 -0.00000000000E+00 -0.00000000000E+00 -0.74505805969E-08  0.93827000000E+00  0.93827000000E+00 0. -1.
     999902    2    1    2    0    0 -0.10777598502E-01  0.21248665254E-01  0.36779226423E-04  0.10201043047E+01  0.10198260286E+01 0.  0.
     999903    2    3    3    0    0 -0.11336938415E+00  0.46015171869E-01  0.46861840892E-01  0.13256217006E+00  0.20166395168E-01 0.  0.
         14    1    1    2    0    0  0.10777598502E-01 -0.21248665254E-01 -0.36779226423E-04  0.23825695316E-01  0.00000000000E+00 0. -1.
     999901    1    3    3    0    0  0.10259178565E+00 -0.24766506614E-01 -0.46825061666E-01  0.88754213462E+00  0.88000000000E+00 0. -1.
        -11    1    4    4    0    0 -0.62271461621E-01  0.32593892806E-01  0.18894836175E-01  0.72783052531E-01  0.51100000000E-03 0.  1.
         11    1    4    4    0    0 -0.51097922532E-01  0.13421279062E-01  0.27967004717E-01  0.59779117529E-01  0.51100000000E-03 0. -1.
</event>
<event>
 8    1  0.1233916E+005  0.1043930E+01  0.7957747E-01            NaN
         13   -1    0    0    0    0  0.00000000000E+00  0.00000000000E+00  0.74505805969E-08  0.10566000000E+00  0.10566000000E+00 0. -1.
     999900   -1    0    0    0    0 -0.00000000000E+00 -0.00000000000E+00 -0.74505805969E-08  0.93827000000E+00  0.93827000000E+00 0. -1.
     999902    2    1    2    0    0  0.17018863736E-01 -0.32148473094E-02  0.15648132201E-01  0.10205881704E+01  0.10203212105E+01 0.  0.
     999903    2    3    3    0    0  0.73638284928E-02 -0.51366036172E-01  0.12074593869E+00  0.13297490689E+00  0.20249654583E-01 0.  0.
         14    1    1    2    0    0 -0.17018863736E-01  0.32148473094E-02 -0.15648132201E-01  0.23341829566E-01  0.00000000000E+00 0.  1.
     999901    1    3    3    0    0  0.96550352431E-02  0.48151188863E-01 -0.10509780649E+00  0.88761326355E+00  0.88000000000E+00 0. -1.
        -11    1    4    4    0    0  0.10908008219E-01 -0.12289600702E-01  0.37372822954E-01  0.40829008624E-01  0.51100000000E-03 0.  1.
         11    1    4    4    0    0 -0.35441797260E-02 -0.39076435470E-01  0.83373115732E-01  0.92145898264E-01  0.51100000000E-03 0. -1.
</event>
<event>
 8    1  0.1233916E+005  0.1043930E+01  0.7957747E-01            NaN
         13   -1    0    0    0    0  0.00000000000E+00  0.00000000000E+00  0.74505805969E-08  0.10566000000E+00  0.10566000000E+00 0. -1.
     999900   -1    0    0    0    0 -0.00000000000E+00 -0.00000000000E+00 -0.74505805969E-08  0.93827000000E+00  0.93827000000E+00 0. -1.
     999902    2    1    2    0    0 -0.21116654574E-01 -0.57996835296E-02 -0.16245962791E-01  0.10166631568E+01  0.10162974435E+01 0.  0.
     999903    2    3    3    0    0  0.44257040059E-01 -0.10776802227E+00 -0.48566030195E-01  0.12777854744E+00  0.19901398916E-01 0.  0.
         14    1    1    2    0    0  0.21116654574E-01  0.57996835296E-02  0.16245962791E-01  0.27266843170E-01  0.00000000000E+00 0. -1.
     999901    1    3    3    0    0 -0.65373694634E-01  0.10196833874E+00  0.32320067404E-01  0.88888460939E+00  0.88000000000E+00 0.  1.
        -11    1    4    4    0    0  0.54231018023E-03 -0.12166694377E-01 -0.53168557055E-03  0.12201080401E-01  0.51100000000E-03 0.  1.
         11    1    4    4    0    0  0.43714729879E-01 -0.95601327889E-01 -0.48034344624E-01  0.11557746704E+00  0.51100000000E-03 0. -1.
</event>
<event>
 8    1  0.1233916E+005  0.1043930E+01  0.7957747E-01            NaN
         13   -1    0    0    0    0  0.00000000000E+00  0.00000000000E+00  0.74505805969E-08  0.10566000000E+00  0.10566000000E+00 0.  1.
     999900   -1    0    0    0    0 -0.00000000000E+00 -0.00000000000E+00 -0.74505805969E-08  0.93827000000E+00  0.93827000000E+00 0. -1.
     999902    2    1    2    0    0  0.69452315600E-02  0.93553751828E-02 -0.20310173229E-01  0.10205149958E+01  0.10202463399E+01 0.  0.
     999903    2    3    3    0    0  0.11318308858E+00  0.39791619231E-02  0.61899459847E-01  0.13030501509E+00  0.17933448051E-01 0.  0.
         14    1    1    2    0    0 -0.69452315600E-02 -0.93553751828E-02  0.20310173229E-01  0.23415004225E-01  0.00000000000E+00 0.  1.
     999901    1    3    3    0    0 -0.10623785702E+00  0.53762132597E-02 -0.82209633076E-01  0.89020998068E+00  0.88000000000E+00 0. -1.
        -11    1    4    4    0    0  0.86199794322E-01  0.42628040631E-02  0.38182824256E-01  0.94375660150E-01  0.51100000000E-03 0. -1.
         11    1    4    4    0    0  0.26983294259E-01 -0.28364214003E-03  0.23716635591E-01  0.35929354944E-01  0.51100000000E-03 0.  1.
</event>
<event>
 8    1  0.1233916E+005  0.1043930E+01  0.7957747E-01            NaN
         13   -1    0    0    0    0  0.00000000000E+00  0.00000000000E+00  0.74505805969E-08  0.10566000000E+00  0.10566000000E+00 0.  1.
     999900   -1    0    0    0    0 -0.00000000000E+00 -0.00000000000E+00 -0.74505805969E-08  0.93827000000E+00  0.93827000000E+00 0.  1.
     999902    2    1    2    0    0 -0.72526887470E-02 -0.13067792731E-01  0.18425104854E-01  0.10202054728E+01  0.10199295827E+01 0.  0.
     999903    2    3    3    0    0  0.45457802217E-01 -0.77230935322E-01 -0.91036356453E-01  0.12954441707E+00  0.21519959205E-01 0.  0.
         14    1    1    2    0    0  0.72526887470E-02  0.13067792731E-01 -0.18425104854E-01  0.23724527178E-01  0.00000000000E+00 0. -1.
     999901    1    3    3    0    0 -0.52710490964E-01  0.64163142591E-01  0.10946146131E+00  0.89066105575E+00  0.88000000000E+00 0. -1.
        -11    1    4    4    0    0 -0.91314831606E-03 -0.57879997211E-02 -0.17241855938E-02  0.61293325558E-02  0.51100000000E-03 0.  1.
         11    1    4    4    0    0  0.46370950534E-01 -0.71442935601E-01 -0.89312170859E-01  0.12341508451E+00  0.51100000000E-03 0. -1.
</event>
<event>
 8    1  0.1233916E+005  0.1043930E+01  0.7957747E-01            NaN
         13   -1    0    0    0    0  0.00000000000E+00  0.00000000000E+00  0.74505805969E-08  0.10566000000E+00  0.10566000000E+00 0.  1.
     999900   -1    0    0    0    0 -0.00000000000E+00 -0.00000000000E+00 -0.74505805969E-08  0.93827000000E+00  0.93827000000E+00 0.  1.
     999902    2    1    2    0    0  0.20518406580E-01 -0.10821725139E-01  0.55911943027E-02  0.10200683949E+01  0.10197892695E+01 0.  0.
     999903    2    3    3    0    0  0.99037454098E-01 -0.24120797644E-01 -0.81991576737E-01  0.13214224487E+00  0.18674154049E-01 0.  0.
         14    1    1    2    0    0 -0.20518406580E-01  0.10821725139E-01 -0.55911943027E-02  0.23861605087E-01  0.00000000000E+00 0. -1.
     999901    1    3    3    0    0 -0.78519047518E-01  0.13299072505E-01  0.87582771039E-01  0.88792615005E+00  0.88000000000E+00 0. -1.
        -11    1    4    4    0    0  0.47882849077E-01 -0.17710589255E-01 -0.50028199730E-01  0.71480865249E-01  0.51100000000E-03 0.  1.
         11    1    4    4    0    0  0.51154605022E-01 -0.64102083887E-02 -0.31963377006E-01  0.60661379618E-01  0.51100000000E-03 0. -1.
</event>
<event>
 8    1  0.1233916E+005  0.1043930E+01  0.7957747E-01            NaN
         13   -1    0    0    0    0  0.00000000000E+00  0.00000000000E+00  0.74505805969E-08  0.10566000000E+00  0.10566000000E+00 0. -1.
     999900   -1    0    0    0    0 -0.00000000000E+00 -0.00000000000E+00 -0.74505805969E-08  0.93827000000E+00  0.93827000000E+00 0.  1.
     999902    2    1    2    0    0 -0.10675822650E-01  0.62217626595E-02 -0.16129923065E-01  0.10236110941E+01  0.10234094068E+01 0.  0.
     999903    2    3    3    0    0 -0.87708252588E-01 -0.80782849234E-02 -0.10168460577E+00  0.13599738848E+00  0.19938263803E-01 0.  0.
         14    1    1    2    0    0  0.10675822650E-01 -0.62217626595E-02  0.16129923065E-01  0.20318905923E-01  0.00000000000E+00 0. -1.
     999901    1    3    3    0    0  0.77032429939E-01  0.14300047583E-01  0.85554682710E-01  0.88761370559E+00  0.88000000000E+00 0. -1.
        -11    1    4    4    0    0 -0.67410826965E-01 -0.58315224460E-02 -0.64024625328E-01  0.93153851319E-01  0.51100000000E-03 0. -1.
         11    1    4    4    0    0 -0.20297425623E-01 -0.22467624774E-02 -0.37659980447E-01  0.42843537165E-01  0.51100000000E-03 0.  1.
</event>
<event>
 8    1  0.1233916E+005  0.1043930E+01  0.7957747E-01            NaN
         13   -1    0    0    0    0  0.00000000000E+00  0.00000000000E+00  0.74505805969E-08  0.10566000000E+00  0.10566000000E+00 0. -1.
     999900   -1    0    0    0    0 -0.00000000000E+00 -0.00000000000E+00 -0.74505805969E-08  0.93827000000E+00  0.93827000000E+00 0. -1.
     999902    2    1    2    0    0  0.14500817732E-01  0.61359606789E-03  0.18633998307E-01  0.10203105989E+01  0.10200371768E+01 0.  0.
     999903    2    3    3    0    0 -0.72825302177E-01 -0.10460099036E+00 -0.84835005922E-02  0.12933847860E+00  0.20287445443E-01 0.  0.
         14    1    1    2    0    0 -0.14500817732E-01 -0.61359606789E-03 -0.18633998307E-01  0.23619401092E-01  0.00000000000E+00 0.  1.
     999901    1    3    3    0    0  0.87326119910E-01  0.10521458643E+00  0.27117498899E-01  0.89097212031E+00  0.88000000000E+00 0. -1.
        -11    1    4    4    0    0 -0.66198988372E-02 -0.21792169166E-01 -0.46256547560E-02  0.23246064193E-01  0.51100000000E-03 0. -1.
         11    1    4    4    0    0 -0.66205403340E-01 -0.82808821197E-01 -0.38578458362E-02  0.10609241441E+00  0.51100000000E-03 0.  1.
</event>
<event>
 8    1  0.1233916E+005  0.1043930E+01  0.7957747E-01            NaN
         13   -1    0    0    0    0  0.00000000000E+00  0.00000000000E+00  0.74505805969E-08  0.10566000000E+00  0.10566000000E+00 0.  1.
     999900   -1    0    0    0    0 -0.00000000000E+00 -0.00000000000E+00 -0.74505805969E-08  0.93827000000E+00  0.93827000000E+00 0. -1.
     999902    2    1    2    0    0  0.14588394058E-01  0.51271540572E-03 -0.18637549929E-01  0.10202563356E+01  0.10199816410E+01 0.  0.
     999903    2    3    3    0    0  0.62177799691E-01 -0.53460228041E-01  0.98372861869E-01  0.12959968649E+00  0.19869172845E-01 0.  0.
         14    1    1    2    0    0 -0.14588394058E-01 -0.51271540572E-03  0.18637549929E-01  0.23673664390E-01  0.00000000000E+00 0.  1.
     999901    1    3    3    0    0 -0.47589405633E-01  0.53972943447E-01 -0.11701041180E+00  0.89065664912E+00  0.88000000000E+00 0. -1.
        -11    1    4    4    0    0  0.38844612724E-01 -0.44655675868E-01  0.73559933647E-01  0.94415879406E-01  0.51100000000E-03 0. -1.
         11    1    4    4    0    0  0.23333186967E-01 -0.88045521732E-02  0.24812928222E-01  0.35183807084E-01  0.51100000000E-03 0.  1.
</event>
<event>
 8    1  0.1233916E+005  0.1043930E+01  0.7957747E-01            NaN
         13   -1    0    0    0    0  0.00000000000E+00  0.00000000000E+00  0.74505805969E-08  0.10566000000E+00  0.10566000000E+00 0.  1.
     999900   -1    0    0    0    0 -0.00000000000E+00 -0.00000000000E+00 -0.74505805969E-08  0.93827000000E+00  0.93827000000E+00 0.  1.
     999902    2    1    2    0    0 -0.25862563606E-01  0.31730133173E-02  0.81840004207E-02  0.10166184993E+01  0.10162515707E+01 0.  0.
     999903    2    3    3    0    0 -0.21256786587E-01  0.95908530818E-01  0.80630874450E-01  0.12877299528E+00  0.20756905791E-01 0.  0.
         14    1    1    2    0    0  0.25862563606E-01 -0.31730133173E-02 -0.81840004207E-02  0.27311500740E-01  0.00000000000E+00 0. -1.
     999901    1    3    3    0    0 -0.46057770191E-02 -0.92735517500E-01 -0.72446874030E-01  0.88784550398E+00  0.88000000000E+00 0.  1.
        -11    1    4    4    0    0 -0.10619082023E-02  0.33280100776E-01  0.37196597446E-01  0.49925351668E-01  0.51100000000E-03 0. -1.
         11    1    4    4    0    0 -0.20194878385E-01  0.62628430042E-01  0.43434277005E-01  0.78847643607E-01  0.51100000000E-03 0.  1.
</event>
<event>
 8    1  0.1233916E+005  0.1043930E+01  0.7957747E-01            NaN
         13   -1    0    0    0    0  0.00000000000E+00  0.00000000000E+00  0.74505805969E-08  0.10566000000E+00  0.10566000000E+00 0.  1.
     999900   -1    0    0    0    0 -0.00000000000E+00 -0.00000000000E+00 -0.74505805969E-08  0.93827000000E+00  0.93827000000E+00 0.  1.
     999902    2    1    2    0    0  0.28413299532E-02  0.93866333855E-02 -0.19129819917E-01  0.10224327431E+01  0.10222067219E+01 0.  0.
     999903    2    3    3    0    0 -0.42694480706E-01  0.36748125674E-01  0.11616402823E+00  0.13050977189E+00  0.19117418251E-01 0.  0.
         14    1    1    2    0    0 -0.28413299532E-02 -0.93866333855E-02  0.19129819917E-01  0.21497256854E-01  0.00000000000E+00 0.  1.
     999901    1    3    3    0    0  0.45535810660E-01 -0.27361492289E-01 -0.13529384814E+00  0.89192297126E+00  0.88000000000E+00 0.  1.
        -11    1    4    4    0    0 -0.20148356713E-01  0.60865247041E-02  0.48554048866E-01  0.52922196133E-01  0.51100000000E-03 0. -1.
         11    1    4    4    0    0 -0.22546123993E-01  0.30661600970E-01  0.67609979362E-01  0.77587575754E-01  0.51100000000E-03 0.  1.
</event>
<event>
 8    1  0.1233916E+005  0.1043930E+01  0.7957747E-01            NaN
         13   -1    0    0    0    0  0.00000000000E+00  0.00000000000E+00  0.74505805969E-08  0.10566000000E+00  0.10566000000E+00 0.  1.
     999900   -1    0    0    0    0 -0.00000000000E+00 -0.00000000000E+00 -0.74505805969E-08  0.93827000000E+00  0.93827000000E+00 0.  1.
     999902    2    1    2    0    0  0.17794016884E-01  0.33692406730E-02 -0.59391028085E-02  0.10248708352E+01  0.10246936016E+01 0.  0.
     999903    2    3    3    0    0 -0.47820572284E-01 -0.33190882891E-01  0.11814272600E+00  0.13299740408E+00  0.18497674084E-01 0.  0.
         14    1    1    2    0    0 -0.17794016884E-01 -0.33692406730E-02  0.59391028085E-02  0.19059164770E-01  0.00000000000E+00 0.  1.
     999901    1    3    3    0    0  0.65614589167E-01  0.36560123564E-01 -0.12408182880E+00  0.89187343115E+00  0.88000000000E+00 0.  1.
        -11    1    4    4    0    0 -0.39623017646E-01 -0.17475517015E-01  0.81668650356E-01  0.92441369496E-01  0.51100000000E-03 0. -1.
         11    1    4    4    0    0 -0.81975546374E-02 -0.15715365876E-01  0.36474075639E-01  0.40556034586E-01  0.51100000000E-03 0.  1.
</event>
<event>
 8    1  0.1233916E+005  0.1043930E+01  0.7957747E-01            NaN
         13   -1    0    0    0    0  0.00000000000E+00  0.00000000000E+00  0.74505805969E-08  0.10566000000E+00  0.10566000000E+00 0. -1.
     999900   -1    0    0    0    0 -0.00000000000E+00 -0.00000000000E+00 -0.74505805969E-08  0.93827000000E+00  0.93827000000E+00 0. -1.
     999902    2    1    2    0    0 -0.33366244712E-02 -0.71138280046E-02  0.19742149485E-01  0.10226816571E+01  0.10224608939E+01 0.  0.
     999903    2    3    3    0    0 -0.10318372070E-01  0.12202627461E+00 -0.43292688115E-01  0.13099824818E+00  0.17011868973E-01 0.  0.
         14    1    1    2    0    0  0.33366244712E-02  0.71138280046E-02 -0.19742149485E-01  0.21248342948E-01  0.00000000000E+00 0.  1.
     999901    1    3    3    0    0  0.69817475993E-02 -0.12914010261E+00  0.63034837600E-01  0.89168340887E+00  0.88000000000E+00 0. -1.
        -11    1    4    4    0    0 -0.11963774881E-01  0.52872748249E-01 -0.23172060097E-01  0.58956466201E-01  0.51100000000E-03 0.  1.
         11    1    4    4    0    0  0.16454028106E-02  0.69153526358E-01 -0.20120628018E-01  0.72041781981E-01  0.51100000000E-03 0. -1.
</event>
<event>
 8    1  0.1233916E+005  0.1043930E+01  0.7957747E-01            NaN
         13   -1    0    0    0    0  0.00000000000E+00  0.00000000000E+00  0.74505805969E-08  0.10566000000E+00  0.10566000000E+00 0. -1.
     999900   -1    0    0    0    0 -0.00000000000E+00 -0.00000000000E+00 -0.74505805969E-08  0.93827000000E+00  0.93827000000E+00 0. -1.
     999902    2    1    2    0    0 -0.10895226391E-01 -0.13782357933E-01 -0.16601656586E-01  0.10197582324E+01  0.10194717152E+01 0.  0.
     999903    2    3    3    0    0 -0.10280938215E+00 -0.74081479904E-01  0.31129239132E-01  0.13163524848E+00  0.17348613492E-01 0.  0.
         14    1    1    2    0    0  0.10895226391E-01  0.13782357933E-01  0.16601656586E-01  0.24171767617E-01  0.00000000000E+00 0.  1.
     999901    1    3    3    0    0  0.91914155756E-01  0.60299121971E-01 -0.47730895718E-01  0.88812298391E+00  0.88000000000E+00 0. -1.
        -11    1    4    4    0    0 -0.36918615509E-01 -0.21956911818E-01  0.18096275497E-01  0.46613586598E-01  0.51100000000E-03 0. -1.
         11    1    4    4    0    0 -0.65890766638E-01 -0.52124568086E-01  0.13032963635E-01  0.85021661878E-01  0.51100000000E-03 0.  1.
</event>
<event>
 8    1  0.1233916E+005  0.1043930E+01  0.7957747E-01            NaN
         13   -1    0    0    0    0  0.00000000000E+00  0.00000000000E+00  0.74505805969E-08  0.10566000000E+00  0.10566000000E+00 0.  1.
     999900   -1    0    0    0    0 -0.00000000000E+00 -0.00000000000E+00 -0.74505805969E-08  0.93827000000E+00  0.93827000000E+00 0.  1.
     999902    2    1    2    0    0 -0.63658379874E-02 -0.19605348303E-01  0.11845622820E-01  0.10201558048E+01  0.10198787447E+01 0.  0.
     999903    2    3    3    0    0  0.12418076986E+00  0.10496239531E-01 -0.26923825654E-01  0.12917230750E+00  0.20725780749E-01 0.  0.
         14    1    1    2    0    0  0.63658379874E-02  0.19605348303E-01 -0.11845622820E-01  0.23774195157E-01  0.00000000000E+00 0. -1.
     999901    1    3    3    0    0 -0.13054660785E+00 -0.30101587834E-01  0.38769448474E-01  0.89098349735E+00  0.88000000000E+00 0. -1.
        -11    1    4    4    0    0  0.96429748252E-01  0.50883908750E-03 -0.24953140096E-01  0.99608612011E-01  0.51100000000E-03 0. -1.
         11    1    4    4    0    0  0.27751021612E-01  0.99874004435E-02 -0.19706855572E-02  0.29563695484E-01  0.51100000000E-03 0.  1.
</event>
<event>
 8    1  0.1233916E+005  0.1043930E+01  0.7957747E-01            NaN
         13   -1    0    0    0    0  0.00000000000E+00  0.00000000000E+00  0.74505805969E-08  0.10566000000E+00  0.10566000000E+00 0. -1.
     999900   -1    0    0    0    0 -0.00000000000E+00 -0.00000000000E+00 -0.74505805969E-08  0.93827000000E+00  0.93827000000E+00 0.  1.
     999902    2    1    2    0    0  0.37320829952E-02  0.15674367645E-01 -0.18242609826E-01  0.10195905863E+01  0.10193000327E+01 0.  0.
     999903    2    3    3    0    0  0.84461329331E-01 -0.93279471960E-01  0.16789206053E-01  0.12851518071E+00  0.19987450848E-01 0.  0.
         14    1    1    2    0    0 -0.37320829952E-02 -0.15674367645E-01  0.18242609826E-01  0.24339413670E-01  0.00000000000E+00 0. -1.
     999901    1    3    3    0    0 -0.80729246335E-01  0.10895383960E+00 -0.35031815879E-01  0.89107540562E+00  0.88000000000E+00 0. -1.
        -11    1    4    4    0    0  0.11725807732E-01 -0.87476760870E-02 -0.37738298992E-02  0.15116855394E-01  0.51100000000E-03 0. -1.
         11    1    4    4    0    0  0.72735521598E-01 -0.84531795873E-01  0.20563035953E-01  0.11339832532E+00  0.51100000000E-03 0.  1.
</event>
<event>
 8    1  0.1233916E+005  0.1043930E+01  0.7957747E-01            NaN
         13   -1    0    0    0    0  0.00000000000E+00  0.00000000000E+00  0.74505805969E-08  0.10566000000E+00  0.10566000000E+00 0.  1.
     999900   -1    0    0    0    0 -0.00000000000E+00 -0.00000000000E+00 -0.74505805969E-08  0.93827000000E+00  0.93827000000E+00 0.  1.
     999902    2    1    2    0    0 -0.64921614303E-02  0.20200653383E-01 -0.11020779027E-01  0.10200203340E+01  0.10197400697E+01 0.  0.
     999903    2    3    3    0    0 -0.38131015997E-01 -0.27020854589E-01  0.11837099638E+00  0.12874421548E+00  0.19475093627E-01 0.  0.
         14    1    1    2    0    0  0.64921614303E-02 -0.20200653383E-01  0.11020779027E-01  0.23909665985E-01  0.00000000000E+00 0. -1.
     999901    1    3    3    0    0  0.31638854566E-01  0.47221507972E-01 -0.12939177540E+00  0.89127611854E+00  0.88000000000E+00 0.  1.
        -11    1    4    4    0    0 -0.29643874606E-01 -0.24494454263E-01  0.72961466525E-01  0.82476507624E-01  0.51100000000E-03 0. -1.
         11    1    4    4    0    0 -0.84871413902E-02 -0.25264003260E-02  0.45409529853E-01  0.46267707854E-01  0.51100000000E-03 0.  1.
</event>
<event>
 8    1  0.1233916E+005  0.1043930E+01  0.7957747E-01            NaN
         13   -1    0    0    0    0  0.00000000000E+00  0.00000000000E+00  0.74505805969E-08  0.10566000000E+00  0.10566000000E+00 0. -1.
     999900   -1    0    0    0    0 -0.00000000000E+00 -0.00000000000E+00 -0.74505805969E-08  0.93827000000E+00  0.93827000000E+00 0.  1.
     999902    2    1    2    0    0 -0.46468706303E-02 -0.24579138322E-01 -0.94509725822E-03  0.10188976079E+01  0.10185900621E+01 0.  0.
     999903    2    3    3    0    0 -0.62383269027E-01  0.10004244231E+00 -0.43583096531E-01  0.12722388444E+00  0.19653700717E-01 0.  0.
         14    1    1    2    0    0  0.46468706303E-02  0.24579138322E-01  0.94509725822E-03  0.25032392138E-01  0.00000000000E+00 0. -1.
     999901    1    3    3    0    0  0.57736398397E-01 -0.12462158063E+00  0.42637999273E-01  0.89167372342E+00  0.88000000000E+00 0.  1.
        -11    1    4    4    0    0 -0.49535065782E-01  0.78918220378E-01 -0.42653979101E-01  0.10247649147E+00  0.51100000000E-03 0.  1.
         11    1    4    4    0    0 -0.12848203245E-01  0.21124221928E-01 -0.92911742988E-03  0.24747392972E-01  0.51100000000E-03 0. -1.
</event>
<event>
 8    1  0.1233916E+005  0.1043930E+01  0.7957747E-01            NaN
         13   -1    0    0    0    0  0.00000000000E+00  0.00000000000E+00  0.74505805969E-08  0.10566000000E+00  0.10566000000E+00 0.  1.
     999900   -1    0    0    0    0 -0.00000000000E+00 -0.00000000000E+00 -0.74505805969E-08  0.93827000000E+00  0.93827000000E+00 0.  1.
     999902    2    1    2    0    0  0.11662866753E-01  0.97842669001E-02  0.17327317284E-01  0.10208650859E+01  0.10206044941E+01 0.  0.
     999903    2    3    3    0    0 -0.67041413491E-01 -0.10656611338E+00 -0.19699561729E-01  0.12895546910E+00  0.19762404527E-01 0.  0.
         14    1    1    2    0    0 -0.11662866753E-01 -0.97842669001E-02 -0.17327317284E-01  0.23064914132E-01  0.00000000000E+00 0. -1.
     999901    1    3    3    0    0  0.78704280244E-01  0.11635038028E+00  0.37026879012E-01  0.89190961677E+00  0.88000000000E+00 0. -1.
        -11    1    4    4    0    0 -0.46965118535E-01 -0.60229979998E-01 -0.59150119490E-02  0.76606927474E-01  0.51100000000E-03 0.  1.
         11    1    4    4    0    0 -0.20076294956E-01 -0.46336133386E-01 -0.13784549780E-01  0.52348541622E-01  0.51100000000E-03 0. -1.
</event>
<event>
 8    1  0.1233916E+005  0.1043930E+01  0.7957747E-01            NaN
         13   -1    0    0    0    0  0.00000000000E+00  0.00000000000E+00  0.74505805969E-08  0.10566000000E+00  0.10566000000E+00 0. -1.
     999900   -1    0    0    0    0 -0.00000000000E+00 -0.00000000000E+00 -0.74505805969E-08  0.93827000000E+00  0.93827000000E+00 0. -1.
     999902    2    1    2    0    0 -0.10694274385E-01 -0.19472742217E-01  0.99699012816E-02  0.10195793506E+01  0.10192885254E+01 0.  0.
     999903    2    3    3    0    0 -0.55214300514E-01 -0.11910076962E+00  0.75895917859E-02  0.13283618461E+00  0.18821204358E-01 0.  0.
         14    1    1    2    0    0  0.10694274385E-01  0.19472742217E-01 -0.99699012816E-02  0.24350649388E-01  0.00000000000E+00 0. -1.
     999901    1    3    3    0    0  0.44520026129E-01  0.99628027405E-01  0.23803094957E-02  0.88674316600E+00  0.88000000000E+00 0. -1.
        -11    1    4    4    0    0 -0.27488269679E-01 -0.68773670431E-01 -0.41744032578E-02  0.74182946005E-01  0.51100000000E-03 0. -1.
         11    1    4    4    0    0 -0.27726030836E-01 -0.50327099190E-01  0.11763995044E-01  0.58653238608E-01  0.51100000000E-03 0.  1.
</event>
<event>
 8    1  0.1233916E+005  0.1043930E+01  0.7957747E-01            NaN
         13   -1    0    0    0    0  0.00000000000E+00  0.00000000000E+00  0.74505805969E-08  0.10566000000E+00  0.10566000000E+00 0. -1.
     999900   -1    0    0    0    0 -0.00000000000E+00 -0.00000000000E+00 -0.74505805969E-08  0.93827000000E+00  0.93827000000E+00 0. -1.
     999902    2    1    2    0    0  0.10112816365E-01 -0.16242523999E-01 -0.12641740093E-01  0.10209974416E+01  0.10207398658E+01 0.  0.
     999903    2    3    3    0    0 -0.87826112589E-01 -0.10476797981E-01  0.92413418220E-01  0.12933502587E+00  0.19081920770E-01 0.  0.
         14    1    1    2    0    0 -0.10112816365E-01  0.16242523999E-01  0.12641740093E-01  0.22932558367E-01  0.00000000000E+00 0. -1.
     999901    1    3    3    0    0  0.97938928955E-01 -0.57657260172E-02 -0.10505515831E+00  0.89166241577E+00  0.88000000000E+00 0. -1.
        -11    1    4    4    0    0 -0.38833407237E-01 -0.66415808002E-02  0.28102353442E-01  0.48395738481E-01  0.51100000000E-03 0.  1.
         11    1    4    4    0    0 -0.48992705352E-01 -0.38352171812E-02  0.64311064778E-01  0.80939287385E-01  0.51100000000E-03 0. -1.
</event>
<event>
 8    1  0.1233916E+005  0.1043930E+01  0.7957747E-01            NaN
         13   -1    0    0    0    0  0.00000000000E+00  0.00000000000E+00  0.74505805969E-08  0.10566000000E+00  0.10566000000E+00 0. -1.
     999900   -1    0    0    0    0 -0.00000000000E+00 -0.00000000000E+00 -0.74505805969E-08  0.93827000000E+00  0.93827000000E+00 0.  1.
     999902    2    1    2    0    0  0.15205639647E-01  0.10478175625E-01  0.14262455362E-01  0.10205971632E+01  0.10203304113E+01 0.  0.
     999903    2    3    3    0    0 -0.79060384424E-01 -0.89392457841E-01  0.45773287800E-01  0.12938834405E+00  0.20114517032E-01 0.  0.
         14    1    1    2    0    0 -0.15205639647E-01 -0.10478175625E-01 -0.14262455362E-01  0.23332836828E-01  0.00000000000E+00 0.  1.
     999901    1    3    3    0    0  0.94266024071E-01  0.99870633466E-01 -0.31510832438E-01  0.89120881912E+00  0.88000000000E+00 0.  1.
        -11    1    4    4    0    0 -0.74221235504E-01 -0.79107010561E-01  0.35721695192E-01  0.11420600487E+00  0.51100000000E-03 0. -1.
         11    1    4    4    0    0 -0.48391489205E-02 -0.10285447280E-01  0.10051592608E-01  0.15182339180E-01  0.51100000000E-03 0.  1.
</event>
<event>
 8    1  0.1233916E+005  0.1043930E+01  0.7957747E-01            NaN
         13   -1    0    0    0    0  0.00000000000E+00  0.00000000000E+00  0.74505805969E-08  0.10566000000E+00  0.10566000000E+00 0. -1.
     999900   -1    0    0    0    0 -0.00000000000E+00 -0.00000000000E+00 -0.74505805969E-08  0.93827000000E+00  0.93827000000E+00 0.  1.
     999902    2    1    2    0    0 -0.21869990554E-01  0.24577310738E-02 -0.73248488514E-02  0.10207353812E+01  0.10204718165E+01 0.  0.
     999903    2    3    3    0    0 -0.20618082624E-01 -0.46281696779E-01  0.11682436294E+00  0.13068475015E+00  0.29384883153E-01 0.  0.
         14    1    1    2    0    0  0.21869990554E-01 -0.24577310738E-02  0.73248488514E-02  0.23194618763E-01  0.00000000000E+00 0. -1.
     999901    1    3    3    0    0 -0.12519079298E-02  0.48739427853E-01 -0.12414921179E+00  0.89005063108E+00  0.88000000000E+00 0.  1.
        -11    1    4    4    0    0 -0.23388937369E-01 -0.43532876183E-01  0.82755596619E-01  0.96389333397E-01  0.51100000000E-03 0.  1.
         11    1    4    4    0    0  0.27708547443E-02 -0.27488205964E-02  0.34068766325E-01  0.34295416757E-01  0.51100000000E-03 0. -1.
</event>
<event>
 8    1  0.1233916E+005  0.1043930E+01  0.7957747E-01            NaN
         13   -1    0    0    0    0  0.00000000000E+00  0.00000000000E+00  0.74505805969E-08  0.10566000000E+00  0.10566000000E+00 0. -1.
     999900   -1    0    0    0    0 -0.00000000000E+00 -0.00000000000E+00 -0.74505805969E-08  0.93827000000E+00  0.93827000000E+00 0.  1.
     999902    2    1    2    0    0  0.60185102586E-02  0.17108631663E-01 -0.13779123568E-01  0.10211529943E+01  0.10208989400E+01 0.  0.
     999903    2    3    3    0    0  0.16179976675E-01  0.11987685765E+00 -0.54570782668E-01  0.13417581131E+00  0.19822345327E-01 0.  0.
         14    1    1    2    0    0 -0.60185102586E-02 -0.17108631663E-01  0.13779123568E-01  0.22777005717E-01  0.00000000000E+00 0. -1.
     999901    1    3    3    0    0 -0.10161466416E-01 -0.10276822598E+00  0.40791659100E-01  0.88697718298E+00  0.88000000000E+00 0. -1.
        -11    1    4    4    0    0  0.16677099583E-01  0.51117788142E-01 -0.25704659278E-01  0.59599870340E-01  0.51100000000E-03 0.  1.
         11    1    4    4    0    0 -0.49712290819E-03  0.68759069504E-01 -0.28866123390E-01  0.74575940965E-01  0.51100000000E-03 0. -1.
</event>
<event>
 8    1  0.1233916E+005  0.1043930E+01  0.7957747E-01            NaN
         13   -1    0    0    0    0  0.00000000000E+00  0.00000000000E+00  0.74505805969E-08  0.10566000000E+00  0.10566000000E+00 0.  1.
     999900   -1    0    0    0    0 -0.00000000000E+00 -0.00000000000E+00 -0.74505805969E-08  0.93827000000E+00  0.93827000000E+00 0.  1.
     999902    2    1    2    0    0  0.10909602371E-01 -0.16936617544E-01  0.92262912342E-02  0.10217716407E+01  0.10215313470E+01 0.  0.
     999903    2    3    3    0    0  0.80156906401E-01  0.18193087292E-01 -0.10068234485E+00  0.13154178634E+00  0.20253121244E-01 0.  0.
         14    1    1    2    0    0 -0.10909602371E-01  0.16936617544E-01 -0.92262912342E-02  0.22158359318E-01  0.00000000000E+00 0. -1.
     999901    1    3    3    0    0 -0.69247304030E-01 -0.35129704836E-01  0.10990863608E+00  0.89022985434E+00  0.88000000000E+00 0. -1.
        -11    1    4    4    0    0  0.71134176915E-01  0.14720975905E-01 -0.96995325223E-01  0.12118222845E+00  0.51100000000E-03 0. -1.
         11    1    4    4    0    0  0.90227294858E-02  0.34721113876E-02 -0.36870196263E-02  0.10359557886E-01  0.51100000000E-03 0.  1.
</event>
<event>
 8    1  0.1233916E+005  0.1043930E+01  0.7957747E-01            NaN
         13   -1    0    0    0    0  0.00000000000E+00  0.00000000000E+00  0.74505805969E-08  0.10566000000E+00  0.10566000000E+00 0.  1.
     999900   -1    0    0    0    0 -0.00000000000E+00 -0.00000000000E+00 -0.74505805969E-08  0.93827000000E+00  0.93827000000E+00 0. -1.
     999902    2    1    2    0    0  0.49304406107E-02  0.13797260727E-01 -0.19078887100E-01  0.10198742817E+01  0.10195905418E+01 0.  0.
     999903    2    3    3    0    0  0.12423650008E+00  0.22974923359E-01  0.26109237919E-01  0.13062733518E+00  0.20475676668E-01 0.  0.
         14    1    1    2    0    0 -0.49304406107E-02 -0.13797260727E-01  0.19078887100E-01  0.24055718263E-01  0.00000000000E+00 0.  1.
     999901    1    3    3    0    0 -0.11930605947E+00 -0.91776626317E-02 -0.45188125019E-01  0.88924694656E+00  0.88000000000E+00 0. -1.
        -11    1    4    4    0    0  0.44667899732E-01  0.17725130908E-01  0.13267720636E-01  0.49856745422E-01  0.51100000000E-03 0. -1.
         11    1    4    4    0    0  0.79568600351E-01  0.52497924510E-02  0.12841517283E-01  0.80770589758E-01  0.51100000000E-03 0.  1.
</event>
<event>
 8    1  0.1233916E+005  0.1043930E+01  0.7957747E-01            NaN
         13   -1    0    0    0    0  0.00000000000E+00  0.00000000000E+00  0.74505805969E-08  0.10566000000E+00  0.10566000000E+00 0. -1.
     999900   -1    0    0    0    0 -0.00000000000E+00 -0.00000000000E+00 -0.74505805969E-08  0.93827000000E+00  0.93827000000E+00 0. -1.
     999902    2    1    2    0    0  0.57129720019E-02 -0.86776710789E-02  0.21713834006E-01  0.10198586350E+01  0.10195745215E+01 0.  0.
     999903    2    3    3    0    0 -0.67927663223E-01  0.72394380408E-01  0.82817524451E-01  0.13096646965E+00  0.20937050169E-01 0.  0.
         14    1    1    2    0    0 -0.57129720019E-02  0.86776710789E-02 -0.21713834006E-01  0.24071364973E-01  0.00000000000E+00 0.  1.
     999901    1    3    3    0    0  0.73640635225E-01 -0.81072051487E-01 -0.61103690446E-01  0.88889216538E+00  0.88000000000E+00 0. -1.
        -11    1    4    4    0    0 -0.56063624293E-01  0.62112893074E-01  0.58799504813E-01  0.10226819810E+00  0.51100000000E-03 0. -1.
         11    1    4    4    0    0 -0.11864038930E-01  0.10281487334E-01  0.24018019639E-01  0.28698271549E-01  0.51100000000E-03 0.  1.
</event>
<event>
 8    1  0.1233916E+005  0.1043930E+01  0.7957747E-01            NaN
         13   -1    0    0    0    0  0.00000000000E+00  0.00000000000E+00  0.74505805969E-08  0.10566000000E+00  0.10566000000E+00 0. -1.
     999900   -1    0    0    0    0 -0.00000000000E+00 -0.00000000000E+00 -0.74505805969E-08  0.93827000000E+00  0.93827000000E+00 0. -1.
     999902    2    1    2    0    0  0.21303238205E-01  0.20122206884E-02  0.97525301249E-02  0.10204142854E+01  0.10201432865E+01 0.  0.
     999903    2    3    3    0    0 -0.37556201155E-01  0.14541049113E-01 -0.12065866167E+00  0.12877058744E+00  0.20035997576E-01 0.  0.
         14    1    1    2    0    0 -0.21303238205E-01 -0.20122206884E-02 -0.97525301249E-02  0.23515714617E-01  0.00000000000E+00 0.  1.
     999901    1    3    3    0    0  0.58859439360E-01 -0.12528828425E-01  0.13041119179E+00  0.89164369795E+00  0.88000000000E+00 0.  1.
        -11    1    4    4    0    0 -0.59208866576E-02  0.17251438565E-02 -0.49080119062E-01  0.49468699480E-01  0.51100000000E-03 0.  1.
         11    1    4    4    0    0 -0.31635314497E-01  0.12815905257E-01 -0.71578542605E-01  0.79301887956E-01  0.51100000000E-03 0. -1.
</event>
<event>
 7    1  0.1233916E+005  0.1043930E+01  0.7957747E-01            NaN
         13   -1    0    0    0    0  0.00000000000E+00  0.00000000000E+00  0.74505805969E-08  0.10566000000E+00  0.10566000000E+00 0. -1.
     999900   -1    0    0    0    0 -0.00000000000E+00 -0.00000000000E+00 -0.74505805969E-08  0.93827000000E+00  0.93827000000E+00 0. -1.
     999903    2    1    2    0    0  0.18138983611E-01  0.83199374723E-01  0.21894894956E-02  0.87550786932E-01  0.20228389638E-01 0.  0.
         14    1    1    2    0    0 -0.15197934945E-01  0.62498104201E-01  0.28075347572E-02  0.64380684267E-01  0.00000000000E+00 0.  1.
     999901    1    1    2    0    0 -0.29410486653E-02 -0.14569747892E+00 -0.49970242528E-02  0.89199852880E+00  0.88000000000E+00 0.  1.
        -11    1    3    3    0    0  0.12646537111E-01  0.80207132169E-01  0.12797743951E-02  0.81209715522E-01  0.51100000000E-03 0.  1.
         11    1    3    3    0    0  0.54924464997E-02  0.29922425539E-02  0.90971510044E-03  0.63410714093E-02  0.51100000000E-03 0. -1.
</event>
<event>
 8    1  0.1233916E+005  0.1043930E+01  0.7957747E-01            NaN
         13   -1    0    0    0    0  0.00000000000E+00  0.00000000000E+00  0.74505805969E-08  0.10566000000E+00  0.10566000000E+00 0.  1.
     999900   -1    0    0    0    0 -0.00000000000E+00 -0.00000000000E+00 -0.74505805969E-08  0.93827000000E+00  0.93827000000E+00 0.  1.
     999902    2    1    2    0    0  0.12466476174E-01  0.16967722231E-01  0.11803479586E-01  0.10197920888E+01  0.10195063833E+01 0.  0.
     999903    2    3    3    0    0  0.30440733975E-01 -0.39715512897E-01  0.11992647931E+00  0.13118269985E+00  0.17960513675E-01 0.  0.
         14    1    1    2    0    0 -0.12466476174E-01 -0.16967722231E-01 -0.11803479586E-01  0.24137911183E-01  0.00000000000E+00 0. -1.
     999901    1    3    3    0    0 -0.17974257801E-01  0.56683235128E-01 -0.10812299972E+00  0.88860938897E+00  0.88000000000E+00 0.  1.
        -11    1    4    4    0    0  0.28627084077E-01 -0.31811714876E-01  0.11170571771E+00  0.11962409304E+00  0.51100000000E-03 0.  1.
         11    1    4    4    0    0  0.18136498980E-02 -0.79037980215E-02  0.82207615984E-02  0.11558606809E-01  0.51100000000E-03 0. -1.
</event>
<event>
 8    1  0.1233916E+005  0.1043930E+01  0.7957747E-01            NaN
         13   -1    0    0    0    0  0.00000000000E+00  0.00000000000E+00  0.74505805969E-08  0.10566000000E+00  0.10566000000E+00 0. -1.
     999900   -1    0    0    0    0 -0.00000000000E+00 -0.00000000000E+00 -0.74505805969E-08  0.93827000000E+00  0.93827000000E+00 0. -1.
     999902    2    1    2    0    0  0.77355691443E-02  0.54992814090E-02  0.22483246280E-01  0.10195255437E+01  0.10192334162E+01 0.  0.
     999903    2    3    3    0    0 -0.12534842978E+00 -0.16669551812E-01  0.18525231703E-01  0.12923431388E+00  0.19189082056E-01 0.  0.
         14    1    1    2    0    0 -0.77355691443E-02 -0.54992814090E-02 -0.22483246280E-01  0.24404456341E-01  0.00000000000E+00 0.  1.
     999901    1    3    3    0    0  0.13308399892E+00  0.22168833221E-01  0.39580145771E-02  0.89029122978E+00  0.88000000000E+00 0.  1.
        -11    1    4    4    0    0 -0.87642704481E-01 -0.18410448148E-01  0.73130613776E-02  0.89855051263E-01  0.51100000000E-03 0.  1.
         11    1    4    4    0    0 -0.37705725297E-01  0.17408963358E-02  0.11212170325E-01  0.39379262622E-01  0.51100000000E-03 0. -1.
</event>
<event>
 8    1  0.1233916E+005  0.1043930E+01  0.7957747E-01            NaN
         13   -1    0    0    0    0  0.00000000000E+00  0.00000000000E+00  0.74505805969E-08  0.10566000000E+00  0.10566000000E+00 0.  1.
     999900   -1    0    0    0    0 -0.00000000000E+00 -0.00000000000E+00 -0.74505805969E-08  0.93827000000E+00  0.93827000000E+00 0.  1.
     999902    2    1    2    0    0  0.39467428164E-02 -0.12057200871E-01  0.17668790826E-01  0.10221782405E+01  0.10219467776E+01 0.  0.
     999903    2    3    3    0    0 -0.83219446009E-01  0.89705415149E-01  0.44141011654E-01  0.13164224855E+00  0.20216700848E-01 0.  0.
         14    1    1    2    0    0 -0.39467428164E-02  0.12057200871E-01 -0.17668790826E-01  0.21751759491E-01  0.00000000000E+00 0. -1.
     999901    1    3    3    0    0  0.87166188825E-01 -0.10176261602E+00 -0.26472220829E-01  0.89053599196E+00  0.88000000000E+00 0. -1.
        -11    1    4    4    0    0 -0.15333343979E-01  0.22456924568E-01  0.21994953062E-02  0.27285963410E-01  0.51100000000E-03 0.  1.
         11    1    4    4    0    0 -0.67886102030E-01  0.67248490581E-01  0.41941516348E-01  0.10435628514E+00  0.51100000000E-03 0. -1.
</event>
<event>
 8    1  0.1233916E+005  0.1043930E+01  0.7957747E-01            NaN
         13   -1    0    0    0    0  0.00000000000E+00  0.00000000000E+00  0.74505805969E-08  0.10566000000E+00  0.10566000000E+00 0. -1.
     999900   -1    0    0    0    0 -0.00000000000E+00 -0.00000000000E+00 -0.74505805969E-08  0.93827000000E+00  0.93827000000E+00 0.  1.
     999902    2    1    2    0    0  0.16673308166E-01  0.13872641914E-01 -0.95614585035E-02  0.10202261841E+01  0.10199507811E+01 0.  0.
     999903    2    3    3    0    0  0.10969734518E+00  0.38560835889E-01  0.59913831037E-01  0.13225670590E+00  0.19537745549E-01 0.  0.
         14    1    1    2    0    0 -0.16673308166E-01 -0.13872641914E-01  0.95614585035E-02  0.23703815886E-01  0.00000000000E+00 0. -1.
     999901    1    3    3    0    0 -0.93024037016E-01 -0.24688193976E-01 -0.69475289541E-01  0.88796947821E+00  0.88000000000E+00 0.  1.
        -11    1    4    4    0    0  0.67536101313E-01  0.25671921247E-01  0.47443478548E-01  0.86436782095E-01  0.51100000000E-03 0. -1.
         11    1    4    4    0    0  0.42161243869E-01  0.12888914642E-01  0.12470352489E-01  0.45819923804E-01  0.51100000000E-03 0.  1.
</event>
<event>
 8    1  0.1233916E+005  0.1043930E+01  0.7957747E-01            NaN
         13   -1    0    0    0    0  0.00000000000E+00  0.00000000000E+00  0.74505805969E-08  0.10566000000E+00  0.10566000000E+00 0. -1.
     999900   -1    0    0    0    0 -0.00000000000E+00 -0.00000000000E+00 -0.74505805969E-08  0.93827000000E+00  0.93827000000E+00 0.  1.
     999902    2    1    2    0    0  0.36191128214E-02 -0.22862243804E-01  0.85393730397E-02  0.10192581322E+01  0.10189594884E+01 0.  0.
     999903    2    3    3    0    0 -0.11614102159E+00 -0.83133264418E-02  0.54566942918E-01  0.12983545540E+00  0.17940064860E-01 0.  0.
         14    1    1    2    0    0 -0.36191128214E-02  0.22862243804E-01 -0.85393730397E-02  0.24671867811E-01  0.00000000000E+00 0.  1.
     999901    1    3    3    0    0  0.11976013442E+00 -0.14548917362E-01 -0.46027569878E-01  0.88942267679E+00  0.88000000000E+00 0.  1.
        -11    1    4    4    0    0 -0.95787964955E-01 -0.96603819757E-02  0.51555944336E-01  0.10921050191E+00  0.51100000000E-03 0. -1.
         11    1    4    4    0    0 -0.20353056638E-01  0.13470555340E-02  0.30109985817E-02  0.20624953493E-01  0.51100000000E-03 0.  1.
</event>
<event>
 8    1  0.1233916E+005  0.1043930E+01  0.7957747E-01            NaN
         13   -1    0    0    0    0  0.00000000000E+00  0.00000000000E+00  0.74505805969E-08  0.10566000000E+00  0.10566000000E+00 0. -1.
     999900   -1    0    0    0    0 -0.00000000000E+00 -0.00000000000E+00 -0.74505805969E-08  0.93827000000E+00  0.93827000000E+00 0. -1.
     999902    2    1    2    0    0  0.15616003536E-01  0.46241845502E-02 -0.16797132849E-01  0.10205337114E+01  0.10202654898E+01 0.  0.
     999903    2    3    3    0    0  0.65844171706E-01  0.72012050197E-02  0.11001678305E+00  0.13002190395E+00  0.20363954701E-01 0.  0.
         14    1    1    2    0    0 -0.15616003536E-01 -0.46241845502E-02  0.16797132849E-01  0.23396288619E-01  0.00000000000E+00 0. -1.
     999901    1    3    3    0    0 -0.50228168170E-01 -0.25770204694E-02 -0.12681391590E+00  0.89051180743E+00  0.88000000000E+00 0. -1.
        -11    1    4    4    0    0  0.41566930834E-01 -0.51673014021E-02  0.62350565217E-01  0.75115676437E-01  0.51100000000E-03 0.  1.
         11    1    4    4    0    0  0.24277240872E-01  0.12368506422E-01  0.47666217837E-01  0.54906227510E-01  0.51100000000E-03 0. -1.
</event>
<event>
 8    1  0.1233916E+005  0.1043930E+01  0.7957747E-01            NaN
         13   -1    0    0    0    0  0.00000000000E+00  0.00000000000E+00  0.74505805969E-08  0.10566000000E+00  0.10566000000E+00 0.  1.
     999900   -1    0    0    0    0 -0.00000000000E+00 -0.00000000000E+00 -0.74505805969E-08  0.93827000000E+00  0.93827000000E+00 0.  1.
     999902    2    1    2    0    0 -0.10809269070E-01  0.19414135564E-01 -0.72424014989E-02  0.10205590493E+01  0.10202914151E+01 0.  0.
     999903    2    3    3    0    0 -0.57102121056E-01 -0.79949910779E-01  0.81624201690E-01  0.12931636909E+00  0.20188426146E-01 0.  0.
         14    1    1    2    0    0  0.10809269070E-01 -0.19414135564E-01  0.72424014989E-02  0.23370950709E-01  0.00000000000E+00 0. -1.
     999901    1    3    3    0    0  0.46292851986E-01  0.99364046344E-01 -0.88866603189E-01  0.89124268020E+00  0.88000000000E+00 0. -1.
        -11    1    4    4    0    0 -0.26603001260E-01 -0.21167460513E-01  0.25352152177E-01  0.42411953522E-01  0.51100000000E-03 0. -1.
         11    1    4    4    0    0 -0.30499119797E-01 -0.58782450266E-01  0.56272049513E-01  0.86904415567E-01  0.51100000000E-03 0.  1.
</event>
<event>
 8    1  0.1233916E+005  0.1043930E+01  0.7957747E-01            NaN
         13   -1    0    0    0    0  0.00000000000E+00  0.00000000000E+00  0.74505805969E-08  0.10566000000E+00  0.10566000000E+00 0. -1.
     999900   -1    0    0    0    0 -0.00000000000E+00 -0.00000000000E+00 -0.74505805969E-08  0.93827000000E+00  0.93827000000E+00 0. -1.
     999902    2    1    2    0    0  0.16052008789E-01  0.15937841690E-01 -0.26137074605E-01  0.10093637093E+01  0.10087716636E+01 0.  0.
     999903    2    3    3    0    0  0.70297115669E-01  0.26634445694E-01 -0.97676261085E-01  0.12473112785E+00  0.19134369775E-01 0.  0.
         14    1    1    2    0    0 -0.16052008789E-01 -0.15937841690E-01  0.26137074605E-01  0.34566290701E-01  0.00000000000E+00 0. -1.
     999901    1    3    3    0    0 -0.54245106880E-01 -0.10696604004E-01  0.71539186479E-01  0.88463258145E+00  0.88000000000E+00 0.  1.
        -11    1    4    4    0    0  0.42874280030E-01  0.22343523872E-01 -0.49946924398E-01  0.69515417893E-01  0.51100000000E-03 0.  1.
         11    1    4    4    0    0  0.27422835639E-01  0.42909218224E-02 -0.47729336686E-01  0.55215709958E-01  0.51100000000E-03 0. -1.
</event>
<event>
 8    1  0.1233916E+005  0.1043930E+01  0.7957747E-01            NaN
         13   -1    0    0    0    0  0.00000000000E+00  0.00000000000E+00  0.74505805969E-08  0.10566000000E+00  0.10566000000E+00 0.  1.
     999900   -1    0    0    0    0 -0.00000000000E+00 -0.00000000000E+00 -0.74505805969E-08  0.93827000000E+00  0.93827000000E+00 0. -1.
     999902    2    1    2    0    0 -0.14295724646E-01  0.10341084494E-01  0.12433370225E-01  0.10223454114E+01  0.10221175303E+01 0.  0.
     999903    2    3    3    0    0 -0.10288834762E+00 -0.92369143393E-02  0.84161512012E-01  0.13477745497E+00  0.20260049398E-01 0.  0.
         14    1    1    2    0    0  0.14295724646E-01 -0.10341084494E-01 -0.12433370225E-01  0.21584588641E-01  0.00000000000E+00 0. -1.
     999901    1    3    3    0    0  0.88592622974E-01  0.19577998833E-01 -0.71728141786E-01  0.88756795639E+00  0.88000000000E+00 0.  1.
        -11    1    4    4    0    0 -0.22497416749E-01 -0.10527565306E-01  0.18674306560E-01  0.31079804345E-01  0.51100000000E-03 0.  1.
         11    1    4    4    0    0 -0.80390930871E-01  0.12906509663E-02  0.65487205451E-01  0.10369765062E+00  0.51100000000E-03 0. -1.
</event>
<event>
 8    1  0.1233916E+005  0.1043930E+01  0.7957747E-01            NaN
         13   -1    0    0    0    0  0.00000000000E+00  0.00000000000E+00  0.74505805969E-08  0.10566000000E+00  0.10566000000E+00 0.  1.
     999900   -1    0    0    0    0 -0.00000000000E+00 -0.00000000000E+00 -0.74505805969E-08  0.93827000000E+00  0.93827000000E+00 0. -1.
     999902    2    1    2    0    0  0.15548852520E-01  0.12087811120E-01 -0.13206351644E-01  0.10202173511E+01  0.10199417404E+01 0.  0.
     999903    2    3    3    0    0  0.34805296396E-01  0.12630470844E+00 -0.32641220094E-02  0.13257149935E+00  0.20006496818E-01 0.  0.
         14    1    1    2    0    0 -0.15548852520E-01 -0.12087811120E-01  0.13206351644E-01  0.23712648863E-01  0.00000000000E+00 0.  1.
     999901    1    3    3    0    0 -0.19256443876E-01 -0.11421689732E+00 -0.99422296345E-02  0.88764585179E+00  0.88000000000E+00 0. -1.
        -11    1    4    4    0    0  0.13467867202E-01  0.37923493605E-01  0.77447630335E-02  0.40985574165E-01  0.51100000000E-03 0.  1.
         11    1    4    4    0    0  0.21337429194E-01  0.88381214839E-01 -0.11008885043E-01  0.91585925185E-01  0.51100000000E-03 0. -1.
</event>
<event>
 8    1  0.1233916E+005  0.1043930E+01  0.7957747E-01            NaN
         13   -1    0    0    0    0  0.00000000000E+00  0.00000000000E+00  0.74505805969E-08  0.10566000000E+00  0.10566000000E+00 0.  1.
     999900   -1    0    0    0    0 -0.00000000000E+00 -0.00000000000E+00 -0.74505805969E-08  0.93827000000E+00  0.93827000000E+00 0.  1.
     999902    2    1    2    0    0 -0.15704183566E-01  0.69592644276E-02  0.14288684401E-01  0.10215867853E+01  0.10213424208E+01 0.  0.
     999903    2    3    3    0    0  0.92808169194E-01  0.87598908041E-01  0.23619562824E-01  0.13121340959E+00  0.19291193531E-01 0.  0.
         14    1    1    2    0    0  0.15704183566E-01 -0.69592644276E-02 -0.14288684401E-01  0.22343214737E-01  0.00000000000E+00 0. -1.
     999901    1    3    3    0    0 -0.10851235276E+00 -0.80639643614E-01 -0.93308784231E-02  0.89037337568E+00  0.88000000000E+00 0. -1.
        -11    1    4    4    0    0  0.32870384613E-01  0.29292915363E-01  0.17457211011E-01  0.47366152602E-01  0.51100000000E-03 0.  1.
         11    1    4    4    0    0  0.59937784582E-01  0.58305992679E-01  0.61623518123E-02  0.83847256983E-01  0.51100000000E-03 0. -1.
</event>
<event>
 8    1  0.1233916E+005  0.1043930E+01  0.7957747E-01            NaN
         13   -1    0    0    0    0  0.00000000000E+00  0.00000000000E+00  0.74505805969E-08  0.10566000000E+00  0.10566000000E+00 0. -1.
     999900   -1    0    0    0    0 -0.00000000000E+00 -0.00000000000E+00 -0.74505805969E-08  0.93827000000E+00  0.93827000000E+00 0.  1.
     999902    2    1    2    0    0 -0.10371987061E-01  0.12641269692E-01  0.16591501625E-01  0.10206349846E+01  0.10203691068E+01 0.  0.
     999903    2    3    3    0    0  0.76508697265E-01  0.46909205191E-02 -0.10115481494E+00  0.12851635102E+00  0.20213124474E-01 0.  0.
         14    1    1    2    0    0  0.10371987061E-01 -0.12641269692E-01 -0.16591501625E-01  0.23295015372E-01  0.00000000000E+00 0.  1.
     999901    1    3    3    0    0 -0.86880684327E-01  0.79503491728E-02  0.11774631657E+00  0.89211863361E+00  0.88000000000E+00 0. -1.
        -11    1    4    4    0    0  0.42367902666E-01 -0.56396810149E-02 -0.64414149966E-01  0.77306461664E-01  0.51100000000E-03 0.  1.
         11    1    4    4    0    0  0.34140794600E-01  0.10330601534E-01 -0.36740664979E-01  0.51209889358E-01  0.51100000000E-03 0. -1.
</event>
<event>
 8    1  0.1233916E+005  0.1043930E+01  0.7957747E-01            NaN
         13   -1    0    0    0    0  0.00000000000E+00  0.00000000000E+00  0.74505805969E-08  0.10566000000E+00  0.10566000000E+00 0.  1.
     999900   -1    0    0    0    0 -0.00000000000E+00 -0.00000000000E+00 -0.74505805969E-08  0.93827000000E+00  0.93827000000E+00 0.  1.
     999902    2    1    2    0    0  0.26598433732E-02 -0.11094409201E-01 -0.20203066372E-01  0.10207281774E+01  0.10204644470E+01 0.  0.
     999903    2    3    3    0    0 -0.18838397099E-01 -0.10384071601E+00  0.74361850619E-01  0.13055596072E+00  0.19426645266E-01 0.  0.
         14    1    1    2    0    0 -0.26598433732E-02  0.11094409201E-01  0.20203066372E-01  0.23201822625E-01  0.00000000000E+00 0.  1.
     999901    1    3    3    0    0  0.21498240472E-01  0.92746306810E-01 -0.94564916991E-01  0.89017221665E+00  0.88000000000E+00 0.  1.
        -11    1    4    4    0    0 -0.14428249205E-01 -0.90208423895E-01  0.71322413535E-01  0.11590031022E+00  0.51100000000E-03 0. -1.
         11    1    4    4    0    0 -0.44101478942E-02 -0.13632292116E-01  0.30394370838E-02  0.14655650500E-01  0.51100000000E-03 0.  1.
</event>
<event>
 8    1  0.1233916E+005  0.1043930E+01  0.7957747E-01            NaN
         13   -1    0    0    0    0  0.00000000000E+00  0.00000000000E+00  0.74505805969E-08  0.10566000000E+00  0.10566000000E+00 0. -1.
     999900   -1    0    0    0    0 -0.00000000000E+00 -0.00000000000E+00 -0.74505805969E-08  0.93827000000E+00  0.93827000000E+00 0. -1.
     999902    2    1    2    0    0 -0.17579740446E-01 -0.17496861366E-01  0.18153043186E-02  0.10190606863E+01  0.10187571839E+01 0.  0.
     999903    2    3    3    0    0 -0.16680085444E-01  0.19260402950E-01  0.12426418512E+00  0.12982189150E+00  0.27621503119E-01 0.  0.
         14    1    1    2    0    0  0.17579740446E-01  0.17496861366E-01 -0.18153043186E-02  0.24869313653E-01  0.00000000000E+00 0. -1.
     999901    1    3    3    0    0 -0.89965500117E-03 -0.36757264316E-01 -0.12244888081E+00  0.88923879485E+00  0.88000000000E+00 0. -1.
        -11    1    4    4    0    0 -0.22247514748E-01  0.12795189289E-01  0.64022760612E-01  0.68977125040E-01  0.51100000000E-03 0. -1.
         11    1    4    4    0    0  0.55674293033E-02  0.64652136611E-02  0.60241424512E-01  0.60844766455E-01  0.51100000000E-03 0.  1.
</event>
<event>
 8    1  0.1233916E+005  0.1043930E+01  0.7957747E-01            NaN
         13   -1    0    0    0    0  0.00000000000E+00  0.00000000000E+00  0.74505805969E-08  0.10566000000E+00  0.10566000000E+00 0.  1.
     999900   -1    0    0    0    0 -0.00000000000E+00 -0.00000000000E+00 -0.74505805969E-08  0.93827000000E+00  0.93827000000E+00 0.  1.
     999902    2    1    2    0    0 -0.38705918009E-02  0.23057456371E-01  0.66349679062E-02  0.10196266962E+01  0.10193370145E+01 0.  0.
     999903    2    3    3    0    0  0.23271622498E-01  0.41429918872E-01  0.11963560867E+00  0.13179597363E+00  0.28275310980E-01 0.  0.
         14    1    1    2    0    0  0.38705918009E-02 -0.23057456371E-01 -0.66349679062E-02  0.24303303774E-01  0.00000000000E+00 0. -1.
     999901    1    3    3    0    0 -0.27142214299E-01 -0.18372462501E-01 -0.11300064077E+00  0.88783072260E+00  0.88000000000E+00 0.  1.
        -11    1    4    4    0    0  0.29061433539E-01  0.26892842065E-01  0.87960263844E-01  0.96462744156E-01  0.51100000000E-03 0.  1.
         11    1    4    4    0    0 -0.57898110407E-02  0.14537076806E-01  0.31675344828E-01  0.35333229472E-01  0.51100000000E-03 0. -1.
</event>
<event>
 8    1  0.1233916E+005  0.1043930E+01  0.7957747E-01            NaN
         13   -1    0    0    0    0  0.00000000000E+00  0.00000000000E+00  0.74505805969E-08  0.10566000000E+00  0.10566000000E+00 0. -1.
     999900   -1    0    0    0    0 -0.00000000000E+00 -0.00000000000E+00 -0.74505805969E-08  0.93827000000E+00  0.93827000000E+00 0. -1.
     999902    2    1    2    0    0 -0.16951251934E-01  0.15458471771E-01 -0.11589316661E-02  0.10209593140E+01  0.10207008712E+01 0.  0.
     999903    2    3    3    0    0 -0.10131976455E+00 -0.80819502969E-01  0.12429026284E-01  0.13159317629E+00  0.19099649293E-01 0.  0.
         14    1    1    2    0    0  0.16951251934E-01 -0.15458471771E-01  0.11589316661E-02  0.22970685976E-01  0.00000000000E+00 0. -1.
     999901    1    3    3    0    0  0.84368512620E-01  0.96277974740E-01 -0.13587957951E-01  0.88936613773E+00  0.88000000000E+00 0.  1.
        -11    1    4    4    0    0 -0.55091624128E-01 -0.55895066384E-01  0.74019757027E-02  0.78831439543E-01  0.51100000000E-03 0. -1.
         11    1    4    4    0    0 -0.46228140426E-01 -0.24924436584E-01  0.50270505817E-02  0.52761736749E-01  0.51100000000E-03 0.  1.
</event>
<event>
 8    1  0.1233916E+005  0.1043930E+01  0.7957747E-01            NaN
         13   -1    0    0    0    0  0.00000000000E+00  0.00000000000E+00  0.74505805969E-08  0.10566000000E+00  0.10566000000E+00 0. -1.
     999900   -1    0    0    0    0 -0.00000000000E+00 -0.00000000000E+00 -0.74505805969E-08  0.93827000000E+00  0.93827000000E+00 0. -1.
     999902    2    1    2    0    0  0.22814890827E-01  0.82795523797E-03  0.14808691720E-02  0.10210521127E+01  0.10207957774E+01 0.  0.
     999903    2    3    3    0    0  0.59962736706E-01 -0.11539887319E+00  0.15037270554E-01  0.13252951079E+00  0.20628184544E-01 0.  0.
         14    1    1    2    0    0 -0.22814890827E-01 -0.82795523797E-03 -0.14808691720E-02  0.22877887289E-01  0.00000000000E+00 0. -1.
     999901    1    3    3    0    0 -0.37147845879E-01  0.11622682843E+00 -0.13556401382E-01  0.88852260192E+00  0.88000000000E+00 0. -1.
        -11    1    4    4    0    0  0.14098705193E-01 -0.46020925137E-01  0.10308461605E-01  0.49226258645E-01  0.51100000000E-03 0. -1.
         11    1    4    4    0    0  0.45864031513E-01 -0.69377948057E-01  0.47288089491E-02  0.83303252147E-01  0.51100000000E-03 0.  1.
</event>
<event>
 8    1  0.1233916E+005  0.1043930E+01  0.7957747E-01            NaN
         13   -1    0    0    0    0  0.00000000000E+00  0.00000000000E+00  0.74505805969E-08  0.10566000000E+00  0.10566000000E+00 0.  1.
     999900   -1    0    0    0    0 -0.00000000000E+00 -0.00000000000E+00 -0.74505805969E-08  0.93827000000E+00  0.93827000000E+00 0. -1.
     999902    2    1    2    0    0 -0.16782453437E-01 -0.49725719513E-02 -0.16101651873E-01  0.10201468041E+01  0.10198695316E+01 0.  0.
     999903    2    3    3    0    0  0.86723561138E-01  0.27347419484E-01  0.86847865184E-01  0.12753452545E+00  0.21298969116E-01 0.  0.
         14    1    1    2    0    0  0.16782453437E-01  0.49725719513E-02  0.16101651873E-01  0.23783195921E-01  0.00000000000E+00 0.  1.
     999901    1    3    3    0    0 -0.10350601458E+00 -0.32319991435E-01 -0.10294951706E+00  0.89261227863E+00  0.88000000000E+00 0. -1.
        -11    1    4    4    0    0  0.21484530366E-01  0.17354252191E-02  0.31766868922E-01  0.38392601212E-01  0.51100000000E-03 0. -1.
         11    1    4    4    0    0  0.65239030772E-01  0.25611994265E-01  0.55080996262E-01  0.89141924236E-01  0.51100000000E-03 0.  1.
</event>
<event>
 8    1  0.1233916E+005  0.1043930E+01  0.7957747E-01            NaN
         13   -1    0    0    0    0  0.00000000000E+00  0.00000000000E+00  0.74505805969E-08  0.10566000000E+00  0.10566000000E+00 0.  1.
     999900   -1    0    0    0    0 -0.00000000000E+00 -0.00000000000E+00 -0.74505805969E-08  0.93827000000E+00  0.93827000000E+00 0. -1.
     999902    2    1    2    0    0  0.10393466356E-01 -0.17550412672E-01 -0.13538062963E-01  0.10194489813E+01  0.10191549957E+01 0.  0.
     999903    2    3    3    0    0  0.67116906067E-01 -0.10658177867E+00  0.33134513026E-01  0.13191167950E+00  0.20938973477E-01 0.  0.
         14    1    1    2    0    0 -0.10393466356E-01  0.17550412672E-01  0.13538062963E-01  0.24481018701E-01  0.00000000000E+00 0.  1.
     999901    1    3    3    0    0 -0.56723439711E-01  0.89031365994E-01 -0.46672575988E-01  0.88753730180E+00  0.88000000000E+00 0. -1.
        -11    1    4    4    0    0  0.20450127594E-01 -0.29542816053E-01  0.19281383317E-01  0.40780124602E-01  0.51100000000E-03 0. -1.
         11    1    4    4    0    0  0.46666778473E-01 -0.77038962613E-01  0.13853129709E-01  0.91131554893E-01  0.51100000000E-03 0.  1.
</event>
<event>
 8    1  0.1233916E+005  0.1043930E+01  0.7957747E-01            NaN
         13   -1    0    0    0    0  0.00000000000E+00  0.00000000000E+00  0.74505805969E-08  0.10566000000E+00  0.10566000000E+00 0. -1.
     999900   -1    0    0    0    0 -0.00000000000E+00 -0.00000000000E+00 -0.74505805969E-08  0.93827000000E+00  0.93827000000E+00 0. -1.
     999902    2    1    2    0    0 -0.19509573310E-01  0.85262590342E-02  0.11815978592E-01  0.10195796839E+01  0.10192888668E+01 0.  0.
     999903    2    3    3    0    0 -0.12530658947E+00  0.38712214972E-01  0.95806985864E-02  0.13272614637E+00  0.18001755208E-01 0.  0.
         14    1    1    2    0    0  0.19509573310E-01 -0.85262590342E-02 -0.11815978592E-01  0.24350316095E-01  0.00000000000E+00 0. -1.
     999901    1    3    3    0    0  0.10579701616E+00 -0.30185955938E-01  0.22352800051E-02  0.88685353754E+00  0.88000000000E+00 0.  1.
        -11    1    4    4    0    0 -0.10799646995E+00  0.27655465030E-01  0.45618470475E-02  0.11157568658E+00  0.51100000000E-03 0.  1.
         11    1    4    4    0    0 -0.17310119526E-01  0.11056749942E-01  0.50188515389E-02  0.21150459783E-01  0.51100000000E-03 0. -1.
</event>
<event>
 8    1  0.1233916E+005  0.1043930E+01  0.7957747E-01            NaN
         13   -1    0    0    0    0  0.00000000000E+00  0.00000000000E+00  0.74505805969E-08  0.10566000000E+00  0.10566000000E+00 0. -1.
     999900   -1    0    0    0    0 -0.00000000000E+00 -0.00000000000E+00 -0.74505805969E-08  0.93827000000E+00  0.93827000000E+00 0.  1.
     999902    2    1    2    0    0  0.25033937945E-02  0.11999791616E-01  0.20437176082E-01  0.10200985052E+01  0.10198200920E+01 0.  0.
     999903    2    3    3    0    0  0.43288650380E-01  0.11584365584E+00  0.43766270480E-01  0.13274782369E+00  0.20318425444E-01 0.  0.
         14    1    1    2    0    0 -0.25033937945E-02 -0.11999791616E-01 -0.20437176082E-01  0.23831494823E-01  0.00000000000E+00 0.  1.
     999901    1    3    3    0    0 -0.40785256586E-01 -0.10384386422E+00 -0.23329094399E-01  0.88735068149E+00  0.88000000000E+00 0.  1.
        -11    1    4    4    0    0  0.25258642515E-01  0.39779383545E-01  0.17823642167E-01  0.50381958259E-01  0.51100000000E-03 0.  1.
         11    1    4    4    0    0  0.18030007865E-01  0.76064272294E-01  0.25942628314E-01  0.82365865430E-01  0.51100000000E-03 0. -1.
</event>
<event>
 8    1  0.1233916E+005  0.1043930E+01  0.7957747E-01            NaN
         13   -1    0    0    0    0  0.00000000000E+00  0.00000000000E+00  0.74505805969E-08  0.10566000000E+00  0.10566000000E+00 0.  1.
     999900   -1    0    0    0    0 -0.00000000000E+00 -0.00000000000E+00 -0.74505805969E-08  0.93827000000E+00  0.93827000000E+00 0.  1.
     999902    2    1    2    0    0 -0.21524928646E-01  0.10617162900E-01  0.10401700994E-02  0.10199064979E+01  0.10196235265E+01 0.  0.
     999903    2    3    3    0    0 -0.32659477206E-01  0.12632673069E+00  0.39079283940E-02  0.13225740825E+00  0.21252430310E-01 0.  0.
         14    1    1    2    0    0  0.21524928646E-01 -0.10617162900E-01 -0.10401700994E-02  0.24023502141E-01  0.00000000000E+00 0. -1.
     999901    1    3    3    0    0  0.11134548560E-01 -0.11570956779E+00 -0.28677582946E-02  0.88764908961E+00  0.88000000000E+00 0. -1.
        -11    1    4    4    0    0 -0.34787491885E-01  0.11410417466E+00  0.17157623046E-03  0.11929049764E+00  0.51100000000E-03 0.  1.
         11    1    4    4    0    0  0.21280146790E-02  0.12222556026E-01  0.37363521635E-02  0.12966910610E-01  0.51100000000E-03 0. -1.
</event>
<event>
 8    1  0.1233916E+005  0.1043930E+01  0.7957747E-01            NaN
         13   -1    0    0    0    0  0.00000000000E+00  0.00000000000E+00  0.74505805969E-08  0.10566000000E+00  0.10566000000E+00 0.  1.
     999900   -1    0    0    0    0 -0.00000000000E+00 -0.00000000000E+00 -0.74505805969E-08  0.93827000000E+00  0.93827000000E+00 0.  1.
     999902    2    1    2    0    0  0.14575400473E-01 -0.75671363351E-02  0.17278876816E-01  0.10200917233E+01  0.10198131498E+01 0.  0.
     999903    2    3    3    0    0  0.74109561570E-01 -0.61697459414E-01 -0.85600924861E-01  0.13045209863E+00  0.19784541596E-01 0.  0.
         14    1    1    2    0    0 -0.14575400473E-01  0.75671363351E-02 -0.17278876816E-01  0.23838276684E-01  0.00000000000E+00 0. -1.
     999901    1    3    3    0    0 -0.59534161097E-01  0.54130323079E-01  0.10287980168E+00  0.88963962468E+00  0.88000000000E+00 0.  1.
        -11    1    4    4    0    0  0.15659524229E-01 -0.74051377589E-02 -0.24284902510E-01  0.29834114286E-01  0.51100000000E-03 0. -1.
         11    1    4    4    0    0  0.58450037341E-01 -0.54292321655E-01 -0.61316022351E-01  0.10061798435E+00  0.51100000000E-03 0.  1.
</event>
<event>
 8    1  0.1233916E+005  0.1043930E+01  0.7957747E-01            NaN
         13   -1    0    0    0    0  0.00000000000E+00  0.00000000000E+00  0.74505805969E-08  0.10566000000E+00  0.10566000000E+00 0. -1.
     999900   -1    0    0    0    0 -0.00000000000E+00 -0.00000000000E+00 -0.74505805969E-08  0.93827000000E+00  0.93827000000E+00 0. -1.
     999902    2    1    2    0    0 -0.17365673218E-03 -0.17567205462E-01 -0.12335867713E-01  0.10224635029E+01  0.10222381348E+01 0.  0.
     999903    2    3    3    0    0  0.16748177519E-01 -0.11133591909E+00  0.69032274296E-01  0.13358798033E+00  0.20102369664E-01 0.  0.
         14    1    1    2    0    0  0.17365673218E-03  0.17567205462E-01  0.12335867713E-01  0.21466497074E-01  0.00000000000E+00 0. -1.
     999901    1    3    3    0    0 -0.16921834251E-01  0.93768713625E-01 -0.81368142009E-01  0.88887552259E+00  0.88000000000E+00 0. -1.
        -11    1    4    4    0    0 -0.73928390408E-03 -0.31979203209E-01  0.28187872663E-01  0.42638401294E-01  0.51100000000E-03 0. -1.
         11    1    4    4    0    0  0.17487461423E-01 -0.79356715877E-01  0.40844401633E-01  0.90949579040E-01  0.51100000000E-03 0.  1.
</event>
<event>
 8    1  0.1233916E+005  0.1043930E+01  0.7957747E-01            NaN
         13   -1    0    0    0    0  0.00000000000E+00  0.00000000000E+00  0.74505805969E-08  0.10566000000E+00  0.10566000000E+00 0. -1.
     999900   -1    0    0    0    0 -0.00000000000E+00 -0.00000000000E+00 -0.74505805969E-08  0.93827000000E+00  0.93827000000E+00 0. -1.
     999902    2    1    2    0    0 -0.70855832726E-02  0.21194756239E-01 -0.10173361001E-02  0.10215590779E+01  0.10213141003E+01 0.  0.
     999903    2    3    3    0    0 -0.38954906833E-01 -0.38800561683E-01 -0.11781113262E+00  0.13124683894E+00  0.17980584240E-01 0.  0.
         14    1    1    2    0    0  0.70855832726E-02 -0.21194756239E-01  0.10173361001E-02  0.22370922089E-01  0.00000000000E+00 0.  1.
     999901    1    3    3    0    0  0.31869323560E-01  0.59995317922E-01  0.11679379652E+00  0.89031223897E+00  0.88000000000E+00 0.  1.
        -11    1    4    4    0    0 -0.82846304634E-02 -0.18674387664E-01 -0.32635325218E-01  0.38505758396E-01  0.51100000000E-03 0. -1.
         11    1    4    4    0    0 -0.30670276369E-01 -0.20126174019E-01 -0.85175807400E-01  0.92741080544E-01  0.51100000000E-03 0.  1.
</event>
<event>
 8    1  0.1233916E+005  0.1043930E+01  0.7957747E-01            NaN
         13   -1    0    0    0    0  0.00000000000E+00  0.00000000000E+00  0.74505805969E-08  0.10566000000E+00  0.10566000000E+00 0.  1.
     999900   -1    0    0    0    0 -0.00000000000E+00 -0.00000000000E+00 -0.74505805969E-08  0.93827000000E+00  0.93827000000E+00 0. -1.
     999902    2    1    2    0    0 -0.12448218226E-01 -0.13969981727E-01  0.15487352104E-01  0.10196405660E+01  0.10193512188E+01 0.  0.
     999903    2    3    3    0    0  0.33972764952E-01  0.11194551610E-01 -0.11991462832E+00  0.12772024577E+00  0.25563183527E-01 0.  0.
         14    1    1    2    0    0  0.12448218226E-01  0.13969981727E-01 -0.15487352104E-01  0.24289433951E-01  0.00000000000E+00 0. -1.
     999901    1    3    3    0    0 -0.46420983178E-01 -0.25164533337E-01  0.13540198042E+00  0.89192032027E+00  0.88000000000E+00 0.  1.
        -11    1    4    4    0    0  0.19051253619E-01  0.12555751513E-01 -0.37085832332E-01  0.43545576598E-01  0.51100000000E-03 0.  1.
         11    1    4    4    0    0  0.14921511333E-01 -0.13611999030E-02 -0.82828795985E-01  0.84174669176E-01  0.51100000000E-03 0. -1.
</event>
<event>
 8    1  0.1233916E+005  0.1043930E+01  0.7957747E-01            NaN
         13   -1    0    0    0    0  0.00000000000E+00  0.00000000000E+00  0.74505805969E-08  0.10566000000E+00  0.10566000000E+00 0.  1.
     999900   -1    0    0    0    0 -0.00000000000E+00 -0.00000000000E+00 -0.74505805969E-08  0.93827000000E+00  0.93827000000E+00 0. -1.
     999902    2    1    2    0    0 -0.22823519223E-01 -0.11276567577E-01  0.23000002929E-01  0.10096214859E+01  0.10090383891E+01 0.  0.
     999903    2    3    3    0    0  0.60427614305E-01 -0.30116632752E-01  0.99684778402E-01  0.12217218926E+00  0.20748027487E-01 0.  0.
         14    1    1    2    0    0  0.22823519223E-01  0.11276567577E-01 -0.23000002929E-01  0.34308514115E-01  0.00000000000E+00 0. -1.
     999901    1    3    3    0    0 -0.83251133529E-01  0.18840065176E-01 -0.76684775473E-01  0.88744929662E+00  0.88000000000E+00 0.  1.
        -11    1    4    4    0    0  0.34583069285E-01 -0.72150168039E-02  0.41425992987E-01  0.54446479819E-01  0.51100000000E-03 0.  1.
         11    1    4    4    0    0  0.25844545020E-01 -0.22901615949E-01  0.58258785415E-01  0.67725709442E-01  0.51100000000E-03 0. -1.
</event>
<event>
 8    1  0.1233916E+005  0.1043930E+01  0.7957747E-01            NaN
         13   -1    0    0    0    0  0.00000000000E+00  0.00000000000E+00  0.74505805969E-08  0.10566000000E+00  0.10566000000E+00 0. -1.
     999900   -1    0    0    0    0 -0.00000000000E+00 -0.00000000000E+00 -0.74505805969E-08  0.93827000000E+00  0.93827000000E+00 0.  1.
     999902    2    1    2    0    0 -0.13956710138E-01 -0.12459120715E-01 -0.13847325959E-01  0.10206540922E+01  0.10203886554E+01 0.  0.
     999903    2    3    3    0    0  0.94651114345E-01 -0.82453807722E-01 -0.31642464461E-01  0.13104092758E+00  0.20322777577E-01 0.  0.
         14    1    1    2    0    0  0.13956710138E-01  0.12459120715E-01  0.13847325959E-01  0.23275907782E-01  0.00000000000E+00 0. -1.
     999901    1    3    3    0    0 -0.10860782448E+00  0.69994687008E-01  0.17795138503E-01  0.88961316464E+00  0.88000000000E+00 0.  1.
        -11    1    4    4    0    0  0.38994045637E-01 -0.21172075649E-01 -0.10560214030E-01  0.45613283414E-01  0.51100000000E-03 0.  1.
         11    1    4    4    0    0  0.55657068708E-01 -0.61281732073E-01 -0.21082250431E-01  0.85427644163E-01  0.51100000000E-03 0. -1.
</event>
<event>
 8    1  0.1233916E+005  0.1043930E+01  0.7957747E-01            NaN
         13   -1    0    0    0    0  0.00000000000E+00  0.00000000000E+00  0.74505805969E-08  0.10566000000E+00  0.10566000000E+00 0. -1.
     999900   -1    0    0    0    0 -0.00000000000E+00 -0.00000000000E+00 -0.74505805969E-08  0.93827000000E+00  0.93827000000E+00 0. -1.
     999902    2    1    2    0    0  0.17592718791E-01  0.11955094061E-01 -0.10281355299E-01  0.10203051340E+01  0.10200315839E+01 0.  0.
     999903    2    3    3    0    0 -0.35551770148E-01  0.45471484253E-01 -0.11659742845E+00  0.13168215850E+00  0.20338296481E-01 0.  0.
         14    1    1    2    0    0 -0.17592718791E-01 -0.11955094061E-01  0.10281355299E-01  0.23624866037E-01  0.00000000000E+00 0. -1.
     999901    1    3    3    0    0  0.53144488939E-01 -0.33516390192E-01  0.10631607315E+00  0.88862297547E+00  0.88000000000E+00 0.  1.
        -11    1    4    4    0    0 -0.26370848812E-01  0.20171627837E-01 -0.76398904549E-01  0.83302880947E-01  0.51100000000E-03 0.  1.
         11    1    4    4    0    0 -0.91809213358E-02  0.25299856417E-01 -0.40198523903E-01  0.48379277550E-01  0.51100000000E-03 0. -1.
</event>
<event>
 8    1  0.1233916E+005  0.1043930E+01  0.7957747E-01            NaN
         13   -1    0    0    0    0  0.00000000000E+00  0.00000000000E+00  0.74505805969E-08  0.10566000000E+00  0.10566000000E+00 0. -1.
     999900   -1    0    0    0    0 -0.00000000000E+00 -0.00000000000E+00 -0.74505805969E-08  0.93827000000E+00  0.93827000000E+00 0.  1.
     999902    2    1    2    0    0 -0.69404731341E-02 -0.19304121966E-01  0.12382070135E-01  0.10199688866E+01  0.10196874005E+01 0.  0.
     999903    2    3    3    0    0  0.59684519918E-01 -0.11595861712E+00 -0.49425507636E-02  0.13200429072E+00  0.19800534295E-01 0.  0.
         14    1    1    2    0    0  0.69404731341E-02  0.19304121966E-01 -0.12382070135E-01  0.23961113351E-01  0.00000000000E+00 0.  1.
     999901    1    3    3    0    0 -0.66624993052E-01  0.96654495154E-01  0.17324620898E-01  0.88796459593E+00  0.88000000000E+00 0.  1.
        -11    1    4    4    0    0  0.11463296194E-01 -0.28037939917E-01  0.67779618743E-02  0.31044083536E-01  0.51100000000E-03 0. -1.
         11    1    4    4    0    0  0.48221223724E-01 -0.87920677203E-01 -0.11720512638E-01  0.10096020718E+00  0.51100000000E-03 0.  1.
</event>
<event>
 8    1  0.1233916E+005  0.1043930E+01  0.7957747E-01            NaN
         13   -1    0    0    0    0  0.00000000000E+00  0.00000000000E+00  0.74505805969E-08  0.10566000000E+00  0.10566000000E+00 0. -1.
     999900   -1    0    0    0    0 -0.00000000000E+00 -0.00000000000E+00 -0.74505805969E-08  0.93827000000E+00  0.93827000000E+00 0. -1.
     999902    2    1    2    0    0  0.19442452373E-01  0.13379305727E-01  0.47009609335E-02  0.10198652164E+01  0.10195812600E+01 0.  0.
     999903    2    3    3    0    0  0.18779510367E-01 -0.96814257777E-01  0.82525418676E-01  0.12958452631E+00  0.16001069083E-01 0.  0.
         14    1    1    2    0    0 -0.19442452373E-01 -0.13379305727E-01 -0.47009609335E-02  0.24064783600E-01  0.00000000000E+00 0. -1.
     999901    1    3    3    0    0  0.66294200606E-03  0.11019356350E+00 -0.77824457743E-01  0.89028069009E+00  0.88000000000E+00 0. -1.
        -11    1    4    4    0    0  0.15266959116E-01 -0.94361372966E-01  0.78720157846E-01  0.12383163215E+00  0.51100000000E-03 0.  1.
         11    1    4    4    0    0  0.35125512510E-02 -0.24528848114E-02  0.38052608304E-02  0.57528941565E-02  0.51100000000E-03 0. -1.
</event>
<event>
 8    1  0.1233916E+005  0.1043930E+01  0.7957747E-01            NaN
         13   -1    0    0    0    0  0.00000000000E+00  0.00000000000E+00  0.74505805969E-08  0.10566000000E+00  0.10566000000E+00 0. -1.
     999900   -1    0    0    0    0 -0.00000000000E+00 -0.00000000000E+00 -0.74505805969E-08  0.93827000000E+00  0.93827000000E+00 0.  1.
     999902    2    1    2    0    0  0.21733867229E-01 -0.43369045324E-02  0.72282109396E-02  0.10206186989E+01  0.10203524449E+01 0.  0.
     999903    2    3    3    0    0 -0.10369378019E+00  0.72968905356E-01  0.49633355548E-02  0.12836682155E+00  0.19404766830E-01 0.  0.
         14    1    1    2    0    0 -0.21733867229E-01  0.43369045324E-02 -0.72282109396E-02  0.23311301101E-01  0.00000000000E+00 0.  1.
     999901    1    3    3    0    0  0.12542764742E+00 -0.77305809888E-01  0.22648753849E-02  0.89225187735E+00  0.88000000000E+00 0.  1.
        -11    1    4    4    0    0 -0.38602298470E-01  0.26196061959E-01 -0.74840843551E-02  0.47250859770E-01  0.51100000000E-03 0. -1.
         11    1    4    4    0    0 -0.65091481717E-01  0.46772843397E-01  0.12447419910E-01  0.81115961776E-01  0.51100000000E-03 0.  1.
</event>
<event>
 8    1  0.1233916E+005  0.1043930E+01  0.7957747E-01            NaN
         13   -1    0    0    0    0  0.00000000000E+00  0.00000000000E+00  0.74505805969E-08  0.10566000000E+00  0.10566000000E+00 0. -1.
     999900   -1    0    0    0    0 -0.00000000000E+00 -0.00000000000E+00 -0.74505805969E-08  0.93827000000E+00  0.93827000000E+00 0.  1.
     999902    2    1    2    0    0 -0.25019361620E-02 -0.94852776810E-02 -0.19351294394E-01  0.10222343144E+01  0.10220040562E+01 0.  0.
     999903    2    3    3    0    0 -0.76120316060E-01  0.80221898154E-01 -0.71409918713E-01  0.13309026333E+00  0.19590463046E-01 0.  0.
         14    1    1    2    0    0  0.25019361620E-02  0.94852776810E-02  0.19351294394E-01  0.21695685561E-01  0.00000000000E+00 0. -1.
     999901    1    3    3    0    0  0.73618379898E-01 -0.89707175835E-01  0.52058624319E-01  0.88914405111E+00  0.88000000000E+00 0.  1.
        -11    1    4    4    0    0 -0.43800802102E-01  0.51252362771E-01 -0.32706303310E-01  0.74935160983E-01  0.51100000000E-03 0.  1.
         11    1    4    4    0    0 -0.32319513958E-01  0.28969535383E-01 -0.38703615403E-01  0.58155102348E-01  0.51100000000E-03 0. -1.
</event>
<event>
 8    1  0.1233916E+005  0.1043930E+01  0.7957747E-01            NaN
         13   -1    0    0    0    0  0.00000000000E+00  0.00000000000E+00  0.74505805969E-08  0.10566000000E+00  0.10566000000E+00 0. -1.
     999900   -1    0    0    0    0 -0.00000000000E+00 -0.00000000000E+00 -0.74505805969E-08  0.93827000000E+00  0.93827000000E+00 0. -1.
     999902    2    1    2    0    0  0.65898911271E-02 -0.14046411765E-01  0.17406800822E-01  0.10206120871E+01  0.10203456803E+01 0.  0.
     999903    2    3    3    0    0 -0.77400066751E-01 -0.41689126280E-01 -0.92869983285E-01  0.12933244420E+00  0.19320811142E-01 0.  0.
         14    1    1    2    0    0 -0.65898911271E-02  0.14046411765E-01 -0.17406800822E-01  0.23317912930E-01  0.00000000000E+00 0.  1.
     999901    1    3    3    0    0  0.83989957878E-01  0.27642714516E-01  0.11027678411E+00  0.89127964287E+00  0.88000000000E+00 0.  1.
        -11    1    4    4    0    0 -0.29843536414E-01 -0.26735135792E-01 -0.44197919538E-01  0.59658372120E-01  0.51100000000E-03 0.  1.
         11    1    4    4    0    0 -0.47556530337E-01 -0.14953990488E-01 -0.48672063747E-01  0.69674072075E-01  0.51100000000E-03 0. -1.
</event>
<event>
 8    1  0.1233916E+005  0.1043930E+01  0.7957747E-01            NaN
         13   -1    0    0    0    0  0.00000000000E+00  0.00000000000E+00  0.74505805969E-08  0.10566000000E+00  0.10566000000E+00 0. -1.
     999900   -1    0    0    0    0 -0.00000000000E+00 -0.00000000000E+00 -0.74505805969E-08  0.93827000000E+00  0.93827000000E+00 0.  1.
     999902    2    1    2    0    0 -0.23809071525E-01  0.15311329936E-02  0.30976838634E-02  0.10198714901E+01  0.10195876835E+01 0.  0.
     999903    2    3    3    0    0 -0.80262902335E-01 -0.49056216970E-01  0.90745081966E-01  0.13227463260E+00  0.20328861572E-01 0.  0.
         14    1    1    2    0    0  0.23809071525E-01 -0.15311329936E-02 -0.30976838634E-02  0.24058509938E-01  0.00000000000E+00 0. -1.
     999901    1    3    3    0    0  0.56453830810E-01  0.50587349964E-01 -0.87647398102E-01  0.88759685747E+00  0.88000000000E+00 0.  1.
        -11    1    4    4    0    0 -0.21824589859E-01 -0.39641421477E-02  0.17180540407E-01  0.28061704067E-01  0.51100000000E-03 0.  1.
         11    1    4    4    0    0 -0.58438312476E-01 -0.45092074822E-01  0.73564541559E-01  0.10421292853E+00  0.51100000000E-03 0. -1.
</event>
<event>
 8    1  0.1233916E+005  0.1043930E+01  0.7957747E-01            NaN
         13   -1    0    0    0    0  0.00000000000E+00  0.00000000000E+00  0.74505805969E-08  0.10566000000E+00  0.10566000000E+00 0.  1.
     999900   -1    0    0    0    0 -0.00000000000E+00 -0.00000000000E+00 -0.74505805969E-08  0.93827000000E+00  0.93827000000E+00 0.  1.
     999902    2    1    2    0    0  0.17231214002E-01  0.17161490113E-01 -0.54900016174E-02  0.10189986624E+01  0.10186936253E+01 0.  0.
     999903    2    3    3    0    0  0.93696765423E-01  0.45863438845E-01 -0.78566711095E-01  0.13220049598E+00  0.20535437001E-01 0.  0.
         14    1    1    2    0    0 -0.17231214002E-01 -0.17161490113E-01  0.54900016174E-02  0.24931337643E-01  0.00000000000E+00 0. -1.
     999901    1    3    3    0    0 -0.76465551420E-01 -0.28701948731E-01  0.73076709477E-01  0.88679816637E+00  0.88000000000E+00 0. -1.
        -11    1    4    4    0    0  0.28491454174E-01  0.17198256533E-01 -0.36840008800E-01  0.49648669248E-01  0.51100000000E-03 0.  1.
         11    1    4    4    0    0  0.65205311249E-01  0.28665182312E-01 -0.41726702294E-01  0.82551826736E-01  0.51100000000E-03 0. -1.
</event>
<event>
 8    1  0.1233916E+005  0.1043930E+01  0.7957747E-01            NaN
         13   -1    0    0    0    0  0.00000000000E+00  0.00000000000E+00  0.74505805969E-08  0.10566000000E+00  0.10566000000E+00 0. -1.
     999900   -1    0    0    0    0 -0.00000000000E+00 -0.00000000000E+00 -0.74505805969E-08  0.93827000000E+00  0.93827000000E+00 0.  1.
     999902    2    1    2    0    0 -0.22831468210E-01 -0.36496605085E-02 -0.21262994067E-02  0.10207111044E+01  0.10204469813E+01 0.  0.
     999903    2    3    3    0    0  0.12608615196E+00 -0.10014066229E-01  0.51003869822E-02  0.12814783594E+00  0.19946294656E-01 0.  0.
         14    1    1    2    0    0  0.22831468210E-01  0.36496605085E-02  0.21262994067E-02  0.23218895573E-01  0.00000000000E+00 0. -1.
     999901    1    3    3    0    0 -0.14891762017E+00  0.63644057206E-02 -0.72266863889E-02  0.89256326849E+00  0.88000000000E+00 0. -1.
        -11    1    4    4    0    0  0.11908043710E+00 -0.13954062030E-01  0.59845534948E-02  0.12004558447E+00  0.51100000000E-03 0.  1.
         11    1    4    4    0    0  0.70057148546E-02  0.39399958011E-02 -0.88416651265E-03  0.81022514747E-02  0.51100000000E-03 0. -1.
</event>
<event>
 8    1  0.1233916E+005  0.1043930E+01  0.7957747E-01            NaN
         13   -1    0    0    0    0  0.00000000000E+00  0.00000000000E+00  0.74505805969E-08  0.10566000000E+00  0.10566000000E+00 0.  1.
     999900   -1    0    0    0    0 -0.00000000000E+00 -0.00000000000E+00 -0.74505805969E-08  0.93827000000E+00  0.93827000000E+00 0.  1.
     999902    2    1    2    0    0  0.14007914387E-01  0.17280168423E-01  0.93306215481E-02  0.10198076787E+01  0.10195223466E+01 0.  0.
     999903    2    3    3    0    0  0.34353105519E-01 -0.51132331160E-01 -0.11099978387E+00  0.12875571424E+00  0.21504203840E-01 0.  0.
         14    1    1    2    0    0 -0.14007914387E-01 -0.17280168423E-01 -0.93306215481E-02  0.24122321295E-01  0.00000000000E+00 0. -1.
     999901    1    3    3    0    0 -0.20345191132E-01  0.68412499583E-01  0.12033040542E+00  0.89105196446E+00  0.88000000000E+00 0. -1.
        -11    1    4    4    0    0  0.16875030836E-01 -0.10083431989E-01 -0.44773304750E-01  0.48901454023E-01  0.51100000000E-03 0. -1.
         11    1    4    4    0    0  0.17478074683E-01 -0.41048899172E-01 -0.66226479120E-01  0.79854260221E-01  0.51100000000E-03 0.  1.
</event>
<event>
 8    1  0.1233916E+005  0.1043930E+01  0.7957747E-01            NaN
         13   -1    0    0    0    0  0.00000000000E+00  0.00000000000E+00  0.74505805969E-08  0.10566000000E+00  0.10566000000E+00 0.  1.
     999900   -1    0    0    0    0 -0.00000000000E+00 -0.00000000000E+00 -0.74505805969E-08  0.93827000000E+00  0.93827000000E+00 0. -1.
     999902    2    1    2    0    0 -0.17452845249E-01  0.17992723104E-01  0.37018143950E-02  0.10185914262E+01  0.10182762151E+01 0.  0.
     999903    2    3    3    0    0  0.11766171089E+00 -0.25992172321E-01  0.33837134863E-01  0.12668405891E+00  0.19596628626E-01 0.  0.
         14    1    1    2    0    0  0.17452845249E-01 -0.17992723104E-01 -0.37018143950E-02  0.25338573791E-01  0.00000000000E+00 0. -1.
     999901    1    3    3    0    0 -0.13511455614E+00  0.43984895425E-01 -0.30135320468E-01  0.89190736730E+00  0.88000000000E+00 0. -1.
        -11    1    4    4    0    0  0.92651041857E-01 -0.28381438722E-01  0.25396504318E-01  0.10017467331E+00  0.51100000000E-03 0. -1.
         11    1    4    4    0    0  0.25010669035E-01  0.23892664007E-02  0.84406305452E-02  0.26509385593E-01  0.51100000000E-03 0.  1.
</event>
<event>
 8    1  0.1233916E+005  0.1043930E+01  0.7957747E-01            NaN
         13   -1    0    0    0    0  0.00000000000E+00  0.00000000000E+00  0.74505805969E-08  0.10566000000E+00  0.10566000000E+00 0. -1.
     999900   -1    0    0    0    0 -0.00000000000E+00 -0.00000000000E+00 -0.74505805969E-08  0.93827000000E+00  0.93827000000E+00 0.  1.
     999902    2    1    2    0    0 -0.30158433898E-02 -0.17115731361E-01 -0.16561438296E-01  0.10199232341E+01  0.10196406615E+01 0.  0.
     999903    2    3    3    0    0  0.74622851459E-01 -0.56936096576E-01  0.86437288260E-01  0.12962993067E+00  0.22852244339E-01 0.  0.
         14    1    1    2    0    0  0.30158433898E-02  0.17115731361E-01  0.16561438296E-01  0.24006765917E-01  0.00000000000E+00 0. -1.
     999901    1    3    3    0    0 -0.77638694849E-01  0.39820365215E-01 -0.10299872656E+00  0.89029330341E+00  0.88000000000E+00 0.  1.
        -11    1    4    4    0    0  0.24326195340E-01 -0.30731198877E-01  0.43050367577E-01  0.58221693840E-01  0.51100000000E-03 0.  1.
         11    1    4    4    0    0  0.50296656119E-01 -0.26204897699E-01  0.43386920684E-01  0.71408236833E-01  0.51100000000E-03 0. -1.
</event>
<event>
 8    1  0.1233916E+005  0.1043930E+01  0.7957747E-01            NaN
         13   -1    0    0    0    0  0.00000000000E+00  0.00000000000E+00  0.74505805969E-08  0.10566000000E+00  0.10566000000E+00 0.  1.
     999900   -1    0    0    0    0 -0.00000000000E+00 -0.00000000000E+00 -0.74505805969E-08  0.93827000000E+00  0.93827000000E+00 0.  1.
     999902    2    1    2    0    0 -0.14587269467E-01 -0.14337990162E-01  0.10590042502E-01  0.10208970802E+01  0.10206372191E+01 0.  0.
     999903    2    3    3    0    0  0.14722347679E-01  0.12375437309E+00  0.28765945058E-01  0.12946064511E+00  0.20017159058E-01 0.  0.
         14    1    1    2    0    0  0.14587269467E-01  0.14337990162E-01 -0.10590042502E-01  0.23032919758E-01  0.00000000000E+00 0.  1.
     999901    1    3    3    0    0 -0.29309617146E-01 -0.13809236325E+00 -0.18175902556E-01  0.89143643513E+00  0.88000000000E+00 0.  1.
        -11    1    4    4    0    0  0.19179479844E-02  0.95671794096E-02  0.81459680132E-02  0.12721138400E-01  0.51100000000E-03 0.  1.
         11    1    4    4    0    0  0.12804399694E-01  0.11418719368E+00  0.20619977045E-01  0.11673950671E+00  0.51100000000E-03 0. -1.
</event>
<event>
 8    1  0.1233916E+005  0.1043930E+01  0.7957747E-01            NaN
         13   -1    0    0    0    0  0.00000000000E+00  0.00000000000E+00  0.74505805969E-08  0.10566000000E+00  0.10566000000E+00 0.  1.
     999900   -1    0    0    0    0 -0.00000000000E+00 -0.00000000000E+00 -0.74505805969E-08  0.93827000000E+00  0.93827000000E+00 0.  1.
     999902    2    1    2    0    0  0.28526147782E-02  0.22749489349E-01  0.42045385014E-02  0.10206200274E+01  0.10203538041E+01 0.  0.
     999903    2    3    3    0    0  0.10802162988E+00  0.64279824989E-01  0.37560456702E-01  0.13275860368E+00  0.20334466382E-01 0.  0.
         14    1    1    2    0    0 -0.28526147782E-02 -0.22749489349E-01 -0.42045385014E-02  0.23309972559E-01  0.00000000000E+00 0.  1.
     999901    1    3    3    0    0 -0.10516901510E+00 -0.41530335640E-01 -0.33355918201E-01  0.88786142376E+00  0.88000000000E+00 0.  1.
        -11    1    4    4    0    0  0.60175111228E-01  0.28302865414E-01  0.27909665974E-01  0.72120085814E-01  0.51100000000E-03 0.  1.
         11    1    4    4    0    0  0.47846518648E-01  0.35976959575E-01  0.96507907281E-02  0.60638517871E-01  0.51100000000E-03 0. -1.
</event>
<event>
 8    1  0.1233916E+005  0.1043930E+01  0.7957747E-01            NaN
         13   -1    0    0    0    0  0.00000000000E+00  0.00000000000E+00  0.74505805969E-08  0.10566000000E+00  0.10566000000E+00 0.  1.
     999900   -1    0    0    0    0 -0.00000000000E+00 -0.00000000000E+00 -0.74505805969E-08  0.93827000000E+00  0.93827000000E+00 0.  1.
     999902    2    1    2    0    0  0.88871798380E-02  0.15640773497E-01 -0.15825837283E-01  0.10199701818E+01  0.10196887265E+01 0.  0.
     999903    2    3    3    0    0 -0.27522148113E-01 -0.12340211101E+00  0.73895940976E-02  0.12800744766E+00  0.18594378662E-01 0.  0.
         14    1    1    2    0    0 -0.88871798380E-02 -0.15640773497E-01  0.15825837283E-01  0.23959818171E-01  0.00000000000E+00 0.  1.
     999901    1    3    3    0    0  0.36409327951E-01  0.13904288450E+00 -0.23215431380E-01  0.89196273417E+00  0.88000000000E+00 0.  1.
        -11    1    4    4    0    0 -0.98218936340E-02 -0.84264127489E-01  0.47590755284E-02  0.84969539818E-01  0.51100000000E-03 0.  1.
         11    1    4    4    0    0 -0.17700254479E-01 -0.39137983518E-01  0.26305185692E-02  0.43037907842E-01  0.51100000000E-03 0. -1.
</event>
<event>
 8    1  0.1233916E+005  0.1043930E+01  0.7957747E-01            NaN
         13   -1    0    0    0    0  0.00000000000E+00  0.00000000000E+00  0.74505805969E-08  0.10566000000E+00  0.10566000000E+00 0.  1.
     999900   -1    0    0    0    0 -0.00000000000E+00 -0.00000000000E+00 -0.74505805969E-08  0.93827000000E+00  0.93827000000E+00 0. -1.
     999902    2    1    2    0    0 -0.14400594827E-01 -0.17988782427E-01  0.44948994397E-02  0.10204528293E+01  0.10201827283E+01 0.  0.
     999903    2    3    3    0    0 -0.81814280921E-01  0.81106434400E-01  0.59108238152E-01  0.13065111887E+00  0.17438485587E-01 0.  0.
         14    1    1    2    0    0  0.14400594827E-01  0.17988782427E-01 -0.44948994397E-02  0.23477170731E-01  0.00000000000E+00 0. -1.
     999901    1    3    3    0    0  0.67413686094E-01 -0.99095216827E-01 -0.54613338712E-01  0.88980171040E+00  0.88000000000E+00 0. -1.
        -11    1    4    4    0    0 -0.46149731774E-01  0.38570884821E-01  0.22820804487E-01  0.64331649576E-01  0.51100000000E-03 0. -1.
         11    1    4    4    0    0 -0.35664549147E-01  0.42535549579E-01  0.36287433665E-01  0.66319469290E-01  0.51100000000E-03 0.  1.
</event>
<event>
 8    1  0.1233916E+005  0.1043930E+01  0.7957747E-01            NaN
         13   -1    0    0    0    0  0.00000000000E+00  0.00000000000E+00  0.74505805969E-08  0.10566000000E+00  0.10566000000E+00 0.  1.
     999900   -1    0    0    0    0 -0.00000000000E+00 -0.00000000000E+00 -0.74505805969E-08  0.93827000000E+00  0.93827000000E+00 0.  1.
     999902    2    1    2    0    0  0.37049997828E-02  0.11144858560E-01  0.19643901380E-01  0.10210429347E+01  0.10207863914E+01 0.  0.
     999903    2    3    3    0    0 -0.90679778913E-01  0.17114789259E-01 -0.88137212282E-01  0.12943713899E+00  0.21681015779E-01 0.  0.
         14    1    1    2    0    0 -0.37049997828E-02 -0.11144858560E-01 -0.19643901380E-01  0.22887065280E-01  0.00000000000E+00 0. -1.
     999901    1    3    3    0    0  0.94384778696E-01 -0.59699306993E-02  0.10778111366E+00  0.89160579573E+00  0.88000000000E+00 0. -1.
        -11    1    4    4    0    0  0.26650545519E-03  0.12306283559E-02 -0.50530474206E-02  0.52325787661E-02  0.51100000000E-03 0. -1.
         11    1    4    4    0    0 -0.90946284368E-01  0.15884160903E-01 -0.83084164861E-01  0.12420456022E+00  0.51100000000E-03 0.  1.
</event>
<event>
 8    1  0.1233916E+005  0.1043930E+01  0.7957747E-01            NaN
         13   -1    0    0    0    0  0.00000000000E+00  0.00000000000E+00  0.74505805969E-08  0.10566000000E+00  0.10566000000E+00 0. -1.
     999900   -1    0    0    0    0 -0.00000000000E+00 -0.00000000000E+00 -0.74505805969E-08  0.93827000000E+00  0.93827000000E+00 0. -1.
     999902    2    1    2    0    0  0.20253849028E-01 -0.89374644741E-02  0.81364113604E-02  0.10203440325E+01  0.10200713930E+01 0.  0.
     999903    2    3    3    0    0  0.51446962633E-01 -0.60615341218E-01  0.10477975637E+00  0.13299767996E+00  0.19712330523E-01 0.  0.
         14    1    1    2    0    0 -0.20253849028E-01  0.89374644741E-02 -0.81364113604E-02  0.23585967470E-01  0.00000000000E+00 0.  1.
     999901    1    3    3    0    0 -0.31193113605E-01  0.51677876744E-01 -0.96643345012E-01  0.88734635257E+00  0.88000000000E+00 0. -1.
        -11    1    4    4    0    0  0.22070747552E-02 -0.49107164537E-03  0.10805335091E-01  0.11051186261E-01  0.51100000000E-03 0.  1.
         11    1    4    4    0    0  0.49239887877E-01 -0.60124269572E-01  0.93974421281E-01  0.12194649370E+00  0.51100000000E-03 0. -1.
</event>
<event>
 8    1  0.1233916E+005  0.1043930E+01  0.7957747E-01            NaN
         13   -1    0    0    0    0  0.00000000000E+00  0.00000000000E+00  0.74505805969E-08  0.10566000000E+00  0.10566000000E+00 0.  1.
     999900   -1    0    0    0    0 -0.00000000000E+00 -0.00000000000E+00 -0.74505805969E-08  0.93827000000E+00  0.93827000000E+00 0.  1.
     999902    2    1    2    0    0  0.53710104630E-02  0.24175017720E-02  0.23182664913E-01  0.10200108023E+01  0.10197303117E+01 0.  0.
     999903    2    3    3    0    0 -0.26340721855E-01 -0.91907141202E-01  0.88999245546E-01  0.13195979329E+00  0.18755402051E-01 0.  0.
         14    1    1    2    0    0 -0.53710104630E-02 -0.24175017720E-02 -0.23182664913E-01  0.23919197743E-01  0.00000000000E+00 0. -1.
     999901    1    3    3    0    0  0.31711732318E-01  0.94324642974E-01 -0.65816580633E-01  0.88805100897E+00  0.88000000000E+00 0.  1.
        -11    1    4    4    0    0 -0.57992047135E-02 -0.41485355748E-01  0.29069880320E-01  0.50990043927E-01  0.51100000000E-03 0.  1.
         11    1    4    4    0    0 -0.20541517141E-01 -0.50421785454E-01  0.59929365225E-01  0.80969749365E-01  0.51100000000E-03 0. -1.
</event>
<event>
 8    1  0.1233916E+005  0.1043930E+01  0.7957747E-01            NaN
         13   -1    0    0    0    0  0.00000000000E+00  0.00000000000E+00  0.74505805969E-08  0.10566000000E+00  0.10566000000E+00 0. -1.
     999900   -1    0    0    0    0 -0.00000000000E+00 -0.00000000000E+00 -0.74505805969E-08  0.93827000000E+00  0.93827000000E+00 0. -1.
     999902    2    1    2    0    0 -0.21088805510E-01  0.10830154488E-01  0.48114827472E-03  0.10202179468E+01  0.10199423501E+01 0.  0.
     999903    2    3    3    0    0 -0.45724282389E-01 -0.89591514611E-01 -0.80666975835E-01  0.13045593569E+00  0.19855494836E-01 0.  0.
         14    1    1    2    0    0  0.21088805510E-01 -0.10830154488E-01 -0.48114827472E-03  0.23712053216E-01  0.00000000000E+00 0. -1.
     999901    1    3    3    0    0  0.24635476879E-01  0.10042166910E+00  0.81148124110E-01  0.88976201110E+00  0.88000000000E+00 0. -1.
        -11    1    4    4    0    0 -0.26424984793E-01 -0.50210667657E-01 -0.57788972309E-01  0.80988995607E-01  0.51100000000E-03 0.  1.
         11    1    4    4    0    0 -0.19299297596E-01 -0.39380846954E-01 -0.22878003526E-01  0.49466940080E-01  0.51100000000E-03 0. -1.
</event>
<event>
 8    1  0.1233916E+005  0.1043930E+01  0.7957747E-01            NaN
         13   -1    0    0    0    0  0.00000000000E+00  0.00000000000E+00  0.74505805969E-08  0.10566000000E+00  0.10566000000E+00 0. -1.
     999900   -1    0    0    0    0 -0.00000000000E+00 -0.00000000000E+00 -0.74505805969E-08  0.93827000000E+00  0.93827000000E+00 0.  1.
     999902    2    1    2    0    0  0.19470533286E-01  0.38206315334E-02 -0.14141385263E-01  0.10195644984E+01  0.10192733140E+01 0.  0.
     999903    2    3    3    0    0 -0.11828195310E+00 -0.36841217001E-01  0.20714456455E-01  0.12723941013E+00  0.20319524696E-01 0.  0.
         14    1    1    2    0    0 -0.19470533286E-01 -0.38206315334E-02  0.14141385263E-01  0.24365501614E-01  0.00000000000E+00 0. -1.
     999901    1    3    3    0    0  0.13775248639E+00  0.40661848534E-01 -0.34855841718E-01  0.89232508826E+00  0.88000000000E+00 0.  1.
        -11    1    4    4    0    0 -0.61652962731E-01 -0.11372741232E-01  0.17359720576E-01  0.65054193378E-01  0.51100000000E-03 0. -1.
         11    1    4    4    0    0 -0.56628990371E-01 -0.25468475769E-01  0.33547358789E-02  0.62185216750E-01  0.51100000000E-03 0.  1.
</event>
<event>
 8    1  0.1233916E+005  0.1043930E+01  0.7957747E-01            NaN
         13   -1    0    0    0    0  0.00000000000E+00  0.00000000000E+00  0.74505805969E-08  0.10566000000E+00  0.10566000000E+00 0. -1.
     999900   -1    0    0    0    0 -0.00000000000E+00 -0.00000000000E+00 -0.74505805969E-08  0.93827000000E+00  0.93827000000E+00 0. -1.
     999902    2    1    2    0    0  0.42027125018E-02 -0.16725405787E-01 -0.15622570925E-01  0.10206605627E+01  0.10203952751E+01 0.  0.
     999903    2    3    3    0    0 -0.12079362809E+00  0.13561215053E-01 -0.44273408804E-01  0.13085033848E+00  0.19663906349E-01 0.  0.
         14    1    1    2    0    0 -0.42027125018E-02  0.16725405787E-01  0.15622570925E-01  0.23269437325E-01  0.00000000000E+00 0. -1.
     999901    1    3    3    0    0  0.12499634059E+00 -0.30286620840E-01  0.28650837879E-01  0.88981022419E+00  0.88000000000E+00 0.  1.
        -11    1    4    4    0    0 -0.83584298753E-01  0.13422231734E-01 -0.21953590570E-01  0.87456918323E-01  0.51100000000E-03 0.  1.
         11    1    4    4    0    0 -0.37209329339E-01  0.13898331913E-03 -0.22319818234E-01  0.43393420161E-01  0.51100000000E-03 0. -1.
</event>
<event>
 8    1  0.1233916E+005  0.1043930E+01  0.7957747E-01            NaN
         13   -1    0    0    0    0  0.00000000000E+00  0.00000000000E+00  0.74505805969E-08  0.10566000000E+00  0.10566000000E+00 0. -1.
     999900   -1    0    0    0    0 -0.00000000000E+00 -0.00000000000E+00 -0.74505805969E-08  0.93827000000E+00  0.93827000000E+00 0. -1.
     999902    2    1    2    0    0 -0.73427988787E-02 -0.22065348976E-01  0.23607304479E-02  0.10205554547E+01  0.10202877372E+01 0.  0.
     999903    2    3    3    0    0 -0.72714858708E-01  0.10086782030E-02 -0.10693087244E+00  0.13108900146E+00  0.21485965502E-01 0.  0.
         14    1    1    2    0    0  0.73427988787E-02  0.22065348976E-01 -0.23607304479E-02  0.23374545323E-01  0.00000000000E+00 0. -1.
     999901    1    3    3    0    0  0.65372059830E-01 -0.23074027179E-01  0.10929160289E+00  0.88946645322E+00  0.88000000000E+00 0.  1.
        -11    1    4    4    0    0 -0.55996956705E-01  0.47515562025E-02 -0.94379486912E-01  0.10984527808E+00  0.51100000000E-03 0.  1.
         11    1    4    4    0    0 -0.16717902004E-01 -0.37428779995E-02 -0.12551385531E-01  0.21243723376E-01  0.51100000000E-03 0. -1.
</event>
<event>
 8    1  0.1233916E+005  0.1043930E+01  0.7957747E-01            NaN
         13   -1    0    0    0    0  0.00000000000E+00  0.00000000000E+00  0.74505805969E-08  0.10566000000E+00  0.10566000000E+00 0. -1.
     999900   -1    0    0    0    0 -0.00000000000E+00 -0.00000000000E+00 -0.74505805969E-08  0.93827000000E+00  0.93827000000E+00 0.  1.
     999902    2    1    2    0    0  0.93790779661E-02 -0.21800176706E-01 -0.37082045391E-02  0.10199098920E+01  0.10196270015E+01 0.  0.
     999903    2    3    3    0    0  0.30596063740E-01  0.87769165041E-01 -0.87058177031E-01  0.12895376566E+00  0.20258381986E-01 0.  0.
         14    1    1    2    0    0 -0.93790779661E-02  0.21800176706E-01  0.37082045391E-02  0.24020108010E-01  0.00000000000E+00 0.  1.
     999901    1    3    3    0    0 -0.21216985774E-01 -0.10956934175E+00  0.83349972492E-01  0.89095612633E+00  0.88000000000E+00 0.  1.
        -11    1    4    4    0    0  0.84583209487E-02  0.46554974752E-01 -0.34330772920E-01  0.58461713606E-01  0.51100000000E-03 0. -1.
         11    1    4    4    0    0  0.22137742791E-01  0.41214190289E-01 -0.52727404111E-01  0.70492052050E-01  0.51100000000E-03 0.  1.
</event>
<event>
 8    1  0.1233916E+005  0.1043930E+01  0.7957747E-01            NaN
         13   -1    0    0    0    0  0.00000000000E+00  0.00000000000E+00  0.74505805969E-08  0.10566000000E+00  0.10566000000E+00 0.  1.
     999900   -1    0    0    0    0 -0.00000000000E+00 -0.00000000000E+00 -0.74505805969E-08  0.93827000000E+00  0.93827000000E+00 0. -1.
     999902    2    1    2    0    0  0.40491023137E-02  0.18638582097E-01 -0.13699053340E-01  0.10204468990E+01  0.10201766600E+01 0.  0.
     999903    2    3    3    0    0  0.68164327159E-01 -0.97186792407E-01  0.45201107853E-01  0.12859741142E+00  0.20062551110E-01 0.  0.
         14    1    1    2    0    0 -0.40491023137E-02 -0.18638582097E-01  0.13699053340E-01  0.23483101042E-01  0.00000000000E+00 0.  1.
     999901    1    3    3    0    0 -0.64115224846E-01  0.11582537450E+00 -0.58900161193E-01  0.89184948754E+00  0.88000000000E+00 0. -1.
        -11    1    4    4    0    0  0.24245647447E-01 -0.27246847848E-01  0.52419607699E-02  0.36850799333E-01  0.51100000000E-03 0.  1.
         11    1    4    4    0    0  0.43918679713E-01 -0.69939944559E-01  0.39959147083E-01  0.91746612086E-01  0.51100000000E-03 0. -1.
</event>
<event>
 8    1  0.1233916E+005  0.1043930E+01  0.7957747E-01            NaN
         13   -1    0    0    0    0  0.00000000000E+00  0.00000000000E+00  0.74505805969E-08  0.10566000000E+00  0.10566000000E+00 0.  1.
     999900   -1    0    0    0    0 -0.00000000000E+00 -0.00000000000E+00 -0.74505805969E-08  0.93827000000E+00  0.93827000000E+00 0. -1.
     999902    2    1    2    0    0 -0.95905630271E-02  0.55601126717E-02 -0.20222758767E-01  0.10208680460E+01  0.10206075218E+01 0.  0.
     999903    2    3    3    0    0  0.95731784326E-01  0.49216598075E-01  0.68313521017E-01  0.12910722690E+00  0.20373777942E-01 0.  0.
         14    1    1    2    0    0  0.95905630271E-02 -0.55601126717E-02  0.20222758767E-01  0.23061954042E-01  0.00000000000E+00 0.  1.
     999901    1    3    3    0    0 -0.10532234735E+00 -0.43656485403E-01 -0.88536279784E-01  0.89176081906E+00  0.88000000000E+00 0. -1.
        -11    1    4    4    0    0  0.83878197697E-01  0.37121429790E-01  0.51305578290E-01  0.10510031438E+00  0.51100000000E-03 0.  1.
         11    1    4    4    0    0  0.11853586629E-01  0.12095168285E-01  0.17007942727E-01  0.24006912517E-01  0.51100000000E-03 0. -1.
</event>
<event>
 8    1  0.1233916E+005  0.1043930E+01  0.7957747E-01            NaN
         13   -1    0    0    0    0  0.00000000000E+00  0.00000000000E+00  0.74505805969E-08  0.10566000000E+00  0.10566000000E+00 0. -1.
     999900   -1    0    0    0    0 -0.00000000000E+00 -0.00000000000E+00 -0.74505805969E-08  0.93827000000E+00  0.93827000000E+00 0. -1.
     999902    2    1    2    0    0 -0.98424052697E-02 -0.42800717455E-02  0.20767879308E-01  0.10205527297E+01  0.10202849491E+01 0.  0.
     999903    2    3    3    0    0 -0.95150597475E-01 -0.76174857129E-01 -0.43996610763E-01  0.13114799225E+00  0.20195273079E-01 0.  0.
         14    1    1    2    0    0  0.98424052697E-02  0.42800717455E-02 -0.20767879308E-01  0.23377270298E-01  0.00000000000E+00 0.  1.
     999901    1    3    3    0    0  0.85308192206E-01  0.71894785384E-01  0.64764490071E-01  0.88940473745E+00  0.88000000000E+00 0.  1.
        -11    1    4    4    0    0 -0.74933548900E-01 -0.59267045506E-01 -0.42995361409E-01  0.10476870553E+00  0.51100000000E-03 0.  1.
         11    1    4    4    0    0 -0.20217048575E-01 -0.16907811623E-01 -0.10012493540E-02  0.26379286728E-01  0.51100000000E-03 0. -1.
</event>
<event>
 8    1  0.1233916E+005  0.1043930E+01  0.7957747E-01            NaN
         13   -1    0    0    0    0  0.00000000000E+00  0.00000000000E+00  0.74505805969E-08  0.10566000000E+00  0.10566000000E+00 0. -1.
     999900   -1    0    0    0    0 -0.00000000000E+00 -0.00000000000E+00 -0.74505805969E-08  0.93827000000E+00  0.93827000000E+00 0.  1.
     999902    2    1    2    0    0 -0.16086264622E-01  0.13127197776E-01  0.11658583671E-01  0.10201179483E+01  0.10198399947E+01 0.  0.
     999903    2    3    3    0    0  0.97580409100E-01  0.37319758460E-01 -0.72245718348E-01  0.12852088430E+00  0.19582473555E-01 0.  0.
         14    1    1    2    0    0  0.16086264622E-01 -0.13127197776E-01 -0.11658583671E-01  0.23812051658E-01  0.00000000000E+00 0.  1.
     999901    1    3    3    0    0 -0.11366667372E+00 -0.24192560684E-01  0.83904302019E-01  0.89159706404E+00  0.88000000000E+00 0.  1.
        -11    1    4    4    0    0  0.18333198432E-01 -0.78875324426E-03 -0.12391658723E-01  0.22148196842E-01  0.51100000000E-03 0.  1.
         11    1    4    4    0    0  0.79247210668E-01  0.38108511704E-01 -0.59854059625E-01  0.10637268746E+00  0.51100000000E-03 0. -1.
</event>
<event>
 8    1  0.1233916E+005  0.1043930E+01  0.7957747E-01            NaN
         13   -1    0    0    0    0  0.00000000000E+00  0.00000000000E+00  0.74505805969E-08  0.10566000000E+00  0.10566000000E+00 0.  1.
     999900   -1    0    0    0    0 -0.00000000000E+00 -0.00000000000E+00 -0.74505805969E-08  0.93827000000E+00  0.93827000000E+00 0.  1.
     999902    2    1    2    0    0 -0.16105125119E-01  0.52743608270E-02 -0.16442265106E-01  0.10203176723E+01  0.10200444159E+01 0.  0.
     999903    2    3    3    0    0  0.56055317500E-01 -0.63773956448E-01  0.93498826977E-01  0.12787056277E+00  0.19988347491E-01 0.  0.
         14    1    1    2    0    0  0.16105125119E-01 -0.52743608270E-02  0.16442265106E-01  0.23612327692E-01  0.00000000000E+00 0.  1.
     999901    1    3    3    0    0 -0.72160442619E-01  0.69048317275E-01 -0.10994109208E+00  0.89244710954E+00  0.88000000000E+00 0. -1.
        -11    1    4    4    0    0  0.10905770181E-01 -0.45420721455E-02  0.19985964249E-01  0.23222104353E-01  0.51100000000E-03 0.  1.
         11    1    4    4    0    0  0.45149547319E-01 -0.59231884303E-01  0.73512862728E-01  0.10464845841E+00  0.51100000000E-03 0. -1.
</event>
<event>
 8    1  0.1233916E+005  0.1043930E+01  0.7957747E-01            NaN
         13   -1    0    0    0    0  0.00000000000E+00  0.00000000000E+00  0.74505805969E-08  0.10566000000E+00  0.10566000000E+00 0. -1.
     999900   -1    0    0    0    0 -0.00000000000E+00 -0.00000000000E+00 -0.74505805969E-08  0.93827000000E+00  0.93827000000E+00 0. -1.
     999902    2    1    2    0    0 -0.18371511236E-01  0.13744811253E-01  0.40045438866E-02  0.10206390440E+01  0.10203732599E+01 0.  0.
     999903    2    3    3    0    0 -0.10847712800E+00  0.29900726160E-01 -0.67945236700E-01  0.13296973240E+00  0.20076200376E-01 0.  0.
         14    1    1    2    0    0  0.18371511236E-01 -0.13744811253E-01 -0.40045438866E-02  0.23290956039E-01  0.00000000000E+00 0. -1.
     999901    1    3    3    0    0  0.90105616760E-01 -0.16155914906E-01  0.71949780587E-01  0.88766931156E+00  0.88000000000E+00 0.  1.
        -11    1    4    4    0    0 -0.78615980467E-01  0.28929808627E-01 -0.43671000120E-01  0.94471284444E-01  0.51100000000E-03 0.  1.
         11    1    4    4    0    0 -0.29861147529E-01  0.97091753247E-03 -0.24274236580E-01  0.38498447958E-01  0.51100000000E-03 0. -1.
</event>
<event>
 8    1  0.1233916E+005  0.1043930E+01  0.7957747E-01            NaN
         13   -1    0    0    0    0  0.00000000000E+00  0.00000000000E+00  0.74505805969E-08  0.10566000000E+00  0.10566000000E+00 0.  1.
     999900   -1    0    0    0    0 -0.00000000000E+00 -0.00000000000E+00 -0.74505805969E-08  0.93827000000E+00  0.93827000000E+00 0.  1.
     999902    2    1    2    0    0 -0.21581332643E-02 -0.33566004160E-03 -0.28281090233E-01  0.10155646995E+01  0.10151684927E+01 0.  0.
     999903    2    3    3    0    0 -0.12439755897E-01 -0.11235879361E+00  0.50162753596E-01  0.12494225939E+00  0.17748811359E-01 0.  0.
         14    1    1    2    0    0  0.21581332643E-02  0.33566004160E-03  0.28281090233E-01  0.28365300485E-01  0.00000000000E+00 0.  1.
     999901    1    3    3    0    0  0.10281622632E-01  0.11202313357E+00 -0.78443843829E-01  0.89062244012E+00  0.88000000000E+00 0.  1.
        -11    1    4    4    0    0  0.73032249689E-03 -0.15932805166E-01  0.12150124052E-02  0.16003906634E-01  0.51100000000E-03 0. -1.
         11    1    4    4    0    0 -0.13170078394E-01 -0.96425988445E-01  0.48947741191E-01  0.10893835276E+00  0.51100000000E-03 0.  1.
</event>
<event>
 8    1  0.1233916E+005  0.1043930E+01  0.7957747E-01            NaN
         13   -1    0    0    0    0  0.00000000000E+00  0.00000000000E+00  0.74505805969E-08  0.10566000000E+00  0.10566000000E+00 0. -1.
     999900   -1    0    0    0    0 -0.00000000000E+00 -0.00000000000E+00 -0.74505805969E-08  0.93827000000E+00  0.93827000000E+00 0. -1.
     999902    2    1    2    0    0  0.23144390522E-01 -0.65974703471E-02  0.27603103646E-02  0.10197058645E+01  0.10194180896E+01 0.  0.
     999903    2    3    3    0    0 -0.39505842974E-01 -0.63649623541E-01  0.10414631139E+00  0.12984119998E+00  0.20007419386E-01 0.  0.
         14    1    1    2    0    0 -0.23144390522E-01  0.65974703471E-02 -0.27603103646E-02  0.24224135504E-01  0.00000000000E+00 0.  1.
     999901    1    3    3    0    0  0.62650233495E-01  0.57052153193E-01 -0.10138600103E+00  0.88986466451E+00  0.88000000000E+00 0. -1.
        -11    1    4    4    0    0 -0.43212066845E-02  0.32140373189E-03  0.40992570050E-02  0.59867484131E-02  0.51100000000E-03 0.  1.
         11    1    4    4    0    0 -0.35184636289E-01 -0.63971027272E-01  0.10004705439E+00  0.12385445157E+00  0.51100000000E-03 0. -1.
</event>
<event>
 8    1  0.1233916E+005  0.1043930E+01  0.7957747E-01            NaN
         13   -1    0    0    0    0  0.00000000000E+00  0.00000000000E+00  0.74505805969E-08  0.10566000000E+00  0.10566000000E+00 0. -1.
     999900   -1    0    0    0    0 -0.00000000000E+00 -0.00000000000E+00 -0.74505805969E-08  0.93827000000E+00  0.93827000000E+00 0. -1.
     999902    2    1    2    0    0  0.57699564215E-03  0.17211318527E-01 -0.15114902620E-01  0.10210166264E+01  0.10207594862E+01 0.  0.
     999903    2    3    3    0    0 -0.52052625628E-01  0.70900836145E-01  0.94929935599E-01  0.13098162271E+00  0.20201198346E-01 0.  0.
         14    1    1    2    0    0 -0.57699564215E-03 -0.17211318527E-01  0.15114902620E-01  0.22913373619E-01  0.00000000000E+00 0. -1.
     999901    1    3    3    0    0  0.52629621270E-01 -0.53689517618E-01 -0.11004483822E+00  0.89003500367E+00  0.88000000000E+00 0. -1.
        -11    1    4    4    0    0 -0.45457312660E-01  0.69996167819E-01  0.86126912369E-01  0.11993305190E+00  0.51100000000E-03 0.  1.
         11    1    4    4    0    0 -0.65953129674E-02  0.90466832562E-03  0.88030232303E-02  0.11048570809E-01  0.51100000000E-03 0. -1.
</event>
<event>
 8    1  0.1233916E+005  0.1043930E+01  0.7957747E-01            NaN
         13   -1    0    0    0    0  0.00000000000E+00  0.00000000000E+00  0.74505805969E-08  0.10566000000E+00  0.10566000000E+00 0.  1.
     999900   -1    0    0    0    0 -0.00000000000E+00 -0.00000000000E+00 -0.74505805969E-08  0.93827000000E+00  0.93827000000E+00 0.  1.
     999902    2    1    2    0    0 -0.17345551506E-01  0.14885763872E-02 -0.12994542922E-01  0.10222057702E+01  0.10219748991E+01 0.  0.
     999903    2    3    3    0    0 -0.87583992935E-01 -0.65275323073E-01  0.72831824198E-01  0.13273569071E+00  0.19556721407E-01 0.  0.
         14    1    1    2    0    0  0.17345551506E-01 -0.14885763872E-02  0.12994542922E-01  0.21724229848E-01  0.00000000000E+00 0.  1.
     999901    1    3    3    0    0  0.70238441428E-01  0.66763899460E-01 -0.85826367120E-01  0.88947007944E+00  0.88000000000E+00 0.  1.
        -11    1    4    4    0    0 -0.47643580369E-01 -0.39017340785E-01  0.51964001522E-01  0.80577802201E-01  0.51100000000E-03 0.  1.
         11    1    4    4    0    0 -0.39940412565E-01 -0.26257982288E-01  0.20867822675E-01  0.52157888511E-01  0.51100000000E-03 0. -1.
</event>
<event>
 8    1  0.1233916E+005  0.1043930E+01  0.7957747E-01            NaN
         13   -1    0    0    0    0  0.00000000000E+00  0.00000000000E+00  0.74505805969E-08  0.10566000000E+00  0.10566000000E+00 0.  1.
     999900   -1    0    0    0    0 -0.00000000000E+00 -0.00000000000E+00 -0.74505805969E-08  0.93827000000E+00  0.93827000000E+00 0.  1.
     999902    2    1    2    0    0  0.12446719269E-01  0.62159750286E-02 -0.17627718670E-01  0.10214734724E+01  0.10212265954E+01 0.  0.
     999903    2    3    3    0    0  0.82418923832E-01 -0.78243063013E-01  0.61820634409E-01  0.13111316370E+00  0.21307626338E-01 0.  0.
         14    1    1    2    0    0 -0.12446719269E-01 -0.62159750286E-02  0.17627718670E-01  0.22456527595E-01  0.00000000000E+00 0.  1.
     999901    1    3    3    0    0 -0.69972204563E-01  0.84459038042E-01 -0.79448353079E-01  0.89036030871E+00  0.88000000000E+00 0. -1.
        -11    1    4    4    0    0  0.56346177357E-01 -0.66080630735E-01  0.45868380373E-01  0.98212580153E-01  0.51100000000E-03 0. -1.
         11    1    4    4    0    0  0.26072746475E-01 -0.12162432278E-01  0.15952254036E-01  0.32900583543E-01  0.51100000000E-03 0.  1.
</event>
<event>
 8    1  0.1233916E+005  0.1043930E+01  0.7957747E-01            NaN
         13   -1    0    0    0    0  0.00000000000E+00  0.00000000000E+00  0.74505805969E-08  0.10566000000E+00  0.10566000000E+00 0. -1.
     999900   -1    0    0    0    0 -0.00000000000E+00 -0.00000000000E+00 -0.74505805969E-08  0.93827000000E+00  0.93827000000E+00 0. -1.
     999902    2    1    2    0    0  0.68920435291E-02  0.19629503256E-01 -0.10854234602E-01  0.10204644493E+01  0.10201946188E+01 0.  0.
     999903    2    3    3    0    0 -0.97379355290E-01  0.60957260304E-01  0.59879650735E-01  0.13052973782E+00  0.15934662313E-01 0.  0.
         14    1    1    2    0    0 -0.68920435291E-02 -0.19629503256E-01  0.10854234602E-01  0.23465550726E-01  0.00000000000E+00 0. -1.
     999901    1    3    3    0    0  0.10427139882E+00 -0.41327757048E-01 -0.70733885337E-01  0.88993471145E+00  0.88000000000E+00 0. -1.
        -11    1    4    4    0    0 -0.66517409459E-01  0.38586628934E-01  0.31956411849E-01  0.83276449689E-01  0.51100000000E-03 0.  1.
         11    1    4    4    0    0 -0.30861945831E-01  0.22370631370E-01  0.27923238885E-01  0.47253288131E-01  0.51100000000E-03 0. -1.
</event>
<event>
 8    1  0.1233916E+005  0.1043930E+01  0.7957747E-01            NaN
         13   -1    0    0    0    0  0.00000000000E+00  0.00000000000E+00  0.74505805969E-08  0.10566000000E+00  0.10566000000E+00 0. -1.
     999900   -1    0    0    0    0 -0.00000000000E+00 -0.00000000000E+00 -0.74505805969E-08  0.93827000000E+00  0.93827000000E+00 0.  1.
     999902    2    1    2    0    0 -0.99387679581E-02 -0.16020330303E-01 -0.13845015764E-01  0.10205395200E+01  0.10202714332E+01 0.  0.
     999903    2    3    3    0    0  0.39717397348E-02  0.69769402869E-01  0.10565419289E+00  0.12822038351E+00  0.19852304133E-01 0.  0.
         14    1    1    2    0    0  0.99387679581E-02  0.16020330303E-01  0.13845015764E-01  0.23390479966E-01  0.00000000000E+00 0. -1.
     999901    1    3    3    0    0 -0.13910507693E-01 -0.85789733172E-01 -0.11949920865E+00  0.89231913653E+00  0.88000000000E+00 0.  1.
        -11    1    4    4    0    0  0.73398545695E-02  0.23306562721E-01  0.24260446834E-01  0.34436894932E-01  0.51100000000E-03 0. -1.
         11    1    4    4    0    0 -0.33681148347E-02  0.46462840149E-01  0.81393746052E-01  0.93783488576E-01  0.51100000000E-03 0.  1.
</event>
<event>
 8    1  0.1233916E+005  0.1043930E+01  0.7957747E-01            NaN
         13   -1    0    0    0    0  0.00000000000E+00  0.00000000000E+00  0.74505805969E-08  0.10566000000E+00  0.10566000000E+00 0.  1.
     999900   -1    0    0    0    0 -0.00000000000E+00 -0.00000000000E+00 -0.74505805969E-08  0.93827000000E+00  0.93827000000E+00 0.  1.
     999902    2    1    2    0    0  0.14869665986E-01  0.12368804958E-01 -0.12902212323E-01  0.10206800240E+01  0.10204151851E+01 0.  0.
     999903    2    3    3    0    0 -0.39889061303E-01  0.12365765282E+00  0.96981723643E-02  0.13169492665E+00  0.19161076258E-01 0.  0.
         14    1    1    2    0    0 -0.14869665986E-01 -0.12368804958E-01  0.12902212323E-01  0.23249976032E-01  0.00000000000E+00 0.  1.
     999901    1    3    3    0    0  0.54758727289E-01 -0.11128884787E+00 -0.22600384687E-01  0.88898509732E+00  0.88000000000E+00 0. -1.
        -11    1    4    4    0    0 -0.33273447889E-01  0.89540167922E-01  0.14464624527E-01  0.96612889873E-01  0.51100000000E-03 0.  1.
         11    1    4    4    0    0 -0.66156134138E-02  0.34117484902E-01 -0.47664521625E-02  0.35082036773E-01  0.51100000000E-03 0. -1.
</event>
<event>
 8    1  0.1233916E+005  0.1043930E+01  0.7957747E-01            NaN
         13   -1    0    0    0    0  0.00000000000E+00  0.00000000000E+00  0.74505805969E-08  0.10566000000E+00  0.10566000000E+00 0.  1.
     999900   -1    0    0    0    0 -0.00000000000E+00 -0.00000000000E+00 -0.74505805969E-08  0.93827000000E+00  0.93827000000E+00 0. -1.
     999902    2    1    2    0    0  0.56567618951E-02 -0.16246244728E-01 -0.16198522830E-01  0.10203009593E+01  0.10200273114E+01 0.  0.
     999903    2    3    3    0    0 -0.60328697849E-01 -0.22905034062E-01  0.11015704085E+00  0.12880550286E+00  0.17090686005E-01 0.  0.
         14    1    1    2    0    0 -0.56567618951E-02  0.16246244728E-01  0.16198522830E-01  0.23629040708E-01  0.00000000000E+00 0.  1.
     999901    1    3    3    0    0  0.65985459744E-01  0.66587893340E-02 -0.12635556368E+00  0.89149545644E+00  0.88000000000E+00 0. -1.
        -11    1    4    4    0    0 -0.27318655890E-01 -0.16408324473E-01  0.41306485364E-01  0.52173067053E-01  0.51100000000E-03 0. -1.
         11    1    4    4    0    0 -0.33010041960E-01 -0.64967095894E-02  0.68850555484E-01  0.76632435803E-01  0.51100000000E-03 0.  1.
</event>
<event>
 8    1  0.1233916E+005  0.1043930E+01  0.7957747E-01            NaN
         13   -1    0    0    0    0  0.00000000000E+00  0.00000000000E+00  0.74505805969E-08  0.10566000000E+00  0.10566000000E+00 0. -1.
     999900   -1    0    0    0    0 -0.00000000000E+00 -0.00000000000E+00 -0.74505805969E-08  0.93827000000E+00  0.93827000000E+00 0. -1.
     999902    2    1    2    0    0  0.24656223939E-01 -0.15356699070E-01 -0.10406744952E-01  0.10130745641E+01  0.10126045696E+01 0.  0.
     999903    2    3    3    0    0 -0.31399591122E-01 -0.10223717822E+00 -0.62602648029E-01  0.12548519711E+00  0.19724812314E-01 0.  0.
         14    1    1    2    0    0 -0.24656223939E-01  0.15356699070E-01  0.10406744952E-01  0.30855435919E-01  0.00000000000E+00 0. -1.
     999901    1    3    3    0    0  0.56055815061E-01  0.86880479150E-01  0.52195903077E-01  0.88758936697E+00  0.88000000000E+00 0.  1.
        -11    1    4    4    0    0 -0.30737615827E-01 -0.70473402796E-01 -0.41919116124E-01  0.87571541873E-01  0.51100000000E-03 0. -1.
         11    1    4    4    0    0 -0.66197529503E-03 -0.31763775424E-01 -0.20683531905E-01  0.37913655239E-01  0.51100000000E-03 0.  1.
</event>
<event>
 8    1  0.1233916E+005  0.1043930E+01  0.7957747E-01            NaN
         13   -1    0    0    0    0  0.00000000000E+00  0.00000000000E+00  0.74505805969E-08  0.10566000000E+00  0.10566000000E+00 0. -1.
     999900   -1    0    0    0    0 -0.00000000000E+00 -0.00000000000E+00 -0.74505805969E-08  0.93827000000E+00  0.93827000000E+00 0.  1.
     999902    2    1    2    0    0  0.14760652788E-01  0.24517166174E-02 -0.16935845408E-01  0.10213310920E+01  0.10210810393E+01 0.  0.
     999903    2    3    3    0    0 -0.10412709397E+00 -0.65293258223E-01  0.34847898594E-01  0.12925192838E+00  0.19647485443E-01 0.  0.
         14    1    1    2    0    0 -0.14760652788E-01 -0.24517166174E-02  0.16935845408E-01  0.22598908044E-01  0.00000000000E+00 0. -1.
     999901    1    3    3    0    0  0.11888774676E+00  0.67744974840E-01 -0.51783744003E-01  0.89207916358E+00  0.88000000000E+00 0. -1.
        -11    1    4    4    0    0 -0.21980798025E-01 -0.59287700658E-02  0.27483802353E-02  0.22937317002E-01  0.51100000000E-03 0. -1.
         11    1    4    4    0    0 -0.82146295949E-01 -0.59364488157E-01  0.32099518359E-01  0.10631461138E+00  0.51100000000E-03 0.  1.
</event>
<event>
 8    1  0.1233916E+005  0.1043930E+01  0.7957747E-01            NaN
         13   -1    0    0    0    0  0.00000000000E+00  0.00000000000E+00  0.74505805969E-08  0.10566000000E+00  0.10566000000E+00 0. -1.
     999900   -1    0    0    0    0 -0.00000000000E+00 -0.00000000000E+00 -0.74505805969E-08  0.93827000000E+00  0.93827000000E+00 0. -1.
     999902    2    1    2    0    0  0.13207474762E-01  0.19131581611E-01 -0.81075807223E-02  0.10193091213E+01  0.10190117257E+01 0.  0.
     999903    2    3    3    0    0  0.82651935491E-01 -0.48259070142E-01 -0.86540924512E-01  0.13053703434E+00  0.19756149142E-01 0.  0.
         14    1    1    2    0    0 -0.13207474762E-01 -0.19131581611E-01  0.81075807223E-02  0.24620878735E-01  0.00000000000E+00 0. -1.
     999901    1    3    3    0    0 -0.69444460729E-01  0.67390651753E-01  0.78433343789E-01  0.88877208692E+00  0.88000000000E+00 0.  1.
        -11    1    4    4    0    0  0.38192984676E-01 -0.11457067406E-01 -0.32042486264E-01  0.51156138625E-01  0.51100000000E-03 0.  1.
         11    1    4    4    0    0  0.44458950814E-01 -0.36802002736E-01 -0.54498438248E-01  0.79380895720E-01  0.51100000000E-03 0. -1.
</event>
<event>
 8    1  0.1233916E+005  0.1043930E+01  0.7957747E-01            NaN
         13   -1    0    0    0    0  0.00000000000E+00  0.00000000000E+00  0.74505805969E-08  0.10566000000E+00  0.10566000000E+00 0.  1.
     999900   -1    0    0    0    0 -0.00000000000E+00 -0.00000000000E+00 -0.74505805969E-08  0.93827000000E+00  0.93827000000E+00 0.  1.
     999902    2    1    2    0    0  0.12674331966E-01  0.27998928792E-02  0.19787636264E-01  0.10202650757E+01  0.10199905863E+01 0.  0.
     999903    2    3    3    0    0 -0.51796378730E-01  0.22528187755E-01 -0.11292207207E+00  0.12776435035E+00  0.19543560740E-01 0.  0.
         14    1    1    2    0    0 -0.12674331966E-01 -0.27998928792E-02 -0.19787636264E-01  0.23664924251E-01  0.00000000000E+00 0. -1.
     999901    1    3    3    0    0  0.64470710696E-01 -0.19728294876E-01  0.13270970833E+00  0.89250072540E+00  0.88000000000E+00 0. -1.
        -11    1    4    4    0    0 -0.26551898199E-01  0.81957077375E-02 -0.35553544782E-01  0.45127470468E-01  0.51100000000E-03 0.  1.
         11    1    4    4    0    0 -0.25244480531E-01  0.14332480017E-01 -0.77368527286E-01  0.82636879879E-01  0.51100000000E-03 0. -1.
</event>
<event>
 8    1  0.1233916E+005  0.1043930E+01  0.7957747E-01            NaN
         13   -1    0    0    0    0  0.00000000000E+00  0.00000000000E+00  0.74505805969E-08  0.10566000000E+00  0.10566000000E+00 0.  1.
     999900   -1    0    0    0    0 -0.00000000000E+00 -0.00000000000E+00 -0.74505805969E-08  0.93827000000E+00  0.93827000000E+00 0. -1.
     999902    2    1    2    0    0  0.85006833160E-02 -0.10224153308E-01  0.20193020875E-01  0.10197524687E+01  0.10194658133E+01 0.  0.
     999903    2    3    3    0    0  0.93831992823E-01  0.63917164980E-01  0.63009449661E-01  0.13148921153E+00  0.20721369320E-01 0.  0.
         14    1    1    2    0    0 -0.85006833160E-02  0.10224153308E-01 -0.20193020875E-01  0.24177531300E-01  0.00000000000E+00 0.  1.
     999901    1    3    3    0    0 -0.85331309507E-01 -0.74141318288E-01 -0.42816428786E-01  0.88826325717E+00  0.88000000000E+00 0. -1.
        -11    1    4    4    0    0  0.48410867575E-01  0.34574524250E-01  0.44639679126E-01  0.74377227025E-01  0.51100000000E-03 0. -1.
         11    1    4    4    0    0  0.45421125248E-01  0.29342640731E-01  0.18369770536E-01  0.57111984508E-01  0.51100000000E-03 0.  1.
</event>
<event>
 8    1  0.1233916E+005  0.1043930E+01  0.7957747E-01            NaN
         13   -1    0    0    0    0  0.00000000000E+00  0.00000000000E+00  0.74505805969E-08  0.10566000000E+00  0.10566000000E+00 0.  1.
     999900   -1    0    0    0    0 -0.00000000000E+00 -0.00000000000E+00 -0.74505805969E-08  0.93827000000E+00  0.93827000000E+00 0. -1.
     999902    2    1    2    0    0  0.23139369999E-01 -0.24242764711E-02  0.45744321916E-02  0.10202185473E+01  0.10199429647E+01 0.  0.
     999903    2    3    3    0    0  0.12550818447E+00  0.19431566847E-01 -0.34370927176E-01  0.13315947761E+00  0.20498675127E-01 0.  0.
         14    1    1    2    0    0 -0.23139369999E-01  0.24242764711E-02 -0.45744321916E-02  0.23711452723E-01  0.00000000000E+00 0. -1.
     999901    1    3    3    0    0 -0.10236881448E+00 -0.21855843318E-01  0.38945359368E-01  0.88705906967E+00  0.88000000000E+00 0. -1.
        -11    1    4    4    0    0  0.37095473908E-01  0.42894229218E-02 -0.19838962215E-01  0.42288519437E-01  0.51100000000E-03 0.  1.
         11    1    4    4    0    0  0.88412710567E-01  0.15142143925E-01 -0.14531964961E-01  0.90870958172E-01  0.51100000000E-03 0. -1.
</event>
<event>
 8    1  0.1233916E+005  0.1043930E+01  0.7957747E-01            NaN
         13   -1    0    0    0    0  0.00000000000E+00  0.00000000000E+00  0.74505805969E-08  0.10566000000E+00  0.10566000000E+00 0. -1.
     999900   -1    0    0    0    0 -0.00000000000E+00 -0.00000000000E+00 -0.74505805969E-08  0.93827000000E+00  0.93827000000E+00 0. -1.
     999902    2    1    2    0    0 -0.10178290751E-01  0.39878989640E-02  0.20557261309E-01  0.10206469174E+01  0.10203813151E+01 0.  0.
     999903    2    3    3    0    0 -0.12016536582E+00 -0.45035093549E-01  0.25584453475E-01  0.13243203177E+00  0.20391272292E-01 0.  0.
         14    1    1    2    0    0  0.10178290751E-01 -0.39878989640E-02 -0.20557261309E-01  0.23283082556E-01  0.00000000000E+00 0.  1.
     999901    1    3    3    0    0  0.10998707507E+00  0.49022992513E-01 -0.50271921662E-02  0.88821488568E+00  0.88000000000E+00 0. -1.
        -11    1    4    4    0    0 -0.66369365104E-01 -0.34617296702E-01  0.19076564992E-01  0.77249118494E-01  0.51100000000E-03 0.  1.
         11    1    4    4    0    0 -0.53796000713E-01 -0.10417796847E-01  0.65078884826E-02  0.55182913273E-01  0.51100000000E-03 0. -1.
</event>
<event>
 8    1  0.1233916E+005  0.1043930E+01  0.7957747E-01            NaN
         13   -1    0    0    0    0  0.00000000000E+00  0.00000000000E+00  0.74505805969E-08  0.10566000000E+00  0.10566000000E+00 0.  1.
     999900   -1    0    0    0    0 -0.00000000000E+00 -0.00000000000E+00 -0.74505805969E-08  0.93827000000E+00  0.93827000000E+00 0.  1.
     999902    2    1    2    0    0 -0.10460043041E-01  0.11966535772E-01 -0.17753324181E-01  0.10201016346E+01  0.10198232954E+01 0.  0.
     999903    2    3    3    0    0  0.18001478887E-01  0.12537285193E+00  0.29668592186E-01  0.13110225949E+00  0.16284097691E-01 0.  0.
         14    1    1    2    0    0  0.10460043041E-01 -0.11966535772E-01  0.17753324181E-01  0.23828365414E-01  0.00000000000E+00 0.  1.
     999901    1    3    3    0    0 -0.28461521928E-01 -0.11340631616E+00 -0.47421916367E-01  0.88899937510E+00  0.88000000000E+00 0.  1.
        -11    1    4    4    0    0  0.15470077005E-01  0.53155157202E-01  0.10655594956E-01  0.56379046148E-01  0.51100000000E-03 0. -1.
         11    1    4    4    0    0  0.25314018828E-02  0.72217694726E-01  0.19012997230E-01  0.74723213339E-01  0.51100000000E-03 0.  1.
</event>
<event>
 8    1  0.1233916E+005  0.1043930E+01  0.7957747E-01            NaN
         13   -1    0    0    0    0  0.00000000000E+00  0.00000000000E+00  0.74505805969E-08  0.10566000000E+00  0.10566000000E+00 0. -1.
     999900   -1    0    0    0    0 -0.00000000000E+00 -0.00000000000E+00 -0.74505805969E-08  0.93827000000E+00  0.93827000000E+00 0.  1.
     999902    2    1    2    0    0  0.20478164854E-01  0.10209199570E-01  0.44588083934E-02  0.10206176864E+01  0.10203514090E+01 0.  0.
     999903    2    3    3    0    0 -0.25681625777E-01  0.42757061777E-01 -0.11872959712E+00  0.13024390377E+00  0.19469078099E-01 0.  0.
         14    1    1    2    0    0 -0.20478164854E-01 -0.10209199570E-01 -0.44588083934E-02  0.23312313569E-01  0.00000000000E+00 0. -1.
     999901    1    3    3    0    0  0.46159790632E-01 -0.32547862207E-01  0.12318840551E+00  0.89037378267E+00  0.88000000000E+00 0. -1.
        -11    1    4    4    0    0 -0.17248206171E-01  0.12852423636E-01 -0.60975315678E-01  0.64660155061E-01  0.51100000000E-03 0. -1.
         11    1    4    4    0    0 -0.84334196060E-02  0.29904638141E-01 -0.57754281439E-01  0.65583748705E-01  0.51100000000E-03 0.  1.
</event>
<event>
 8    1  0.1233916E+005  0.1043930E+01  0.7957747E-01            NaN
         13   -1    0    0    0    0  0.00000000000E+00  0.00000000000E+00  0.74505805969E-08  0.10566000000E+00  0.10566000000E+00 0.  1.
     999900   -1    0    0    0    0 -0.00000000000E+00 -0.00000000000E+00 -0.74505805969E-08  0.93827000000E+00  0.93827000000E+00 0.  1.
     999902    2    1    2    0    0 -0.15530530133E-01  0.10004667306E-01 -0.14706702684E-01  0.10203169138E+01  0.10200436397E+01 0.  0.
     999903    2    3    3    0    0  0.96618253533E-01  0.81459241387E-01 -0.24557592703E-01  0.13027188921E+00  0.19924729260E-01 0.  0.
         14    1    1    2    0    0  0.15530530133E-01 -0.10004667306E-01  0.14706702684E-01  0.23613086159E-01  0.00000000000E+00 0. -1.
     999901    1    3    3    0    0 -0.11214878367E+00 -0.71454574080E-01  0.98508900181E-02  0.89004502463E+00  0.88000000000E+00 0. -1.
        -11    1    4    4    0    0  0.28118331262E-01  0.18979479835E-01  0.15083008781E-02  0.33961703436E-01  0.51100000000E-03 0.  1.
         11    1    4    4    0    0  0.68499922271E-01  0.62479761551E-01 -0.26065893581E-01  0.96310185774E-01  0.51100000000E-03 0. -1.
</event>
<event>
 8    1  0.1233916E+005  0.1043930E+01  0.7957747E-01            NaN
         13   -1    0    0    0    0  0.00000000000E+00  0.00000000000E+00  0.74505805969E-08  0.10566000000E+00  0.10566000000E+00 0. -1.
     999900   -1    0    0    0    0 -0.00000000000E+00 -0.00000000000E+00 -0.74505805969E-08  0.93827000000E+00  0.93827000000E+00 0.  1.
     999902    2    1    2    0    0 -0.12612349271E-01 -0.17148209435E-01 -0.10241018555E-01  0.10203077456E+01  0.10200342567E+01 0.  0.
     999903    2    3    3    0    0  0.11419449520E+00 -0.71083246626E-02 -0.57714589558E-01  0.12989519234E+00  0.21233844047E-01 0.  0.
         14    1    1    2    0    0  0.12612349271E-01  0.17148209435E-01  0.10241018555E-01  0.23622254380E-01  0.00000000000E+00 0.  1.
     999901    1    3    3    0    0 -0.12680684447E+00 -0.10039884773E-01  0.47473571003E-01  0.89041255328E+00  0.88000000000E+00 0. -1.
        -11    1    4    4    0    0  0.85129908926E-01 -0.13756017580E-01 -0.38639456808E-01  0.94496551031E-01  0.51100000000E-03 0. -1.
         11    1    4    4    0    0  0.29064586271E-01  0.66476929176E-02 -0.19075132750E-01  0.35398641311E-01  0.51100000000E-03 0.  1.
</event>
<event>
 8    1  0.1233916E+005  0.1043930E+01  0.7957747E-01            NaN
         13   -1    0    0    0    0  0.00000000000E+00  0.00000000000E+00  0.74505805969E-08  0.10566000000E+00  0.10566000000E+00 0. -1.
     999900   -1    0    0    0    0 -0.00000000000E+00 -0.00000000000E+00 -0.74505805969E-08  0.93827000000E+00  0.93827000000E+00 0.  1.
     999902    2    1    2    0    0 -0.12503739585E-01 -0.22006349887E-01  0.30266991748E-02  0.10184391419E+01  0.10181200823E+01 0.  0.
     999903    2    3    3    0    0 -0.53687714169E-01  0.55290257129E-01  0.10110842830E+00  0.12866899697E+00  0.19834649527E-01 0.  0.
         14    1    1    2    0    0  0.12503739585E-01  0.22006349887E-01 -0.30266991748E-02  0.25490858104E-01  0.00000000000E+00 0.  1.
     999901    1    3    3    0    0  0.41183974584E-01 -0.77296607016E-01 -0.98081729122E-01  0.88977014493E+00  0.88000000000E+00 0.  1.
        -11    1    4    4    0    0 -0.49795037373E-01  0.44598996497E-01  0.93624067324E-01  0.11504061604E+00  0.51100000000E-03 0. -1.
         11    1    4    4    0    0 -0.38926767958E-02  0.10691260632E-01  0.74843609732E-02  0.13628380928E-01  0.51100000000E-03 0.  1.
</event>
<event>
 8    1  0.1233916E+005  0.1043930E+01  0.7957747E-01            NaN
         13   -1    0    0    0    0  0.00000000000E+00  0.00000000000E+00  0.74505805969E-08  0.10566000000E+00  0.10566000000E+00 0.  1.
     999900   -1    0    0    0    0 -0.00000000000E+00 -0.00000000000E+00 -0.74505805969E-08  0.93827000000E+00  0.93827000000E+00 0. -1.
     999902    2    1    2    0    0  0.12574829702E-03  0.22536392374E-01 -0.66062318166E-02  0.10204449602E+01  0.10201746761E+01 0.  0.
     999903    2    3    3    0    0  0.99128154927E-01 -0.59475813192E-01 -0.55531947368E-01  0.12975915479E+00  0.19745318927E-01 0.  0.
         14    1    1    2    0    0 -0.12574829702E-03 -0.22536392374E-01  0.66062318166E-02  0.23485039763E-01  0.00000000000E+00 0.  1.
     999901    1    3    3    0    0 -0.99002406630E-01  0.82012205565E-01  0.48925715552E-01  0.89068580545E+00  0.88000000000E+00 0.  1.
        -11    1    4    4    0    0  0.85063676978E-01 -0.42175067572E-01 -0.46060302117E-01  0.10552903874E+00  0.51100000000E-03 0. -1.
         11    1    4    4    0    0  0.14064477949E-01 -0.17300745620E-01 -0.94716452510E-02  0.24230116049E-01  0.51100000000E-03 0.  1.
</event>
<event>
 8    1  0.1233916E+005  0.1043930E+01  0.7957747E-01            NaN
         13   -1    0    0    0    0  0.00000000000E+00  0.00000000000E+00  0.74505805969E-08  0.10566000000E+00  0.10566000000E+00 0.  1.
     999900   -1    0    0    0    0 -0.00000000000E+00 -0.00000000000E+00 -0.74505805969E-08  0.93827000000E+00  0.93827000000E+00 0. -1.
     999902    2    1    2    0    0  0.18836031512E-01  0.13989074356E-01  0.55271960619E-02  0.10198252249E+01  0.10195403127E+01 0.  0.
     999903    2    3    3    0    0 -0.13613101300E-01  0.12373880071E+00  0.37803496173E-01  0.13182764149E+00  0.21279459803E-01 0.  0.
         14    1    1    2    0    0 -0.18836031512E-01 -0.13989074356E-01 -0.55271960619E-02  0.24104775061E-01  0.00000000000E+00 0. -1.
     999901    1    3    3    0    0  0.32449132811E-01 -0.10974972636E+00 -0.32276300112E-01  0.88799758345E+00  0.88000000000E+00 0.  1.
        -11    1    4    4    0    0 -0.37458107848E-02  0.14566237583E-01  0.11911622889E-01  0.19192557324E-01  0.51100000000E-03 0. -1.
         11    1    4    4    0    0 -0.98672905150E-02  0.10917256313E+00  0.25891873284E-01  0.11263508417E+00  0.51100000000E-03 0.  1.
</event>
<event>
 8    1  0.1233916E+005  0.1043930E+01  0.7957747E-01            NaN
         13   -1    0    0    0    0  0.00000000000E+00  0.00000000000E+00  0.74505805969E-08  0.10566000000E+00  0.10566000000E+00 0. -1.
     999900   -1    0    0    0    0 -0.00000000000E+00 -0.00000000000E+00 -0.74505805969E-08  0.93827000000E+00  0.93827000000E+00 0. -1.
     999902    2    1    2    0    0 -0.20070050373E-01 -0.61686824968E-02 -0.10041446595E-01  0.10206557607E+01  0.10203903624E+01 0.  0.
     999903    2    3    3    0    0 -0.24576825482E-01  0.12686348391E+00  0.51899918043E-03  0.13058307190E+00  0.18796419991E-01 0.  0.
         14    1    1    2    0    0  0.20070050373E-01  0.61686824968E-02  0.10041446595E-01  0.23274239309E-01  0.00000000000E+00 0.  1.
     999901    1    3    3    0    0  0.45067751092E-02 -0.13303216641E+00 -0.10560445775E-01  0.89007268879E+00  0.88000000000E+00 0.  1.
        -11    1    4    4    0    0 -0.46790554255E-03  0.50278088754E-01  0.86071989865E-03  0.50290228714E-01  0.51100000000E-03 0.  1.
         11    1    4    4    0    0 -0.24108919940E-01  0.76585395159E-01 -0.34172071822E-03  0.80292843183E-01  0.51100000000E-03 0. -1.
</event>
<event>
 8    1  0.1233916E+005  0.1043930E+01  0.7957747E-01            NaN
         13   -1    0    0    0    0  0.00000000000E+00  0.00000000000E+00  0.74505805969E-08  0.10566000000E+00  0.10566000000E+00 0.  1.
     999900   -1    0    0    0    0 -0.00000000000E+00 -0.00000000000E+00 -0.74505805969E-08  0.93827000000E+00  0.93827000000E+00 0. -1.
     999902    2    1    2    0    0  0.55806440288E-02  0.13941817143E-01  0.17556283056E-01  0.10208271662E+01  0.10205657070E+01 0.  0.
     999903    2    3    3    0    0 -0.11367708996E+00 -0.44092071862E-02  0.62957654063E-01  0.13143386083E+00  0.19216442957E-01 0.  0.
         14    1    1    2    0    0 -0.55806440288E-02 -0.13941817143E-01 -0.17556283056E-01  0.23102833761E-01  0.00000000000E+00 0. -1.
     999901    1    3    3    0    0  0.11925773398E+00  0.18351024330E-01 -0.45401371007E-01  0.88939330540E+00  0.88000000000E+00 0.  1.
        -11    1    4    4    0    0 -0.48796879170E-01 -0.10892060004E-01  0.23816711252E-01  0.55382932784E-01  0.51100000000E-03 0.  1.
         11    1    4    4    0    0 -0.64880210785E-01  0.64828528175E-02  0.39140942811E-01  0.76050928051E-01  0.51100000000E-03 0. -1.
</event>
<event>
 8    1  0.1233916E+005  0.1043930E+01  0.7957747E-01            NaN
         13   -1    0    0    0    0  0.00000000000E+00  0.00000000000E+00  0.74505805969E-08  0.10566000000E+00  0.10566000000E+00 0. -1.
     999900   -1    0    0    0    0 -0.00000000000E+00 -0.00000000000E+00 -0.74505805969E-08  0.93827000000E+00  0.93827000000E+00 0. -1.
     999902    2    1    2    0    0  0.12703386212E-01  0.56494408047E-02  0.18632004429E-01  0.10206825530E+01  0.10204177724E+01 0.  0.
     999903    2    3    3    0    0  0.11479189176E+00 -0.55874747940E-01  0.28853008443E-01  0.13258809987E+00  0.21164646443E-01 0.  0.
         14    1    1    2    0    0 -0.12703386212E-01 -0.56494408047E-02 -0.18632004429E-01  0.23247446993E-01  0.00000000000E+00 0.  1.
     999901    1    3    3    0    0 -0.10208850555E+00  0.61524188745E-01 -0.10221004014E-01  0.88809445314E+00  0.88000000000E+00 0. -1.
        -11    1    4    4    0    0  0.94459303073E-01 -0.39088624588E-01  0.16828656168E-01  0.10360475519E+00  0.51100000000E-03 0. -1.
         11    1    4    4    0    0  0.20332588691E-01 -0.16786123352E-01  0.12024352275E-01  0.28983344678E-01  0.51100000000E-03 0.  1.
</event>
<event>
 8    1  0.1233916E+005  0.1043930E+01  0.7957747E-01            NaN
         13   -1    0    0    0    0  0.00000000000E+00  0.00000000000E+00  0.74505805969E-08  0.10566000000E+00  0.10566000000E+00 0.  1.
     999900   -1    0    0    0    0 -0.00000000000E+00 -0.00000000000E+00 -0.74505805969E-08  0.93827000000E+00  0.93827000000E+00 0. -1.
     999902    2    1    2    0    0 -0.13817888358E-01 -0.15706910151E-01 -0.10760457602E-01  0.10204049386E+01  0.10201337217E+01 0.  0.
     999903    2    3    3    0    0  0.21291739362E-02  0.12073479982E+00  0.38761076193E-01  0.12837184993E+00  0.19886818684E-01 0.  0.
         14    1    1    2    0    0  0.13817888358E-01  0.15706910151E-01  0.10760457602E-01  0.23525061381E-01  0.00000000000E+00 0.  1.
     999901    1    3    3    0    0 -0.15947062294E-01 -0.13644170997E+00 -0.49521533795E-01  0.89203308869E+00  0.88000000000E+00 0.  1.
        -11    1    4    4    0    0  0.70799573482E-02  0.68582239534E-01  0.13699066020E-01  0.70296336365E-01  0.51100000000E-03 0. -1.
         11    1    4    4    0    0 -0.49507834120E-02  0.52152560283E-01  0.25062010173E-01  0.58075513561E-01  0.51100000000E-03 0.  1.
</event>
<event>
 8    1  0.1233916E+005  0.1043930E+01  0.7957747E-01            NaN
         13   -1    0    0    0    0  0.00000000000E+00  0.00000000000E+00  0.74505805969E-08  0.10566000000E+00  0.10566000000E+00 0.  1.
     999900   -1    0    0    0    0 -0.00000000000E+00 -0.00000000000E+00 -0.74505805969E-08  0.93827000000E+00  0.93827000000E+00 0. -1.
     999902    2    1    2    0    0  0.60576639480E-02  0.10896640326E-01  0.19957346669E-01  0.10203985795E+01  0.10201272143E+01 0.  0.
     999903    2    3    3    0    0 -0.59805358559E-01  0.90007204948E-01  0.74433881880E-01  0.13272515307E+00  0.19939549415E-01 0.  0.
         14    1    1    2    0    0 -0.60576639480E-02 -0.10896640326E-01 -0.19957346669E-01  0.23531420462E-01  0.00000000000E+00 0. -1.
     999901    1    3    3    0    0  0.65863022507E-01 -0.79110564623E-01 -0.54476535211E-01  0.88767342647E+00  0.88000000000E+00 0. -1.
        -11    1    4    4    0    0 -0.31875630902E-01  0.45810938313E-01  0.26459781848E-01  0.61766326513E-01  0.51100000000E-03 0. -1.
         11    1    4    4    0    0 -0.27929727657E-01  0.44196266636E-01  0.47974100031E-01  0.70958826557E-01  0.51100000000E-03 0.  1.
</event>
<event>
 8    1  0.1233916E+005  0.1043930E+01  0.7957747E-01            NaN
         13   -1    0    0    0    0  0.00000000000E+00  0.00000000000E+00  0.74505805969E-08  0.10566000000E+00  0.10566000000E+00 0. -1.
     999900   -1    0    0    0    0 -0.00000000000E+00 -0.00000000000E+00 -0.74505805969E-08  0.93827000000E+00  0.93827000000E+00 0.  1.
     999902    2    1    2    0    0  0.62303179338E-02  0.54773654625E-02  0.22245093837E-01  0.10201884206E+01  0.10199121290E+01 0.  0.
     999903    2    3    3    0    0  0.96146214576E-01  0.50808432249E-01  0.73890455965E-01  0.13294154539E+00  0.19699331046E-01 0.  0.
         14    1    1    2    0    0 -0.62303179338E-02 -0.54773654625E-02 -0.22245093837E-01  0.23741579429E-01  0.00000000000E+00 0.  1.
     999901    1    3    3    0    0 -0.89915896642E-01 -0.45331066786E-01 -0.51645362128E-01  0.88724687518E+00  0.88000000000E+00 0. -1.
        -11    1    4    4    0    0  0.19553181010E-01  0.97567883810E-02  0.60075177115E-02  0.22668771408E-01  0.51100000000E-03 0.  1.
         11    1    4    4    0    0  0.76593033566E-01  0.41051643868E-01  0.67882938254E-01  0.11027277398E+00  0.51100000000E-03 0. -1.
</event>
<event>
 8    1  0.1233916E+005  0.1043930E+01  0.7957747E-01            NaN
         13   -1    0    0    0    0  0.00000000000E+00  0.00000000000E+00  0.74505805969E-08  0.10566000000E+00  0.10566000000E+00 0.  1.
     999900   -1    0    0    0    0 -0.00000000000E+00 -0.00000000000E+00 -0.74505805969E-08  0.93827000000E+00  0.93827000000E+00 0.  1.
     999902    2    1    2    0    0  0.14927082323E-01 -0.18550709591E-02  0.17609035978E-01  0.10207710444E+01  0.10205082988E+01 0.  0.
     999903    2    3    3    0    0  0.60348188708E-01  0.56973642331E-01  0.10265741410E+00  0.13355228841E+00  0.20242758438E-01 0.  0.
         14    1    1    2    0    0 -0.14927082323E-01  0.18550709591E-02 -0.17609035978E-01  0.23158955569E-01  0.00000000000E+00 0. -1.
     999901    1    3    3    0    0 -0.45421106385E-01 -0.58828713290E-01 -0.85048378123E-01  0.88721875602E+00  0.88000000000E+00 0.  1.
        -11    1    4    4    0    0  0.43521338898E-01  0.27501625256E-01  0.61731131383E-01  0.80383083009E-01  0.51100000000E-03 0. -1.
         11    1    4    4    0    0  0.16826849810E-01  0.29472017075E-01  0.40926282718E-01  0.53169205402E-01  0.51100000000E-03 0.  1.
</event>
<event>
 8    1  0.1233916E+005  0.1043930E+01  0.7957747E-01            NaN
         13   -1    0    0    0    0  0.00000000000E+00  0.00000000000E+00  0.74505805969E-08  0.10566000000E+00  0.10566000000E+00 0.  1.
     999900   -1    0    0    0    0 -0.00000000000E+00 -0.00000000000E+00 -0.74505805969E-08  0.93827000000E+00  0.93827000000E+00 0. -1.
     999902    2    1    2    0    0  0.29617677265E-02  0.71011269578E-02  0.20970372599E-01  0.10215927083E+01  0.10213484749E+01 0.  0.
     999903    2    3    3    0    0 -0.96582501202E-01  0.29539800722E-02 -0.83394985778E-01  0.12984252564E+00  0.23821256782E-01 0.  0.
         14    1    1    2    0    0 -0.29617677265E-02 -0.71011269578E-02 -0.20970372599E-01  0.22337291668E-01  0.00000000000E+00 0. -1.
     999901    1    3    3    0    0  0.99544268929E-01  0.41471468856E-02  0.10436535838E+00  0.89175018269E+00  0.88000000000E+00 0.  1.
        -11    1    4    4    0    0 -0.34067610001E-01  0.11681577889E-01 -0.35830975946E-01  0.50805327195E-01  0.51100000000E-03 0.  1.
         11    1    4    4    0    0 -0.62514891201E-01 -0.87275978173E-02 -0.47564009832E-01  0.79037198444E-01  0.51100000000E-03 0. -1.
</event>
<event>
 8    1  0.1233916E+005  0.1043930E+01  0.7957747E-01            NaN
         13   -1    0    0    0    0  0.00000000000E+00  0.00000000000E+00  0.74505805969E-08  0.10566000000E+00  0.10566000000E+00 0. -1.
     999900   -1    0    0    0    0 -0.00000000000E+00 -0.00000000000E+00 -0.74505805969E-08  0.93827000000E+00  0.93827000000E+00 0.  1.
     999902    2    1    2    0    0 -0.67865942729E-02  0.21685351214E-01 -0.69648675592E-02  0.10201640222E+01  0.10198871558E+01 0.  0.
     999903    2    3    3    0    0 -0.49964652918E-01  0.32625766996E-01  0.11424090058E+00  0.13074012123E+00  0.21933734788E-01 0.  0.
         14    1    1    2    0    0  0.67865942729E-02 -0.21685351214E-01  0.69648675592E-02  0.23765977767E-01  0.00000000000E+00 0.  1.
     999901    1    3    3    0    0  0.43178058645E-01 -0.10940415783E-01 -0.12120576813E+00  0.88942390100E+00  0.88000000000E+00 0.  1.
        -11    1    4    4    0    0 -0.39033874912E-01  0.13410922637E-01  0.79075125934E-01  0.89199960197E-01  0.51100000000E-03 0. -1.
         11    1    4    4    0    0 -0.10930778006E-01  0.19214844359E-01  0.35165774641E-01  0.41540161034E-01  0.51100000000E-03 0.  1.
</event>
<event>
 8    1  0.1233916E+005  0.1043930E+01  0.7957747E-01            NaN
         13   -1    0    0    0    0  0.00000000000E+00  0.00000000000E+00  0.74505805969E-08  0.10566000000E+00  0.10566000000E+00 0.  1.
     999900   -1    0    0    0    0 -0.00000000000E+00 -0.00000000000E+00 -0.74505805969E-08  0.93827000000E+00  0.93827000000E+00 0. -1.
     999902    2    1    2    0    0 -0.12380112200E-01  0.19586705874E-01 -0.59187511778E-02  0.10200147781E+01  0.10197343819E+01 0.  0.
     999903    2    3    3    0    0  0.31778303257E-01  0.30714308825E-01  0.12022320904E+00  0.12985435244E+00  0.21337842702E-01 0.  0.
         14    1    1    2    0    0  0.12380112200E-01 -0.19586705874E-01  0.59187511778E-02  0.23915221943E-01  0.00000000000E+00 0. -1.
     999901    1    3    3    0    0 -0.44158415457E-01 -0.11127602950E-01 -0.12614196022E+00  0.89016042562E+00  0.88000000000E+00 0. -1.
        -11    1    4    4    0    0  0.25063356524E-01  0.33267566970E-01  0.10648980755E+00  0.11434702919E+00  0.51100000000E-03 0.  1.
         11    1    4    4    0    0  0.67149467329E-02 -0.25532581452E-02  0.13733401497E-01  0.15507323252E-01  0.51100000000E-03 0. -1.
</event>
<event>
 8    1  0.1233916E+005  0.1043930E+01  0.7957747E-01            NaN
         13   -1    0    0    0    0  0.00000000000E+00  0.00000000000E+00  0.74505805969E-08  0.10566000000E+00  0.10566000000E+00 0. -1.
     999900   -1    0    0    0    0 -0.00000000000E+00 -0.00000000000E+00 -0.74505805969E-08  0.93827000000E+00  0.93827000000E+00 0. -1.
     999902    2    1    2    0    0  0.62683055287E-02 -0.22545301099E-01 -0.17306532430E-02  0.10204656139E+01  0.10201958105E+01 0.  0.
     999903    2    3    3    0    0  0.12013235124E+00  0.12218483770E-01 -0.47689396123E-01  0.13126049260E+00  0.19338181269E-01 0.  0.
         14    1    1    2    0    0 -0.62683055287E-02  0.22545301099E-01  0.17306532430E-02  0.23464386131E-01  0.00000000000E+00 0.  1.
     999901    1    3    3    0    0 -0.11386404571E+00 -0.34763784869E-01  0.45958742880E-01  0.88920512127E+00  0.88000000000E+00 0. -1.
        -11    1    4    4    0    0  0.10705586091E+00  0.56581215887E-02 -0.38170620214E-01  0.11379907321E+00  0.51100000000E-03 0. -1.
         11    1    4    4    0    0  0.13076490334E-01  0.65603621809E-02 -0.95187759082E-02  0.17461419392E-01  0.51100000000E-03 0.  1.
</event>
<event>
 8    1  0.1233916E+005  0.1043930E+01  0.7957747E-01            NaN
         13   -1    0    0    0    0  0.00000000000E+00  0.00000000000E+00  0.74505805969E-08  0.10566000000E+00  0.10566000000E+00 0.  1.
     999900   -1    0    0    0    0 -0.00000000000E+00 -0.00000000000E+00 -0.74505805969E-08  0.93827000000E+00  0.93827000000E+00 0.  1.
     999902    2    1    2    0    0 -0.15352247929E-01  0.11904292561E-01  0.12698760754E-01  0.10207209022E+01  0.10204570044E+01 0.  0.
     999903    2    3    3    0    0  0.63298831712E-01  0.52930978281E-01 -0.97742222834E-01  0.12939245982E+00  0.19504768025E-01 0.  0.
         14    1    1    2    0    0  0.15352247929E-01 -0.11904292561E-01 -0.12698760754E-01  0.23209097840E-01  0.00000000000E+00 0. -1.
     999901    1    3    3    0    0 -0.78651079641E-01 -0.41026685720E-01  0.11044098359E+00  0.89132844234E+00  0.88000000000E+00 0. -1.
        -11    1    4    4    0    0  0.51565539948E-02 -0.11642178597E-02 -0.50128560930E-02  0.73031020488E-02  0.51100000000E-03 0. -1.
         11    1    4    4    0    0  0.58142277717E-01  0.54095196141E-01 -0.92729366741E-01  0.12208935777E+00  0.51100000000E-03 0.  1.
</event>
<event>
 8    1  0.1233916E+005  0.1043930E+01  0.7957747E-01            NaN
         13   -1    0    0    0    0  0.00000000000E+00  0.00000000000E+00  0.74505805969E-08  0.10566000000E+00  0.10566000000E+00 0.  1.
     999900   -1    0    0    0    0 -0.00000000000E+00 -0.00000000000E+00 -0.74505805969E-08  0.93827000000E+00  0.93827000000E+00 0.  1.
     999902    2    1    2    0    0 -0.13927651906E-01 -0.17603534733E-01 -0.12564248553E-01  0.10182059983E+01  0.10178810003E+01 0.  0.
     999903    2    3    3    0    0 -0.90045013548E-01  0.57216846912E-01  0.67915458706E-01  0.12811110136E+00  0.20446826750E-01 0.  0.
         14    1    1    2    0    0  0.13927651906E-01  0.17603534733E-01  0.12564248553E-01  0.25724001718E-01  0.00000000000E+00 0.  1.
     999901    1    3    3    0    0  0.76117361642E-01 -0.74820381645E-01 -0.80479707258E-01  0.89009489693E+00  0.88000000000E+00 0. -1.
        -11    1    4    4    0    0 -0.48751419035E-01  0.19852904025E-01  0.37725242715E-01  0.64763367076E-01  0.51100000000E-03 0. -1.
         11    1    4    4    0    0 -0.41293594512E-01  0.37363942887E-01  0.30190215991E-01  0.63347734280E-01  0.51100000000E-03 0.  1.
</event>
<event>
 8    1  0.1233916E+005  0.1043930E+01  0.7957747E-01            NaN
         13   -1    0    0    0    0  0.00000000000E+00  0.00000000000E+00  0.74505805969E-08  0.10566000000E+00  0.10566000000E+00 0.  1.
     999900   -1    0    0    0    0 -0.00000000000E+00 -0.00000000000E+00 -0.74505805969E-08  0.93827000000E+00  0.93827000000E+00 0.  1.
     999902    2    1    2    0    0  0.57653267961E-02  0.20388711605E-01 -0.87734273152E-02  0.10209972378E+01  0.10207396573E+01 0.  0.
     999903    2    3    3    0    0 -0.14070621781E-01  0.12139962625E+00 -0.51294399048E-01  0.13397711248E+00  0.19567821652E-01 0.  0.
         14    1    1    2    0    0 -0.57653267961E-02 -0.20388711605E-01  0.87734273152E-02  0.22932762172E-01  0.00000000000E+00 0.  1.
     999901    1    3    3    0    0  0.19835948577E-01 -0.10101091464E+00  0.42520971733E-01  0.88702012535E+00  0.88000000000E+00 0.  1.
        -11    1    4    4    0    0 -0.26688426118E-02  0.90849798131E-01 -0.41572512296E-01  0.99946703002E-01  0.51100000000E-03 0.  1.
         11    1    4    4    0    0 -0.11401779169E-01  0.30549828118E-01 -0.97218867522E-02  0.34030409479E-01  0.51100000000E-03 0. -1.
</event>
<event>
 8    1  0.1233916E+005  0.1043930E+01  0.7957747E-01            NaN
         13   -1    0    0    0    0  0.00000000000E+00  0.00000000000E+00  0.74505805969E-08  0.10566000000E+00  0.10566000000E+00 0.  1.
     999900   -1    0    0    0    0 -0.00000000000E+00 -0.00000000000E+00 -0.74505805969E-08  0.93827000000E+00  0.93827000000E+00 0.  1.
     999902    2    1    2    0    0 -0.82456726261E-02  0.22141184720E-01 -0.18610896206E-02  0.10202300668E+01  0.10199547551E+01 0.  0.
     999903    2    3    3    0    0  0.53031823939E-01  0.65828847983E-01  0.98142862874E-01  0.13137443512E+00  0.21941036714E-01 0.  0.
         14    1    1    2    0    0  0.82456726261E-02 -0.22141184720E-01  0.18610896206E-02  0.23699933174E-01  0.00000000000E+00 0. -1.
     999901    1    3    3    0    0 -0.61277496565E-01 -0.43687663263E-01 -0.10000395249E+00  0.88885563171E+00  0.88000000000E+00 0.  1.
        -11    1    4    4    0    0 -0.16986542957E-02  0.38088987289E-02  0.23639673311E-02  0.48210578181E-02  0.51100000000E-03 0.  1.
         11    1    4    4    0    0  0.54730478235E-01  0.62019949254E-01  0.95778895543E-01  0.12655337730E+00  0.51100000000E-03 0. -1.
</event>
<event>
 8    1  0.1233916E+005  0.1043930E+01  0.7957747E-01            NaN
         13   -1    0    0    0    0  0.00000000000E+00  0.00000000000E+00  0.74505805969E-08  0.10566000000E+00  0.10566000000E+00 0. -1.
     999900   -1    0    0    0    0 -0.00000000000E+00 -0.00000000000E+00 -0.74505805969E-08  0.93827000000E+00  0.93827000000E+00 0. -1.
     999902    2    1    2    0    0 -0.18361023335E-01 -0.56623541040E-02 -0.13552890063E-01  0.10204168067E+01  0.10201458666E+01 0.  0.
     999903    2    3    3    0    0  0.64422757470E-01  0.74252032668E-01  0.79517430414E-01  0.12805950819E+00  0.20311569691E-01 0.  0.
         14    1    1    2    0    0  0.18361023335E-01  0.56623541040E-02  0.13552890063E-01  0.23513193339E-01  0.00000000000E+00 0. -1.
     999901    1    3    3    0    0 -0.82783780805E-01 -0.79914386772E-01 -0.93070320477E-01  0.89235729847E+00  0.88000000000E+00 0.  1.
        -11    1    4    4    0    0  0.39353695655E-01  0.30353131146E-01  0.42591524623E-01  0.65454755540E-01  0.51100000000E-03 0.  1.
         11    1    4    4    0    0  0.25069061815E-01  0.43898901522E-01  0.36925905791E-01  0.62604752652E-01  0.51100000000E-03 0. -1.
</event>
<event>
 8    1  0.1233916E+005  0.1043930E+01  0.7957747E-01            NaN
         13   -1    0    0    0    0  0.00000000000E+00  0.00000000000E+00  0.74505805969E-08  0.10566000000E+00  0.10566000000E+00 0.  1.
     999900   -1    0    0    0    0 -0.00000000000E+00 -0.00000000000E+00 -0.74505805969E-08  0.93827000000E+00  0.93827000000E+00 0. -1.
     999902    2    1    2    0    0  0.17128899135E-01  0.32586460326E-02  0.16673489602E-01  0.10198048427E+01  0.10195194427E+01 0.  0.
     999903    2    3    3    0    0 -0.11491488636E+00  0.50028347242E-01 -0.10258501769E-01  0.12831827611E+00  0.25535788446E-01 0.  0.
         14    1    1    2    0    0 -0.17128899135E-01 -0.32586460326E-02 -0.16673489602E-01  0.24125157306E-01  0.00000000000E+00 0. -1.
     999901    1    3    3    0    0  0.13204378549E+00 -0.46769701210E-01  0.26931991371E-01  0.89148656658E+00  0.88000000000E+00 0. -1.
        -11    1    4    4    0    0 -0.89216665558E-01  0.49836433510E-01 -0.75572949115E-02  0.10247271513E+00  0.51100000000E-03 0.  1.
         11    1    4    4    0    0 -0.25698220798E-01  0.19191373247E-03 -0.27012068570E-02  0.25845560983E-01  0.51100000000E-03 0. -1.
</event>
<event>
 8    1  0.1233916E+005  0.1043930E+01  0.7957747E-01            NaN
         13   -1    0    0    0    0  0.00000000000E+00  0.00000000000E+00  0.74505805969E-08  0.10566000000E+00  0.10566000000E+00 0. -1.
     999900   -1    0    0    0    0 -0.00000000000E+00 -0.00000000000E+00 -0.74505805969E-08  0.93827000000E+00  0.93827000000E+00 0.  1.
     999902    2    1    2    0    0 -0.17886232537E-01 -0.14050166439E-01 -0.66300116798E-02  0.10202386187E+01  0.10199635080E+01 0.  0.
     999903    2    3    3    0    0 -0.12456690578E+00  0.10670086695E-01 -0.40172612520E-01  0.13281709374E+00  0.19894140496E-01 0.  0.
         14    1    1    2    0    0  0.17886232537E-01  0.14050166439E-01  0.66300116798E-02  0.23691381264E-01  0.00000000000E+00 0. -1.
     999901    1    3    3    0    0  0.10668067324E+00 -0.24720253134E-01  0.33542600840E-01  0.88742152500E+00  0.88000000000E+00 0. -1.
        -11    1    4    4    0    0 -0.52236734834E-01  0.37367832727E-02 -0.27164574227E-01  0.58998434126E-01  0.51100000000E-03 0.  1.
         11    1    4    4    0    0 -0.72330170948E-01  0.69333034218E-02 -0.13008038293E-01  0.73818659612E-01  0.51100000000E-03 0. -1.
</event>
<event>
 8    1  0.1233916E+005  0.1043930E+01  0.7957747E-01            NaN
         13   -1    0    0    0    0  0.00000000000E+00  0.00000000000E+00  0.74505805969E-08  0.10566000000E+00  0.10566000000E+00 0.  1.
     999900   -1    0    0    0    0 -0.00000000000E+00 -0.00000000000E+00 -0.74505805969E-08  0.93827000000E+00  0.93827000000E+00 0.  1.
     999902    2    1    2    0    0  0.32193053507E-02 -0.12714267727E-01 -0.20723961506E-01  0.10194045212E+01  0.10191094537E+01 0.  0.
     999903    2    3    3    0    0 -0.13704319322E-01  0.12200919927E+00  0.28537638083E-01  0.12762902991E+00  0.20017977274E-01 0.  0.
         14    1    1    2    0    0 -0.32193053507E-02  0.12714267727E-01  0.20723961506E-01  0.24525478818E-01  0.00000000000E+00 0. -1.
     999901    1    3    3    0    0  0.16923624673E-01 -0.13472346700E+00 -0.49261599589E-01  0.89177549127E+00  0.88000000000E+00 0. -1.
        -11    1    4    4    0    0 -0.17074849818E-01  0.81726807227E-01  0.24434305232E-01  0.86994930364E-01  0.51100000000E-03 0. -1.
         11    1    4    4    0    0  0.33705304960E-02  0.40282392046E-01  0.41033328504E-02  0.40634099550E-01  0.51100000000E-03 0.  1.
</event>
<event>
 8    1  0.1233916E+005  0.1043930E+01  0.7957747E-01            NaN
         13   -1    0    0    0    0  0.00000000000E+00  0.00000000000E+00  0.74505805969E-08  0.10566000000E+00  0.10566000000E+00 0.  1.
     999900   -1    0    0    0    0 -0.00000000000E+00 -0.00000000000E+00 -0.74505805969E-08  0.93827000000E+00  0.93827000000E+00 0. -1.
     999902    2    1    2    0    0 -0.53328391301E-02  0.67372789402E-02 -0.19155967183E-01  0.10229352107E+01  0.10227197388E+01 0.  0.
     999903    2    3    3    0    0 -0.12749524088E+00 -0.29423496304E-01 -0.19739603760E-01  0.13376054014E+00  0.19530784933E-01 0.  0.
         14    1    1    2    0    0  0.53328391301E-02 -0.67372789402E-02  0.19155967183E-01  0.20994789339E-01  0.00000000000E+00 0.  1.
     999901    1    3    3    0    0  0.12216240175E+00  0.36160775244E-01  0.58363657783E-03  0.88917467052E+00  0.88000000000E+00 0.  1.
        -11    1    4    4    0    0 -0.52199801931E-01 -0.42474627012E-02 -0.13697852109E-01  0.54136425209E-01  0.51100000000E-03 0.  1.
         11    1    4    4    0    0 -0.75295438947E-01 -0.25176033602E-01 -0.60417516515E-02  0.79624114929E-01  0.51100000000E-03 0. -1.
</event>
<event>
 8    1  0.1233916E+005  0.1043930E+01  0.7957747E-01            NaN
         13   -1    0    0    0    0  0.00000000000E+00  0.00000000000E+00  0.74505805969E-08  0.10566000000E+00  0.10566000000E+00 0.  1.
     999900   -1    0    0    0    0 -0.00000000000E+00 -0.00000000000E+00 -0.74505805969E-08  0.93827000000E+00  0.93827000000E+00 0.  1.
     999902    2    1    2    0    0  0.17315694884E-01  0.85145280140E-02 -0.14335362394E-01  0.10198918409E+01  0.10196085200E+01 0.  0.
     999903    2    3    3    0    0 -0.12147580410E+00  0.64439456077E-02  0.33912097184E-01  0.12770621850E+00  0.18998749775E-01 0.  0.
         14    1    1    2    0    0 -0.17315694884E-01 -0.85145280140E-02  0.14335362394E-01  0.24038159073E-01  0.00000000000E+00 0.  1.
     999901    1    3    3    0    0  0.13879149898E+00  0.20705824063E-02 -0.48247459578E-01  0.89218562242E+00  0.88000000000E+00 0.  1.
        -11    1    4    4    0    0 -0.34248627076E-01 -0.66654170379E-02  0.86289311515E-02  0.35946012500E-01  0.51100000000E-03 0.  1.
         11    1    4    4    0    0 -0.87227177023E-01  0.13109362646E-01  0.25283166033E-01  0.91760206005E-01  0.51100000000E-03 0. -1.
</event>
<event>
 8    1  0.1233916E+005  0.1043930E+01  0.7957747E-01            NaN
         13   -1    0    0    0    0  0.00000000000E+00  0.00000000000E+00  0.74505805969E-08  0.10566000000E+00  0.10566000000E+00 0. -1.
     999900   -1    0    0    0    0 -0.00000000000E+00 -0.00000000000E+00 -0.74505805969E-08  0.93827000000E+00  0.93827000000E+00 0.  1.
     999902    2    1    2    0    0 -0.11431278321E-01  0.15954169193E-01 -0.13545164227E-01  0.10200829643E+01  0.10198041836E+01 0.  0.
     999903    2    3    3    0    0  0.12259607231E+00  0.17382036106E-01 -0.33260177822E-01  0.12971559556E+00  0.19696806259E-01 0.  0.
         14    1    1    2    0    0  0.11431278321E-01 -0.15954169193E-01  0.13545164227E-01  0.23847035720E-01  0.00000000000E+00 0. -1.
     999901    1    3    3    0    0 -0.13402735063E+00 -0.14278669123E-02  0.19715013595E-01  0.89036736872E+00  0.88000000000E+00 0. -1.
        -11    1    4    4    0    0  0.78518042563E-01  0.12513709364E-01 -0.30899932748E-01  0.85303826965E-01  0.51100000000E-03 0. -1.
         11    1    4    4    0    0  0.44078029750E-01  0.48683267412E-02 -0.23602450741E-02  0.44411768594E-01  0.51100000000E-03 0.  1.
</event>
<event>
 8    1  0.1233916E+005  0.1043930E+01  0.7957747E-01            NaN
         13   -1    0    0    0    0  0.00000000000E+00  0.00000000000E+00  0.74505805969E-08  0.10566000000E+00  0.10566000000E+00 0. -1.
     999900   -1    0    0    0    0 -0.00000000000E+00 -0.00000000000E+00 -0.74505805969E-08  0.93827000000E+00  0.93827000000E+00 0.  1.
     999902    2    1    2    0    0 -0.17763404282E-01  0.74315594894E-03  0.15809351602E-01  0.10201386904E+01  0.10198612265E+01 0.  0.
     999903    2    3    3    0    0  0.71930672210E-01  0.10059091517E+00  0.33609261725E-01  0.12978402000E+00  0.20536688010E-01 0.  0.
         14    1    1    2    0    0  0.17763404282E-01 -0.74315594894E-03 -0.15809351602E-01  0.23791309558E-01  0.00000000000E+00 0.  1.
     999901    1    3    3    0    0 -0.89694076492E-01 -0.99847759219E-01 -0.17799910124E-01  0.89035467044E+00  0.88000000000E+00 0. -1.
        -11    1    4    4    0    0  0.29413973057E-01  0.46264913835E-01  0.48427894735E-02  0.55039420364E-01  0.51100000000E-03 0. -1.
         11    1    4    4    0    0  0.42516699154E-01  0.54326001332E-01  0.28766472252E-01  0.74744599635E-01  0.51100000000E-03 0.  1.
</event>
<event>
 8    1  0.1233916E+005  0.1043930E+01  0.7957747E-01            NaN
         13   -1    0    0    0    0  0.00000000000E+00  0.00000000000E+00  0.74505805969E-08  0.10566000000E+00  0.10566000000E+00 0.  1.
     999900   -1    0    0    0    0 -0.00000000000E+00 -0.00000000000E+00 -0.74505805969E-08  0.93827000000E+00  0.93827000000E+00 0.  1.
     999902    2    1    2    0    0 -0.15378103132E-01  0.16916662831E-01 -0.67046748156E-02  0.10201053866E+01  0.10198271362E+01 0.  0.
     999903    2    3    3    0    0 -0.41612108528E-01 -0.56418296642E-01 -0.10856948286E+00  0.13081202760E+00  0.20245053322E-01 0.  0.
         14    1    1    2    0    0  0.15378103132E-01 -0.16916662831E-01  0.67046748156E-02  0.23824613358E-01  0.00000000000E+00 0.  1.
     999901    1    3    3    0    0  0.26234005396E-01  0.73334959474E-01  0.10186480804E+00  0.88929335904E+00  0.88000000000E+00 0. -1.
        -11    1    4    4    0    0 -0.38460965693E-01 -0.39523982838E-01 -0.74989612351E-01  0.93086487650E-01  0.51100000000E-03 0. -1.
         11    1    4    4    0    0 -0.31511428347E-02 -0.16894313804E-01 -0.33579870508E-01  0.37725539948E-01  0.51100000000E-03 0.  1.
</event>
<event>
 8    1  0.1233916E+005  0.1043930E+01  0.7957747E-01            NaN
         13   -1    0    0    0    0  0.00000000000E+00  0.00000000000E+00  0.74505805969E-08  0.10566000000E+00  0.10566000000E+00 0. -1.
     999900   -1    0    0    0    0 -0.00000000000E+00 -0.00000000000E+00 -0.74505805969E-08  0.93827000000E+00  0.93827000000E+00 0. -1.
     999902    2    1    2    0    0  0.27296163912E-02 -0.80571110020E-02 -0.22913834440E-01  0.10194879941E+01  0.10191949561E+01 0.  0.
     999903    2    3    3    0    0 -0.93505087748E-01 -0.68469083776E-01 -0.57729651947E-01  0.13149989403E+00  0.22984615447E-01 0.  0.
         14    1    1    2    0    0 -0.27296163912E-02  0.80571110020E-02  0.22913834440E-01  0.24442005893E-01  0.00000000000E+00 0. -1.
     999901    1    3    3    0    0  0.96234704139E-01  0.60411972774E-01  0.34815817507E-01  0.88798810008E+00  0.88000000000E+00 0.  1.
        -11    1    4    4    0    0 -0.21583623104E-01 -0.48634781089E-02 -0.11331766774E-01  0.24863150742E-01  0.51100000000E-03 0.  1.
         11    1    4    4    0    0 -0.71921464644E-01 -0.63605605667E-01 -0.46397885173E-01  0.10663674328E+00  0.51100000000E-03 0. -1.
</event>
<event>
 8    1  0.1233916E+005  0.1043930E+01  0.7957747E-01            NaN
         13   -1    0    0    0    0  0.00000000000E+00  0.00000000000E+00  0.74505805969E-08  0.10566000000E+00  0.10566000000E+00 0. -1.
     999900   -1    0    0    0    0 -0.00000000000E+00 -0.00000000000E+00 -0.74505805969E-08  0.93827000000E+00  0.93827000000E+00 0. -1.
     999902    2    1    2    0    0  0.17093720252E-02 -0.23511459677E-01 -0.12542051214E-02  0.10203231425E+01  0.10200500142E+01 0.  0.
     999903    2    3    3    0    0 -0.59513010595E-01 -0.92980099904E-01 -0.70539989860E-01  0.13275647345E+00  0.21477748123E-01 0.  0.
         14    1    1    2    0    0 -0.17093720252E-02  0.23511459677E-01  0.12542051214E-02  0.23606857465E-01  0.00000000000E+00 0.  1.
     999901    1    3    3    0    0  0.61222382620E-01  0.69468640227E-01  0.69285784739E-01  0.88756666909E+00  0.88000000000E+00 0.  1.
        -11    1    4    4    0    0 -0.30360285570E-01 -0.28382918967E-01 -0.27510610509E-01  0.49844075280E-01  0.51100000000E-03 0. -1.
         11    1    4    4    0    0 -0.29152725024E-01 -0.64597180938E-01 -0.43029379351E-01  0.82912398167E-01  0.51100000000E-03 0.  1.
</event>
<event>
 8    1  0.1233916E+005  0.1043930E+01  0.7957747E-01            NaN
         13   -1    0    0    0    0  0.00000000000E+00  0.00000000000E+00  0.74505805969E-08  0.10566000000E+00  0.10566000000E+00 0.  1.
     999900   -1    0    0    0    0 -0.00000000000E+00 -0.00000000000E+00 -0.74505805969E-08  0.93827000000E+00  0.93827000000E+00 0. -1.
     999902    2    1    2    0    0 -0.14282809758E-02 -0.58212719495E-03 -0.23358003426E-01  0.10205211303E+01  0.10202526168E+01 0.  0.
     999903    2    3    3    0    0 -0.72886778147E-01  0.97471999677E-01 -0.47311787820E-01  0.13187344281E+00  0.18409956613E-01 0.  0.
         14    1    1    2    0    0  0.14282809758E-02  0.58212719495E-03  0.23358003426E-01  0.23408869743E-01  0.00000000000E+00 0.  1.
     999901    1    3    3    0    0  0.71458497171E-01 -0.98054126872E-01  0.23953784394E-01  0.88864768745E+00  0.88000000000E+00 0.  1.
        -11    1    4    4    0    0 -0.30762035011E-01  0.52336638477E-01 -0.16726366930E-01  0.62971890529E-01  0.51100000000E-03 0. -1.
         11    1    4    4    0    0 -0.42124743136E-01  0.45135361200E-01 -0.30585420890E-01  0.68901552283E-01  0.51100000000E-03 0.  1.
</event>
<event>
 8    1  0.1233916E+005  0.1043930E+01  0.7957747E-01            NaN
         13   -1    0    0    0    0  0.00000000000E+00  0.00000000000E+00  0.74505805969E-08  0.10566000000E+00  0.10566000000E+00 0.  1.
     999900   -1    0    0    0    0 -0.00000000000E+00 -0.00000000000E+00 -0.74505805969E-08  0.93827000000E+00  0.93827000000E+00 0.  1.
     999902    2    1    2    0    0  0.20967578701E-01  0.84005836428E-02 -0.87789879386E-02  0.10196961437E+01  0.10194081350E+01 0.  0.
     999903    2    3    3    0    0 -0.10093128256E+00  0.38969956556E-01  0.64801829088E-01  0.12772755929E+00  0.20230448231E-01 0.  0.
         14    1    1    2    0    0 -0.20967578701E-01 -0.84005836428E-02  0.87789879386E-02  0.24233856304E-01  0.00000000000E+00 0. -1.
     999901    1    3    3    0    0  0.12189886126E+00 -0.30569372913E-01 -0.73580817027E-01  0.89196858441E+00  0.88000000000E+00 0.  1.
        -11    1    4    4    0    0 -0.34148246362E-01  0.11877692668E-01  0.11017267079E-01  0.37799783169E-01  0.51100000000E-03 0.  1.
         11    1    4    4    0    0 -0.66783036196E-01  0.27092263888E-01  0.53784562010E-01  0.89927776119E-01  0.51100000000E-03 0. -1.
</event>
<event>
 8    1  0.1233916E+005  0.1043930E+01  0.7957747E-01            NaN
         13   -1    0    0    0    0  0.00000000000E+00  0.00000000000E+00  0.74505805969E-08  0.10566000000E+00  0.10566000000E+00 0.  1.
     999900   -1    0    0    0    0 -0.00000000000E+00 -0.00000000000E+00 -0.74505805969E-08  0.93827000000E+00  0.93827000000E+00 0.  1.
     999902    2    1    2    0    0  0.14185783739E-01 -0.19504682154E-01 -0.26248646426E-02  0.10196697650E+01  0.10193811214E+01 0.  0.
     999903    2    3    3    0    0  0.19749565305E-02  0.70164765739E-01  0.10577138443E+00  0.12841252888E+00  0.19370002694E-01 0.  0.
         14    1    1    2    0    0 -0.14185783739E-01  0.19504682154E-01  0.26248646426E-02  0.24260234966E-01  0.00000000000E+00 0. -1.
     999901    1    3    3    0    0  0.12210827209E-01 -0.89669447893E-01 -0.10839624907E+00  0.89125723616E+00  0.88000000000E+00 0.  1.
        -11    1    4    4    0    0 -0.63535017613E-02  0.24509951381E-01  0.48343052287E-01  0.54574870836E-01  0.51100000000E-03 0.  1.
         11    1    4    4    0    0  0.83284582918E-02  0.45654814358E-01  0.57428332142E-01  0.73837658043E-01  0.51100000000E-03 0. -1.
</event>
<event>
 8    1  0.1233916E+005  0.1043930E+01  0.7957747E-01            NaN
         13   -1    0    0    0    0  0.00000000000E+00  0.00000000000E+00  0.74505805969E-08  0.10566000000E+00  0.10566000000E+00 0. -1.
     999900   -1    0    0    0    0 -0.00000000000E+00 -0.00000000000E+00 -0.74505805969E-08  0.93827000000E+00  0.93827000000E+00 0.  1.
     999902    2    1    2    0    0 -0.92012911259E-02  0.20057595433E-01 -0.65798411475E-02  0.10209025120E+01  0.10206427749E+01 0.  0.
     999903    2    3    3    0    0 -0.10541537227E+00 -0.65095258263E-01  0.36433981423E-01  0.13053273107E+00  0.19014876259E-01 0.  0.
         14    1    1    2    0    0  0.92012911259E-02 -0.20057595433E-01  0.65798411475E-02  0.23027487976E-01  0.00000000000E+00 0.  1.
     999901    1    3    3    0    0  0.96214081145E-01  0.85152853697E-01 -0.43013822570E-01  0.89036978095E+00  0.88000000000E+00 0. -1.
        -11    1    4    4    0    0 -0.69284175997E-01 -0.45855922543E-01  0.15377093431E-01  0.84497211784E-01  0.51100000000E-03 0. -1.
         11    1    4    4    0    0 -0.36131196273E-01 -0.19239335720E-01  0.21056887992E-01  0.46035519287E-01  0.51100000000E-03 0.  1.
</event>
<event>
 8    1  0.1233916E+005  0.1043930E+01  0.7957747E-01            NaN
         13   -1    0    0    0    0  0.00000000000E+00  0.00000000000E+00  0.74505805969E-08  0.10566000000E+00  0.10566000000E+00 0.  1.
     999900   -1    0    0    0    0 -0.00000000000E+00 -0.00000000000E+00 -0.74505805969E-08  0.93827000000E+00  0.93827000000E+00 0.  1.
     999902    2    1    2    0    0 -0.82347328125E-02 -0.21744667354E-01  0.36625258660E-02  0.10203916169E+01  0.10201200892E+01 0.  0.
     999903    2    3    3    0    0  0.10941610641E+00  0.21564347899E-01  0.62820032306E-01  0.12953977662E+00  0.19932180658E-01 0.  0.
         14    1    1    2    0    0  0.82347328125E-02  0.21744667354E-01 -0.36625258660E-02  0.23538383091E-01  0.00000000000E+00 0. -1.
     999901    1    3    3    0    0 -0.11765083922E+00 -0.43309015253E-01 -0.59157506440E-01  0.89085184029E+00  0.88000000000E+00 0.  1.
        -11    1    4    4    0    0  0.36583223375E-01  0.19265157229E-02  0.29656769586E-01  0.47136279007E-01  0.51100000000E-03 0. -1.
         11    1    4    4    0    0  0.72832883037E-01  0.19637832176E-01  0.33163262720E-01  0.82403497616E-01  0.51100000000E-03 0.  1.
</event>
<event>
 8    1  0.1233916E+005  0.1043930E+01  0.7957747E-01            NaN
         13   -1    0    0    0    0  0.00000000000E+00  0.00000000000E+00  0.74505805969E-08  0.10566000000E+00  0.10566000000E+00 0.  1.
     999900   -1    0    0    0    0 -0.00000000000E+00 -0.00000000000E+00 -0.74505805969E-08  0.93827000000E+00  0.93827000000E+00 0.  1.
     999902    2    1    2    0    0 -0.16195042667E-01 -0.20269668230E-02 -0.16885119159E-01  0.10204460640E+01  0.10201758056E+01 0.  0.
     999903    2    3    3    0    0 -0.26103815595E-01 -0.58707539011E-01 -0.11493635449E+00  0.13313275078E+00  0.19646359017E-01 0.  0.
         14    1    1    2    0    0  0.16195042667E-01  0.20269668230E-02  0.16885119159E-01  0.23483936009E-01  0.00000000000E+00 0.  1.
     999901    1    3    3    0    0  0.99087729282E-02  0.56680572188E-01  0.98051235331E-01  0.88731331321E+00  0.88000000000E+00 0. -1.
        -11    1    4    4    0    0 -0.84017377587E-02 -0.33412831980E-02 -0.15624862508E-01  0.18059646180E-01  0.51100000000E-03 0. -1.
         11    1    4    4    0    0 -0.17702077836E-01 -0.55366255813E-01 -0.99311491982E-01  0.11507310460E+00  0.51100000000E-03 0.  1.
</event>
<event>
 8    1  0.1233916E+005  0.1043930E+01  0.7957747E-01            NaN
         13   -1    0    0    0    0  0.00000000000E+00  0.00000000000E+00  0.74505805969E-08  0.10566000000E+00  0.10566000000E+00 0. -1.
     999900   -1    0    0    0    0 -0.00000000000E+00 -0.00000000000E+00 -0.74505805969E-08  0.93827000000E+00  0.93827000000E+00 0.  1.
     999902    2    1    2    0    0 -0.20243355938E-01 -0.31435669406E-03 -0.12630024188E-01  0.10200676910E+01  0.10197885489E+01 0.  0.
     999903    2    3    3    0    0 -0.19418828413E-01 -0.12559405023E+00 -0.25243991918E-01  0.13110492820E+00  0.20007166733E-01 0.  0.
         14    1    1    2    0    0  0.20243355938E-01  0.31435669406E-03  0.12630024188E-01  0.23862308999E-01  0.00000000000E+00 0. -1.
     999901    1    3    3    0    0 -0.82452752471E-03  0.12527969354E+00  0.12613967730E-01  0.88896276280E+00  0.88000000000E+00 0.  1.
        -11    1    4    4    0    0 -0.16638237985E-02 -0.69553346826E-01 -0.18048046286E-01  0.71877878795E-01  0.51100000000E-03 0. -1.
         11    1    4    4    0    0 -0.17755004615E-01 -0.56040703406E-01 -0.71959456323E-02  0.59227049409E-01  0.51100000000E-03 0.  1.
</event>
<event>
 8    1  0.1233916E+005  0.1043930E+01  0.7957747E-01            NaN
         13   -1    0    0    0    0  0.00000000000E+00  0.00000000000E+00  0.74505805969E-08  0.10566000000E+00  0.10566000000E+00 0.  1.
     999900   -1    0    0    0    0 -0.00000000000E+00 -0.00000000000E+00 -0.74505805969E-08  0.93827000000E+00  0.93827000000E+00 0.  1.
     999902    2    1    2    0    0  0.69096511153E-02  0.22544700247E-02 -0.24790044799E-01  0.10180964514E+01  0.10177686437E+01 0.  0.
     999903    2    3    3    0    0  0.90342953787E-01  0.61050928471E-01 -0.69971613127E-01  0.13104543049E+00  0.19692969398E-01 0.  0.
         14    1    1    2    0    0 -0.69096511153E-02 -0.22544700247E-02  0.24790044799E-01  0.25833548629E-01  0.00000000000E+00 0.  1.
     999901    1    3    3    0    0 -0.83433302672E-01 -0.58796458447E-01  0.45181568327E-01  0.88705102088E+00  0.88000000000E+00 0. -1.
        -11    1    4    4    0    0  0.40076043359E-01  0.31570502667E-01 -0.21986892419E-01  0.55556011819E-01  0.51100000000E-03 0. -1.
         11    1    4    4    0    0  0.50266910428E-01  0.29480425804E-01 -0.47984720707E-01  0.75489418675E-01  0.51100000000E-03 0.  1.
</event>
<event>
 8    1  0.1233916E+005  0.1043930E+01  0.7957747E-01            NaN
         13   -1    0    0    0    0  0.00000000000E+00  0.00000000000E+00  0.74505805969E-08  0.10566000000E+00  0.10566000000E+00 0.  1.
     999900   -1    0    0    0    0 -0.00000000000E+00 -0.00000000000E+00 -0.74505805969E-08  0.93827000000E+00  0.93827000000E+00 0.  1.
     999902    2    1    2    0    0  0.90539628564E-02 -0.29295925356E-02 -0.18450255190E-01  0.10231702150E+01  0.10229595888E+01 0.  0.
     999903    2    3    3    0    0  0.97898511094E-01 -0.87322412459E-01 -0.23024573199E-01  0.13466786489E+00  0.19899263062E-01 0.  0.
         14    1    1    2    0    0 -0.90539628564E-02  0.29295925356E-02  0.18450255190E-01  0.20759784980E-01  0.00000000000E+00 0.  1.
     999901    1    3    3    0    0 -0.88844548237E-01  0.84392819923E-01  0.45743180084E-02  0.88850235013E+00  0.88000000000E+00 0.  1.
        -11    1    4    4    0    0  0.92255219742E-01 -0.87261636900E-01 -0.22621247774E-01  0.12898682420E+00  0.51100000000E-03 0.  1.
         11    1    4    4    0    0  0.56432913515E-02 -0.60775558563E-04 -0.40332542412E-03  0.56810406920E-02  0.51100000000E-03 0. -1.
</event>
<event>
 8    1  0.1233916E+005  0.1043930E+01  0.7957747E-01            NaN
         13   -1    0    0    0    0  0.00000000000E+00  0.00000000000E+00  0.74505805969E-08  0.10566000000E+00  0.10566000000E+00 0. -1.
     999900   -1    0    0    0    0 -0.00000000000E+00 -0.00000000000E+00 -0.74505805969E-08  0.93827000000E+00  0.93827000000E+00 0. -1.
     999902    2    1    2    0    0 -0.18754967397E-01 -0.50727283182E-02 -0.82862627916E-02  0.10228078901E+01  0.10225897694E+01 0.  0.
     999903    2    3    3    0    0  0.12716555530E+00 -0.93063857917E-02  0.18266912747E-01  0.13038658046E+00  0.20230990883E-01 0.  0.
         14    1    1    2    0    0  0.18754967397E-01  0.50727283182E-02  0.82862627916E-02  0.21122109878E-01  0.00000000000E+00 0. -1.
     999901    1    3    3    0    0 -0.14592052270E+00  0.42336574735E-02 -0.26553175538E-01  0.89242130966E+00  0.88000000000E+00 0. -1.
        -11    1    4    4    0    0  0.16319106697E-01  0.37033761155E-02 -0.22994670665E-02  0.16899020914E-01  0.51100000000E-03 0.  1.
         11    1    4    4    0    0  0.11084644860E+00 -0.13009761907E-01  0.20566379813E-01  0.11348755955E+00  0.51100000000E-03 0. -1.
</event>
<event>
 8    1  0.1233916E+005  0.1043930E+01  0.7957747E-01            NaN
         13   -1    0    0    0    0  0.00000000000E+00  0.00000000000E+00  0.74505805969E-08  0.10566000000E+00  0.10566000000E+00 0.  1.
     999900   -1    0    0    0    0 -0.00000000000E+00 -0.00000000000E+00 -0.74505805969E-08  0.93827000000E+00  0.93827000000E+00 0. -1.
     999902    2    1    2    0    0 -0.63740942673E-02 -0.37201825579E-02  0.19401175265E-01  0.10231724848E+01  0.10229619051E+01 0.  0.
     999903    2    3    3    0    0  0.54088038521E-01  0.75401656587E-01 -0.90031988399E-01  0.13082078717E+00  0.19934735879E-01 0.  0.
         14    1    1    2    0    0  0.63740942673E-02  0.37201825579E-02 -0.19401175265E-01  0.20757515209E-01  0.00000000000E+00 0. -1.
     999901    1    3    3    0    0 -0.60462132788E-01 -0.79121839145E-01  0.10943316366E+00  0.89235169762E+00  0.88000000000E+00 0.  1.
        -11    1    4    4    0    0  0.81241898498E-02  0.57348372389E-02 -0.33968522610E-02  0.10520957426E-01  0.51100000000E-03 0.  1.
         11    1    4    4    0    0  0.45963848671E-01  0.69666819349E-01 -0.86635136138E-01  0.12029982975E+00  0.51100000000E-03 0. -1.
</event>
<event>
 8    1  0.1233916E+005  0.1043930E+01  0.7957747E-01            NaN
         13   -1    0    0    0    0  0.00000000000E+00  0.00000000000E+00  0.74505805969E-08  0.10566000000E+00  0.10566000000E+00 0.  1.
     999900   -1    0    0    0    0 -0.00000000000E+00 -0.00000000000E+00 -0.74505805969E-08  0.93827000000E+00  0.93827000000E+00 0.  1.
     999902    2    1    2    0    0  0.10966768702E-01  0.17355175345E-01 -0.85691607042E-02  0.10216835926E+01  0.10214413643E+01 0.  0.
     999903    2    3    3    0    0  0.11609323621E+00  0.59547825580E-01  0.22870658028E-01  0.13386589954E+00  0.19324312080E-01 0.  0.
         14    1    1    2    0    0 -0.10966768702E-01 -0.17355175345E-01  0.85691607042E-02  0.22246407400E-01  0.00000000000E+00 0.  1.
     999901    1    3    3    0    0 -0.10512646751E+00 -0.42192650236E-01 -0.31439818732E-01  0.88781769306E+00  0.88000000000E+00 0.  1.
        -11    1    4    4    0    0  0.78617557831E-01  0.41983754362E-01  0.65280264402E-02  0.89365722063E-01  0.51100000000E-03 0. -1.
         11    1    4    4    0    0  0.37475678376E-01  0.17564071219E-01  0.16342631588E-01  0.44500177480E-01  0.51100000000E-03 0.  1.
</event>
<event>
 8    1  0.1233916E+005  0.1043930E+01  0.7957747E-01            NaN
         13   -1    0    0    0    0  0.00000000000E+00  0.00000000000E+00  0.74505805969E-08  0.10566000000E+00  0.10566000000E+00 0.  1.
     999900   -1    0    0    0    0 -0.00000000000E+00 -0.00000000000E+00 -0.74505805969E-08  0.93827000000E+00  0.93827000000E+00 0. -1.
     999902    2    1    2    0    0  0.67732464557E-02  0.20454200209E-01  0.10346148245E-01  0.10200282436E+01  0.10197481669E+01 0.  0.
     999903    2    3    3    0    0 -0.37040661465E-01  0.35928591876E-01 -0.11700374752E+00  0.12964792530E+00  0.21350252581E-01 0.  0.
         14    1    1    2    0    0 -0.67732464557E-02 -0.20454200209E-01 -0.10346148245E-01  0.23901756363E-01  0.00000000000E+00 0. -1.
     999901    1    3    3    0    0  0.43813907920E-01 -0.15474391667E-01  0.12734989577E+00  0.89038031833E+00  0.88000000000E+00 0.  1.
        -11    1    4    4    0    0 -0.29034639802E-01  0.15556699568E-01 -0.81881543314E-01  0.88260237176E-01  0.51100000000E-03 0. -1.
         11    1    4    4    0    0 -0.80060216623E-02  0.20371892308E-01 -0.35122204208E-01  0.41387688127E-01  0.51100000000E-03 0.  1.
</event>
<event>
 8    1  0.1233916E+005  0.1043930E+01  0.7957747E-01            NaN
         13   -1    0    0    0    0  0.00000000000E+00  0.00000000000E+00  0.74505805969E-08  0.10566000000E+00  0.10566000000E+00 0. -1.
     999900   -1    0    0    0    0 -0.00000000000E+00 -0.00000000000E+00 -0.74505805969E-08  0.93827000000E+00  0.93827000000E+00 0. -1.
     999902    2    1    2    0    0 -0.17349375930E-01  0.37229159105E-02 -0.16810563707E-01  0.10194870869E+01  0.10191940269E+01 0.  0.
     999903    2    3    3    0    0  0.63503153218E-01  0.74182666817E-01 -0.83858555203E-01  0.13044426391E+00  0.21159635676E-01 0.  0.
         14    1    1    2    0    0  0.17349375930E-01 -0.37229159105E-02  0.16810563707E-01  0.24442913087E-01  0.00000000000E+00 0. -1.
     999901    1    3    3    0    0 -0.80852529148E-01 -0.70459750906E-01  0.67047991495E-01  0.88904282300E+00  0.88000000000E+00 0.  1.
        -11    1    4    4    0    0  0.33346877051E-01  0.33374534441E-01 -0.53411901284E-01  0.71266865218E-01  0.51100000000E-03 0.  1.
         11    1    4    4    0    0  0.30156276166E-01  0.40808132376E-01 -0.30446653919E-01  0.59177398693E-01  0.51100000000E-03 0. -1.
</event>
<event>
 8    1  0.1233916E+005  0.1043930E+01  0.7957747E-01            NaN
         13   -1    0    0    0    0  0.00000000000E+00  0.00000000000E+00  0.74505805969E-08  0.10566000000E+00  0.10566000000E+00 0.  1.
     999900   -1    0    0    0    0 -0.00000000000E+00 -0.00000000000E+00 -0.74505805969E-08  0.93827000000E+00  0.93827000000E+00 0. -1.
     999902    2    1    2    0    0 -0.14196955798E-02  0.65129617511E-02  0.22550220086E-01  0.10204151827E+01  0.10201442047E+01 0.  0.
     999903    2    3    3    0    0 -0.77667624437E-01 -0.95229953094E-01 -0.38461802671E-01  0.12918690988E+00  0.10437603473E-01 0.  0.
         14    1    1    2    0    0  0.14196955798E-02 -0.65129617511E-02 -0.22550220086E-01  0.23514817292E-01  0.00000000000E+00 0. -1.
     999901    1    3    3    0    0  0.76247928857E-01  0.10174291485E+00  0.61012022758E-01  0.89122827283E+00  0.88000000000E+00 0.  1.
        -11    1    4    4    0    0 -0.62345585864E-01 -0.71194926228E-01 -0.32509689850E-01  0.10006413270E+00  0.51100000000E-03 0.  1.
         11    1    4    4    0    0 -0.15322038573E-01 -0.24035026866E-01 -0.59521128217E-02  0.29122777178E-01  0.51100000000E-03 0. -1.
</event>
<event>
 8    1  0.1233916E+005  0.1043930E+01  0.7957747E-01            NaN
         13   -1    0    0    0    0  0.00000000000E+00  0.00000000000E+00  0.74505805969E-08  0.10566000000E+00  0.10566000000E+00 0.  1.
     999900   -1    0    0    0    0 -0.00000000000E+00 -0.00000000000E+00 -0.74505805969E-08  0.93827000000E+00  0.93827000000E+00 0. -1.
     999902    2    1    2    0    0 -0.83583030285E-02 -0.13897774131E-01 -0.12726608068E-01  0.10233150562E+01  0.10231073885E+01 0.  0.
     999903    2    3    3    0    0 -0.85217533625E-01  0.89635183889E-01 -0.45634120130E-01  0.13330982077E+00  0.19812651676E-01 0.  0.
         14    1    1    2    0    0  0.83583030285E-02  0.13897774131E-01  0.12726608068E-01  0.20614943808E-01  0.00000000000E+00 0.  1.
     999901    1    3    3    0    0  0.76859230596E-01 -0.10353295802E+00  0.32907512062E-01  0.89000523542E+00  0.88000000000E+00 0.  1.
        -11    1    4    4    0    0 -0.37687824260E-01  0.34051118528E-01 -0.28303841154E-01  0.58148252902E-01  0.51100000000E-03 0.  1.
         11    1    4    4    0    0 -0.47529709365E-01  0.55584065361E-01 -0.17330278976E-01  0.75161567871E-01  0.51100000000E-03 0. -1.
</event>
<event>
 8    1  0.1233916E+005  0.1043930E+01  0.7957747E-01            NaN
         13   -1    0    0    0    0  0.00000000000E+00  0.00000000000E+00  0.74505805969E-08  0.10566000000E+00  0.10566000000E+00 0.  1.
     999900   -1    0    0    0    0 -0.00000000000E+00 -0.00000000000E+00 -0.74505805969E-08  0.93827000000E+00  0.93827000000E+00 0.  1.
     999902    2    1    2    0    0 -0.61239933085E-02 -0.21517756728E-01  0.83241842394E-02  0.10200593236E+01  0.10197799834E+01 0.  0.
     999903    2    3    3    0    0  0.39289792041E-03 -0.56809736391E-01 -0.11592275639E+00  0.13060707870E+00  0.19814717732E-01 0.  0.
         14    1    1    2    0    0  0.61239933085E-02  0.21517756728E-01 -0.83241842394E-02  0.23870676402E-01  0.00000000000E+00 0. -1.
     999901    1    3    3    0    0 -0.65168912289E-02  0.35291979663E-01  0.12424694063E+00  0.88945224490E+00  0.88000000000E+00 0. -1.
        -11    1    4    4    0    0  0.89331976354E-02 -0.18321441872E-01 -0.46400748111E-01  0.50683012919E-01  0.51100000000E-03 0.  1.
         11    1    4    4    0    0 -0.85402997150E-02 -0.38488294519E-01 -0.69522008281E-01  0.79924065779E-01  0.51100000000E-03 0. -1.
</event>
<event>
 8    1  0.1233916E+005  0.1043930E+01  0.7957747E-01            NaN
         13   -1    0    0    0    0  0.00000000000E+00  0.00000000000E+00  0.74505805969E-08  0.10566000000E+00  0.10566000000E+00 0. -1.
     999900   -1    0    0    0    0 -0.00000000000E+00 -0.00000000000E+00 -0.74505805969E-08  0.93827000000E+00  0.93827000000E+00 0. -1.
     999902    2    1    2    0    0 -0.94232687612E-02  0.17586077546E-01  0.12582431250E-01  0.10203421706E+01  0.10200694876E+01 0.  0.
     999903    2    3    3    0    0  0.22400148334E-01  0.37765487361E-01  0.12351050689E+00  0.13257813870E+00  0.19852427224E-01 0.  0.
         14    1    1    2    0    0  0.94232687612E-02 -0.17586077546E-01 -0.12582431250E-01  0.23587829356E-01  0.00000000000E+00 0.  1.
     999901    1    3    3    0    0 -0.31823417095E-01 -0.20179409816E-01 -0.11092807564E+00  0.88776403195E+00  0.88000000000E+00 0. -1.
        -11    1    4    4    0    0  0.16766495908E-01  0.16822182804E-01  0.42241057896E-01  0.48463071637E-01  0.51100000000E-03 0. -1.
         11    1    4    4    0    0  0.56336524259E-02  0.20943304558E-01  0.81269448994E-01  0.84115067058E-01  0.51100000000E-03 0.  1.
</event>
<event>
 8    1  0.1233916E+005  0.1043930E+01  0.7957747E-01            NaN
         13   -1    0    0    0    0  0.00000000000E+00  0.00000000000E+00  0.74505805969E-08  0.10566000000E+00  0.10566000000E+00 0. -1.
     999900   -1    0    0    0    0 -0.00000000000E+00 -0.00000000000E+00 -0.74505805969E-08  0.93827000000E+00  0.93827000000E+00 0.  1.
     999902    2    1    2    0    0  0.17240970720E-01 -0.46015333622E-02  0.14968949852E-01  0.10206384857E+01  0.10203726887E+01 0.  0.
     999903    2    3    3    0    0  0.70366088549E-02  0.11399118280E+00  0.61949446740E-01  0.13138288213E+00  0.19499337036E-01 0.  0.
         14    1    1    2    0    0 -0.17240970720E-01  0.46015333622E-02 -0.14968949852E-01  0.23291514342E-01  0.00000000000E+00 0.  1.
     999901    1    3    3    0    0  0.10204361865E-01 -0.11859271616E+00 -0.46980496888E-01  0.88925560353E+00  0.88000000000E+00 0.  1.
        -11    1    4    4    0    0  0.52265285312E-02  0.11304448987E-01  0.11490851170E-01  0.16953110305E-01  0.51100000000E-03 0. -1.
         11    1    4    4    0    0  0.18100803237E-02  0.10268673381E+00  0.50458595569E-01  0.11442977182E+00  0.51100000000E-03 0.  1.
</event>
<event>
 8    1  0.1233916E+005  0.1043930E+01  0.7957747E-01            NaN
         13   -1    0    0    0    0  0.00000000000E+00  0.00000000000E+00  0.74505805969E-08  0.10566000000E+00  0.10566000000E+00 0. -1.
     999900   -1    0    0    0    0 -0.00000000000E+00 -0.00000000000E+00 -0.74505805969E-08  0.93827000000E+00  0.93827000000E+00 0.  1.
     999902    2    1    2    0    0  0.20063572035E-01  0.12423843598E-01 -0.27709071403E-02  0.10201691764E+01  0.10198924314E+01 0.  0.
     999903    2    3    3    0    0 -0.10470078745E+00 -0.65741144408E-01  0.24618543858E-01  0.12751801676E+00  0.19251465800E-01 0.  0.
         14    1    1    2    0    0 -0.20063572035E-01 -0.12423843598E-01  0.27709071403E-02  0.23760823617E-01  0.00000000000E+00 0.  1.
     999901    1    3    3    0    0  0.12476435949E+00  0.78164988006E-01 -0.27389450998E-01  0.89265115962E+00  0.88000000000E+00 0.  1.
        -11    1    4    4    0    0 -0.47629141160E-01 -0.37858925744E-01  0.19033835734E-01  0.63752500891E-01  0.51100000000E-03 0.  1.
         11    1    4    4    0    0 -0.57071646294E-01 -0.27882218664E-01  0.55847081241E-02  0.63765515870E-01  0.51100000000E-03 0. -1.
</event>
<event>
 7    1  0.1233916E+005  0.1043930E+01  0.7957747E-01            NaN
         13   -1    0    0    0    0  0.00000000000E+00  0.00000000000E+00  0.74505805969E-08  0.10566000000E+00  0.10566000000E+00 0.  1.
     999900   -1    0    0    0    0 -0.00000000000E+00 -0.00000000000E+00 -0.74505805969E-08  0.93827000000E+00  0.93827000000E+00 0.  1.
     999903    2    1    2    0    0  0.92385090975E-02 -0.42226303701E-01  0.10470974185E+00  0.11499736403E+00  0.19795275198E-01 0.  0.
         14    1    1    2    0    0  0.31385564559E-01 -0.11145172986E-01 -0.27166652785E-01  0.42980176444E-01  0.00000000000E+00 0. -1.
     999901    1    1    2    0    0 -0.40624073656E-01  0.53371476688E-01 -0.77543089065E-01  0.88595245953E+00  0.88000000000E+00 0.  1.
        -11    1    3    3    0    0  0.30668755590E-02 -0.33388902471E-01  0.57443964474E-01  0.66515371978E-01  0.51100000000E-03 0. -1.
         11    1    3    3    0    0  0.61716335385E-02 -0.88374012306E-02  0.47265777376E-01  0.48481992048E-01  0.51100000000E-03 0.  1.
</event>
<event>
 8    1  0.1233916E+005  0.1043930E+01  0.7957747E-01            NaN
         13   -1    0    0    0    0  0.00000000000E+00  0.00000000000E+00  0.74505805969E-08  0.10566000000E+00  0.10566000000E+00 0. -1.
     999900   -1    0    0    0    0 -0.00000000000E+00 -0.00000000000E+00 -0.74505805969E-08  0.93827000000E+00  0.93827000000E+00 0. -1.
     999902    2    1    2    0    0  0.25243045435E-01  0.53623188284E-02  0.71255200162E-02  0.10171580213E+01  0.10168056361E+01 0.  0.
     999903    2    3    3    0    0 -0.20746218932E-01 -0.83255123533E-02  0.12448935433E+00  0.12807048978E+00  0.20117933687E-01 0.  0.
         14    1    1    2    0    0 -0.25243045435E-01 -0.53623188284E-02 -0.71255200162E-02  0.26771978664E-01  0.00000000000E+00 0. -1.
     999901    1    3    3    0    0  0.45989264367E-01  0.13687831182E-01 -0.11736383431E+00  0.88908753155E+00  0.88000000000E+00 0. -1.
        -11    1    4    4    0    0 -0.15053657043E-01 -0.91712648222E-02  0.11828577604E+00  0.11959310441E+00  0.51100000000E-03 0. -1.
         11    1    4    4    0    0 -0.56925618891E-02  0.84575246893E-03  0.62035782881E-02  0.84773853679E-02  0.51100000000E-03 0.  1.
</event>
<event>
 8    1  0.1233916E+005  0.1043930E+01  0.7957747E-01            NaN
         13   -1    0    0    0    0  0.00000000000E+00  0.00000000000E+00  0.74505805969E-08  0.10566000000E+00  0.10566000000E+00 0.  1.
     999900   -1    0    0    0    0 -0.00000000000E+00 -0.00000000000E+00 -0.74505805969E-08  0.93827000000E+00  0.93827000000E+00 0.  1.
     999902    2    1    2    0    0  0.20553943371E-01  0.10495551360E-01 -0.81303779424E-02  0.10194611579E+01  0.10191674682E+01 0.  0.
     999903    2    3    3    0    0  0.15732672919E-01  0.11426986746E+00 -0.60566860355E-01  0.13180022153E+00  0.19945781943E-01 0.  0.
         14    1    1    2    0    0 -0.20553943371E-01 -0.10495551360E-01  0.81303779424E-02  0.24468842063E-01  0.00000000000E+00 0.  1.
     999901    1    3    3    0    0  0.48212704518E-02 -0.10377431610E+00  0.52436482413E-01  0.88766093640E+00  0.88000000000E+00 0. -1.
        -11    1    4    4    0    0  0.15549574295E-01  0.10916181053E+00 -0.61956061465E-01  0.12647887101E+00  0.51100000000E-03 0.  1.
         11    1    4    4    0    0  0.18309862358E-03  0.51080569208E-02  0.13892011093E-02  0.53213505179E-02  0.51100000000E-03 0. -1.
</event>
<event>
 8    1  0.1233916E+005  0.1043930E+01  0.7957747E-01            NaN
         13   -1    0    0    0    0  0.00000000000E+00  0.00000000000E+00  0.74505805969E-08  0.10566000000E+00  0.10566000000E+00 0.  1.
     999900   -1    0    0    0    0 -0.00000000000E+00 -0.00000000000E+00 -0.74505805969E-08  0.93827000000E+00  0.93827000000E+00 0.  1.
     999902    2    1    2    0    0 -0.16180633102E-01  0.56490454355E-02 -0.14914864056E-01  0.10212104540E+01  0.10209576943E+01 0.  0.
     999903    2    3    3    0    0  0.92465115725E-01  0.18359908510E-01 -0.89104597802E-01  0.13133991206E+00  0.20582985271E-01 0.  0.
         14    1    1    2    0    0  0.16180633102E-01 -0.56490454355E-02  0.14914864056E-01  0.22719546028E-01  0.00000000000E+00 0.  1.
     999901    1    3    3    0    0 -0.10864574883E+00 -0.12710863074E-01  0.74189733746E-01  0.88987054192E+00  0.88000000000E+00 0. -1.
        -11    1    4    4    0    0  0.16503182118E-01  0.10354182350E-01 -0.24442450773E-01  0.31261136143E-01  0.51100000000E-03 0.  1.
         11    1    4    4    0    0  0.75961933608E-01  0.80057261595E-02 -0.64662147029E-01  0.10007877591E+00  0.51100000000E-03 0. -1.
</event>
<event>
 8    1  0.1233916E+005  0.1043930E+01  0.7957747E-01            NaN
         13   -1    0    0    0    0  0.00000000000E+00  0.00000000000E+00  0.74505805969E-08  0.10566000000E+00  0.10566000000E+00 0. -1.
     999900   -1    0    0    0    0 -0.00000000000E+00 -0.00000000000E+00 -0.74505805969E-08  0.93827000000E+00  0.93827000000E+00 0.  1.
     999902    2    1    2    0    0 -0.22326208483E-01  0.56995271662E-02  0.55679070332E-02  0.10202246043E+01  0.10199491642E+01 0.  0.
     999903    2    3    3    0    0  0.69183573086E-01  0.10749132947E+00  0.10021880262E-01  0.12963185283E+00  0.19058501738E-01 0.  0.
         14    1    1    2    0    0  0.22326208483E-01 -0.56995271662E-02 -0.55679070332E-02  0.23705395670E-01  0.00000000000E+00 0.  1.
     999901    1    3    3    0    0 -0.91509781569E-01 -0.10179180231E+00 -0.44539732286E-02  0.89059275150E+00  0.88000000000E+00 0. -1.
        -11    1    4    4    0    0  0.19585034316E-01  0.47287383229E-01  0.21467159286E-02  0.51230261487E-01  0.51100000000E-03 0.  1.
         11    1    4    4    0    0  0.49598538770E-01  0.60203946244E-01  0.78751643333E-02  0.78401591347E-01  0.51100000000E-03 0. -1.
</event>
<event>
 8    1  0.1233916E+005  0.1043930E+01  0.7957747E-01            NaN
         13   -1    0    0    0    0  0.00000000000E+00  0.00000000000E+00  0.74505805969E-08  0.10566000000E+00  0.10566000000E+00 0. -1.
     999900   -1    0    0    0    0 -0.00000000000E+00 -0.00000000000E+00 -0.74505805969E-08  0.93827000000E+00  0.93827000000E+00 0.  1.
     999902    2    1    2    0    0  0.14062463578E-01  0.41764556705E-02  0.12972899614E-01  0.10243470536E+01  0.10241598481E+01 0.  0.
     999903    2    3    3    0    0  0.68188141255E-01 -0.11316109445E+00  0.16815890449E-01  0.13490202541E+00  0.21464537823E-01 0.  0.
         14    1    1    2    0    0 -0.14062463578E-01 -0.41764556705E-02 -0.12972899614E-01  0.19582946363E-01  0.00000000000E+00 0.  1.
     999901    1    3    3    0    0 -0.54125677678E-01  0.11733755012E+00 -0.38429908344E-02  0.88944502822E+00  0.88000000000E+00 0.  1.
        -11    1    4    4    0    0  0.24241244585E-01 -0.51389430294E-01 -0.17551736318E-02  0.56849390854E-01  0.51100000000E-03 0.  1.
         11    1    4    4    0    0  0.43946896670E-01 -0.61771664158E-01  0.18571064081E-01  0.78052634560E-01  0.51100000000E-03 0. -1.
</event>
<event>
 7    1  0.1233916E+005  0.1043930E+01  0.7957747E-01            NaN
         13   -1    0    0    0    0  0.00000000000E+00  0.00000000000E+00  0.74505805969E-08  0.10566000000E+00  0.10566000000E+00 0.  1.
     999900   -1    0    0    0    0 -0.00000000000E+00 -0.00000000000E+00 -0.74505805969E-08  0.93827000000E+00  0.93827000000E+00 0.  1.
     999903    2    1    2    0    0 -0.18724672852E-03  0.82374817166E-02 -0.99306883822E-01  0.10164400216E+00  0.20043822830E-01 0.  0.
         14    1    1    2    0    0  0.75961993346E-02  0.86427533800E-02 -0.48432083845E-01  0.49780178544E-01  0.00000000000E+00 0. -1.
     999901    1    1    2    0    0 -0.74089526061E-02 -0.16880235097E-01  0.14773896767E+00  0.89250581930E+00  0.88000000000E+00 0. -1.
        -11    1    3    3    0    0  0.19766426946E-02  0.14487062357E-01 -0.58510994388E-01  0.60312350952E-01  0.51100000000E-03 0.  1.
         11    1    3    3    0    0 -0.21638894231E-02 -0.62495806401E-02 -0.40795889433E-01  0.41331651204E-01  0.51100000000E-03 0. -1.
</event>
<event>
 8    1  0.1233916E+005  0.1043930E+01  0.7957747E-01            NaN
         13   -1    0    0    0    0  0.00000000000E+00  0.00000000000E+00  0.74505805969E-08  0.10566000000E+00  0.10566000000E+00 0. -1.
     999900   -1    0    0    0    0 -0.00000000000E+00 -0.00000000000E+00 -0.74505805969E-08  0.93827000000E+00  0.93827000000E+00 0. -1.
     999902    2    1    2    0    0 -0.12902806319E-01 -0.18766325147E-01  0.47695852478E-03  0.10211509557E+01  0.10208968554E+01 0.  0.
     999903    2    3    3    0    0 -0.17885634747E-01 -0.96332870188E-02  0.12870155306E+00  0.13179737718E+00  0.19843455345E-01 0.  0.
         14    1    1    2    0    0  0.12902806319E-01  0.18766325147E-01 -0.47695852478E-03  0.22779044314E-01  0.00000000000E+00 0. -1.
     999901    1    3    3    0    0  0.49828284285E-02 -0.91330381283E-02 -0.12822459454E+00  0.88935357851E+00  0.88000000000E+00 0. -1.
        -11    1    4    4    0    0  0.27975251400E-02 -0.95091264564E-03  0.46259366076E-01  0.46356449956E-01  0.51100000000E-03 0.  1.
         11    1    4    4    0    0 -0.20683159887E-01 -0.86823743732E-02  0.82442186989E-01  0.85440927220E-01  0.51100000000E-03 0. -1.
</event>
<event>
 8    1  0.1233916E+005  0.1043930E+01  0.7957747E-01            NaN
         13   -1    0    0    0    0  0.00000000000E+00  0.00000000000E+00  0.74505805969E-08  0.10566000000E+00  0.10566000000E+00 0. -1.
     999900   -1    0    0    0    0 -0.00000000000E+00 -0.00000000000E+00 -0.74505805969E-08  0.93827000000E+00  0.93827000000E+00 0.  1.
     999902    2    1    2    0    0 -0.91458324379E-02  0.94950228127E-02 -0.19165552704E-01  0.10206680113E+01  0.10204028955E+01 0.  0.
     999903    2    3    3    0    0 -0.72189093593E-01  0.10190248729E+00 -0.41156222534E-01  0.13331397717E+00  0.21986352763E-01 0.  0.
         14    1    1    2    0    0  0.91458324379E-02 -0.94950228127E-02  0.19165552704E-01  0.23261988730E-01  0.00000000000E+00 0. -1.
     999901    1    3    3    0    0  0.63043261155E-01 -0.92407464474E-01  0.21990669830E-01  0.88735403410E+00  0.88000000000E+00 0.  1.
        -11    1    4    4    0    0 -0.29463231728E-01  0.52749527940E-01 -0.29155228936E-01  0.67088622114E-01  0.51100000000E-03 0.  1.
         11    1    4    4    0    0 -0.42725861864E-01  0.49152959346E-01 -0.12000993598E-01  0.66225355061E-01  0.51100000000E-03 0. -1.
</event>
<event>
 8    1  0.1233916E+005  0.1043930E+01  0.7957747E-01            NaN
         13   -1    0    0    0    0  0.00000000000E+00  0.00000000000E+00  0.74505805969E-08  0.10566000000E+00  0.10566000000E+00 0.  1.
     999900   -1    0    0    0    0 -0.00000000000E+00 -0.00000000000E+00 -0.74505805969E-08  0.93827000000E+00  0.93827000000E+00 0.  1.
     999902    2    1    2    0    0  0.23024972100E-01 -0.76631717849E-02  0.47241651343E-02  0.10192077170E+01  0.10189078364E+01 0.  0.
     999903    2    3    3    0    0  0.24630940425E-01 -0.11160136248E+00  0.62312434071E-01  0.13122002824E+00  0.16562277547E-01 0.  0.
         14    1    1    2    0    0 -0.23024972100E-01  0.76631717849E-02 -0.47241651343E-02  0.24722283031E-01  0.00000000000E+00 0.  1.
     999901    1    3    3    0    0 -0.16059683247E-02  0.10393819069E+00 -0.57588268936E-01  0.88798768873E+00  0.88000000000E+00 0.  1.
        -11    1    4    4    0    0  0.62500810917E-02 -0.54491261240E-01  0.22923431243E-01  0.59448346370E-01  0.51100000000E-03 0. -1.
         11    1    4    4    0    0  0.18380859333E-01 -0.57110101239E-01  0.39389002828E-01  0.71771681868E-01  0.51100000000E-03 0.  1.
</event>
<event>
 8    1  0.1233916E+005  0.1043930E+01  0.7957747E-01            NaN
         13   -1    0    0    0    0  0.00000000000E+00  0.00000000000E+00  0.74505805969E-08  0.10566000000E+00  0.10566000000E+00 0. -1.
     999900   -1    0    0    0    0 -0.00000000000E+00 -0.00000000000E+00 -0.74505805969E-08  0.93827000000E+00  0.93827000000E+00 0. -1.
     999902    2    1    2    0    0  0.36588987595E-02 -0.15509421179E-01  0.16395851344E-01  0.10210661940E+01  0.10208101777E+01 0.  0.
     999903    2    3    3    0    0 -0.62644529433E-01  0.97279604442E-01  0.57966171979E-01  0.13042283074E+00  0.16198122594E-01 0.  0.
         14    1    1    2    0    0 -0.36588987595E-02  0.15509421179E-01 -0.16395851344E-01  0.22863806042E-01  0.00000000000E+00 0.  1.
     999901    1    3    3    0    0  0.66303428192E-01 -0.11278902562E+00 -0.41570320634E-01  0.89064336322E+00  0.88000000000E+00 0. -1.
        -11    1    4    4    0    0 -0.46254782709E-01  0.75461824187E-01  0.36679788535E-01  0.95810541388E-01  0.51100000000E-03 0. -1.
         11    1    4    4    0    0 -0.16389746724E-01  0.21817780254E-01  0.21286383443E-01  0.34612289350E-01  0.51100000000E-03 0.  1.
</event>
<event>
 8    1  0.1233916E+005  0.1043930E+01  0.7957747E-01            NaN
         13   -1    0    0    0    0  0.00000000000E+00  0.00000000000E+00  0.74505805969E-08  0.10566000000E+00  0.10566000000E+00 0.  1.
     999900   -1    0    0    0    0 -0.00000000000E+00 -0.00000000000E+00 -0.74505805969E-08  0.93827000000E+00  0.93827000000E+00 0. -1.
     999902    2    1    2    0    0 -0.22591711914E-01 -0.57348511111E-02 -0.31596515842E-02  0.10204085765E+01  0.10201374445E+01 0.  0.
     999903    2    3    3    0    0 -0.84755299067E-01 -0.63734960435E-01  0.77100411276E-01  0.13267550744E+00  0.20315288660E-01 0.  0.
         14    1    1    2    0    0  0.22591711914E-01  0.57348511111E-02  0.31596515842E-02  0.23521423482E-01  0.00000000000E+00 0.  1.
     999901    1    3    3    0    0  0.62163587153E-01  0.58000109324E-01 -0.80260062860E-01  0.88773306908E+00  0.88000000000E+00 0. -1.
        -11    1    4    4    0    0 -0.73191336389E-01 -0.45753985709E-01  0.57916142830E-01  0.10394681165E+00  0.51100000000E-03 0. -1.
         11    1    4    4    0    0 -0.11563962678E-01 -0.17980974726E-01  0.19184268446E-01  0.28728695789E-01  0.51100000000E-03 0.  1.
</event>
<event>
 8    1  0.1233916E+005  0.1043930E+01  0.7957747E-01            NaN
         13   -1    0    0    0    0  0.00000000000E+00  0.00000000000E+00  0.74505805969E-08  0.10566000000E+00  0.10566000000E+00 0. -1.
     999900   -1    0    0    0    0 -0.00000000000E+00 -0.00000000000E+00 -0.74505805969E-08  0.93827000000E+00  0.93827000000E+00 0.  1.
     999902    2    1    2    0    0  0.45385380161E-02 -0.72634307300E-03  0.21547911094E-01  0.10218973339E+01  0.10216597881E+01 0.  0.
     999903    2    3    3    0    0  0.56810387577E-01  0.86538445840E-01 -0.77245047512E-01  0.13054581051E+00  0.18949631414E-01 0.  0.
         14    1    1    2    0    0 -0.45385380161E-02  0.72634307300E-03 -0.21547911094E-01  0.22032666069E-01  0.00000000000E+00 0.  1.
     999901    1    3    3    0    0 -0.52271849560E-01 -0.87264788913E-01  0.98792958606E-01  0.89135152342E+00  0.88000000000E+00 0. -1.
        -11    1    4    4    0    0  0.13156407044E-01  0.25324700108E-01 -0.31626827197E-01  0.42602215922E-01  0.51100000000E-03 0.  1.
         11    1    4    4    0    0  0.43653980533E-01  0.61213745732E-01 -0.45618220315E-01  0.87943594585E-01  0.51100000000E-03 0. -1.
</event>
<event>
 8    1  0.1233916E+005  0.1043930E+01  0.7957747E-01            NaN
         13   -1    0    0    0    0  0.00000000000E+00  0.00000000000E+00  0.74505805969E-08  0.10566000000E+00  0.10566000000E+00 0.  1.
     999900   -1    0    0    0    0 -0.00000000000E+00 -0.00000000000E+00 -0.74505805969E-08  0.93827000000E+00  0.93827000000E+00 0. -1.
     999902    2    1    2    0    0  0.14216255446E-01 -0.15652104956E-01  0.14770309563E-02  0.10227339643E+01  0.10225142981E+01 0.  0.
     999903    2    3    3    0    0  0.17277396472E-01  0.26951389875E-01  0.12731524372E+00  0.13275661395E+00  0.19755035303E-01 0.  0.
         14    1    1    2    0    0 -0.14216255446E-01  0.15652104956E-01 -0.14770309563E-02  0.21196035688E-01  0.00000000000E+00 0. -1.
     999901    1    3    3    0    0 -0.30611410258E-02 -0.42603494831E-01 -0.12583821277E+00  0.88997735036E+00  0.88000000000E+00 0. -1.
        -11    1    4    4    0    0  0.73189729862E-02 -0.97664929080E-03  0.35781032400E-01  0.36538535959E-01  0.51100000000E-03 0.  1.
         11    1    4    4    0    0  0.99584234856E-02  0.27928039166E-01  0.91534211322E-01  0.96218077996E-01  0.51100000000E-03 0. -1.
</event>
<event>
 8    1  0.1233916E+005  0.1043930E+01  0.7957747E-01            NaN
         13   -1    0    0    0    0  0.00000000000E+00  0.00000000000E+00  0.74505805969E-08  0.10566000000E+00  0.10566000000E+00 0.  1.
     999900   -1    0    0    0    0 -0.00000000000E+00 -0.00000000000E+00 -0.74505805969E-08  0.93827000000E+00  0.93827000000E+00 0. -1.
     999902    2    1    2    0    0  0.18802817288E-01  0.10002932130E-01  0.12182334051E-01  0.10193940294E+01  0.10190987064E+01 0.  0.
     999903    2    3    3    0    0 -0.64620942448E-02  0.15550233721E-01 -0.12547511808E+00  0.12831678112E+00  0.20919431874E-01 0.  0.
         14    1    1    2    0    0 -0.18802817288E-01 -0.10002932130E-01 -0.12182334051E-01  0.24535970576E-01  0.00000000000E+00 0. -1.
     999901    1    3    3    0    0  0.25264911533E-01 -0.55473015908E-02  0.13765745213E+00  0.89107724830E+00  0.88000000000E+00 0.  1.
        -11    1    4    4    0    0  0.30069018871E-02 -0.61149680821E-03 -0.63371609931E-01  0.63447911342E-01  0.51100000000E-03 0. -1.
         11    1    4    4    0    0 -0.94689961319E-02  0.16161730529E-01 -0.62103508149E-01  0.64868869783E-01  0.51100000000E-03 0.  1.
</event>
<event>
 8    1  0.1233916E+005  0.1043930E+01  0.7957747E-01            NaN
         13   -1    0    0    0    0  0.00000000000E+00  0.00000000000E+00  0.74505805969E-08  0.10566000000E+00  0.10566000000E+00 0. -1.
     999900   -1    0    0    0    0 -0.00000000000E+00 -0.00000000000E+00 -0.74505805969E-08  0.93827000000E+00  0.93827000000E+00 0.  1.
     999902    2    1    2    0    0 -0.20522857509E-01  0.10216396077E-01 -0.31536859299E-02  0.10207889507E+01  0.10205266158E+01 0.  0.
     999903    2    3    3    0    0  0.68122856084E-01  0.53490265564E-01  0.94542151176E-01  0.12990446495E+00  0.20857124264E-01 0.  0.
         14    1    1    2    0    0  0.20522857509E-01 -0.10216396077E-01  0.31536859299E-02  0.23141049329E-01  0.00000000000E+00 0. -1.
     999901    1    3    3    0    0 -0.88645713592E-01 -0.43273869487E-01 -0.97695837106E-01  0.89088448573E+00  0.88000000000E+00 0.  1.
        -11    1    4    4    0    0  0.38259402429E-01  0.34009330051E-01  0.69550222152E-01  0.86359197120E-01  0.51100000000E-03 0.  1.
         11    1    4    4    0    0  0.29863453655E-01  0.19480935513E-01  0.24991929024E-01  0.43545267825E-01  0.51100000000E-03 0. -1.
</event>
<event>
 8    1  0.1233916E+005  0.1043930E+01  0.7957747E-01            NaN
         13   -1    0    0    0    0  0.00000000000E+00  0.00000000000E+00  0.74505805969E-08  0.10566000000E+00  0.10566000000E+00 0. -1.
     999900   -1    0    0    0    0 -0.00000000000E+00 -0.00000000000E+00 -0.74505805969E-08  0.93827000000E+00  0.93827000000E+00 0.  1.
     999902    2    1    2    0    0 -0.49133532480E-02  0.34545564215E-02 -0.23380757851E-01  0.10197900986E+01  0.10195043455E+01 0.  0.
     999903    2    3    3    0    0 -0.11817207709E+00 -0.41117332683E-01  0.28729318558E-01  0.12988580497E+00  0.19740155408E-01 0.  0.
         14    1    1    2    0    0  0.49133532480E-02 -0.34545564215E-02  0.23380757851E-01  0.24139901365E-01  0.00000000000E+00 0. -1.
     999901    1    3    3    0    0  0.11325872385E+00  0.44571889105E-01 -0.52110076409E-01  0.88990429367E+00  0.88000000000E+00 0.  1.
        -11    1    4    4    0    0 -0.47376161633E-01 -0.88907717925E-02  0.45155750711E-02  0.48416919082E-01  0.51100000000E-03 0.  1.
         11    1    4    4    0    0 -0.70795915461E-01 -0.32226560891E-01  0.24213743487E-01  0.81468885885E-01  0.51100000000E-03 0. -1.
</event>
<event>
 8    1  0.1233916E+005  0.1043930E+01  0.7957747E-01            NaN
         13   -1    0    0    0    0  0.00000000000E+00  0.00000000000E+00  0.74505805969E-08  0.10566000000E+00  0.10566000000E+00 0. -1.
     999900   -1    0    0    0    0 -0.00000000000E+00 -0.00000000000E+00 -0.74505805969E-08  0.93827000000E+00  0.93827000000E+00 0.  1.
     999902    2    1    2    0    0  0.48907833026E-02  0.23121948803E-02  0.23637994971E-01  0.10196808595E+01  0.10193924831E+01 0.  0.
     999903    2    3    3    0    0 -0.66224061879E-01  0.11014199218E+00  0.31285336957E-02  0.13001506590E+00  0.19422791370E-01 0.  0.
         14    1    1    2    0    0 -0.48907833026E-02 -0.23121948803E-02 -0.23637994971E-01  0.24249140454E-01  0.00000000000E+00 0.  1.
     999901    1    3    3    0    0  0.71114845182E-01 -0.10782979730E+00  0.20509461276E-01  0.88966579365E+00  0.88000000000E+00 0. -1.
        -11    1    4    4    0    0 -0.33187967703E-01  0.38838519776E-01  0.55592711429E-02  0.51391034581E-01  0.51100000000E-03 0. -1.
         11    1    4    4    0    0 -0.33036094176E-01  0.71303472400E-01 -0.24307374473E-02  0.78624031315E-01  0.51100000000E-03 0.  1.
</event>
<event>
 8    1  0.1233916E+005  0.1043930E+01  0.7957747E-01            NaN
         13   -1    0    0    0    0  0.00000000000E+00  0.00000000000E+00  0.74505805969E-08  0.10566000000E+00  0.10566000000E+00 0. -1.
     999900   -1    0    0    0    0 -0.00000000000E+00 -0.00000000000E+00 -0.74505805969E-08  0.93827000000E+00  0.93827000000E+00 0.  1.
     999902    2    1    2    0    0  0.22627351202E-01  0.42585722957E-02 -0.46227297867E-02  0.10204459183E+01  0.10201756565E+01 0.  0.
     999903    2    3    3    0    0  0.36208267687E-01 -0.92605174837E-01  0.82351639113E-01  0.13076531968E+00  0.20761004564E-01 0.  0.
         14    1    1    2    0    0 -0.22627351202E-01 -0.42585722957E-02  0.46227297867E-02  0.23484081653E-01  0.00000000000E+00 0.  1.
     999901    1    3    3    0    0 -0.13580916485E-01  0.96863747133E-01 -0.86974368900E-01  0.88968059867E+00  0.88000000000E+00 0.  1.
        -11    1    4    4    0    0  0.26940612831E-01 -0.44305936093E-01  0.48966742890E-01  0.71321915447E-01  0.51100000000E-03 0.  1.
         11    1    4    4    0    0  0.92676548558E-02 -0.48299238744E-01  0.33384896223E-01  0.59443404232E-01  0.51100000000E-03 0. -1.
</event>
<event>
 8    1  0.1233916E+005  0.1043930E+01  0.7957747E-01            NaN
         13   -1    0    0    0    0  0.00000000000E+00  0.00000000000E+00  0.74505805969E-08  0.10566000000E+00  0.10566000000E+00 0.  1.
     999900   -1    0    0    0    0 -0.00000000000E+00 -0.00000000000E+00 -0.74505805969E-08  0.93827000000E+00  0.93827000000E+00 0. -1.
     999902    2    1    2    0    0  0.19112778915E-02  0.15811056602E-01 -0.17269108260E-01  0.10204382016E+01  0.10201677600E+01 0.  0.
     999903    2    3    3    0    0 -0.27110227080E-01  0.91586485172E-01 -0.91290690723E-01  0.13361050803E+00  0.19867787142E-01 0.  0.
         14    1    1    2    0    0 -0.19112778915E-02 -0.15811056602E-01  0.17269108260E-01  0.23491798445E-01  0.00000000000E+00 0.  1.
     999901    1    3    3    0    0  0.29021504972E-01 -0.75775428569E-01  0.74021582463E-01  0.88682769352E+00  0.88000000000E+00 0.  1.
        -11    1    4    4    0    0  0.15367375779E-02  0.90466307333E-02 -0.37410396913E-02  0.99226805340E-02  0.51100000000E-03 0. -1.
         11    1    4    4    0    0 -0.28646964658E-01  0.82539854438E-01 -0.87549651032E-01  0.12368782750E+00  0.51100000000E-03 0.  1.
</event>
<event>
 8    1  0.1233916E+005  0.1043930E+01  0.7957747E-01            NaN
         13   -1    0    0    0    0  0.00000000000E+00  0.00000000000E+00  0.74505805969E-08  0.10566000000E+00  0.10566000000E+00 0. -1.
     999900   -1    0    0    0    0 -0.00000000000E+00 -0.00000000000E+00 -0.74505805969E-08  0.93827000000E+00  0.93827000000E+00 0. -1.
     999902    2    1    2    0    0  0.16100658448E-01  0.16690405577E-01  0.41751240094E-02  0.10203666280E+01  0.10200945167E+01 0.  0.
     999903    2    3    3    0    0 -0.98647454147E-01  0.82283130325E-01  0.13596902917E-01  0.13044623558E+00  0.18152434045E-01 0.  0.
         14    1    1    2    0    0 -0.16100658448E-01 -0.16690405577E-01 -0.41751240094E-02  0.23563372027E-01  0.00000000000E+00 0.  1.
     999901    1    3    3    0    0  0.11474811259E+00 -0.65592724748E-01 -0.94217789076E-02  0.88992039240E+00  0.88000000000E+00 0.  1.
        -11    1    4    4    0    0 -0.23892131334E-01  0.12316791922E-01  0.73172761099E-02  0.27862895643E-01  0.51100000000E-03 0.  1.
         11    1    4    4    0    0 -0.74755322812E-01  0.69966338403E-01  0.62796268071E-02  0.10258333993E+00  0.51100000000E-03 0. -1.
</event>
<event>
 7    1  0.1233916E+005  0.1043930E+01  0.7957747E-01            NaN
         13   -1    0    0    0    0  0.00000000000E+00  0.00000000000E+00  0.74505805969E-08  0.10566000000E+00  0.10566000000E+00 0. -1.
     999900   -1    0    0    0    0 -0.00000000000E+00 -0.00000000000E+00 -0.74505805969E-08  0.93827000000E+00  0.93827000000E+00 0. -1.
     999903    2    1    2    0    0 -0.67013391257E-01 -0.55364274572E-01 -0.60702771216E-01  0.10841272657E+00  0.22638359973E-01 0.  0.
         14    1    1    2    0    0  0.43729691172E-01  0.14994945001E-01  0.27221509304E-01  0.53648344190E-01  0.00000000000E+00 0.  1.
     999901    1    1    2    0    0  0.23283700086E-01  0.40369329572E-01  0.33481261912E-01  0.88186892924E+00  0.88000000000E+00 0. -1.
        -11    1    3    3    0    0 -0.33278529346E-01 -0.32901385968E-01 -0.19760364303E-01  0.50800539687E-01  0.51100000000E-03 0. -1.
         11    1    3    3    0    0 -0.33734861911E-01 -0.22462888604E-01 -0.40942406913E-01  0.57612186883E-01  0.51100000000E-03 0.  1.
</event>
<event>
 8    1  0.1233916E+005  0.1043930E+01  0.7957747E-01            NaN
         13   -1    0    0    0    0  0.00000000000E+00  0.00000000000E+00  0.74505805969E-08  0.10566000000E+00  0.10566000000E+00 0. -1.
     999900   -1    0    0    0    0 -0.00000000000E+00 -0.00000000000E+00 -0.74505805969E-08  0.93827000000E+00  0.93827000000E+00 0.  1.
     999902    2    1    2    0    0  0.54224610987E-02  0.92978017321E-02  0.19235139257E-01  0.10218881583E+01  0.10216504125E+01 0.  0.
     999903    2    3    3    0    0 -0.72452556699E-01 -0.75151620192E-01  0.78784417720E-01  0.13242633239E+00  0.20799279916E-01 0.  0.
         14    1    1    2    0    0 -0.54224610987E-02 -0.92978017321E-02 -0.19235139257E-01  0.22041841658E-01  0.00000000000E+00 0. -1.
     999901    1    3    3    0    0  0.77875017798E-01  0.84449421924E-01 -0.59549278463E-01  0.88946182595E+00  0.88000000000E+00 0.  1.
        -11    1    4    4    0    0 -0.38545619859E-01 -0.49713172985E-01  0.56393383213E-01  0.84484549887E-01  0.51100000000E-03 0. -1.
         11    1    4    4    0    0 -0.33906936841E-01 -0.25438447208E-01  0.22391034508E-01  0.47941782503E-01  0.51100000000E-03 0.  1.
</event>
<event>
 8    1  0.1233916E+005  0.1043930E+01  0.7957747E-01            NaN
         13   -1    0    0    0    0  0.00000000000E+00  0.00000000000E+00  0.74505805969E-08  0.10566000000E+00  0.10566000000E+00 0.  1.
     999900   -1    0    0    0    0 -0.00000000000E+00 -0.00000000000E+00 -0.74505805969E-08  0.93827000000E+00  0.93827000000E+00 0. -1.
     999902    2    1    2    0    0  0.32757660493E-02 -0.14204322634E-01  0.19456750835E-01  0.10196183037E+01  0.10193284194E+01 0.  0.
     999903    2    3    3    0    0 -0.13375418068E-01  0.11199447186E+00 -0.55479210392E-01  0.12730737360E+00  0.20188141380E-01 0.  0.
         14    1    1    2    0    0 -0.32757660493E-02  0.14204322634E-01 -0.19456750835E-01  0.24311696316E-01  0.00000000000E+00 0. -1.
     999901    1    3    3    0    0  0.16651184117E-01 -0.12619879449E+00  0.74935961228E-01  0.89231093008E+00  0.88000000000E+00 0.  1.
        -11    1    4    4    0    0 -0.37068097898E-02  0.54630477527E-01 -0.16168861358E-01  0.57095732872E-01  0.51100000000E-03 0. -1.
         11    1    4    4    0    0 -0.96686082781E-02  0.57363994329E-01 -0.39310349035E-01  0.70211640728E-01  0.51100000000E-03 0.  1.
</event>
<event>
 8    1  0.1233916E+005  0.1043930E+01  0.7957747E-01            NaN
         13   -1    0    0    0    0  0.00000000000E+00  0.00000000000E+00  0.74505805969E-08  0.10566000000E+00  0.10566000000E+00 0. -1.
     999900   -1    0    0    0    0 -0.00000000000E+00 -0.00000000000E+00 -0.74505805969E-08  0.93827000000E+00  0.93827000000E+00 0.  1.
     999902    2    1    2    0    0 -0.93201636969E-02  0.21140207414E-01  0.43496094715E-02  0.10204205780E+01  0.10201497258E+01 0.  0.
     999903    2    3    3    0    0 -0.71625145503E-02  0.94953659630E-01 -0.89735286501E-01  0.13232990197E+00  0.19780854890E-01 0.  0.
         14    1    1    2    0    0  0.93201636969E-02 -0.21140207414E-01 -0.43496094715E-02  0.23509422013E-01  0.00000000000E+00 0. -1.
     999901    1    3    3    0    0 -0.21576491466E-02 -0.73813452216E-01  0.94084895972E-01  0.88809067602E+00  0.88000000000E+00 0. -1.
        -11    1    4    4    0    0  0.24412204544E-02  0.14163058440E-01 -0.60160871802E-02  0.15588656377E-01  0.51100000000E-03 0.  1.
         11    1    4    4    0    0 -0.96037350048E-02  0.80790601189E-01 -0.83719199321E-01  0.11674124559E+00  0.51100000000E-03 0. -1.
</event>
<event>
 8    1  0.1233916E+005  0.1043930E+01  0.7957747E-01            NaN
         13   -1    0    0    0    0  0.00000000000E+00  0.00000000000E+00  0.74505805969E-08  0.10566000000E+00  0.10566000000E+00 0. -1.
     999900   -1    0    0    0    0 -0.00000000000E+00 -0.00000000000E+00 -0.74505805969E-08  0.93827000000E+00  0.93827000000E+00 0. -1.
     999902    2    1    2    0    0 -0.65106484506E-03  0.12938461074E-01  0.17525288316E-01  0.10221363452E+01  0.10219039802E+01 0.  0.
     999903    2    3    3    0    0 -0.44346177977E-02  0.19105887477E-01 -0.12714030571E+00  0.13029527944E+00  0.20676115111E-01 0.  0.
         14    1    1    2    0    0  0.65106484506E-03 -0.12938461074E-01 -0.17525288316E-01  0.21793654832E-01  0.00000000000E+00 0.  1.
     999901    1    3    3    0    0  0.37835529526E-02 -0.61674264023E-02  0.14466559403E+00  0.89184106573E+00  0.88000000000E+00 0.  1.
        -11    1    4    4    0    0 -0.15063885255E-02  0.17455493666E-01 -0.48305873959E-01  0.51387567032E-01  0.51100000000E-03 0. -1.
         11    1    4    4    0    0 -0.29282292722E-02  0.16503938107E-02 -0.78834431755E-01  0.78907712408E-01  0.51100000000E-03 0.  1.
</event>
<event>
 8    1  0.1233916E+005  0.1043930E+01  0.7957747E-01            NaN
         13   -1    0    0    0    0  0.00000000000E+00  0.00000000000E+00  0.74505805969E-08  0.10566000000E+00  0.10566000000E+00 0. -1.
     999900   -1    0    0    0    0 -0.00000000000E+00 -0.00000000000E+00 -0.74505805969E-08  0.93827000000E+00  0.93827000000E+00 0.  1.
     999902    2    1    2    0    0  0.73040956967E-02  0.19000433356E-02  0.22875878004E-01  0.10198412937E+01  0.10195567657E+01 0.  0.
     999903    2    3    3    0    0  0.51145130491E-01  0.66009703624E-01  0.10135798547E+00  0.13294134098E+00  0.20660435096E-01 0.  0.
         14    1    1    2    0    0 -0.73040956967E-02 -0.19000433356E-02 -0.22875878004E-01  0.24088706339E-01  0.00000000000E+00 0.  1.
     999901    1    3    3    0    0 -0.43841034795E-01 -0.64109660288E-01 -0.78482107462E-01  0.88689995268E+00  0.88000000000E+00 0.  1.
        -11    1    4    4    0    0  0.24089802964E-01  0.23890770841E-01  0.27302884527E-01  0.43552223396E-01  0.51100000000E-03 0. -1.
         11    1    4    4    0    0  0.27055327527E-01  0.42118932783E-01  0.74055100939E-01  0.89389117584E-01  0.51100000000E-03 0.  1.
</event>
<event>
 8    1  0.1233916E+005  0.1043930E+01  0.7957747E-01            NaN
         13   -1    0    0    0    0  0.00000000000E+00  0.00000000000E+00  0.74505805969E-08  0.10566000000E+00  0.10566000000E+00 0.  1.
     999900   -1    0    0    0    0 -0.00000000000E+00 -0.00000000000E+00 -0.74505805969E-08  0.93827000000E+00  0.93827000000E+00 0.  1.
     999902    2    1    2    0    0  0.10306686886E-02  0.38436981230E-02  0.20068972695E-01  0.10234702845E+01  0.10232657638E+01 0.  0.
     999903    2    3    3    0    0 -0.65538910122E-01  0.28750637467E-01 -0.10827643676E+00  0.13132432751E+00  0.20008606759E-01 0.  0.
         14    1    1    2    0    0 -0.10306686886E-02 -0.38436981230E-02 -0.20068972695E-01  0.20459715497E-01  0.00000000000E+00 0. -1.
     999901    1    3    3    0    0  0.66569578811E-01 -0.24906939344E-01  0.12834540945E+00  0.89214595699E+00  0.88000000000E+00 0. -1.
        -11    1    4    4    0    0 -0.50035351548E-01  0.12875526754E-01 -0.82093708103E-01  0.96999760953E-01  0.51100000000E-03 0.  1.
         11    1    4    4    0    0 -0.15503558574E-01  0.15875110713E-01 -0.26182728654E-01  0.34324566558E-01  0.51100000000E-03 0. -1.
</event>
<event>
 8    1  0.1233916E+005  0.1043930E+01  0.7957747E-01            NaN
         13   -1    0    0    0    0  0.00000000000E+00  0.00000000000E+00  0.74505805969E-08  0.10566000000E+00  0.10566000000E+00 0. -1.
     999900   -1    0    0    0    0 -0.00000000000E+00 -0.00000000000E+00 -0.74505805969E-08  0.93827000000E+00  0.93827000000E+00 0.  1.
     999902    2    1    2    0    0  0.24544765806E-01 -0.52724616869E-02 -0.62735149672E-02  0.10180533431E+01  0.10177244264E+01 0.  0.
     999903    2    3    3    0    0  0.12695737357E+00  0.78631101156E-02 -0.27121493293E-01  0.13177148972E+00  0.21169480401E-01 0.  0.
         14    1    1    2    0    0 -0.24544765806E-01  0.52724616869E-02  0.62735149672E-02  0.25876656870E-01  0.00000000000E+00 0. -1.
     999901    1    3    3    0    0 -0.10241260777E+00 -0.13135571802E-01  0.20847978325E-01  0.88628185341E+00  0.88000000000E+00 0.  1.
        -11    1    4    4    0    0  0.42456859706E-01  0.97728996753E-02 -0.20942023568E-02  0.43620423069E-01  0.51100000000E-03 0. -1.
         11    1    4    4    0    0  0.84500513867E-01 -0.19097895597E-02 -0.25027290936E-01  0.88151066656E-01  0.51100000000E-03 0.  1.
</event>
<event>
 8    1  0.1233916E+005  0.1043930E+01  0.7957747E-01            NaN
         13   -1    0    0    0    0  0.00000000000E+00  0.00000000000E+00  0.74505805969E-08  0.10566000000E+00  0.10566000000E+00 0.  1.
     999900   -1    0    0    0    0 -0.00000000000E+00 -0.00000000000E+00 -0.74505805969E-08  0.93827000000E+00  0.93827000000E+00 0. -1.
     999902    2    1    2    0    0 -0.98771689437E-03 -0.54627700025E-03 -0.23813915200E-01  0.10200893507E+01  0.10198107211E+01 0.  0.
     999903    2    3    3    0    0  0.57403378029E-01  0.10866303362E+00 -0.41869989301E-01  0.13123491079E+00  0.19149493982E-01 0.  0.
         14    1    1    2    0    0  0.98771689437E-03  0.54627700025E-03  0.23813915200E-01  0.23840649328E-01  0.00000000000E+00 0.  1.
     999901    1    3    3    0    0 -0.58391094924E-01 -0.10920931062E+00  0.18056074101E-01  0.88885443989E+00  0.88000000000E+00 0. -1.
        -11    1    4    4    0    0  0.47209005209E-01  0.84853917273E-01 -0.40744843820E-01  0.10530565449E+00  0.51100000000E-03 0. -1.
         11    1    4    4    0    0  0.10194372821E-01  0.23809116349E-01 -0.11251454813E-02  0.25929256292E-01  0.51100000000E-03 0.  1.
</event>
<event>
 8    1  0.1233916E+005  0.1043930E+01  0.7957747E-01            NaN
         13   -1    0    0    0    0  0.00000000000E+00  0.00000000000E+00  0.74505805969E-08  0.10566000000E+00  0.10566000000E+00 0.  1.
     999900   -1    0    0    0    0 -0.00000000000E+00 -0.00000000000E+00 -0.74505805969E-08  0.93827000000E+00  0.93827000000E+00 0. -1.
     999902    2    1    2    0    0  0.17139157395E-01  0.43490663336E-03 -0.11640874350E-01  0.10232068290E+01  0.10229969526E+01 0.  0.
     999903    2    3    3    0    0 -0.84421368962E-01 -0.26879850237E-01  0.93990762963E-01  0.13067185533E+00  0.19783234473E-01 0.  0.
         14    1    1    2    0    0 -0.17139157395E-01 -0.43490663336E-03  0.11640874350E-01  0.20723170984E-01  0.00000000000E+00 0.  1.
     999901    1    3    3    0    0  0.10156052636E+00  0.27314756870E-01 -0.10563163731E+00  0.89253497369E+00  0.88000000000E+00 0. -1.
        -11    1    4    4    0    0 -0.79499443936E-01 -0.28436649791E-01  0.82422764803E-01  0.11799397407E+00  0.51100000000E-03 0. -1.
         11    1    4    4    0    0 -0.49219250255E-02  0.15567995545E-02  0.11567998159E-01  0.12677881259E-01  0.51100000000E-03 0.  1.
</event>
<event>
 8    1  0.1233916E+005  0.1043930E+01  0.7957747E-01            NaN
         13   -1    0    0    0    0  0.00000000000E+00  0.00000000000E+00  0.74505805969E-08  0.10566000000E+00  0.10566000000E+00 0. -1.
     999900   -1    0    0    0    0 -0.00000000000E+00 -0.00000000000E+00 -0.74505805969E-08  0.93827000000E+00  0.93827000000E+00 0.  1.
     999902    2    1    2    0    0  0.18458262836E-01  0.66687742965E-02 -0.13783686539E-01  0.10199472972E+01  0.10196652976E+01 0.  0.
     999903    2    3    3    0    0  0.10315056953E+00  0.77371430274E-01  0.22499436222E-01  0.13231667734E+00  0.19367505093E-01 0.  0.
         14    1    1    2    0    0 -0.18458262836E-01 -0.66687742965E-02  0.13783686539E-01  0.23982702770E-01  0.00000000000E+00 0. -1.
     999901    1    3    3    0    0 -0.84692306697E-01 -0.70702655977E-01 -0.36283122760E-01  0.88763061989E+00  0.88000000000E+00 0.  1.
        -11    1    4    4    0    0  0.60786348612E-01  0.37653100639E-01  0.50733363607E-02  0.71684977702E-01  0.51100000000E-03 0. -1.
         11    1    4    4    0    0  0.42364220921E-01  0.39718329635E-01  0.17426099861E-01  0.60631699635E-01  0.51100000000E-03 0.  1.
</event>
<event>
 8    1  0.1233916E+005  0.1043930E+01  0.7957747E-01            NaN
         13   -1    0    0    0    0  0.00000000000E+00  0.00000000000E+00  0.74505805969E-08  0.10566000000E+00  0.10566000000E+00 0. -1.
     999900   -1    0    0    0    0 -0.00000000000E+00 -0.00000000000E+00 -0.74505805969E-08  0.93827000000E+00  0.93827000000E+00 0.  1.
     999902    2    1    2    0    0  0.20383264378E-01 -0.12110417099E-01 -0.85364505585E-02  0.10187305822E+01  0.10184188669E+01 0.  0.
     999903    2    3    3    0    0  0.66592494351E-01 -0.92589713830E-01 -0.63627033997E-01  0.13213756254E+00  0.20112696683E-01 0.  0.
         14    1    1    2    0    0 -0.20383264378E-01  0.12110417099E-01  0.85364505585E-02  0.25199417794E-01  0.00000000000E+00 0. -1.
     999901    1    3    3    0    0 -0.46209229973E-01  0.80479296731E-01  0.55090583438E-01  0.88659301967E+00  0.88000000000E+00 0. -1.
        -11    1    4    4    0    0  0.18602663397E-01 -0.24260326353E-01 -0.27625284396E-01  0.41207280658E-01  0.51100000000E-03 0. -1.
         11    1    4    4    0    0  0.47989830953E-01 -0.68329387477E-01 -0.36001749600E-01  0.90930281883E-01  0.51100000000E-03 0.  1.
</event>
<event>
 8    1  0.1233916E+005  0.1043930E+01  0.7957747E-01            NaN
         13   -1    0    0    0    0  0.00000000000E+00  0.00000000000E+00  0.74505805969E-08  0.10566000000E+00  0.10566000000E+00 0. -1.
     999900   -1    0    0    0    0 -0.00000000000E+00 -0.00000000000E+00 -0.74505805969E-08  0.93827000000E+00  0.93827000000E+00 0.  1.
     999902    2    1    2    0    0 -0.11785927839E-01 -0.15177133514E-01  0.13748101346E-01  0.10203023940E+01  0.10200287797E+01 0.  0.
     999903    2    3    3    0    0 -0.11729178606E+00  0.31773157637E-01  0.47886051026E-01  0.13210128184E+00  0.19768109592E-01 0.  0.
         14    1    1    2    0    0  0.11785927839E-01  0.15177133514E-01 -0.13748101346E-01  0.23627606044E-01  0.00000000000E+00 0.  1.
     999901    1    3    3    0    0  0.10550585822E+00 -0.46950291152E-01 -0.34137949680E-01  0.88820111212E+00  0.88000000000E+00 0.  1.
        -11    1    4    4    0    0 -0.31949228396E-01  0.15733910425E-01  0.20252417937E-01  0.40972316089E-01  0.51100000000E-03 0. -1.
         11    1    4    4    0    0 -0.85342557665E-01  0.16039247212E-01  0.27633633089E-01  0.91128965750E-01  0.51100000000E-03 0.  1.
</event>
<event>
 8    1  0.1233916E+005  0.1043930E+01  0.7957747E-01            NaN
         13   -1    0    0    0    0  0.00000000000E+00  0.00000000000E+00  0.74505805969E-08  0.10566000000E+00  0.10566000000E+00 0. -1.
     999900   -1    0    0    0    0 -0.00000000000E+00 -0.00000000000E+00 -0.74505805969E-08  0.93827000000E+00  0.93827000000E+00 0.  1.
     999902    2    1    2    0    0 -0.62965394281E-02 -0.13231203436E-01  0.18525501609E-01  0.10203099796E+01  0.10200365430E+01 0.  0.
     999903    2    3    3    0    0  0.39511729339E-01  0.31973099416E-01  0.12108202694E+00  0.13201967382E+00  0.13597102152E-01 0.  0.
         14    1    1    2    0    0  0.62965394281E-02  0.13231203436E-01 -0.18525501609E-01  0.23620020386E-01  0.00000000000E+00 0.  1.
     999901    1    3    3    0    0 -0.45808268767E-01 -0.45204302852E-01 -0.10255652533E+00  0.88829030580E+00  0.88000000000E+00 0.  1.
        -11    1    4    4    0    0  0.28433529249E-01  0.14554821603E-01  0.71777272273E-01  0.78565554497E-01  0.51100000000E-03 0.  1.
         11    1    4    4    0    0  0.11078200090E-01  0.17418277813E-01  0.49304754662E-01  0.53454119322E-01  0.51100000000E-03 0. -1.
</event>
<event>
 8    1  0.1233916E+005  0.1043930E+01  0.7957747E-01            NaN
         13   -1    0    0    0    0  0.00000000000E+00  0.00000000000E+00  0.74505805969E-08  0.10566000000E+00  0.10566000000E+00 0. -1.
     999900   -1    0    0    0    0 -0.00000000000E+00 -0.00000000000E+00 -0.74505805969E-08  0.93827000000E+00  0.93827000000E+00 0.  1.
     999902    2    1    2    0    0  0.76472125620E-02  0.21357908784E-01  0.68317984855E-02  0.10202379423E+01  0.10199628156E+01 0.  0.
     999903    2    3    3    0    0 -0.13829755481E-01  0.10365418612E+00  0.79949205354E-01  0.13311895783E+00  0.19832525310E-01 0.  0.
         14    1    1    2    0    0 -0.76472125620E-02 -0.21357908784E-01 -0.68317984855E-02  0.23692057702E-01  0.00000000000E+00 0. -1.
     999901    1    3    3    0    0  0.21476968043E-01 -0.82296277333E-01 -0.73117406869E-01  0.88711898447E+00  0.88000000000E+00 0.  1.
        -11    1    4    4    0    0 -0.11174597744E-02  0.67509367513E-01  0.57653713528E-01  0.88786120666E-01  0.51100000000E-03 0. -1.
         11    1    4    4    0    0 -0.12712295707E-01  0.36144818604E-01  0.22295491826E-01  0.44332837162E-01  0.51100000000E-03 0.  1.
</event>
<event>
 8    1  0.1233916E+005  0.1043930E+01  0.7957747E-01            NaN
         13   -1    0    0    0    0  0.00000000000E+00  0.00000000000E+00  0.74505805969E-08  0.10566000000E+00  0.10566000000E+00 0.  1.
     999900   -1    0    0    0    0 -0.00000000000E+00 -0.00000000000E+00 -0.74505805969E-08  0.93827000000E+00  0.93827000000E+00 0. -1.
     999902    2    1    2    0    0  0.10494175031E-02 -0.20876110415E-01 -0.13904991040E-01  0.10188249798E+01  0.10185156245E+01 0.  0.
     999903    2    3    3    0    0 -0.10110536498E+00  0.14438685743E-01  0.76198556778E-01  0.12764520909E+00  0.75039238847E-02 0.  0.
         14    1    1    2    0    0 -0.10494175031E-02  0.20876110415E-01  0.13904991040E-01  0.25105020195E-01  0.00000000000E+00 0.  1.
     999901    1    3    3    0    0  0.10215478248E+00 -0.35314796158E-01 -0.90103547817E-01  0.89117977072E+00  0.88000000000E+00 0.  1.
        -11    1    4    4    0    0 -0.35589379889E-01  0.69375872869E-02  0.23284519581E-01  0.43094826271E-01  0.51100000000E-03 0. -1.
         11    1    4    4    0    0 -0.65515985091E-01  0.75010984566E-02  0.52914037197E-01  0.84550382814E-01  0.51100000000E-03 0.  1.
</event>
<event>
 8    1  0.1233916E+005  0.1043930E+01  0.7957747E-01            NaN
         13   -1    0    0    0    0  0.00000000000E+00  0.00000000000E+00  0.74505805969E-08  0.10566000000E+00  0.10566000000E+00 0. -1.
     999900   -1    0    0    0    0 -0.00000000000E+00 -0.00000000000E+00 -0.74505805969E-08  0.93827000000E+00  0.93827000000E+00 0. -1.
     999902    2    1    2    0    0 -0.17454523838E-01 -0.89733982250E-02 -0.12434905646E-01  0.10206962066E+01  0.10204317405E+01 0.  0.
     999903    2    3    3    0    0 -0.11959554021E+00 -0.55631513260E-01  0.26918860253E-02  0.13343154102E+00  0.19969260944E-01 0.  0.
         14    1    1    2    0    0  0.17454523838E-01  0.89733982250E-02  0.12434905646E-01  0.23233793417E-01  0.00000000000E+00 0. -1.
     999901    1    3    3    0    0  0.10214101638E+00  0.46658115035E-01 -0.15126791672E-01  0.88726466556E+00  0.88000000000E+00 0. -1.
        -11    1    4    4    0    0 -0.75618928586E-01 -0.43783936290E-01 -0.35775690558E-02  0.87454648584E-01  0.51100000000E-03 0. -1.
         11    1    4    4    0    0 -0.43976611628E-01 -0.11847576970E-01  0.62694550811E-02  0.45976892439E-01  0.51100000000E-03 0.  1.
</event>
<event>
 7    1  0.1233916E+005  0.1043930E+01  0.7957747E-01            NaN
         13   -1    0    0    0    0  0.00000000000E+00  0.00000000000E+00  0.74505805969E-08  0.10566000000E+00  0.10566000000E+00 0.  1.
     999900   -1    0    0    0    0 -0.00000000000E+00 -0.00000000000E+00 -0.74505805969E-08  0.93827000000E+00  0.93827000000E+00 0.  1.
     999903    2    1    2    0    0 -0.74834567207E-02  0.62484447726E-01 -0.44372520748E-01  0.79971557023E-01  0.21592151424E-01 0.  0.
         14    1    1    2    0    0  0.66521555442E-01  0.22030067213E-01  0.33981625918E-01  0.77879343217E-01  0.00000000000E+00 0. -1.
     999901    1    1    2    0    0 -0.59038098721E-01 -0.84514514939E-01  0.10390894830E-01  0.88607909976E+00  0.88000000000E+00 0. -1.
        -11    1    3    3    0    0  0.51948395149E-02  0.42769888357E-01 -0.28748232278E-01  0.51797410049E-01  0.51100000000E-03 0. -1.
         11    1    3    3    0    0 -0.12678296236E-01  0.19714559369E-01 -0.15624288470E-01  0.28174146974E-01  0.51100000000E-03 0.  1.
</event>
<event>
 8    1  0.1233916E+005  0.1043930E+01  0.7957747E-01            NaN
         13   -1    0    0    0    0  0.00000000000E+00  0.00000000000E+00  0.74505805969E-08  0.10566000000E+00  0.10566000000E+00 0. -1.
     999900   -1    0    0    0    0 -0.00000000000E+00 -0.00000000000E+00 -0.74505805969E-08  0.93827000000E+00  0.93827000000E+00 0.  1.
     999902    2    1    2    0    0  0.13890940158E-01 -0.16982801584E-01  0.65614149670E-02  0.10210296521E+01  0.10207728075E+01 0.  0.
     999903    2    3    3    0    0 -0.46784133411E-01  0.86244705376E-01 -0.80790916473E-01  0.12863522553E+00  0.19822833249E-01 0.  0.
         14    1    1    2    0    0 -0.13890940158E-01  0.16982801584E-01 -0.65614149670E-02  0.22900347912E-01  0.00000000000E+00 0. -1.
     999901    1    3    3    0    0  0.60675073569E-01 -0.10322750696E+00  0.87352331440E-01  0.89239442656E+00  0.88000000000E+00 0. -1.
        -11    1    4    4    0    0 -0.28403674093E-01  0.62955525804E-01 -0.65783913369E-01  0.95383181486E-01  0.51100000000E-03 0. -1.
         11    1    4    4    0    0 -0.18380459319E-01  0.23289179572E-01 -0.15007003103E-01  0.33252044043E-01  0.51100000000E-03 0.  1.
</event>
<event>
 8    1  0.1233916E+005  0.1043930E+01  0.7957747E-01            NaN
         13   -1    0    0    0    0  0.00000000000E+00  0.00000000000E+00  0.74505805969E-08  0.10566000000E+00  0.10566000000E+00 0. -1.
     999900   -1    0    0    0    0 -0.00000000000E+00 -0.00000000000E+00 -0.74505805969E-08  0.93827000000E+00  0.93827000000E+00 0. -1.
     999902    2    1    2    0    0 -0.27870085572E-02  0.26086606717E-01  0.66844080139E-02  0.10168567701E+01  0.10164963016E+01 0.  0.
     999903    2    3    3    0    0 -0.11792391670E+00 -0.15969859332E-01 -0.39870164201E-01  0.12714188198E+00  0.20355383143E-01 0.  0.
         14    1    1    2    0    0  0.27870085572E-02 -0.26086606717E-01 -0.66844080139E-02  0.27073229899E-01  0.00000000000E+00 0.  1.
     999901    1    3    3    0    0  0.11513690814E+00  0.42056466049E-01  0.46554572215E-01  0.88971488812E+00  0.88000000000E+00 0.  1.
        -11    1    4    4    0    0 -0.60269906813E-01 -0.13644195257E-01 -0.11563827818E-01  0.62869777844E-01  0.51100000000E-03 0.  1.
         11    1    4    4    0    0 -0.57654009886E-01 -0.23256640755E-02 -0.28306336383E-01  0.64272104134E-01  0.51100000000E-03 0. -1.
</event>
<event>
 8    1  0.1233916E+005  0.1043930E+01  0.7957747E-01            NaN
         13   -1    0    0    0    0  0.00000000000E+00  0.00000000000E+00  0.74505805969E-08  0.10566000000E+00  0.10566000000E+00 0. -1.
     999900   -1    0    0    0    0 -0.00000000000E+00 -0.00000000000E+00 -0.74505805969E-08  0.93827000000E+00  0.93827000000E+00 0.  1.
     999902    2    1    2    0    0 -0.14643738351E-01 -0.30993531550E-02  0.19705036336E-01  0.10191846263E+01  0.10188841784E+01 0.  0.
     999903    2    3    3    0    0 -0.50020951062E-01  0.11130873109E+00 -0.38917865188E-01  0.12914114337E+00  0.16465282205E-01 0.  0.
         14    1    1    2    0    0  0.14643738351E-01  0.30993531550E-02 -0.19705036336E-01  0.24745373706E-01  0.00000000000E+00 0.  1.
     999901    1    3    3    0    0  0.35377212711E-01 -0.11440808424E+00  0.58622901523E-01  0.89004348293E+00  0.88000000000E+00 0. -1.
        -11    1    4    4    0    0 -0.49276662539E-01  0.10077849360E+00 -0.38354551740E-01  0.11855727310E+00  0.51100000000E-03 0. -1.
         11    1    4    4    0    0 -0.74428852294E-03  0.10530237483E-01 -0.56331344789E-03  0.10583870270E-01  0.51100000000E-03 0.  1.
</event>
<event>
 8    1  0.1233916E+005  0.1043930E+01  0.7957747E-01            NaN
         13   -1    0    0    0    0  0.00000000000E+00  0.00000000000E+00  0.74505805969E-08  0.10566000000E+00  0.10566000000E+00 0.  1.
     999900   -1    0    0    0    0 -0.00000000000E+00 -0.00000000000E+00 -0.74505805969E-08  0.93827000000E+00  0.93827000000E+00 0.  1.
     999902    2    1    2    0    0 -0.12895871165E-02 -0.86563259757E-02  0.21749228953E-01  0.10204859395E+01  0.10202166087E+01 0.  0.
     999903    2    3    3    0    0 -0.70211466362E-02 -0.10443945288E+00 -0.74496242618E-01  0.13005320816E+00  0.20180460148E-01 0.  0.
         14    1    1    2    0    0  0.12895871165E-02  0.86563259757E-02 -0.21749228953E-01  0.23444060535E-01  0.00000000000E+00 0. -1.
     999901    1    3    3    0    0  0.57315595196E-02  0.95783126903E-01  0.96245471571E-01  0.89043273130E+00  0.88000000000E+00 0. -1.
        -11    1    4    4    0    0 -0.13715854739E-01 -0.55368051215E-01 -0.38328293168E-01  0.68724558527E-01  0.51100000000E-03 0.  1.
         11    1    4    4    0    0  0.66947081033E-02 -0.49071401664E-01 -0.36167949450E-01  0.61328649637E-01  0.51100000000E-03 0. -1.
</event>
<event>
 8    1  0.1233916E+005  0.1043930E+01  0.7957747E-01            NaN
         13   -1    0    0    0    0  0.00000000000E+00  0.00000000000E+00  0.74505805969E-08  0.10566000000E+00  0.10566000000E+00 0.  1.
     999900   -1    0    0    0    0 -0.00000000000E+00 -0.00000000000E+00 -0.74505805969E-08  0.93827000000E+00  0.93827000000E+00 0.  1.
     999902    2    1    2    0    0  0.26396615550E-02  0.30317404694E-02  0.25045868829E-01  0.10185635890E+01  0.10182476761E+01 0.  0.
     999903    2    3    3    0    0  0.20191539823E-01  0.12498893519E+00  0.22085377382E-01  0.12997460058E+00  0.19383000328E-01 0.  0.
         14    1    1    2    0    0 -0.26396615550E-02 -0.30317404694E-02 -0.25045868829E-01  0.25366411035E-01  0.00000000000E+00 0. -1.
     999901    1    3    3    0    0 -0.17551878268E-01 -0.12195719472E+00  0.29604914468E-02  0.88858898839E+00  0.88000000000E+00 0.  1.
        -11    1    4    4    0    0  0.93664152800E-02  0.10411158095E+00  0.16960554174E-01  0.10590029529E+00  0.51100000000E-03 0.  1.
         11    1    4    4    0    0  0.10825124543E-01  0.20877354238E-01  0.51248232077E-02  0.24074305291E-01  0.51100000000E-03 0. -1.
</event>
<event>
 8    1  0.1233916E+005  0.1043930E+01  0.7957747E-01            NaN
         13   -1    0    0    0    0  0.00000000000E+00  0.00000000000E+00  0.74505805969E-08  0.10566000000E+00  0.10566000000E+00 0. -1.
     999900   -1    0    0    0    0 -0.00000000000E+00 -0.00000000000E+00 -0.74505805969E-08  0.93827000000E+00  0.93827000000E+00 0.  1.
     999902    2    1    2    0    0 -0.13245221087E-01  0.10166697318E-01  0.20426227228E-01  0.10175476503E+01  0.10172055802E+01 0.  0.
     999903    2    3    3    0    0 -0.13175639122E-01  0.13334692937E-01 -0.12276795637E+00  0.12596780798E+00  0.21083311737E-01 0.  0.
         14    1    1    2    0    0  0.13245221087E-01 -0.10166697318E-01 -0.20426227228E-01  0.26382349683E-01  0.00000000000E+00 0.  1.
     999901    1    3    3    0    0 -0.69581965673E-04 -0.31679956191E-02  0.14319418360E+00  0.89157984233E+00  0.88000000000E+00 0. -1.
        -11    1    4    4    0    0 -0.10925842334E-01  0.16654579888E-01 -0.11820052360E+00  0.11986815241E+00  0.51100000000E-03 0.  1.
         11    1    4    4    0    0 -0.22497967882E-02 -0.33198869507E-02 -0.45674327717E-02  0.60996555704E-02  0.51100000000E-03 0. -1.
</event>
<event>
 8    1  0.1233916E+005  0.1043930E+01  0.7957747E-01            NaN
         13   -1    0    0    0    0  0.00000000000E+00  0.00000000000E+00  0.74505805969E-08  0.10566000000E+00  0.10566000000E+00 0.  1.
     999900   -1    0    0    0    0 -0.00000000000E+00 -0.00000000000E+00 -0.74505805969E-08  0.93827000000E+00  0.93827000000E+00 0.  1.
     999902    2    1    2    0    0 -0.20601361145E-01 -0.41556768527E-02 -0.92977751283E-02  0.10209488261E+01  0.10206901445E+01 0.  0.
     999903    2    3    3    0    0 -0.74055722899E-01 -0.10077373323E+00  0.39016130113E-01  0.13273339557E+00  0.21361191154E-01 0.  0.
         14    1    1    2    0    0  0.20601361145E-01  0.41556768527E-02  0.92977751283E-02  0.22981173892E-01  0.00000000000E+00 0. -1.
     999901    1    3    3    0    0  0.53454361754E-01  0.96618056375E-01 -0.48313905241E-01  0.88821543054E+00  0.88000000000E+00 0.  1.
        -11    1    4    4    0    0 -0.41580529036E-01 -0.47754899465E-01  0.99530446131E-02  0.64099883275E-01  0.51100000000E-03 0.  1.
         11    1    4    4    0    0 -0.32475193863E-01 -0.53018833762E-01  0.29063085500E-01  0.68633512294E-01  0.51100000000E-03 0. -1.
</event>
<event>
 8    1  0.1233916E+005  0.1043930E+01  0.7957747E-01            NaN
         13   -1    0    0    0    0  0.00000000000E+00  0.00000000000E+00  0.74505805969E-08  0.10566000000E+00  0.10566000000E+00 0. -1.
     999900   -1    0    0    0    0 -0.00000000000E+00 -0.00000000000E+00 -0.74505805969E-08  0.93827000000E+00  0.93827000000E+00 0.  1.
     999902    2    1    2    0    0 -0.16326246787E-01 -0.62704084668E-02  0.17596106568E-01  0.10191209830E+01  0.10188189686E+01 0.  0.
     999903    2    3    3    0    0  0.97165639405E-01 -0.51991366864E-01  0.64869331288E-01  0.12939879491E+00  0.19792783349E-01 0.  0.
         14    1    1    2    0    0  0.16326246787E-01  0.62704084668E-02 -0.17596106568E-01  0.24809016966E-01  0.00000000000E+00 0.  1.
     999901    1    3    3    0    0 -0.11349188619E+00  0.45720958397E-01 -0.47273224720E-01  0.88972218813E+00  0.88000000000E+00 0.  1.
        -11    1    4    4    0    0  0.87439948014E-01 -0.48699627919E-01  0.51580214973E-01  0.11259741545E+00  0.51100000000E-03 0. -1.
         11    1    4    4    0    0  0.97256913902E-02 -0.32917389446E-02  0.13289116314E-01  0.16801379459E-01  0.51100000000E-03 0.  1.
</event>
<event>
 8    1  0.1233916E+005  0.1043930E+01  0.7957747E-01            NaN
         13   -1    0    0    0    0  0.00000000000E+00  0.00000000000E+00  0.74505805969E-08  0.10566000000E+00  0.10566000000E+00 0.  1.
     999900   -1    0    0    0    0 -0.00000000000E+00 -0.00000000000E+00 -0.74505805969E-08  0.93827000000E+00  0.93827000000E+00 0. -1.
     999902    2    1    2    0    0  0.15725952981E-01  0.16214250548E-02  0.17334242942E-01  0.10204691689E+01  0.10201994482E+01 0.  0.
     999903    2    3    3    0    0  0.11246649322E+00  0.33909649803E-01 -0.55957038351E-01  0.13155248357E+00  0.19398178953E-01 0.  0.
         14    1    1    2    0    0 -0.15725952981E-01 -0.16214250548E-02 -0.17334242942E-01  0.23460831075E-01  0.00000000000E+00 0. -1.
     999901    1    3    3    0    0 -0.96740540237E-01 -0.32288224749E-01  0.73291281292E-01  0.88891668535E+00  0.88000000000E+00 0.  1.
        -11    1    4    4    0    0  0.49997062777E-01  0.55072272748E-02 -0.26727775858E-01  0.56962013324E-01  0.51100000000E-03 0.  1.
         11    1    4    4    0    0  0.62469430441E-01  0.28402422529E-01 -0.29229262492E-01  0.74590470249E-01  0.51100000000E-03 0. -1.
</event>
<event>
 8    1  0.1233916E+005  0.1043930E+01  0.7957747E-01            NaN
         13   -1    0    0    0    0  0.00000000000E+00  0.00000000000E+00  0.74505805969E-08  0.10566000000E+00  0.10566000000E+00 0. -1.
     999900   -1    0    0    0    0 -0.00000000000E+00 -0.00000000000E+00 -0.74505805969E-08  0.93827000000E+00  0.93827000000E+00 0.  1.
     999902    2    1    2    0    0  0.35180607993E-02 -0.23334048941E-01  0.12640184233E-02  0.10202984039E+01  0.10200246961E+01 0.  0.
     999903    2    3    3    0    0  0.91242527463E-01 -0.58501416023E-01 -0.72920711914E-01  0.13213417360E+00  0.19859383508E-01 0.  0.
         14    1    1    2    0    0 -0.35180607993E-02  0.23334048941E-01 -0.12640184233E-02  0.23631596102E-01  0.00000000000E+00 0. -1.
     999901    1    3    3    0    0 -0.87724466663E-01  0.35167367082E-01  0.74184730337E-01  0.88816423029E+00  0.88000000000E+00 0. -1.
        -11    1    4    4    0    0  0.25608435308E-01 -0.24043281586E-01 -0.31671929512E-01  0.47299509388E-01  0.51100000000E-03 0. -1.
         11    1    4    4    0    0  0.65634092155E-01 -0.34458134437E-01 -0.41248782402E-01  0.84834664216E-01  0.51100000000E-03 0.  1.
</event>
<event>
 8    1  0.1233916E+005  0.1043930E+01  0.7957747E-01            NaN
         13   -1    0    0    0    0  0.00000000000E+00  0.00000000000E+00  0.74505805969E-08  0.10566000000E+00  0.10566000000E+00 0. -1.
     999900   -1    0    0    0    0 -0.00000000000E+00 -0.00000000000E+00 -0.74505805969E-08  0.93827000000E+00  0.93827000000E+00 0. -1.
     999902    2    1    2    0    0 -0.15360190629E-01  0.13087200775E-01  0.13326672729E-01  0.10197471448E+01  0.10194603616E+01 0.  0.
     999903    2    3    3    0    0  0.54487364516E-01  0.11031137969E+00 -0.37839715343E-01  0.13016903062E+00  0.19356112598E-01 0.  0.
         14    1    1    2    0    0  0.15360190629E-01 -0.13087200775E-01 -0.13326672729E-01  0.24182855214E-01  0.00000000000E+00 0.  1.
     999901    1    3    3    0    0 -0.69847555145E-01 -0.97224178918E-01  0.51166388072E-01  0.88957811416E+00  0.88000000000E+00 0.  1.
        -11    1    4    4    0    0  0.20927159196E-01  0.57517625356E-01 -0.11446574787E-01  0.62269642796E-01  0.51100000000E-03 0.  1.
         11    1    4    4    0    0  0.33560205320E-01  0.52793754337E-01 -0.26393140556E-01  0.67899387829E-01  0.51100000000E-03 0. -1.
</event>
<event>
 8    1  0.1233916E+005  0.1043930E+01  0.7957747E-01            NaN
         13   -1    0    0    0    0  0.00000000000E+00  0.00000000000E+00  0.74505805969E-08  0.10566000000E+00  0.10566000000E+00 0.  1.
     999900   -1    0    0    0    0 -0.00000000000E+00 -0.00000000000E+00 -0.74505805969E-08  0.93827000000E+00  0.93827000000E+00 0. -1.
     999902    2    1    2    0    0  0.13878321843E-01 -0.32929356154E-02  0.17704571475E-01  0.10211944971E+01  0.10209413782E+01 0.  0.
     999903    2    3    3    0    0  0.68697640893E-01 -0.74473463090E-01  0.85214009642E-01  0.13404775077E+00  0.21016885568E-01 0.  0.
         14    1    1    2    0    0 -0.13878321843E-01  0.32929356154E-02 -0.17704571475E-01  0.22735502926E-01  0.00000000000E+00 0. -1.
     999901    1    3    3    0    0 -0.54819319050E-01  0.71180527474E-01 -0.67509438167E-01  0.88714674630E+00  0.88000000000E+00 0. -1.
        -11    1    4    4    0    0  0.30453060474E-01 -0.40566746387E-01  0.30582344081E-01  0.59233357959E-01  0.51100000000E-03 0.  1.
         11    1    4    4    0    0  0.38244580419E-01 -0.33906716703E-01  0.54631665561E-01  0.74814392813E-01  0.51100000000E-03 0. -1.
</event>
<event>
 8    1  0.1233916E+005  0.1043930E+01  0.7957747E-01            NaN
         13   -1    0    0    0    0  0.00000000000E+00  0.00000000000E+00  0.74505805969E-08  0.10566000000E+00  0.10566000000E+00 0. -1.
     999900   -1    0    0    0    0 -0.00000000000E+00 -0.00000000000E+00 -0.74505805969E-08  0.93827000000E+00  0.93827000000E+00 0.  1.
     999902    2    1    2    0    0 -0.22615408877E-01  0.45031518692E-02 -0.49218446785E-02  0.10203512034E+01  0.10200787316E+01 0.  0.
     999903    2    3    3    0    0 -0.43842243639E-02  0.12430298924E+00 -0.36882301763E-01  0.13147221952E+00  0.21311634468E-01 0.  0.
         14    1    1    2    0    0  0.22615408877E-01 -0.45031518692E-02  0.49218446785E-02  0.23578796629E-01  0.00000000000E+00 0. -1.
     999901    1    3    3    0    0 -0.18231184514E-01 -0.11979983737E+00  0.31960457085E-01  0.88887898386E+00  0.88000000000E+00 0. -1.
        -11    1    4    4    0    0 -0.11358028348E-01  0.10393745947E+00 -0.32562706842E-01  0.10951069029E+00  0.51100000000E-03 0.  1.
         11    1    4    4    0    0  0.69738039838E-02  0.20365529769E-01 -0.43195949214E-02  0.21961529228E-01  0.51100000000E-03 0. -1.
</event>
<event>
 8    1  0.1233916E+005  0.1043930E+01  0.7957747E-01            NaN
         13   -1    0    0    0    0  0.00000000000E+00  0.00000000000E+00  0.74505805969E-08  0.10566000000E+00  0.10566000000E+00 0. -1.
     999900   -1    0    0    0    0 -0.00000000000E+00 -0.00000000000E+00 -0.74505805969E-08  0.93827000000E+00  0.93827000000E+00 0.  1.
     999902    2    1    2    0    0  0.10533968764E-01  0.20788904130E-01  0.73270409291E-02  0.10194999251E+01  0.10192071765E+01 0.  0.
     999903    2    3    3    0    0  0.11868026850E-01  0.98355671051E-01 -0.84006496317E-01  0.13137820026E+00  0.19709185415E-01 0.  0.
         14    1    1    2    0    0 -0.10533968764E-01 -0.20788904130E-01 -0.73270409291E-02  0.24430074941E-01  0.00000000000E+00 0. -1.
     999901    1    3    3    0    0 -0.13340580860E-02 -0.77566766921E-01  0.91333537246E-01  0.88812172480E+00  0.88000000000E+00 0. -1.
        -11    1    4    4    0    0  0.51999054604E-02  0.84263099010E-01 -0.77047698897E-01  0.11429749734E+00  0.51100000000E-03 0. -1.
         11    1    4    4    0    0  0.66681213893E-02  0.14092572041E-01 -0.69587974193E-02  0.17080702916E-01  0.51100000000E-03 0.  1.
</event>
<event>
 8    1  0.1267592E+005  0.1043930E+01  0.7957747E-01            NaN
         13   -1    0    0    0    0  0.00000000000E+00  0.00000000000E+00  0.74505805969E-08  0.10566000000E+00  0.10566000000E+00 0.  1.
     999900   -1    0    0    0    0 -0.00000000000E+00 -0.00000000000E+00 -0.74505805969E-08  0.93827000000E+00  0.93827000000E+00 0.  1.
     999902    2    1    2    0    0  0.22829917008E-01  0.82840610699E-03 -0.80263383988E-02  0.10197160892E+01  0.10194285601E+01 0.  0.
     999903    2    3    3    0    0 -0.43615051026E-01  0.91081960635E-01  0.76913215738E-01  0.12855091612E+00  0.20285439400E-01 0.  0.
         14    1    1    2    0    0 -0.22829917008E-01 -0.82840610699E-03  0.80263383988E-02  0.24213910782E-01  0.00000000000E+00 0.  1.
     999901    1    3    3    0    0  0.66444968033E-01 -0.90253554528E-01 -0.84939554137E-01  0.89116517310E+00  0.88000000000E+00 0.  1.
        -11    1    4    4    0    0 -0.16654946426E-01  0.25232722090E-01  0.33803335843E-01  0.45354207519E-01  0.51100000000E-03 0.  1.
         11    1    4    4    0    0 -0.26960104599E-01  0.65849238544E-01  0.43109879896E-01  0.83196708604E-01  0.51100000000E-03 0. -1.
</event>
<event>
 8    1  0.1233916E+005  0.1043930E+01  0.7957747E-01            NaN
         13   -1    0    0    0    0  0.00000000000E+00  0.00000000000E+00  0.74505805969E-08  0.10566000000E+00  0.10566000000E+00 0. -1.
     999900   -1    0    0    0    0 -0.00000000000E+00 -0.00000000000E+00 -0.74505805969E-08  0.93827000000E+00  0.93827000000E+00 0.  1.
     999902    2    1    2    0    0  0.13449516465E-01 -0.10576759014E-02  0.19008214197E-01  0.10206207662E+01  0.10203545600E+01 0.  0.
     999903    2    3    3    0    0  0.88893290473E-01  0.95806223638E-01  0.61167562307E-02  0.13200354395E+00  0.17512033829E-01 0.  0.
         14    1    1    2    0    0 -0.13449516465E-01  0.10576759014E-02 -0.19008214197E-01  0.23309233759E-01  0.00000000000E+00 0.  1.
     999901    1    3    3    0    0 -0.75443774008E-01 -0.96863899539E-01  0.12891457966E-01  0.88861722229E+00  0.88000000000E+00 0.  1.
        -11    1    4    4    0    0  0.71629550730E-01  0.66589583190E-01  0.20755118324E-02  0.97823994999E-01  0.51100000000E-03 0.  1.
         11    1    4    4    0    0  0.17263739743E-01  0.29216640448E-01  0.40412443983E-02  0.34179548948E-01  0.51100000000E-03 0. -1.
</event>
<event>
 8    1  0.1233916E+005  0.1043930E+01  0.7957747E-01            NaN
         13   -1    0    0    0    0  0.00000000000E+00  0.00000000000E+00  0.74505805969E-08  0.10566000000E+00  0.10566000000E+00 0.  1.
     999900   -1    0    0    0    0 -0.00000000000E+00 -0.00000000000E+00 -0.74505805969E-08  0.93827000000E+00  0.93827000000E+00 0.  1.
     999902    2    1    2    0    0  0.12701241833E-02 -0.98057423120E-02  0.22377920724E-01  0.10194649814E+01  0.10191713846E+01 0.  0.
     999903    2    3    3    0    0 -0.12375161440E+00 -0.22807803406E-01  0.27851186519E-01  0.13051647598E+00  0.20596212006E-01 0.  0.
         14    1    1    2    0    0 -0.12701241833E-02  0.98057423120E-02 -0.22377920724E-01  0.24465018570E-01  0.00000000000E+00 0. -1.
     999901    1    3    3    0    0  0.12502173858E+00  0.13002061094E-01 -0.54732657949E-02  0.88894850545E+00  0.88000000000E+00 0. -1.
        -11    1    4    4    0    0 -0.11547377212E+00 -0.25042918796E-01  0.29462825018E-01  0.12177708737E+00  0.51100000000E-03 0. -1.
         11    1    4    4    0    0 -0.82778422744E-02  0.22351153893E-02 -0.16116384998E-02  0.87393886043E-02  0.51100000000E-03 0.  1.
</event>
<event>
 8    1  0.1233916E+005  0.1043930E+01  0.7957747E-01            NaN
         13   -1    0    0    0    0  0.00000000000E+00  0.00000000000E+00  0.74505805969E-08  0.10566000000E+00  0.10566000000E+00 0.  1.
     999900   -1    0    0    0    0 -0.00000000000E+00 -0.00000000000E+00 -0.74505805969E-08  0.93827000000E+00  0.93827000000E+00 0. -1.
     999902    2    1    2    0    0 -0.91296365100E-02 -0.14705329849E-01  0.17378135719E-01  0.10194025340E+01  0.10191074181E+01 0.  0.
     999903    2    3    3    0    0 -0.10946667857E+00  0.22151460827E-01 -0.62104731904E-01  0.12937811224E+00  0.20200427402E-01 0.  0.
         14    1    1    2    0    0  0.91296365100E-02  0.14705329849E-01 -0.17378135719E-01  0.24527466030E-01  0.00000000000E+00 0. -1.
     999901    1    3    3    0    0  0.10033704206E+00 -0.36856790676E-01  0.79482867623E-01  0.89002442173E+00  0.88000000000E+00 0. -1.
        -11    1    4    4    0    0 -0.77482297810E-01  0.11530860487E-01 -0.52599430895E-01  0.94357980420E-01  0.51100000000E-03 0.  1.
         11    1    4    4    0    0 -0.31984380765E-01  0.10620600340E-01 -0.95053010092E-02  0.35020131821E-01  0.51100000000E-03 0. -1.
</event>
<event>
 8    1  0.1233916E+005  0.1043930E+01  0.7957747E-01            NaN
         13   -1    0    0    0    0  0.00000000000E+00  0.00000000000E+00  0.74505805969E-08  0.10566000000E+00  0.10566000000E+00 0. -1.
     999900   -1    0    0    0    0 -0.00000000000E+00 -0.00000000000E+00 -0.74505805969E-08  0.93827000000E+00  0.93827000000E+00 0.  1.
     999902    2    1    2    0    0  0.21631383804E-01  0.62036396889E-02  0.66210062229E-02  0.10204728127E+01  0.10202031768E+01 0.  0.
     999903    2    3    3    0    0  0.64234136863E-01 -0.10976881738E+00  0.26528000113E-01  0.13161911625E+00  0.21086473509E-01 0.  0.
         14    1    1    2    0    0 -0.21631383804E-01 -0.62036396889E-02 -0.66210062229E-02  0.23457187258E-01  0.00000000000E+00 0.  1.
     999901    1    3    3    0    0 -0.42602753060E-01  0.11597245707E+00 -0.19906993890E-01  0.88885369649E+00  0.88000000000E+00 0.  1.
        -11    1    4    4    0    0  0.34762561188E-01 -0.62352721650E-01  0.42798577921E-02  0.71518360309E-01  0.51100000000E-03 0. -1.
         11    1    4    4    0    0  0.29471575675E-01 -0.47416095726E-01  0.22248142321E-01  0.60100755939E-01  0.51100000000E-03 0.  1.
</event>
<event>
 8    1  0.1233916E+005  0.1043930E+01  0.7957747E-01            NaN
         13   -1    0    0    0    0  0.00000000000E+00  0.00000000000E+00  0.74505805969E-08  0.10566000000E+00  0.10566000000E+00 0.  1.
     999900   -1    0    0    0    0 -0.00000000000E+00 -0.00000000000E+00 -0.74505805969E-08  0.93827000000E+00  0.93827000000E+00 0. -1.
     999902    2    1    2    0    0  0.36331653938E-02  0.12817371142E-01  0.21325325927E-01  0.10187853302E+01  0.10184749848E+01 0.  0.
     999903    2    3    3    0    0 -0.10587702914E+00  0.49989361400E-02 -0.68044606288E-01  0.12747135890E+00  0.19594495016E-01 0.  0.
         14    1    1    2    0    0 -0.36331653938E-02 -0.12817371142E-01 -0.21325325927E-01  0.25144669806E-01  0.00000000000E+00 0.  1.
     999901    1    3    3    0    0  0.10951019453E+00  0.78184350023E-02  0.89369932215E-01  0.89131397129E+00  0.88000000000E+00 0.  1.
        -11    1    4    4    0    0 -0.40413416646E-01 -0.31205776191E-02 -0.16549938167E-01  0.43785200971E-01  0.51100000000E-03 0.  1.
         11    1    4    4    0    0 -0.65463612489E-01  0.81195137591E-02 -0.51494668121E-01  0.83686157934E-01  0.51100000000E-03 0. -1.
</event>
<event>
 8    1  0.1233916E+005  0.1043930E+01  0.7957747E-01            NaN
         13   -1    0    0    0    0  0.00000000000E+00  0.00000000000E+00  0.74505805969E-08  0.10566000000E+00  0.10566000000E+00 0.  1.
     999900   -1    0    0    0    0 -0.00000000000E+00 -0.00000000000E+00 -0.74505805969E-08  0.93827000000E+00  0.93827000000E+00 0.  1.
     999902    2    1    2    0    0  0.52321514094E-02 -0.13289105654E-01  0.18093849246E-01  0.10208786851E+01  0.10206184040E+01 0.  0.
     999903    2    3    3    0    0 -0.87172132828E-01 -0.92884472786E-01  0.29988910005E-01  0.13238812991E+00  0.20019395383E-01 0.  0.
         14    1    1    2    0    0 -0.52321514094E-02  0.13289105654E-01 -0.18093849246E-01  0.23051314886E-01  0.00000000000E+00 0. -1.
     999901    1    3    3    0    0  0.92404284238E-01  0.79595367132E-01 -0.11895060759E-01  0.88849055520E+00  0.88000000000E+00 0.  1.
        -11    1    4    4    0    0 -0.58719021605E-01 -0.66538583748E-01  0.29776928400E-01  0.93606801095E-01  0.51100000000E-03 0. -1.
         11    1    4    4    0    0 -0.28453111223E-01 -0.26345889038E-01  0.21198160518E-03  0.38781328816E-01  0.51100000000E-03 0.  1.
</event>
<event>
 8    1  0.1233916E+005  0.1043930E+01  0.7957747E-01            NaN
         13   -1    0    0    0    0  0.00000000000E+00  0.00000000000E+00  0.74505805969E-08  0.10566000000E+00  0.10566000000E+00 0. -1.
     999900   -1    0    0    0    0 -0.00000000000E+00 -0.00000000000E+00 -0.74505805969E-08  0.93827000000E+00  0.93827000000E+00 0. -1.
     999902    2    1    2    0    0  0.22454676251E-01  0.56252574244E-02 -0.52918382376E-02  0.10201842728E+01  0.10199078836E+01 0.  0.
     999903    2    3    3    0    0  0.78439619171E-01  0.30393443288E-01  0.99821265417E-01  0.13181692684E+00  0.18299779301E-01 0.  0.
         14    1    1    2    0    0 -0.22454676251E-01 -0.56252574244E-02  0.52918382376E-02  0.23745727164E-01  0.00000000000E+00 0. -1.
     999901    1    3    3    0    0 -0.55984942920E-01 -0.24768185864E-01 -0.10511310365E+00  0.88836734599E+00  0.88000000000E+00 0. -1.
        -11    1    4    4    0    0  0.51733159540E-01  0.10875465800E-01  0.65028109442E-01  0.83806394093E-01  0.51100000000E-03 0.  1.
         11    1    4    4    0    0  0.26706459631E-01  0.19517977488E-01  0.34793155975E-01  0.48010532750E-01  0.51100000000E-03 0. -1.
</event>
<event>
 8    1  0.1233916E+005  0.1043930E+01  0.7957747E-01            NaN
         13   -1    0    0    0    0  0.00000000000E+00  0.00000000000E+00  0.74505805969E-08  0.10566000000E+00  0.10566000000E+00 0. -1.
     999900   -1    0    0    0    0 -0.00000000000E+00 -0.00000000000E+00 -0.74505805969E-08  0.93827000000E+00  0.93827000000E+00 0. -1.
     999902    2    1    2    0    0  0.18495564004E-01 -0.80472279856E-02 -0.10549810059E-01  0.10211672616E+01  0.10209135291E+01 0.  0.
     999903    2    3    3    0    0 -0.24923083821E-01  0.89499921918E-01 -0.89537904820E-01  0.13120111365E+00  0.23776031883E-01 0.  0.
         14    1    1    2    0    0 -0.18495564004E-01  0.80472279856E-02  0.10549810059E-01  0.22762738375E-01  0.00000000000E+00 0.  1.
     999901    1    3    3    0    0  0.43418647825E-01 -0.97547149903E-01  0.78988094761E-01  0.88996614798E+00  0.88000000000E+00 0. -1.
        -11    1    4    4    0    0 -0.25567894463E-01  0.55298682906E-01 -0.65071262923E-01  0.89141415390E-01  0.51100000000E-03 0.  1.
         11    1    4    4    0    0  0.64481064130E-03  0.34201239012E-01 -0.24466641897E-01  0.42059698256E-01  0.51100000000E-03 0. -1.
</event>
<event>
 8    1  0.1233916E+005  0.1043930E+01  0.7957747E-01            NaN
         13   -1    0    0    0    0  0.00000000000E+00  0.00000000000E+00  0.74505805969E-08  0.10566000000E+00  0.10566000000E+00 0. -1.
     999900   -1    0    0    0    0 -0.00000000000E+00 -0.00000000000E+00 -0.74505805969E-08  0.93827000000E+00  0.93827000000E+00 0. -1.
     999902    2    1    2    0    0  0.73473195402E-02  0.16886484920E-01 -0.14570795113E-01  0.10204471435E+01  0.10201769103E+01 0.  0.
     999903    2    3    3    0    0  0.82099367068E-01 -0.97462698178E-01 -0.14141316661E-01  0.12990585380E+00  0.20887087022E-01 0.  0.
         14    1    1    2    0    0 -0.73473195402E-02 -0.16886484920E-01  0.14570795113E-01  0.23482856462E-01  0.00000000000E+00 0. -1.
     999901    1    3    3    0    0 -0.74752047528E-01  0.11434918310E+00 -0.42947845185E-03  0.89054128974E+00  0.88000000000E+00 0. -1.
        -11    1    4    4    0    0  0.48252762251E-01 -0.41137460278E-01 -0.77119119211E-02  0.63877651878E-01  0.51100000000E-03 0. -1.
         11    1    4    4    0    0  0.33846604817E-01 -0.56325237900E-01 -0.64294047400E-02  0.66028201918E-01  0.51100000000E-03 0.  1.
</event>
<event>
 8    1  0.1233916E+005  0.1043930E+01  0.7957747E-01            NaN
         13   -1    0    0    0    0  0.00000000000E+00  0.00000000000E+00  0.74505805969E-08  0.10566000000E+00  0.10566000000E+00 0. -1.
     999900   -1    0    0    0    0 -0.00000000000E+00 -0.00000000000E+00 -0.74505805969E-08  0.93827000000E+00  0.93827000000E+00 0. -1.
     999902    2    1    2    0    0 -0.28401193747E-01  0.10334551222E-01  0.79812444011E-03  0.10136964465E+01  0.10132454875E+01 0.  0.
     999903    2    3    3    0    0 -0.10739398797E+00 -0.57783420643E-01  0.27071120918E-01  0.12714684834E+00  0.23687192792E-01 0.  0.
         14    1    1    2    0    0  0.28401193747E-01 -0.10334551222E-01 -0.79812444011E-03  0.30233553510E-01  0.00000000000E+00 0.  1.
     999901    1    3    3    0    0  0.78992794223E-01  0.68117971865E-01 -0.26272996478E-01  0.88654959815E+00  0.88000000000E+00 0.  1.
        -11    1    4    4    0    0 -0.26825117243E-01 -0.96460877879E-02 -0.28106154746E-02  0.28649513173E-01  0.51100000000E-03 0.  1.
         11    1    4    4    0    0 -0.80568870728E-01 -0.48137332855E-01  0.29881736392E-01  0.98497335170E-01  0.51100000000E-03 0. -1.
</event>
<event>
 8    1  0.1233916E+005  0.1043930E+01  0.7957747E-01            NaN
         13   -1    0    0    0    0  0.00000000000E+00  0.00000000000E+00  0.74505805969E-08  0.10566000000E+00  0.10566000000E+00 0.  1.
     999900   -1    0    0    0    0 -0.00000000000E+00 -0.00000000000E+00 -0.74505805969E-08  0.93827000000E+00  0.93827000000E+00 0. -1.
     999902    2    1    2    0    0  0.43552181958E-02 -0.22547243570E-01 -0.58717537653E-02  0.10202271814E+01  0.10199518018E+01 0.  0.
     999903    2    3    3    0    0  0.93525591558E-01 -0.89797510481E-01  0.23570005438E-01  0.13267956516E+00  0.15417285387E-01 0.  0.
         14    1    1    2    0    0 -0.43552181958E-02  0.22547243570E-01  0.58717537653E-02  0.23702818618E-01  0.00000000000E+00 0.  1.
     999901    1    3    3    0    0 -0.89170373362E-01  0.67250266911E-01 -0.29441759204E-01  0.88754761623E+00  0.88000000000E+00 0. -1.
        -11    1    4    4    0    0  0.30430734164E-01 -0.39542820134E-01  0.84109072584E-02  0.50603050183E-01  0.51100000000E-03 0. -1.
         11    1    4    4    0    0  0.63094857394E-01 -0.50254690346E-01  0.15159098180E-01  0.82076514972E-01  0.51100000000E-03 0.  1.
</event>
<event>
 8    1  0.1233916E+005  0.1043930E+01  0.7957747E-01            NaN
         13   -1    0    0    0    0  0.00000000000E+00  0.00000000000E+00  0.74505805969E-08  0.10566000000E+00  0.10566000000E+00 0.  1.
     999900   -1    0    0    0    0 -0.00000000000E+00 -0.00000000000E+00 -0.74505805969E-08  0.93827000000E+00  0.93827000000E+00 0. -1.
     999902    2    1    2    0    0  0.16898132988E-01 -0.10412300697E-01 -0.16758177548E-01  0.10179530984E+01  0.10176215952E+01 0.  0.
     999903    2    3    3    0    0  0.10693490375E+00 -0.19443768560E-01  0.67201559755E-01  0.12933764441E+00  0.19976057012E-01 0.  0.
         14    1    1    2    0    0 -0.16898132988E-01  0.10412300697E-01  0.16758177548E-01  0.25976901644E-01  0.00000000000E+00 0.  1.
     999901    1    3    3    0    0 -0.90036770757E-01  0.90314678634E-02 -0.83959737303E-01  0.88861545394E+00  0.88000000000E+00 0. -1.
        -11    1    4    4    0    0  0.65709520433E-02 -0.63023291741E-02  0.36709955650E-02  0.98302641477E-02  0.51100000000E-03 0.  1.
         11    1    4    4    0    0  0.10036395170E+00 -0.13141439386E-01  0.63530564190E-01  0.11950738026E+00  0.51100000000E-03 0. -1.
</event>
<event>
 8    1  0.1233916E+005  0.1043930E+01  0.7957747E-01            NaN
         13   -1    0    0    0    0  0.00000000000E+00  0.00000000000E+00  0.74505805969E-08  0.10566000000E+00  0.10566000000E+00 0. -1.
     999900   -1    0    0    0    0 -0.00000000000E+00 -0.00000000000E+00 -0.74505805969E-08  0.93827000000E+00  0.93827000000E+00 0.  1.
     999902    2    1    2    0    0 -0.22275013174E-01  0.73575470827E-02 -0.14618761955E-02  0.10204258133E+01  0.10201550831E+01 0.  0.
     999903    2    3    3    0    0  0.42036794901E-01 -0.68172684712E-01 -0.99720926911E-01  0.12941758346E+00  0.19749445015E-01 0.  0.
         14    1    1    2    0    0  0.22275013174E-01 -0.73575470827E-02  0.14618761955E-02  0.23504186712E-01  0.00000000000E+00 0. -1.
     999901    1    3    3    0    0 -0.64311808075E-01  0.75530231795E-01  0.98259050716E-01  0.89100822983E+00  0.88000000000E+00 0. -1.
        -11    1    4    4    0    0  0.39160929171E-01 -0.56404029897E-01 -0.73826234441E-01  0.10082443640E+00  0.51100000000E-03 0.  1.
         11    1    4    4    0    0  0.28758657305E-02 -0.11768654815E-01 -0.25894692471E-01  0.28593147064E-01  0.51100000000E-03 0. -1.
</event>
<event>
 8    1  0.1233916E+005  0.1043930E+01  0.7957747E-01            NaN
         13   -1    0    0    0    0  0.00000000000E+00  0.00000000000E+00  0.74505805969E-08  0.10566000000E+00  0.10566000000E+00 0.  1.
     999900   -1    0    0    0    0 -0.00000000000E+00 -0.00000000000E+00 -0.74505805969E-08  0.93827000000E+00  0.93827000000E+00 0. -1.
     999902    2    1    2    0    0  0.16264434261E-01  0.16305652362E-01  0.29350109476E-02  0.10207131869E+01  0.10204491117E+01 0.  0.
     999903    2    3    3    0    0  0.84511408032E-01  0.97743605936E-01  0.28949845230E-01  0.13394006975E+00  0.20145921609E-01 0.  0.
         14    1    1    2    0    0 -0.16264434261E-01 -0.16305652362E-01 -0.29350109476E-02  0.23216813090E-01  0.00000000000E+00 0. -1.
     999901    1    3    3    0    0 -0.68246973771E-01 -0.81437953573E-01 -0.26014834282E-01  0.88677311716E+00  0.88000000000E+00 0.  1.
        -11    1    4    4    0    0  0.43638041453E-01  0.36463925718E-01  0.16661342167E-01  0.59260087617E-01  0.51100000000E-03 0. -1.
         11    1    4    4    0    0  0.40873366579E-01  0.61279680218E-01  0.12288503063E-01  0.74679982135E-01  0.51100000000E-03 0.  1.
</event>
<event>
 8    1  0.1233916E+005  0.1043930E+01  0.7957747E-01            NaN
         13   -1    0    0    0    0  0.00000000000E+00  0.00000000000E+00  0.74505805969E-08  0.10566000000E+00  0.10566000000E+00 0.  1.
     999900   -1    0    0    0    0 -0.00000000000E+00 -0.00000000000E+00 -0.74505805969E-08  0.93827000000E+00  0.93827000000E+00 0.  1.
     999902    2    1    2    0    0  0.17547533878E-01 -0.26372662616E-02  0.23112675008E-01  0.10147912481E+01  0.10143728162E+01 0.  0.
     999903    2    3    3    0    0 -0.46455899701E-02 -0.77954740544E-01 -0.93828159183E-01  0.12358957875E+00  0.19290864180E-01 0.  0.
         14    1    1    2    0    0 -0.17547533878E-01  0.26372662616E-02 -0.23112675008E-01  0.29138751939E-01  0.00000000000E+00 0. -1.
     999901    1    3    3    0    0  0.22193123848E-01  0.75317474283E-01  0.11694083419E+00  0.89120166931E+00  0.88000000000E+00 0. -1.
        -11    1    4    4    0    0 -0.11629947683E-01 -0.40955162793E-01 -0.54192794495E-01  0.68918075558E-01  0.51100000000E-03 0.  1.
         11    1    4    4    0    0  0.69843577131E-02 -0.36999577751E-01 -0.39635364689E-01  0.54671503194E-01  0.51100000000E-03 0. -1.
</event>
<event>
 8    1  0.1233916E+005  0.1043930E+01  0.7957747E-01            NaN
         13   -1    0    0    0    0  0.00000000000E+00  0.00000000000E+00  0.74505805969E-08  0.10566000000E+00  0.10566000000E+00 0.  1.
     999900   -1    0    0    0    0 -0.00000000000E+00 -0.00000000000E+00 -0.74505805969E-08  0.93827000000E+00  0.93827000000E+00 0. -1.
     999902    2    1    2    0    0  0.14927796316E-01 -0.14321216757E-01  0.11246966724E-01  0.10203836497E+01  0.10201119360E+01 0.  0.
     999903    2    3    3    0    0 -0.53761044010E-01 -0.43423453283E-02  0.11783460958E+00  0.13123874572E+00  0.20724559002E-01 0.  0.
         14    1    1    2    0    0 -0.14927796316E-01  0.14321216757E-01 -0.11246966724E-01  0.23546350306E-01  0.00000000000E+00 0. -1.
     999901    1    3    3    0    0  0.68688840327E-01 -0.99788714285E-02 -0.10658764286E+00  0.88914490398E+00  0.88000000000E+00 0. -1.
        -11    1    4    4    0    0 -0.10115937957E-01  0.61794316261E-02  0.35885557344E-01  0.37796189264E-01  0.51100000000E-03 0.  1.
         11    1    4    4    0    0 -0.43645106054E-01 -0.10521776954E-01  0.81949052237E-01  0.93442556452E-01  0.51100000000E-03 0. -1.
</event>
<event>
 8    1  0.1233916E+005  0.1043930E+01  0.7957747E-01            NaN
         13   -1    0    0    0    0  0.00000000000E+00  0.00000000000E+00  0.74505805969E-08  0.10566000000E+00  0.10566000000E+00 0.  1.
     999900   -1    0    0    0    0 -0.00000000000E+00 -0.00000000000E+00 -0.74505805969E-08  0.93827000000E+00  0.93827000000E+00 0.  1.
     999902    2    1    2    0    0 -0.14301523964E-01  0.86717792690E-02 -0.19597230201E-01  0.10181659791E+01  0.10178399561E+01 0.  0.
     999903    2    3    3    0    0  0.15962224698E-01 -0.78726568385E-01 -0.99218690316E-01  0.12974381445E+00  0.23161254151E-01 0.  0.
         14    1    1    2    0    0  0.14301523964E-01 -0.86717792690E-02  0.19597230201E-01  0.25764020939E-01  0.00000000000E+00 0.  1.
     999901    1    3    3    0    0 -0.30263748662E-01  0.87398347654E-01  0.79621460116E-01  0.88842216461E+00  0.88000000000E+00 0. -1.
        -11    1    4    4    0    0  0.15000314815E-01 -0.27171869229E-01 -0.47238794819E-01  0.56525080972E-01  0.51100000000E-03 0.  1.
         11    1    4    4    0    0  0.96190988257E-03 -0.51554699156E-01 -0.51979895497E-01  0.73218733481E-01  0.51100000000E-03 0. -1.
</event>
<event>
 8    1  0.1233916E+005  0.1043930E+01  0.7957747E-01            NaN
         13   -1    0    0    0    0  0.00000000000E+00  0.00000000000E+00  0.74505805969E-08  0.10566000000E+00  0.10566000000E+00 0.  1.
     999900   -1    0    0    0    0 -0.00000000000E+00 -0.00000000000E+00 -0.74505805969E-08  0.93827000000E+00  0.93827000000E+00 0. -1.
     999902    2    1    2    0    0 -0.27789063232E-02 -0.13554174218E-01 -0.19156717405E-01  0.10202991350E+01  0.10200254443E+01 0.  0.
     999903    2    3    3    0    0 -0.10736041119E+00 -0.73550224921E-01  0.53644085695E-02  0.13173956869E+00  0.19764705957E-01 0.  0.
         14    1    1    2    0    0  0.27789063232E-02  0.13554174218E-01  0.19156717405E-01  0.23630865004E-01  0.00000000000E+00 0.  1.
     999901    1    3    3    0    0  0.10458150487E+00  0.59996050702E-01 -0.24521125974E-01  0.88855956631E+00  0.88000000000E+00 0. -1.
        -11    1    4    4    0    0 -0.84813930989E-01 -0.67138409650E-01  0.37263570417E-02  0.10823638851E+00  0.51100000000E-03 0. -1.
         11    1    4    4    0    0 -0.22546480203E-01 -0.64118152705E-02  0.16380515278E-02  0.23503180176E-01  0.51100000000E-03 0.  1.
</event>
<event>
 8    1  0.1233916E+005  0.1043930E+01  0.7957747E-01            NaN
         13   -1    0    0    0    0  0.00000000000E+00  0.00000000000E+00  0.74505805969E-08  0.10566000000E+00  0.10566000000E+00 0.  1.
     999900   -1    0    0    0    0 -0.00000000000E+00 -0.00000000000E+00 -0.74505805969E-08  0.93827000000E+00  0.93827000000E+00 0.  1.
     999902    2    1    2    0    0 -0.59742746111E-02 -0.14416665073E-01 -0.17620981948E-01  0.10203921328E+01  0.10201206171E+01 0.  0.
     999903    2    3    3    0    0  0.27846937688E-01  0.88306306200E-01  0.85708604813E-01  0.12777077591E+00  0.20148215385E-01 0.  0.
         14    1    1    2    0    0  0.59742746111E-02  0.14416665073E-01  0.17620981948E-01  0.23537867231E-01  0.00000000000E+00 0.  1.
     999901    1    3    3    0    0 -0.33821212299E-01 -0.10272297127E+00 -0.10332958676E+00  0.89262135686E+00  0.88000000000E+00 0.  1.
        -11    1    4    4    0    0  0.60478798490E-02  0.50941342764E-01  0.42389676259E-01  0.66548801850E-01  0.51100000000E-03 0.  1.
         11    1    4    4    0    0  0.21799057839E-01  0.37364963435E-01  0.43318928554E-01  0.61221974055E-01  0.51100000000E-03 0. -1.
</event>
<event>
 8    1  0.1233916E+005  0.1043930E+01  0.7957747E-01            NaN
         13   -1    0    0    0    0  0.00000000000E+00  0.00000000000E+00  0.74505805969E-08  0.10566000000E+00  0.10566000000E+00 0. -1.
     999900   -1    0    0    0    0 -0.00000000000E+00 -0.00000000000E+00 -0.74505805969E-08  0.93827000000E+00  0.93827000000E+00 0. -1.
     999902    2    1    2    0    0 -0.11903678473E-01 -0.82642175294E-02 -0.18864470142E-01  0.10201421231E+01  0.10198647402E+01 0.  0.
     999903    2    3    3    0    0  0.29994580052E-02 -0.12488298399E+00 -0.37772914890E-01  0.13212209551E+00  0.20608216399E-01 0.  0.
         14    1    1    2    0    0  0.11903678473E-01  0.82642175294E-02  0.18864470142E-01  0.23787876877E-01  0.00000000000E+00 0. -1.
     999901    1    3    3    0    0 -0.14903136478E-01  0.11661876646E+00  0.18908444748E-01  0.88802002762E+00  0.88000000000E+00 0. -1.
        -11    1    4    4    0    0 -0.65729957098E-02 -0.43571184552E-01 -0.68207602610E-02  0.44591885892E-01  0.51100000000E-03 0.  1.
         11    1    4    4    0    0  0.95724537150E-02 -0.81311799437E-01 -0.30952154629E-01  0.87530209614E-01  0.51100000000E-03 0. -1.
</event>
<event>
 8    1  0.1233916E+005  0.1043930E+01  0.7957747E-01            NaN
         13   -1    0    0    0    0  0.00000000000E+00  0.00000000000E+00  0.74505805969E-08  0.10566000000E+00  0.10566000000E+00 0. -1.
     999900   -1    0    0    0    0 -0.00000000000E+00 -0.00000000000E+00 -0.74505805969E-08  0.93827000000E+00  0.93827000000E+00 0.  1.
     999902    2    1    2    0    0 -0.18647720661E-01 -0.14166024109E-01  0.62225323595E-02  0.10196991594E+01  0.10194112233E+01 0.  0.
     999903    2    3    3    0    0 -0.62949454378E-01  0.49909639260E-02  0.11372123880E+00  0.13184466366E+00  0.21516311372E-01 0.  0.
         14    1    1    2    0    0  0.18647720661E-01  0.14166024109E-01 -0.62225323595E-02  0.24230840552E-01  0.00000000000E+00 0. -1.
     999901    1    3    3    0    0  0.44301733717E-01 -0.19156988035E-01 -0.10749870644E+00  0.88785449579E+00  0.88000000000E+00 0.  1.
        -11    1    4    4    0    0 -0.40803181282E-01 -0.71413065582E-02  0.68764293240E-01  0.80278807962E-01  0.51100000000E-03 0. -1.
         11    1    4    4    0    0 -0.22146273096E-01  0.12132270484E-01  0.44956945558E-01  0.51565855700E-01  0.51100000000E-03 0.  1.
</event>
<event>
 8    1  0.1233916E+005  0.1043930E+01  0.7957747E-01            NaN
         13   -1    0    0    0    0  0.00000000000E+00  0.00000000000E+00  0.74505805969E-08  0.10566000000E+00  0.10566000000E+00 0.  1.
     999900   -1    0    0    0    0 -0.00000000000E+00 -0.00000000000E+00 -0.74505805969E-08  0.93827000000E+00  0.93827000000E+00 0. -1.
     999902    2    1    2    0    0  0.18552726639E-02  0.10107812453E-01  0.15261735348E-01  0.10255308023E+01  0.10253657377E+01 0.  0.
     999903    2    3    3    0    0  0.10842888017E+00 -0.44095532260E-01 -0.62327867085E-01  0.13406230440E+00  0.19664699945E-01 0.  0.
         14    1    1    2    0    0 -0.18552726639E-02 -0.10107812453E-01 -0.15261735348E-01  0.18399197675E-01  0.00000000000E+00 0. -1.
     999901    1    3    3    0    0 -0.10657360751E+00  0.54203344713E-01  0.77589602434E-01  0.89146849793E+00  0.88000000000E+00 0.  1.
        -11    1    4    4    0    0  0.21102866644E-01 -0.12881655576E-01 -0.21364691036E-01  0.32679950659E-01  0.51100000000E-03 0. -1.
         11    1    4    4    0    0  0.87326013526E-01 -0.31213876683E-01 -0.40963176049E-01  0.10138235374E+00  0.51100000000E-03 0.  1.
</event>
<event>
 8    1  0.1233916E+005  0.1043930E+01  0.7957747E-01            NaN
         13   -1    0    0    0    0  0.00000000000E+00  0.00000000000E+00  0.74505805969E-08  0.10566000000E+00  0.10566000000E+00 0. -1.
     999900   -1    0    0    0    0 -0.00000000000E+00 -0.00000000000E+00 -0.74505805969E-08  0.93827000000E+00  0.93827000000E+00 0. -1.
     999902    2    1    2    0    0  0.17582775507E-01  0.16889817147E-02 -0.55898732740E-02  0.10254029026E+01  0.10252355141E+01 0.  0.
     999903    2    3    3    0    0  0.81207809328E-01 -0.10686222357E+00  0.12769176728E-01  0.13626367629E+00  0.19760933159E-01 0.  0.
         14    1    1    2    0    0 -0.17582775507E-01 -0.16889817147E-02  0.55898732740E-02  0.18527097371E-01  0.00000000000E+00 0. -1.
     999901    1    3    3    0    0 -0.63625033821E-01  0.10855120529E+00 -0.18359050002E-01  0.88913922634E+00  0.88000000000E+00 0.  1.
        -11    1    4    4    0    0  0.29684714267E-01 -0.24577118755E-01  0.22149515965E-02  0.38605493897E-01  0.51100000000E-03 0.  1.
         11    1    4    4    0    0  0.51523095061E-01 -0.82285104816E-01  0.10554225132E-01  0.97658182394E-01  0.51100000000E-03 0. -1.
</event>
<event>
 8    1  0.1233916E+005  0.1043930E+01  0.7957747E-01            NaN
         13   -1    0    0    0    0  0.00000000000E+00  0.00000000000E+00  0.74505805969E-08  0.10566000000E+00  0.10566000000E+00 0.  1.
     999900   -1    0    0    0    0 -0.00000000000E+00 -0.00000000000E+00 -0.74505805969E-08  0.93827000000E+00  0.93827000000E+00 0. -1.
     999902    2    1    2    0    0 -0.29704462551E-02 -0.19983804034E-01 -0.14071495237E-01  0.10193092171E+01  0.10190118238E+01 0.  0.
     999903    2    3    3    0    0 -0.33206069426E-01  0.11900006573E+00 -0.34239902748E-02  0.12782501735E+00  0.32616754310E-01 0.  0.
         14    1    1    2    0    0  0.29704462551E-02  0.19983804034E-01  0.14071495237E-01  0.24620782945E-01  0.00000000000E+00 0.  1.
     999901    1    3    3    0    0  0.30235623171E-01 -0.13898386976E+00 -0.10647504962E-01  0.89148419971E+00  0.88000000000E+00 0.  1.
        -11    1    4    4    0    0 -0.14452400624E-01  0.64885430995E-01 -0.17709562570E-01  0.68795935683E-01  0.51100000000E-03 0. -1.
         11    1    4    4    0    0 -0.18753668802E-01  0.54114634731E-01  0.14285572295E-01  0.59029081667E-01  0.51100000000E-03 0.  1.
</event>
<event>
 8    1  0.1233916E+005  0.1043930E+01  0.7957747E-01            NaN
         13   -1    0    0    0    0  0.00000000000E+00  0.00000000000E+00  0.74505805969E-08  0.10566000000E+00  0.10566000000E+00 0.  1.
     999900   -1    0    0    0    0 -0.00000000000E+00 -0.00000000000E+00 -0.74505805969E-08  0.93827000000E+00  0.93827000000E+00 0.  1.
     999902    2    1    2    0    0 -0.22328832847E-01  0.72211439567E-03  0.66285359242E-02  0.10206268733E+01  0.10203608081E+01 0.  0.
     999903    2    3    3    0    0 -0.96000874464E-01  0.90017421170E-01  0.36644399756E-02  0.13304025364E+00  0.19156642638E-01 0.  0.
         14    1    1    2    0    0  0.22328832847E-01 -0.72211439567E-03 -0.66285359242E-02  0.23303126700E-01  0.00000000000E+00 0. -1.
     999901    1    3    3    0    0  0.73672041618E-01 -0.89295306775E-01  0.29640959486E-02  0.88758661966E+00  0.88000000000E+00 0. -1.
        -11    1    4    4    0    0 -0.36882188937E-01  0.42334879106E-01  0.91443237893E-02  0.56889521252E-01  0.51100000000E-03 0.  1.
         11    1    4    4    0    0 -0.59118685527E-01  0.47682542065E-01 -0.54798838137E-02  0.76150732392E-01  0.51100000000E-03 0. -1.
</event>
<event>
 8    1  0.1233916E+005  0.1043930E+01  0.7957747E-01            NaN
         13   -1    0    0    0    0  0.00000000000E+00  0.00000000000E+00  0.74505805969E-08  0.10566000000E+00  0.10566000000E+00 0.  1.
     999900   -1    0    0    0    0 -0.00000000000E+00 -0.00000000000E+00 -0.74505805969E-08  0.93827000000E+00  0.93827000000E+00 0.  1.
     999902    2    1    2    0    0 -0.10749519253E-01  0.19702066915E-01  0.77225304201E-02  0.10201947713E+01  0.10199186293E+01 0.  0.
     999903    2    3    3    0    0  0.11593155202E+00  0.56065796074E-01 -0.25279890189E-02  0.13032091072E+00  0.19840635029E-01 0.  0.
         14    1    1    2    0    0  0.10749519253E-01 -0.19702066915E-01 -0.77225304201E-02  0.23735228691E-01  0.00000000000E+00 0. -1.
     999901    1    3    3    0    0 -0.12668107127E+00 -0.36363729159E-01  0.10250519439E-01  0.88987386059E+00  0.88000000000E+00 0.  1.
        -11    1    4    4    0    0  0.88414107760E-01  0.41311533358E-01 -0.10322863218E-01  0.98135212158E-01  0.51100000000E-03 0.  1.
         11    1    4    4    0    0  0.27517444260E-01  0.14754262717E-01  0.77948741987E-02  0.32185698559E-01  0.51100000000E-03 0. -1.
</event>
<event>
 8    1  0.1233916E+005  0.1043930E+01  0.7957747E-01            NaN
         13   -1    0    0    0    0  0.00000000000E+00  0.00000000000E+00  0.74505805969E-08  0.10566000000E+00  0.10566000000E+00 0. -1.
     999900   -1    0    0    0    0 -0.00000000000E+00 -0.00000000000E+00 -0.74505805969E-08  0.93827000000E+00  0.93827000000E+00 0.  1.
     999902    2    1    2    0    0  0.22314968299E-03 -0.19777875666E-01  0.11460704131E-01  0.10210703871E+01  0.10208144658E+01 0.  0.
     999903    2    3    3    0    0  0.10442269445E+00  0.74525777271E-01  0.45603379576E-02  0.12989232459E+00  0.19824951743E-01 0.  0.
         14    1    1    2    0    0 -0.22314968299E-03  0.19777875666E-01 -0.11460704131E-01  0.22859612876E-01  0.00000000000E+00 0.  1.
     999901    1    3    3    0    0 -0.10419954477E+00 -0.94303652937E-01  0.69003661736E-02  0.89117806253E+00  0.88000000000E+00 0.  1.
        -11    1    4    4    0    0  0.69520861837E-01  0.39677410302E-01 -0.23764046031E-02  0.80083428614E-01  0.51100000000E-03 0. -1.
         11    1    4    4    0    0  0.34901832612E-01  0.34848366969E-01  0.69367425607E-02  0.49808895977E-01  0.51100000000E-03 0.  1.
</event>
<event>
 8    1  0.1233916E+005  0.1043930E+01  0.7957747E-01            NaN
         13   -1    0    0    0    0  0.00000000000E+00  0.00000000000E+00  0.74505805969E-08  0.10566000000E+00  0.10566000000E+00 0. -1.
     999900   -1    0    0    0    0 -0.00000000000E+00 -0.00000000000E+00 -0.74505805969E-08  0.93827000000E+00  0.93827000000E+00 0. -1.
     999902    2    1    2    0    0  0.15997790262E-01 -0.42653699876E-02  0.23912586424E-01  0.10148450475E+01  0.10144281817E+01 0.  0.
     999903    2    3    3    0    0 -0.12014271845E+00 -0.19871323777E-01  0.13986471585E-01  0.12418444339E+00  0.19925167176E-01 0.  0.
         14    1    1    2    0    0 -0.15997790262E-01  0.42653699876E-02 -0.23912586424E-01  0.29084952534E-01  0.00000000000E+00 0.  1.
     999901    1    3    3    0    0  0.13614050871E+00  0.15605953789E-01  0.99261148387E-02  0.89066060408E+00  0.88000000000E+00 0.  1.
        -11    1    4    4    0    0 -0.87724466825E-01 -0.20154883667E-01  0.33972093744E-02  0.90075543672E-01  0.51100000000E-03 0.  1.
         11    1    4    4    0    0 -0.32418251623E-01  0.28355989033E-03  0.10589262211E-01  0.34108899714E-01  0.51100000000E-03 0. -1.
</event>
<event>
 8    1  0.1233916E+005  0.1043930E+01  0.7957747E-01            NaN
         13   -1    0    0    0    0  0.00000000000E+00  0.00000000000E+00  0.74505805969E-08  0.10566000000E+00  0.10566000000E+00 0. -1.
     999900   -1    0    0    0    0 -0.00000000000E+00 -0.00000000000E+00 -0.74505805969E-08  0.93827000000E+00  0.93827000000E+00 0. -1.
     999902    2    1    2    0    0  0.93107519817E-02  0.12016674549E-01 -0.18173892195E-01  0.10202365214E+01  0.10199613614E+01 0.  0.
     999903    2    3    3    0    0 -0.10607657595E+00  0.67119821336E-01  0.26651781022E-01  0.12986584961E+00  0.19937679970E-01 0.  0.
         14    1    1    2    0    0 -0.93107519817E-02 -0.12016674549E-01  0.18173892195E-01  0.23693478579E-01  0.00000000000E+00 0.  1.
     999901    1    3    3    0    0  0.11538732793E+00 -0.55103146787E-01 -0.44825673217E-01  0.89037067181E+00  0.88000000000E+00 0.  1.
        -11    1    4    4    0    0 -0.50993068534E-01  0.38870509628E-01  0.21977602311E-01  0.67782635546E-01  0.51100000000E-03 0. -1.
         11    1    4    4    0    0 -0.55083507418E-01  0.28249311708E-01  0.46741787114E-02  0.62083214069E-01  0.51100000000E-03 0.  1.
</event>
<event>
 8    1  0.1233916E+005  0.1043930E+01  0.7957747E-01            NaN
         13   -1    0    0    0    0  0.00000000000E+00  0.00000000000E+00  0.74505805969E-08  0.10566000000E+00  0.10566000000E+00 0.  1.
     999900   -1    0    0    0    0 -0.00000000000E+00 -0.00000000000E+00 -0.74505805969E-08  0.93827000000E+00  0.93827000000E+00 0.  1.
     999902    2    1    2    0    0  0.31475737008E-02  0.22988865069E-01  0.38823920968E-02  0.10204040971E+01  0.10201328606E+01 0.  0.
     999903    2    3    3    0    0 -0.38020905076E-02 -0.11179787121E+00 -0.58999875560E-01  0.12789642675E+00  0.19060187838E-01 0.  0.
         14    1    1    2    0    0 -0.31475737008E-02 -0.22988865069E-01 -0.38823920968E-02  0.23525902868E-01  0.00000000000E+00 0. -1.
     999901    1    3    3    0    0  0.69496642085E-02  0.13478673628E+00  0.62882267657E-01  0.89250767038E+00  0.88000000000E+00 0.  1.
        -11    1    4    4    0    0  0.47296728321E-02 -0.49563873381E-01 -0.33967511902E-01  0.60274375447E-01  0.51100000000E-03 0.  1.
         11    1    4    4    0    0 -0.85317633398E-02 -0.62233997825E-01 -0.25032363658E-01  0.67622051302E-01  0.51100000000E-03 0. -1.
</event>
<event>
 8    1  0.1233916E+005  0.1043930E+01  0.7957747E-01            NaN
         13   -1    0    0    0    0  0.00000000000E+00  0.00000000000E+00  0.74505805969E-08  0.10566000000E+00  0.10566000000E+00 0. -1.
     999900   -1    0    0    0    0 -0.00000000000E+00 -0.00000000000E+00 -0.74505805969E-08  0.93827000000E+00  0.93827000000E+00 0. -1.
     999902    2    1    2    0    0 -0.19595678214E-01  0.63237348845E-02 -0.11747933785E-01  0.10202235837E+01  0.10199481195E+01 0.  0.
     999903    2    3    3    0    0 -0.56888398394E-01 -0.95069521835E-02  0.11503708463E+00  0.13021470813E+00  0.19891389085E-01 0.  0.
         14    1    1    2    0    0  0.19595678214E-01 -0.63237348845E-02  0.11747933785E-01  0.23706416341E-01  0.00000000000E+00 0. -1.
     999901    1    3    3    0    0  0.37292720181E-01  0.15830687068E-01 -0.12678501842E+00  0.89000887553E+00  0.88000000000E+00 0. -1.
        -11    1    4    4    0    0 -0.34578191519E-01 -0.83652871395E-02  0.89322879281E-01  0.96148152565E-01  0.51100000000E-03 0. -1.
         11    1    4    4    0    0 -0.22310206875E-01 -0.11416650440E-02  0.25714205352E-01  0.34066555561E-01  0.51100000000E-03 0.  1.
</event>
<event>
 8    1  0.1233916E+005  0.1043930E+01  0.7957747E-01            NaN
         13   -1    0    0    0    0  0.00000000000E+00  0.00000000000E+00  0.74505805969E-08  0.10566000000E+00  0.10566000000E+00 0.  1.
     999900   -1    0    0    0    0 -0.00000000000E+00 -0.00000000000E+00 -0.74505805969E-08  0.93827000000E+00  0.93827000000E+00 0.  1.
     999902    2    1    2    0    0 -0.10091001998E-01  0.12034710117E-02 -0.20932139663E-01  0.10206613272E+01  0.10203960573E+01 0.  0.
     999903    2    3    3    0    0 -0.11358829016E+00 -0.44164861754E-01 -0.49270072071E-01  0.13298288727E+00  0.20101582753E-01 0.  0.
         14    1    1    2    0    0  0.10091001998E-01 -0.12034710117E-02  0.20932139663E-01  0.23268672817E-01  0.00000000000E+00 0.  1.
     999901    1    3    3    0    0  0.10349728816E+00  0.45368332766E-01  0.28337932408E-01  0.88767843991E+00  0.88000000000E+00 0. -1.
        -11    1    4    4    0    0 -0.70501631550E-01 -0.16828065814E-01 -0.29519159554E-01  0.78264332566E-01  0.51100000000E-03 0. -1.
         11    1    4    4    0    0 -0.43086658610E-01 -0.27336795941E-01 -0.19750912517E-01  0.54718554703E-01  0.51100000000E-03 0.  1.
</event>
<event>
 8    1  0.1233916E+005  0.1043930E+01  0.7957747E-01            NaN
         13   -1    0    0    0    0  0.00000000000E+00  0.00000000000E+00  0.74505805969E-08  0.10566000000E+00  0.10566000000E+00 0. -1.
     999900   -1    0    0    0    0 -0.00000000000E+00 -0.00000000000E+00 -0.74505805969E-08  0.93827000000E+00  0.93827000000E+00 0. -1.
     999902    2    1    2    0    0  0.18749881006E-01 -0.64496193897E-02  0.14071343861E-01  0.10196162519E+01  0.10193263181E+01 0.  0.
     999903    2    3    3    0    0 -0.92909722420E-02  0.70265775686E-01  0.10813709177E+00  0.13084186759E+00  0.20058970594E-01 0.  0.
         14    1    1    2    0    0 -0.18749881006E-01  0.64496193897E-02 -0.14071343861E-01  0.24313748087E-01  0.00000000000E+00 0. -1.
     999901    1    3    3    0    0  0.28040853248E-01 -0.76715395075E-01 -0.94065747908E-01  0.88877438432E+00  0.88000000000E+00 0. -1.
        -11    1    4    4    0    0 -0.25308940986E-02  0.15147804549E-01  0.40565296710E-01  0.43378172227E-01  0.51100000000E-03 0. -1.
         11    1    4    4    0    0 -0.67600781434E-02  0.55117971136E-01  0.67571795058E-01  0.87463695366E-01  0.51100000000E-03 0.  1.
</event>
<event>
 7    1  0.1233916E+005  0.1043930E+01  0.7957747E-01            NaN
         13   -1    0    0    0    0  0.00000000000E+00  0.00000000000E+00  0.74505805969E-08  0.10566000000E+00  0.10566000000E+00 0.  1.
     999900   -1    0    0    0    0 -0.00000000000E+00 -0.00000000000E+00 -0.74505805969E-08  0.93827000000E+00  0.93827000000E+00 0.  1.
     999903    2    1    2    0    0  0.85317539679E-01  0.36774987550E-01 -0.61923661751E-01  0.11456661924E+00  0.25680499882E-01 0.  0.
         14    1    1    2    0    0 -0.18206575544E-01 -0.37242027053E-01 -0.13484640232E-01  0.43592241216E-01  0.00000000000E+00 0. -1.
     999901    1    1    2    0    0 -0.67110964136E-01  0.46703950301E-03  0.75408301983E-01  0.88577113954E+00  0.88000000000E+00 0. -1.
        -11    1    3    3    0    0  0.48469973436E-01  0.85236748495E-02 -0.24771721196E-01  0.55098916957E-01  0.51100000000E-03 0.  1.
         11    1    3    3    0    0  0.36847566244E-01  0.28251312700E-01 -0.37151940555E-01  0.59467702288E-01  0.51100000000E-03 0. -1.
</event>
<event>
 8    1  0.1233916E+005  0.1043930E+01  0.7957747E-01            NaN
         13   -1    0    0    0    0  0.00000000000E+00  0.00000000000E+00  0.74505805969E-08  0.10566000000E+00  0.10566000000E+00 0. -1.
     999900   -1    0    0    0    0 -0.00000000000E+00 -0.00000000000E+00 -0.74505805969E-08  0.93827000000E+00  0.93827000000E+00 0. -1.
     999902    2    1    2    0    0 -0.17432664142E-01 -0.50111141362E-02 -0.15444088935E-01  0.10201071344E+01  0.10198289252E+01 0.  0.
     999903    2    3    3    0    0  0.23543376319E-02  0.21378939497E-01  0.12500960819E+00  0.12835873857E+00  0.19645907175E-01 0.  0.
         14    1    1    2    0    0  0.17432664142E-01  0.50111141362E-02  0.15444088935E-01  0.23822865634E-01  0.00000000000E+00 0. -1.
     999901    1    3    3    0    0 -0.19787001774E-01 -0.26390053633E-01 -0.14045369712E+00  0.89174839580E+00  0.88000000000E+00 0. -1.
        -11    1    4    4    0    0 -0.73975683965E-02  0.16199560986E-01  0.68558593760E-01  0.70835666819E-01  0.51100000000E-03 0. -1.
         11    1    4    4    0    0  0.97519060285E-02  0.51793785111E-02  0.56451014426E-01  0.57523071751E-01  0.51100000000E-03 0.  1.
</event>
<event>
 8    1  0.1233916E+005  0.1043930E+01  0.7957747E-01            NaN
         13   -1    0    0    0    0  0.00000000000E+00  0.00000000000E+00  0.74505805969E-08  0.10566000000E+00  0.10566000000E+00 0. -1.
     999900   -1    0    0    0    0 -0.00000000000E+00 -0.00000000000E+00 -0.74505805969E-08  0.93827000000E+00  0.93827000000E+00 0. -1.
     999902    2    1    2    0    0  0.16789704908E-01  0.17133575061E-01  0.87428253000E-03  0.10199254597E+01  0.10196429401E+01 0.  0.
     999903    2    3    3    0    0  0.18736453037E-01  0.70539723364E-01  0.10782907253E+00  0.13184025342E+00  0.20684204005E-01 0.  0.
         14    1    1    2    0    0 -0.16789704908E-01 -0.17133575061E-01 -0.87428253000E-03  0.24004540304E-01  0.00000000000E+00 0.  1.
     999901    1    3    3    0    0 -0.19467481280E-02 -0.53406148303E-01 -0.10695479000E+00  0.88808520628E+00  0.88000000000E+00 0. -1.
        -11    1    4    4    0    0  0.14186046870E-01  0.18967060301E-01  0.27827529241E-01  0.36546214673E-01  0.51100000000E-03 0.  1.
         11    1    4    4    0    0  0.45504061664E-02  0.51572663062E-01  0.80001543284E-01  0.95294038746E-01  0.51100000000E-03 0. -1.
</event>
<event>
 8    1  0.1233916E+005  0.1043930E+01  0.7957747E-01            NaN
         13   -1    0    0    0    0  0.00000000000E+00  0.00000000000E+00  0.74505805969E-08  0.10566000000E+00  0.10566000000E+00 0. -1.
     999900   -1    0    0    0    0 -0.00000000000E+00 -0.00000000000E+00 -0.74505805969E-08  0.93827000000E+00  0.93827000000E+00 0.  1.
     999902    2    1    2    0    0 -0.17352171175E-01  0.51026155914E-02  0.15744128593E-01  0.10199505898E+01  0.10196686685E+01 0.  0.
     999903    2    3    3    0    0 -0.33797888475E-01 -0.59917981053E-01 -0.10711472306E+00  0.12888805714E+00  0.20152063402E-01 0.  0.
         14    1    1    2    0    0  0.17352171175E-01 -0.51026155914E-02 -0.15744128593E-01  0.23979410241E-01  0.00000000000E+00 0. -1.
     999901    1    3    3    0    0  0.16445717300E-01  0.65020596644E-01  0.12285885165E+00  0.89106253262E+00  0.88000000000E+00 0. -1.
        -11    1    4    4    0    0 -0.10807435390E-01 -0.21429039267E-01 -0.21418680586E-01  0.32171810373E-01  0.51100000000E-03 0.  1.
         11    1    4    4    0    0 -0.22990453084E-01 -0.38488941786E-01 -0.85696042471E-01  0.96716246769E-01  0.51100000000E-03 0. -1.
</event>
<event>
 8    1  0.1233916E+005  0.1043930E+01  0.7957747E-01            NaN
         13   -1    0    0    0    0  0.00000000000E+00  0.00000000000E+00  0.74505805969E-08  0.10566000000E+00  0.10566000000E+00 0.  1.
     999900   -1    0    0    0    0 -0.00000000000E+00 -0.00000000000E+00 -0.74505805969E-08  0.93827000000E+00  0.93827000000E+00 0.  1.
     999902    2    1    2    0    0 -0.19007134788E-01 -0.67350171439E-02 -0.11419649701E-01  0.10207558759E+01  0.10204927820E+01 0.  0.
     999903    2    3    3    0    0  0.24057541931E-01  0.10520650924E+00  0.68668733672E-01  0.12901621609E+00  0.16811130869E-01 0.  0.
         14    1    1    2    0    0  0.19007134788E-01  0.67350171439E-02  0.11419649701E-01  0.23174124106E-01  0.00000000000E+00 0. -1.
     999901    1    3    3    0    0 -0.43064676719E-01 -0.11194152638E+00 -0.80088383373E-01  0.89173965980E+00  0.88000000000E+00 0. -1.
        -11    1    4    4    0    0  0.76225348479E-02  0.44494185857E-01  0.38139328134E-01  0.59099112380E-01  0.51100000000E-03 0.  1.
         11    1    4    4    0    0  0.16435007083E-01  0.60712323382E-01  0.30529405538E-01  0.69917103714E-01  0.51100000000E-03 0. -1.
</event>
<event>
 8    1  0.1233916E+005  0.1043930E+01  0.7957747E-01            NaN
         13   -1    0    0    0    0  0.00000000000E+00  0.00000000000E+00  0.74505805969E-08  0.10566000000E+00  0.10566000000E+00 0. -1.
     999900   -1    0    0    0    0 -0.00000000000E+00 -0.00000000000E+00 -0.74505805969E-08  0.93827000000E+00  0.93827000000E+00 0.  1.
     999902    2    1    2    0    0  0.17755785381E-02 -0.20893520501E-01 -0.91248555450E-02  0.10210617935E+01  0.10208056776E+01 0.  0.
     999903    2    3    3    0    0 -0.62995991746E-01 -0.11190645968E+00  0.28871352696E-01  0.13318656398E+00  0.20336054806E-01 0.  0.
         14    1    1    2    0    0 -0.17755785381E-02  0.20893520501E-01  0.91248555450E-02  0.22868206462E-01  0.00000000000E+00 0. -1.
     999901    1    3    3    0    0  0.64771570284E-01  0.91012939180E-01 -0.37996208241E-01  0.88787522955E+00  0.88000000000E+00 0.  1.
        -11    1    4    4    0    0 -0.30613229772E-01 -0.73938343226E-01  0.15395106919E-01  0.81494287371E-01  0.51100000000E-03 0.  1.
         11    1    4    4    0    0 -0.32382761974E-01 -0.37968116454E-01  0.13476245777E-01  0.51692276613E-01  0.51100000000E-03 0. -1.
</event>
<event>
 8    1  0.1233916E+005  0.1043930E+01  0.7957747E-01            NaN
         13   -1    0    0    0    0  0.00000000000E+00  0.00000000000E+00  0.74505805969E-08  0.10566000000E+00  0.10566000000E+00 0. -1.
     999900   -1    0    0    0    0 -0.00000000000E+00 -0.00000000000E+00 -0.74505805969E-08  0.93827000000E+00  0.93827000000E+00 0.  1.
     999902    2    1    2    0    0 -0.35780086220E-02  0.12761776899E-01 -0.22149597582E-01  0.10181177981E+01  0.10177905389E+01 0.  0.
     999903    2    3    3    0    0 -0.63337452256E-01 -0.25053465520E-01 -0.10965992824E+00  0.13095420457E+00  0.22008971805E-01 0.  0.
         14    1    1    2    0    0  0.35780086220E-02 -0.12761776899E-01  0.22149597582E-01  0.25812201927E-01  0.00000000000E+00 0.  1.
     999901    1    3    3    0    0  0.59759443634E-01  0.37815242419E-01  0.87510330660E-01  0.88716359350E+00  0.88000000000E+00 0.  1.
        -11    1    4    4    0    0 -0.15368468584E-01 -0.70858863862E-02 -0.12256502870E-01  0.20901736677E-01  0.51100000000E-03 0. -1.
         11    1    4    4    0    0 -0.47968983672E-01 -0.17967579134E-01 -0.97403425372E-01  0.11005246789E+00  0.51100000000E-03 0.  1.
</event>
<event>
 8    1  0.1233916E+005  0.1043930E+01  0.7957747E-01            NaN
         13   -1    0    0    0    0  0.00000000000E+00  0.00000000000E+00  0.74505805969E-08  0.10566000000E+00  0.10566000000E+00 0. -1.
     999900   -1    0    0    0    0 -0.00000000000E+00 -0.00000000000E+00 -0.74505805969E-08  0.93827000000E+00  0.93827000000E+00 0.  1.
     999902    2    1    2    0    0  0.16721032807E-01  0.16729286903E-02 -0.17211816780E-01  0.10198750989E+01  0.10195913785E+01 0.  0.
     999903    2    3    3    0    0  0.12667243457E+00  0.80530413995E-02 -0.34231498982E-01  0.13284652771E+00  0.19121904849E-01 0.  0.
         14    1    1    2    0    0 -0.16721032807E-01 -0.16729286903E-02  0.17211816780E-01  0.24054901068E-01  0.00000000000E+00 0. -1.
     999901    1    3    3    0    0 -0.10995140176E+00 -0.63801127092E-02  0.17019682202E-01  0.88702857123E+00  0.88000000000E+00 0. -1.
        -11    1    4    4    0    0  0.11083490193E-01  0.96906374157E-03 -0.90082568666E-02  0.14324547189E-01  0.51100000000E-03 0.  1.
         11    1    4    4    0    0  0.11558894438E+00  0.70839776579E-02 -0.25223242116E-01  0.11852198052E+00  0.51100000000E-03 0. -1.
</event>
<event>
 8    1  0.1233916E+005  0.1043930E+01  0.7957747E-01            NaN
         13   -1    0    0    0    0  0.00000000000E+00  0.00000000000E+00  0.74505805969E-08  0.10566000000E+00  0.10566000000E+00 0.  1.
     999900   -1    0    0    0    0 -0.00000000000E+00 -0.00000000000E+00 -0.74505805969E-08  0.93827000000E+00  0.93827000000E+00 0. -1.
     999902    2    1    2    0    0  0.19616736010E-01  0.12635944241E-01 -0.43106989296E-02  0.10202009978E+01  0.10199250024E+01 0.  0.
     999903    2    3    3    0    0  0.59381275989E-01  0.86369050486E-02  0.11500270158E+00  0.13125055012E+00  0.20008834754E-01 0.  0.
         14    1    1    2    0    0 -0.19616736010E-01 -0.12635944241E-01  0.43106989296E-02  0.23729002167E-01  0.00000000000E+00 0.  1.
     999901    1    3    3    0    0 -0.39764539979E-01  0.39990391922E-02 -0.11931340051E+00  0.88895044772E+00  0.88000000000E+00 0. -1.
        -11    1    4    4    0    0  0.11666807638E-01  0.97887460358E-02  0.22756855459E-01  0.27387397481E-01  0.51100000000E-03 0. -1.
         11    1    4    4    0    0  0.47714468351E-01 -0.11518409872E-02  0.92245846122E-01  0.10386315264E+00  0.51100000000E-03 0.  1.
</event>
<event>
 7    1  0.1233916E+005  0.1043930E+01  0.7957747E-01            NaN
         13   -1    0    0    0    0  0.00000000000E+00  0.00000000000E+00  0.74505805969E-08  0.10566000000E+00  0.10566000000E+00 0.  1.
     999900   -1    0    0    0    0 -0.00000000000E+00 -0.00000000000E+00 -0.74505805969E-08  0.93827000000E+00  0.93827000000E+00 0. -1.
     999903    2    1    2    0    0 -0.93712900519E-01  0.29633616924E-01 -0.35307057642E-01  0.10634559673E+00  0.20063365841E-01 0.  0.
         14    1    1    2    0    0 -0.12693137058E-01  0.21549785533E-01  0.42908792545E-01  0.49665616503E-01  0.00000000000E+00 0.  1.
     999901    1    1    2    0    0  0.10640603758E+00 -0.51183402457E-01 -0.76017349030E-02  0.88791878677E+00  0.88000000000E+00 0.  1.
        -11    1    3    3    0    0 -0.21288454638E-01  0.73075877884E-02 -0.17441178716E-01  0.28479026952E-01  0.51100000000E-03 0.  1.
         11    1    3    3    0    0 -0.72424445882E-01  0.22326029136E-01 -0.17865878927E-01  0.77866569778E-01  0.51100000000E-03 0. -1.
</event>
<event>
 8    1  0.1233916E+005  0.1043930E+01  0.7957747E-01            NaN
         13   -1    0    0    0    0  0.00000000000E+00  0.00000000000E+00  0.74505805969E-08  0.10566000000E+00  0.10566000000E+00 0. -1.
     999900   -1    0    0    0    0 -0.00000000000E+00 -0.00000000000E+00 -0.74505805969E-08  0.93827000000E+00  0.93827000000E+00 0. -1.
     999902    2    1    2    0    0 -0.19625564260E-01 -0.60247245756E-03 -0.12191110315E-01  0.10208183381E+01  0.10205566768E+01 0.  0.
     999903    2    3    3    0    0 -0.80388072406E-01 -0.59675784811E-01  0.83119540829E-01  0.13162440038E+00  0.19816236547E-01 0.  0.
         14    1    1    2    0    0  0.19625564260E-01  0.60247245756E-03  0.12191110315E-01  0.23111661911E-01  0.00000000000E+00 0. -1.
     999901    1    3    3    0    0  0.60762508146E-01  0.59073312354E-01 -0.95310651144E-01  0.88919393770E+00  0.88000000000E+00 0. -1.
        -11    1    4    4    0    0 -0.56818595451E-01 -0.41943746090E-01  0.69662791481E-01  0.99200787613E-01  0.51100000000E-03 0. -1.
         11    1    4    4    0    0 -0.23569476955E-01 -0.17732038721E-01  0.13456749349E-01  0.32423612772E-01  0.51100000000E-03 0.  1.
</event>
<event>
 8    1  0.1233916E+005  0.1043930E+01  0.7957747E-01            NaN
         13   -1    0    0    0    0  0.00000000000E+00  0.00000000000E+00  0.74505805969E-08  0.10566000000E+00  0.10566000000E+00 0.  1.
     999900   -1    0    0    0    0 -0.00000000000E+00 -0.00000000000E+00 -0.74505805969E-08  0.93827000000E+00  0.93827000000E+00 0. -1.
     999902    2    1    2    0    0 -0.15529453832E-01 -0.81338965761E-02  0.38930570639E-02  0.10259722690E+01  0.10258150987E+01 0.  0.
     999903    2    3    3    0    0 -0.41929679433E-01  0.72686449374E-01  0.10578507340E+00  0.13602233600E+00  0.16437037366E-01 0.  0.
         14    1    1    2    0    0  0.15529453832E-01  0.81338965761E-02 -0.38930570639E-02  0.17957731013E-01  0.00000000000E+00 0.  1.
     999901    1    3    3    0    0  0.26400225602E-01 -0.80820345950E-01 -0.10189201633E+00  0.88994993299E+00  0.88000000000E+00 0. -1.
        -11    1    4    4    0    0 -0.17598633972E-01  0.46594353295E-01  0.63015180700E-01  0.80323843261E-01  0.51100000000E-03 0.  1.
         11    1    4    4    0    0 -0.24331045462E-01  0.26092096080E-01  0.42769892697E-01  0.55698492739E-01  0.51100000000E-03 0. -1.
</event>
<event>
 8    1  0.1233916E+005  0.1043930E+01  0.7957747E-01            NaN
         13   -1    0    0    0    0  0.00000000000E+00  0.00000000000E+00  0.74505805969E-08  0.10566000000E+00  0.10566000000E+00 0. -1.
     999900   -1    0    0    0    0 -0.00000000000E+00 -0.00000000000E+00 -0.74505805969E-08  0.93827000000E+00  0.93827000000E+00 0.  1.
     999902    2    1    2    0    0 -0.62571470395E-03 -0.20922209342E-01 -0.10481746698E-01  0.10205206562E+01  0.10202521318E+01 0.  0.
     999903    2    3    3    0    0  0.55673179286E-01  0.82097200929E-01  0.78698654978E-01  0.12825628485E+00  0.20414284630E-01 0.  0.
         14    1    1    2    0    0  0.62571470395E-03  0.20922209342E-01  0.10481746698E-01  0.23409343786E-01  0.00000000000E+00 0. -1.
     999901    1    3    3    0    0 -0.56298893990E-01 -0.10301941027E+00 -0.89180401676E-01  0.89226437136E+00  0.88000000000E+00 0.  1.
        -11    1    4    4    0    0  0.50435763115E-01  0.59486891032E-01  0.62573228370E-01  0.99990631738E-01  0.51100000000E-03 0.  1.
         11    1    4    4    0    0  0.52374161704E-02  0.22610309897E-01  0.16125426608E-01  0.28265653116E-01  0.51100000000E-03 0. -1.
</event>
<event>
 8    1  0.1233916E+005  0.1043930E+01  0.7957747E-01            NaN
         13   -1    0    0    0    0  0.00000000000E+00  0.00000000000E+00  0.74505805969E-08  0.10566000000E+00  0.10566000000E+00 0.  1.
     999900   -1    0    0    0    0 -0.00000000000E+00 -0.00000000000E+00 -0.74505805969E-08  0.93827000000E+00  0.93827000000E+00 0.  1.
     999902    2    1    2    0    0  0.15645439018E-01  0.44958555170E-02 -0.14758662607E-01  0.10219570484E+01  0.10217208025E+01 0.  0.
     999903    2    3    3    0    0  0.10716050895E+00  0.50046295952E-01  0.57911511890E-01  0.13306402623E+00  0.19086263424E-01 0.  0.
         14    1    1    2    0    0 -0.15645439018E-01 -0.44958555170E-02  0.14758662607E-01  0.21972951573E-01  0.00000000000E+00 0.  1.
     999901    1    3    3    0    0 -0.91515069927E-01 -0.45550440435E-01 -0.72670174497E-01  0.88889302220E+00  0.88000000000E+00 0.  1.
        -11    1    4    4    0    0  0.64953354593E-01  0.27770068705E-01  0.44490496716E-01  0.83485210713E-01  0.51100000000E-03 0.  1.
         11    1    4    4    0    0  0.42207154352E-01  0.22276227247E-01  0.13421015175E-01  0.49578815518E-01  0.51100000000E-03 0. -1.
</event>
<event>
 8    1  0.1233916E+005  0.1043930E+01  0.7957747E-01            NaN
         13   -1    0    0    0    0  0.00000000000E+00  0.00000000000E+00  0.74505805969E-08  0.10566000000E+00  0.10566000000E+00 0.  1.
     999900   -1    0    0    0    0 -0.00000000000E+00 -0.00000000000E+00 -0.74505805969E-08  0.93827000000E+00  0.93827000000E+00 0.  1.
     999902    2    1    2    0    0  0.22447970897E-01 -0.38335649221E-02  0.66764537470E-02  0.10201985303E+01  0.10199224768E+01 0.  0.
     999903    2    3    3    0    0 -0.11049787825E+00 -0.39185292359E-01 -0.47964066065E-01  0.12783653550E+00  0.17215107872E-01 0.  0.
         14    1    1    2    0    0 -0.22447970897E-01  0.38335649221E-02 -0.66764537470E-02  0.23731469656E-01  0.00000000000E+00 0.  1.
     999901    1    3    3    0    0  0.13294584915E+00  0.35351727437E-01  0.54640519812E-01  0.89236199485E+00  0.88000000000E+00 0. -1.
        -11    1    4    4    0    0 -0.76039265297E-01 -0.18428588980E-01 -0.30439758665E-01  0.83954885428E-01  0.51100000000E-03 0.  1.
         11    1    4    4    0    0 -0.34458612956E-01 -0.20756703379E-01 -0.17524307400E-01  0.43881650070E-01  0.51100000000E-03 0. -1.
</event>
<event>
 8    1  0.1233916E+005  0.1043930E+01  0.7957747E-01            NaN
         13   -1    0    0    0    0  0.00000000000E+00  0.00000000000E+00  0.74505805969E-08  0.10566000000E+00  0.10566000000E+00 0.  1.
     999900   -1    0    0    0    0 -0.00000000000E+00 -0.00000000000E+00 -0.74505805969E-08  0.93827000000E+00  0.93827000000E+00 0.  1.
     999902    2    1    2    0    0  0.17355681534E-01 -0.12932306459E-01  0.86186694355E-02  0.10206330969E+01  0.10203671755E+01 0.  0.
     999903    2    3    3    0    0  0.27722951461E-01  0.12088381747E+00 -0.31606555846E-01  0.12954819405E+00  0.20057438665E-01 0.  0.
         14    1    1    2    0    0 -0.17355681534E-01  0.12932306459E-01 -0.86186694355E-02  0.23296903114E-01  0.00000000000E+00 0. -1.
     999901    1    3    3    0    0 -0.10367269927E-01 -0.13381612393E+00  0.40225225281E-01  0.89108490283E+00  0.88000000000E+00 0. -1.
        -11    1    4    4    0    0  0.21234791137E-01  0.49682127555E-01 -0.11016146164E-01  0.55143873190E-01  0.51100000000E-03 0. -1.
         11    1    4    4    0    0  0.64881603249E-02  0.71201689915E-01 -0.20590409682E-01  0.74404320862E-01  0.51100000000E-03 0.  1.
</event>
<event>
 8    1  0.1233916E+005  0.1043930E+01  0.7957747E-01            NaN
         13   -1    0    0    0    0  0.00000000000E+00  0.00000000000E+00  0.74505805969E-08  0.10566000000E+00  0.10566000000E+00 0. -1.
     999900   -1    0    0    0    0 -0.00000000000E+00 -0.00000000000E+00 -0.74505805969E-08  0.93827000000E+00  0.93827000000E+00 0.  1.
     999902    2    1    2    0    0  0.43931260794E-02  0.56340221839E-02  0.23231844838E-01  0.10196244373E+01  0.10193347011E+01 0.  0.
     999903    2    3    3    0    0 -0.15962136269E-01  0.12800163788E+00 -0.11701816341E-02  0.13058921362E+00  0.20321522931E-01 0.  0.
         14    1    1    2    0    0 -0.43931260794E-02 -0.56340221839E-02 -0.23231844838E-01  0.24305562682E-01  0.00000000000E+00 0.  1.
     999901    1    3    3    0    0  0.20355262349E-01 -0.12236761570E+00  0.24402026473E-01  0.88903522370E+00  0.88000000000E+00 0. -1.
        -11    1    4    4    0    0 -0.13987160904E-01  0.94825568897E-01  0.77752543367E-02  0.96167795482E-01  0.51100000000E-03 0.  1.
         11    1    4    4    0    0 -0.19749753658E-02  0.33176068986E-01 -0.89454359708E-02  0.34421418140E-01  0.51100000000E-03 0. -1.
</event>
<event>
 8    1  0.1233916E+005  0.1043930E+01  0.7957747E-01            NaN
         13   -1    0    0    0    0  0.00000000000E+00  0.00000000000E+00  0.74505805969E-08  0.10566000000E+00  0.10566000000E+00 0. -1.
     999900   -1    0    0    0    0 -0.00000000000E+00 -0.00000000000E+00 -0.74505805969E-08  0.93827000000E+00  0.93827000000E+00 0. -1.
     999902    2    1    2    0    0  0.92417387234E-02  0.92189472150E-02 -0.20309618965E-01  0.10197871057E+01  0.10195012808E+01 0.  0.
     999903    2    3    3    0    0  0.12604745816E+00 -0.56385479906E-02  0.27243908555E-01  0.13067200672E+00  0.20327022807E-01 0.  0.
         14    1    1    2    0    0 -0.92417387234E-02 -0.92189472150E-02  0.20309618965E-01  0.24142894294E-01  0.00000000000E+00 0. -1.
     999901    1    3    3    0    0 -0.11680571944E+00  0.14857495206E-01 -0.47553527520E-01  0.88911509898E+00  0.88000000000E+00 0. -1.
        -11    1    4    4    0    0  0.24182235170E-01  0.48093931596E-02 -0.18264743600E-03  0.24661817481E-01  0.51100000000E-03 0.  1.
         11    1    4    4    0    0  0.10186522299E+00 -0.10447941150E-01  0.27426555991E-01  0.10601018924E+00  0.51100000000E-03 0. -1.
</event>
<event>
 8    1  0.1233916E+005  0.1043930E+01  0.7957747E-01            NaN
         13   -1    0    0    0    0  0.00000000000E+00  0.00000000000E+00  0.74505805969E-08  0.10566000000E+00  0.10566000000E+00 0. -1.
     999900   -1    0    0    0    0 -0.00000000000E+00 -0.00000000000E+00 -0.74505805969E-08  0.93827000000E+00  0.93827000000E+00 0. -1.
     999902    2    1    2    0    0  0.18654822217E-01 -0.99172813978E-02  0.98409062103E-02  0.10206233851E+01  0.10203572394E+01 0.  0.
     999903    2    3    3    0    0 -0.12169869769E+00  0.27065840468E-01 -0.22652850809E-01  0.12814217742E+00  0.19082275673E-01 0.  0.
         14    1    1    2    0    0 -0.18654822217E-01  0.99172813978E-02 -0.98409062103E-02  0.23306614883E-01  0.00000000000E+00 0. -1.
     999901    1    3    3    0    0  0.14035351990E+00 -0.36983121865E-01  0.32493757019E-01  0.89248120770E+00  0.88000000000E+00 0.  1.
        -11    1    4    4    0    0 -0.58440401370E-01  0.19757035950E-01 -0.41681494127E-02  0.61832479914E-01  0.51100000000E-03 0. -1.
         11    1    4    4    0    0 -0.63258296316E-01  0.73088045178E-02 -0.18484701396E-01  0.66309697503E-01  0.51100000000E-03 0.  1.
</event>
<event>
 8    1  0.1233916E+005  0.1043930E+01  0.7957747E-01            NaN
         13   -1    0    0    0    0  0.00000000000E+00  0.00000000000E+00  0.74505805969E-08  0.10566000000E+00  0.10566000000E+00 0.  1.
     999900   -1    0    0    0    0 -0.00000000000E+00 -0.00000000000E+00 -0.74505805969E-08  0.93827000000E+00  0.93827000000E+00 0. -1.
     999902    2    1    2    0    0 -0.28053181580E-02 -0.18905952299E-01  0.14253596155E-01  0.10200873943E+01  0.10198087184E+01 0.  0.
     999903    2    3    3    0    0  0.64696467159E-01  0.61020118115E-01 -0.89708147196E-01  0.12781349476E+00  0.19484611673E-01 0.  0.
         14    1    1    2    0    0  0.28053181580E-02  0.18905952299E-01 -0.14253596155E-01  0.23842605680E-01  0.00000000000E+00 0. -1.
     999901    1    3    3    0    0 -0.67501785317E-01 -0.79926070414E-01  0.10396174335E+00  0.89227389956E+00  0.88000000000E+00 0.  1.
        -11    1    4    4    0    0  0.13745832563E-01  0.42470380515E-02 -0.10312133222E-01  0.17708372530E-01  0.51100000000E-03 0.  1.
         11    1    4    4    0    0  0.50950634596E-01  0.56773080064E-01 -0.79396013974E-01  0.11010512223E+00  0.51100000000E-03 0. -1.
</event>
<event>
 8    1  0.1233916E+005  0.1043930E+01  0.7957747E-01            NaN
         13   -1    0    0    0    0  0.00000000000E+00  0.00000000000E+00  0.74505805969E-08  0.10566000000E+00  0.10566000000E+00 0.  1.
     999900   -1    0    0    0    0 -0.00000000000E+00 -0.00000000000E+00 -0.74505805969E-08  0.93827000000E+00  0.93827000000E+00 0. -1.
     999902    2    1    2    0    0 -0.16118932077E-01  0.17814277726E-01  0.57174503001E-02  0.10192347029E+01  0.10189354846E+01 0.  0.
     999903    2    3    3    0    0 -0.12683964693E+00  0.26648148769E-01  0.16815077183E-01  0.13218325493E+00  0.19779944352E-01 0.  0.
         14    1    1    2    0    0  0.16118932077E-01 -0.17814277726E-01 -0.57174503001E-02  0.24695297126E-01  0.00000000000E+00 0. -1.
     999901    1    3    3    0    0  0.11072071485E+00 -0.88338710430E-02 -0.11097626883E-01  0.88705144794E+00  0.88000000000E+00 0.  1.
        -11    1    4    4    0    0 -0.84696570002E-01  0.26218060303E-01  0.15546253745E-01  0.90015791851E-01  0.51100000000E-03 0.  1.
         11    1    4    4    0    0 -0.42143076924E-01  0.43008846603E-03  0.12688234379E-02  0.42167463080E-01  0.51100000000E-03 0. -1.
</event>
<event>
 8    1  0.1233916E+005  0.1043930E+01  0.7957747E-01            NaN
         13   -1    0    0    0    0  0.00000000000E+00  0.00000000000E+00  0.74505805969E-08  0.10566000000E+00  0.10566000000E+00 0. -1.
     999900   -1    0    0    0    0 -0.00000000000E+00 -0.00000000000E+00 -0.74505805969E-08  0.93827000000E+00  0.93827000000E+00 0. -1.
     999902    2    1    2    0    0  0.69421037726E-02 -0.82462628893E-02  0.20948280578E-01  0.10203710502E+01  0.10200990422E+01 0.  0.
     999903    2    3    3    0    0  0.19386520153E-01 -0.12728046306E+00 -0.18018784577E-01  0.13141523776E+00  0.19212877875E-01 0.  0.
         14    1    1    2    0    0 -0.69421037726E-02  0.82462628893E-02 -0.20948280578E-01  0.23558949799E-01  0.00000000000E+00 0.  1.
     999901    1    3    3    0    0 -0.12444416381E-01  0.11903420017E+00  0.38967065155E-01  0.88895581244E+00  0.88000000000E+00 0. -1.
        -11    1    4    4    0    0  0.17269459130E-01 -0.12403737298E+00 -0.14346908386E-01  0.12605395280E+00  0.51100000000E-03 0.  1.
         11    1    4    4    0    0  0.21170610229E-02 -0.32430900786E-02 -0.36718761908E-02  0.53612849573E-02  0.51100000000E-03 0. -1.
</event>
<event>
 8    1  0.1233916E+005  0.1043930E+01  0.7957747E-01            NaN
         13   -1    0    0    0    0  0.00000000000E+00  0.00000000000E+00  0.74505805969E-08  0.10566000000E+00  0.10566000000E+00 0. -1.
     999900   -1    0    0    0    0 -0.00000000000E+00 -0.00000000000E+00 -0.74505805969E-08  0.93827000000E+00  0.93827000000E+00 0. -1.
     999902    2    1    2    0    0  0.17954144754E-01 -0.14921514099E-01  0.23011426814E-02  0.10204715654E+01  0.10202019004E+01 0.  0.
     999903    2    3    3    0    0  0.72449907838E-01 -0.40967035716E-01  0.10161000166E+00  0.13282838997E+00  0.19786398935E-01 0.  0.
         14    1    1    2    0    0 -0.17954144754E-01  0.14921514099E-01 -0.23011426814E-02  0.23458434613E-01  0.00000000000E+00 0. -1.
     999901    1    3    3    0    0 -0.54495763083E-01  0.26045521617E-01 -0.99308858984E-01  0.88764317542E+00  0.88000000000E+00 0. -1.
        -11    1    4    4    0    0  0.53209408222E-01 -0.34119867041E-01  0.87728873861E-01  0.10812965773E+00  0.51100000000E-03 0. -1.
         11    1    4    4    0    0  0.19240499616E-01 -0.68471686751E-02  0.13881127804E-01  0.24698732244E-01  0.51100000000E-03 0.  1.
</event>
<event>
 8    1  0.1233916E+005  0.1043930E+01  0.7957747E-01            NaN
         13   -1    0    0    0    0  0.00000000000E+00  0.00000000000E+00  0.74505805969E-08  0.10566000000E+00  0.10566000000E+00 0. -1.
     999900   -1    0    0    0    0 -0.00000000000E+00 -0.00000000000E+00 -0.74505805969E-08  0.93827000000E+00  0.93827000000E+00 0.  1.
     999902    2    1    2    0    0 -0.22129138208E-01 -0.52435370393E-02 -0.33592491742E-02  0.10209413508E+01  0.10206824990E+01 0.  0.
     999903    2    3    3    0    0  0.31443598821E-01  0.12162848641E+00 -0.25297246160E-01  0.12995996813E+00  0.21620685489E-01 0.  0.
         14    1    1    2    0    0  0.22129138208E-01  0.52435370393E-02  0.33592491742E-02  0.22988649233E-01  0.00000000000E+00 0.  1.
     999901    1    3    3    0    0 -0.53572737029E-01 -0.12687202345E+00  0.21937996986E-01  0.89098138263E+00  0.88000000000E+00 0.  1.
        -11    1    4    4    0    0  0.16010112969E-01  0.26780022487E-01 -0.33157392351E-02  0.31380703774E-01  0.51100000000E-03 0.  1.
         11    1    4    4    0    0  0.15433485851E-01  0.94848463923E-01 -0.21981506925E-01  0.98579264360E-01  0.51100000000E-03 0. -1.
</event>
<event>
 8    1  0.1233916E+005  0.1043930E+01  0.7957747E-01            NaN
         13   -1    0    0    0    0  0.00000000000E+00  0.00000000000E+00  0.74505805969E-08  0.10566000000E+00  0.10566000000E+00 0.  1.
     999900   -1    0    0    0    0 -0.00000000000E+00 -0.00000000000E+00 -0.74505805969E-08  0.93827000000E+00  0.93827000000E+00 0.  1.
     999902    2    1    2    0    0 -0.23986006114E-01  0.45663409658E-02 -0.10052948712E-02  0.10194925170E+01  0.10191995887E+01 0.  0.
     999903    2    3    3    0    0  0.12080711644E+00 -0.13550808146E-01  0.30660739333E-01  0.12691421948E+00  0.19726996378E-01 0.  0.
         14    1    1    2    0    0  0.23986006114E-01 -0.45663409658E-02  0.10052948712E-02  0.24437483031E-01  0.00000000000E+00 0. -1.
     999901    1    3    3    0    0 -0.14479312255E+00  0.18117149112E-01 -0.31666034204E-01  0.89257829749E+00  0.88000000000E+00 0.  1.
        -11    1    4    4    0    0  0.38523765957E-01 -0.11481490547E-01  0.16198832297E-01  0.43342455601E-01  0.51100000000E-03 0.  1.
         11    1    4    4    0    0  0.82283350479E-01 -0.20693175991E-02  0.14461907036E-01  0.83571763877E-01  0.51100000000E-03 0. -1.
</event>
<event>
 8    1  0.1233916E+005  0.1043930E+01  0.7957747E-01            NaN
         13   -1    0    0    0    0  0.00000000000E+00  0.00000000000E+00  0.74505805969E-08  0.10566000000E+00  0.10566000000E+00 0. -1.
     999900   -1    0    0    0    0 -0.00000000000E+00 -0.00000000000E+00 -0.74505805969E-08  0.93827000000E+00  0.93827000000E+00 0. -1.
     999902    2    1    2    0    0 -0.49232807822E-02  0.17195437882E-01  0.15804465443E-01  0.10200615500E+01  0.10197822625E+01 0.  0.
     999903    2    3    3    0    0 -0.41711828977E-01 -0.89523590238E-01  0.82652022333E-01  0.13033634292E+00  0.20046336448E-01 0.  0.
         14    1    1    2    0    0  0.49232807822E-02 -0.17195437882E-01 -0.15804465443E-01  0.23868450003E-01  0.00000000000E+00 0.  1.
     999901    1    3    3    0    0  0.36788548195E-01  0.10671902812E+00 -0.66847556890E-01  0.88972520707E+00  0.88000000000E+00 0.  1.
        -11    1    4    4    0    0 -0.28801432792E-01 -0.59305767956E-01  0.42469232719E-01  0.78425719585E-01  0.51100000000E-03 0.  1.
         11    1    4    4    0    0 -0.12910396185E-01 -0.30217822283E-01  0.40182789614E-01  0.51910623337E-01  0.51100000000E-03 0. -1.
</event>
<event>
 8    1  0.1233916E+005  0.1043930E+01  0.7957747E-01            NaN
         13   -1    0    0    0    0  0.00000000000E+00  0.00000000000E+00  0.74505805969E-08  0.10566000000E+00  0.10566000000E+00 0. -1.
     999900   -1    0    0    0    0 -0.00000000000E+00 -0.00000000000E+00 -0.74505805969E-08  0.93827000000E+00  0.93827000000E+00 0. -1.
     999902    2    1    2    0    0  0.14387730209E-01  0.10250540980E-01  0.17308414960E-01  0.10191982067E+01  0.10188980925E+01 0.  0.
     999903    2    3    3    0    0 -0.29063743738E-01 -0.12141001904E+00 -0.17781353357E-01  0.12765245607E+00  0.19846387317E-01 0.  0.
         14    1    1    2    0    0 -0.14387730209E-01 -0.10250540980E-01 -0.17308414960E-01  0.24731793290E-01  0.00000000000E+00 0.  1.
     999901    1    3    3    0    0  0.43451473947E-01  0.13166056002E+00  0.35089768317E-01  0.89154575064E+00  0.88000000000E+00 0.  1.
        -11    1    4    4    0    0 -0.24536632797E-02 -0.14418667335E-01  0.42104306745E-02  0.15228502181E-01  0.51100000000E-03 0. -1.
         11    1    4    4    0    0 -0.26610080458E-01 -0.10699135170E+00 -0.21991784032E-01  0.11242395388E+00  0.51100000000E-03 0.  1.
</event>
<event>
 8    1  0.1233916E+005  0.1043930E+01  0.7957747E-01            NaN
         13   -1    0    0    0    0  0.00000000000E+00  0.00000000000E+00  0.74505805969E-08  0.10566000000E+00  0.10566000000E+00 0. -1.
     999900   -1    0    0    0    0 -0.00000000000E+00 -0.00000000000E+00 -0.74505805969E-08  0.93827000000E+00  0.93827000000E+00 0. -1.
     999902    2    1    2    0    0  0.18264082482E-01 -0.17049368186E-01  0.87979150067E-02  0.10174411161E+01  0.10170962411E+01 0.  0.
     999903    2    3    3    0    0 -0.30663893144E-01 -0.60534798105E-01  0.10835334140E+00  0.12941171770E+00  0.20055172910E-01 0.  0.
         14    1    1    2    0    0 -0.18264082482E-01  0.17049368186E-01 -0.87979150067E-02  0.26488883950E-01  0.00000000000E+00 0. -1.
     999901    1    3    3    0    0  0.48927975626E-01  0.43485429919E-01 -0.99555426394E-01  0.88802939835E+00  0.88000000000E+00 0. -1.
        -11    1    4    4    0    0 -0.27981578149E-01 -0.46614575287E-01  0.97174133980E-01  0.11135062093E+00  0.51100000000E-03 0. -1.
         11    1    4    4    0    0 -0.26823149949E-02 -0.13920222818E-01  0.11179207421E-01  0.18061096772E-01  0.51100000000E-03 0.  1.
</event>
<event>
 8    1  0.1233916E+005  0.1043930E+01  0.7957747E-01            NaN
         13   -1    0    0    0    0  0.00000000000E+00  0.00000000000E+00  0.74505805969E-08  0.10566000000E+00  0.10566000000E+00 0.  1.
     999900   -1    0    0    0    0 -0.00000000000E+00 -0.00000000000E+00 -0.74505805969E-08  0.93827000000E+00  0.93827000000E+00 0.  1.
     999902    2    1    2    0    0 -0.16076365634E-01  0.13590343117E-01  0.94515614173E-02  0.10208544941E+01  0.10205936602E+01 0.  0.
     999903    2    3    3    0    0  0.82251653986E-01  0.51015833645E-01 -0.84160013609E-01  0.12965743749E+00  0.18978760220E-01 0.  0.
         14    1    1    2    0    0  0.16076365634E-01 -0.13590343117E-01 -0.94515614173E-02  0.23075505872E-01  0.00000000000E+00 0. -1.
     999901    1    3    3    0    0 -0.98328019620E-01 -0.37425490529E-01  0.93611575026E-01  0.89119705664E+00  0.88000000000E+00 0. -1.
        -11    1    4    4    0    0  0.43098735492E-01  0.36910184692E-01 -0.43816929832E-01  0.71694122464E-01  0.51100000000E-03 0. -1.
         11    1    4    4    0    0  0.39152918494E-01  0.14105648954E-01 -0.40343083777E-01  0.57963315024E-01  0.51100000000E-03 0.  1.
</event>
<event>
 8    1  0.1233916E+005  0.1043930E+01  0.7957747E-01            NaN
         13   -1    0    0    0    0  0.00000000000E+00  0.00000000000E+00  0.74505805969E-08  0.10566000000E+00  0.10566000000E+00 0.  1.
     999900   -1    0    0    0    0 -0.00000000000E+00 -0.00000000000E+00 -0.74505805969E-08  0.93827000000E+00  0.93827000000E+00 0. -1.
     999902    2    1    2    0    0  0.89302583234E-02 -0.22468358043E-01 -0.22275235753E-03  0.10197509544E+01  0.10194642626E+01 0.  0.
     999903    2    3    3    0    0  0.81322613298E-01 -0.10316528685E+00  0.57795519432E-02  0.13307814270E+00  0.20492559602E-01 0.  0.
         14    1    1    2    0    0 -0.89302583234E-02  0.22468358043E-01  0.22275235753E-03  0.24179045587E-01  0.00000000000E+00 0.  1.
     999901    1    3    3    0    0 -0.72392354974E-01  0.80696928806E-01 -0.60023043008E-02  0.88667281171E+00  0.88000000000E+00 0. -1.
        -11    1    4    4    0    0  0.78583248665E-01 -0.10150814533E+00  0.24000022333E-02  0.12839490516E+00  0.51100000000E-03 0. -1.
         11    1    4    4    0    0  0.27393646331E-02 -0.16571415195E-02  0.33795497099E-02  0.46832375394E-02  0.51100000000E-03 0.  1.
</event>
<event>
 8    1  0.1233916E+005  0.1043930E+01  0.7957747E-01            NaN
         13   -1    0    0    0    0  0.00000000000E+00  0.00000000000E+00  0.74505805969E-08  0.10566000000E+00  0.10566000000E+00 0.  1.
     999900   -1    0    0    0    0 -0.00000000000E+00 -0.00000000000E+00 -0.74505805969E-08  0.93827000000E+00  0.93827000000E+00 0. -1.
     999902    2    1    2    0    0  0.41115426825E-02 -0.23081481005E-01 -0.32596573256E-02  0.10202596617E+01  0.10199850452E+01 0.  0.
     999903    2    3    3    0    0  0.64432898647E-01  0.30911220051E-01  0.10607888101E+00  0.12980539915E+00  0.22127148482E-01 0.  0.
         14    1    1    2    0    0 -0.41115426825E-02  0.23081481005E-01  0.32596573256E-02  0.23670338285E-01  0.00000000000E+00 0. -1.
     999901    1    3    3    0    0 -0.60321355965E-01 -0.53992701056E-01 -0.10933853833E+00  0.89045426256E+00  0.88000000000E+00 0. -1.
        -11    1    4    4    0    0  0.56850103479E-01  0.21610021286E-01  0.75490889262E-01  0.96943606123E-01  0.51100000000E-03 0. -1.
         11    1    4    4    0    0  0.75827951682E-02  0.93011987647E-02  0.30587991746E-01  0.32861793029E-01  0.51100000000E-03 0.  1.
</event>
<event>
 8    1  0.1233916E+005  0.1043930E+01  0.7957747E-01            NaN
         13   -1    0    0    0    0  0.00000000000E+00  0.00000000000E+00  0.74505805969E-08  0.10566000000E+00  0.10566000000E+00 0.  1.
     999900   -1    0    0    0    0 -0.00000000000E+00 -0.00000000000E+00 -0.74505805969E-08  0.93827000000E+00  0.93827000000E+00 0. -1.
     999902    2    1    2    0    0 -0.70168028680E-02 -0.15431082184E-01 -0.20415613313E-01  0.10173941547E+01  0.10170480396E+01 0.  0.
     999903    2    3    3    0    0  0.33947349066E-01  0.92384304546E-01 -0.79141161509E-01  0.12792751148E+00  0.20367683054E-01 0.  0.
         14    1    1    2    0    0  0.70168028680E-02  0.15431082184E-01  0.20415613313E-01  0.26535845319E-01  0.00000000000E+00 0.  1.
     999901    1    3    3    0    0 -0.40964151934E-01 -0.10781538673E+00  0.58725548196E-01  0.88946664320E+00  0.88000000000E+00 0. -1.
        -11    1    4    4    0    0  0.35878411157E-01  0.79781854661E-01 -0.65774871149E-01  0.10944861587E+00  0.51100000000E-03 0.  1.
         11    1    4    4    0    0 -0.19310620905E-02  0.12602449885E-01 -0.13366290360E-01  0.18478895608E-01  0.51100000000E-03 0. -1.
</event>
<event>
 8    1  0.1233916E+005  0.1043930E+01  0.7957747E-01            NaN
         13   -1    0    0    0    0  0.00000000000E+00  0.00000000000E+00  0.74505805969E-08  0.10566000000E+00  0.10566000000E+00 0. -1.
     999900   -1    0    0    0    0 -0.00000000000E+00 -0.00000000000E+00 -0.74505805969E-08  0.93827000000E+00  0.93827000000E+00 0.  1.
     999902    2    1    2    0    0 -0.26799587303E-02 -0.23415222566E-01 -0.40841150863E-02  0.10200106601E+01  0.10197301662E+01 0.  0.
     999903    2    3    3    0    0  0.29690783190E-01  0.11702909425E+00  0.35337034353E-01  0.12741528809E+00  0.20213810467E-01 0.  0.
         14    1    1    2    0    0  0.26799587303E-02  0.23415222566E-01  0.40841150863E-02  0.23919339930E-01  0.00000000000E+00 0. -1.
     999901    1    3    3    0    0 -0.32370741921E-01 -0.14044431682E+00 -0.39421149439E-01  0.89259537198E+00  0.88000000000E+00 0. -1.
        -11    1    4    4    0    0  0.18261925028E-01  0.65207187459E-01  0.94693392399E-02  0.68376931115E-01  0.51100000000E-03 0. -1.
         11    1    4    4    0    0  0.11428858162E-01  0.51821906795E-01  0.25867695113E-01  0.59038356974E-01  0.51100000000E-03 0.  1.
</event>
<event>
 8    1  0.1233916E+005  0.1043930E+01  0.7957747E-01            NaN
         13   -1    0    0    0    0  0.00000000000E+00  0.00000000000E+00  0.74505805969E-08  0.10566000000E+00  0.10566000000E+00 0. -1.
     999900   -1    0    0    0    0 -0.00000000000E+00 -0.00000000000E+00 -0.74505805969E-08  0.93827000000E+00  0.93827000000E+00 0.  1.
     999902    2    1    2    0    0 -0.21120982861E-01 -0.12700503369E-03 -0.14593070928E-01  0.10182576459E+01  0.10179339682E+01 0.  0.
     999903    2    3    3    0    0  0.12272060103E+00  0.12975706989E-01  0.15455110617E-01  0.12597687418E+00  0.20064832278E-01 0.  0.
         14    1    1    2    0    0  0.21120982861E-01  0.12700503369E-03  0.14593070928E-01  0.25672354127E-01  0.00000000000E+00 0. -1.
     999901    1    3    3    0    0 -0.14384158389E+00 -0.13102712023E-01 -0.30048181545E-01  0.89228077169E+00  0.88000000000E+00 0. -1.
        -11    1    4    4    0    0  0.11655172565E+00  0.16638045350E-01  0.15722808110E-01  0.11877961577E+00  0.51100000000E-03 0. -1.
         11    1    4    4    0    0  0.61688753781E-02 -0.36623383614E-02 -0.26769749298E-03  0.71972584122E-02  0.51100000000E-03 0.  1.
</event>
<event>
 8    1  0.1233916E+005  0.1043930E+01  0.7957747E-01            NaN
         13   -1    0    0    0    0  0.00000000000E+00  0.00000000000E+00  0.74505805969E-08  0.10566000000E+00  0.10566000000E+00 0. -1.
     999900   -1    0    0    0    0 -0.00000000000E+00 -0.00000000000E+00 -0.74505805969E-08  0.93827000000E+00  0.93827000000E+00 0.  1.
     999902    2    1    2    0    0  0.41877968701E-02  0.10462191893E-01  0.21599451344E-01  0.10195675001E+01  0.10192763884E+01 0.  0.
     999903    2    3    3    0    0 -0.12225666911E-01  0.86520776266E-01 -0.92512883700E-01  0.12879483830E+00  0.19853590714E-01 0.  0.
         14    1    1    2    0    0 -0.41877968701E-02 -0.10462191893E-01 -0.21599451344E-01  0.24362499876E-01  0.00000000000E+00 0.  1.
     999901    1    3    3    0    0  0.16413463781E-01 -0.76058584372E-01  0.11411233504E+00  0.89077266183E+00  0.88000000000E+00 0. -1.
        -11    1    4    4    0    0 -0.16373580875E-01  0.50256090675E-01 -0.50005669623E-01  0.72763980898E-01  0.51100000000E-03 0.  1.
         11    1    4    4    0    0  0.41479139643E-02  0.36264685590E-01 -0.42507214077E-01  0.56030857398E-01  0.51100000000E-03 0. -1.
</event>
<event>
 8    1  0.1233916E+005  0.1043930E+01  0.7957747E-01            NaN
         13   -1    0    0    0    0  0.00000000000E+00  0.00000000000E+00  0.74505805969E-08  0.10566000000E+00  0.10566000000E+00 0. -1.
     999900   -1    0    0    0    0 -0.00000000000E+00 -0.00000000000E+00 -0.74505805969E-08  0.93827000000E+00  0.93827000000E+00 0. -1.
     999902    2    1    2    0    0 -0.30742271025E-02  0.19165321454E-01  0.13371145630E-01  0.10203599352E+01  0.10200876675E+01 0.  0.
     999903    2    3    3    0    0  0.93143460548E-01  0.57374015260E-01  0.71841433626E-01  0.13236414565E+00  0.19788724025E-01 0.  0.
         14    1    1    2    0    0  0.30742271025E-02 -0.19165321454E-01 -0.13371145630E-01  0.23570064789E-01  0.00000000000E+00 0.  1.
     999901    1    3    3    0    0 -0.96217687650E-01 -0.38208693806E-01 -0.58470287996E-01  0.88799578956E+00  0.88000000000E+00 0.  1.
        -11    1    4    4    0    0  0.96200245920E-02  0.14053100846E-01  0.97182531376E-02  0.19614792417E-01  0.51100000000E-03 0. -1.
         11    1    4    4    0    0  0.83523435955E-01  0.43320914414E-01  0.62123180488E-01  0.11274935323E+00  0.51100000000E-03 0.  1.
</event>
<event>
 8    1  0.1233916E+005  0.1043930E+01  0.7957747E-01            NaN
         13   -1    0    0    0    0  0.00000000000E+00  0.00000000000E+00  0.74505805969E-08  0.10566000000E+00  0.10566000000E+00 0.  1.
     999900   -1    0    0    0    0 -0.00000000000E+00 -0.00000000000E+00 -0.74505805969E-08  0.93827000000E+00  0.93827000000E+00 0.  1.
     999902    2    1    2    0    0 -0.15086928676E-01  0.66048502129E-02 -0.18003722532E-01  0.10195297236E+01  0.10192376974E+01 0.  0.
     999903    2    3    3    0    0 -0.12690832199E+00  0.27933892678E-01  0.91442225654E-02  0.13178203255E+00  0.19921414241E-01 0.  0.
         14    1    1    2    0    0  0.15086928676E-01 -0.66048502129E-02  0.18003722532E-01  0.24400276397E-01  0.00000000000E+00 0.  1.
     999901    1    3    3    0    0  0.11182139331E+00 -0.21329042465E-01 -0.27147945098E-01  0.88774769106E+00  0.88000000000E+00 0.  1.
        -11    1    4    4    0    0 -0.82376215308E-01  0.98913967037E-02  0.56688291703E-03  0.82971459277E-01  0.51100000000E-03 0. -1.
         11    1    4    4    0    0 -0.44532106681E-01  0.18042495974E-01  0.85773396484E-02  0.48810573269E-01  0.51100000000E-03 0.  1.
</event>
<event>
 8    1  0.1233916E+005  0.1043930E+01  0.7957747E-01            NaN
         13   -1    0    0    0    0  0.00000000000E+00  0.00000000000E+00  0.74505805969E-08  0.10566000000E+00  0.10566000000E+00 0.  1.
     999900   -1    0    0    0    0 -0.00000000000E+00 -0.00000000000E+00 -0.74505805969E-08  0.93827000000E+00  0.93827000000E+00 0.  1.
     999902    2    1    2    0    0  0.15368205684E-01 -0.43689348160E-02 -0.13748939306E-01  0.10228515117E+01  0.10226343004E+01 0.  0.
     999903    2    3    3    0    0  0.61768631370E-02  0.64419941686E-01 -0.11521681479E+00  0.13430656625E+00  0.23984511740E-01 0.  0.
         14    1    1    2    0    0 -0.15368205684E-01  0.43689348160E-02  0.13748939306E-01  0.21078488309E-01  0.00000000000E+00 0.  1.
     999901    1    3    3    0    0  0.91913425471E-02 -0.68788876502E-01  0.10146787548E+00  0.88854494544E+00  0.88000000000E+00 0. -1.
        -11    1    4    4    0    0  0.12571548374E-01  0.49152036428E-01 -0.98365410470E-01  0.11067963503E+00  0.51100000000E-03 0.  1.
         11    1    4    4    0    0 -0.63946852366E-02  0.15267905258E-01 -0.16851404319E-01  0.23626931218E-01  0.51100000000E-03 0. -1.
</event>
<event>
 8    1  0.1233916E+005  0.1043930E+01  0.7957747E-01            NaN
         13   -1    0    0    0    0  0.00000000000E+00  0.00000000000E+00  0.74505805969E-08  0.10566000000E+00  0.10566000000E+00 0. -1.
     999900   -1    0    0    0    0 -0.00000000000E+00 -0.00000000000E+00 -0.74505805969E-08  0.93827000000E+00  0.93827000000E+00 0. -1.
     999902    2    1    2    0    0  0.17177419097E-01 -0.13294166933E-01  0.83779513659E-02  0.10206493499E+01  0.10203838036E+01 0.  0.
     999903    2    3    3    0    0  0.11639604258E+00 -0.60123520169E-01 -0.17665407290E-01  0.13345400492E+00  0.18303781323E-01 0.  0.
         14    1    1    2    0    0 -0.17177419097E-01  0.13294166933E-01 -0.83779513659E-02  0.23280650127E-01  0.00000000000E+00 0.  1.
     999901    1    3    3    0    0 -0.99218623479E-01  0.46829353236E-01  0.26043358656E-01  0.88719534495E+00  0.88000000000E+00 0.  1.
        -11    1    4    4    0    0  0.44838798479E-01 -0.33091842410E-01 -0.93465838027E-02  0.56508473992E-01  0.51100000000E-03 0.  1.
         11    1    4    4    0    0  0.71557244096E-01 -0.27031677759E-01 -0.83188234869E-02  0.76945530931E-01  0.51100000000E-03 0. -1.
</event>
<event>
 8    1  0.1233916E+005  0.1043930E+01  0.7957747E-01            NaN
         13   -1    0    0    0    0  0.00000000000E+00  0.00000000000E+00  0.74505805969E-08  0.10566000000E+00  0.10566000000E+00 0.  1.
     999900   -1    0    0    0    0 -0.00000000000E+00 -0.00000000000E+00 -0.74505805969E-08  0.93827000000E+00  0.93827000000E+00 0.  1.
     999902    2    1    2    0    0  0.40395858909E-02  0.12972547691E-01  0.19583630654E-01  0.10200946515E+01  0.10198161473E+01 0.  0.
     999903    2    3    3    0    0  0.21612106005E-01  0.12089196777E+00 -0.40851461639E-01  0.13127082472E+00  0.21937103462E-01 0.  0.
         14    1    1    2    0    0 -0.40395858909E-02 -0.12972547691E-01 -0.19583630654E-01  0.23835348484E-01  0.00000000000E+00 0. -1.
     999901    1    3    3    0    0 -0.17572520115E-01 -0.10791942008E+00  0.60435092293E-01  0.88882382679E+00  0.88000000000E+00 0. -1.
        -11    1    4    4    0    0  0.30130065088E-02  0.50785229305E-01 -0.74635546339E-02  0.51421624756E-01  0.51100000000E-03 0. -1.
         11    1    4    4    0    0  0.18599099497E-01  0.70106738465E-01 -0.33387907005E-01  0.79849199967E-01  0.51100000000E-03 0.  1.
</event>
<event>
 8    1  0.1233916E+005  0.1043930E+01  0.7957747E-01            NaN
         13   -1    0    0    0    0  0.00000000000E+00  0.00000000000E+00  0.74505805969E-08  0.10566000000E+00  0.10566000000E+00 0. -1.
     999900   -1    0    0    0    0 -0.00000000000E+00 -0.00000000000E+00 -0.74505805969E-08  0.93827000000E+00  0.93827000000E+00 0. -1.
     999902    2    1    2    0    0 -0.15001350088E-01 -0.15493389385E-01 -0.86870447102E-02  0.10206802610E+01  0.10204154275E+01 0.  0.
     999903    2    3    3    0    0 -0.10572012897E+00 -0.70817805463E-01  0.34366329673E-01  0.13324334440E+00  0.19515044732E-01 0.  0.
         14    1    1    2    0    0  0.15001350088E-01  0.15493389385E-01  0.86870447102E-02  0.23249739028E-01  0.00000000000E+00 0. -1.
     999901    1    3    3    0    0  0.90718778880E-01  0.55324416079E-01 -0.43053374383E-01  0.88743691658E+00  0.88000000000E+00 0. -1.
        -11    1    4    4    0    0 -0.38634658617E-01 -0.32327949879E-01  0.21764446277E-01  0.54878824993E-01  0.51100000000E-03 0. -1.
         11    1    4    4    0    0 -0.67085470351E-01 -0.38489855585E-01  0.12601883395E-01  0.78364519403E-01  0.51100000000E-03 0.  1.
</event>
<event>
 8    1  0.1233916E+005  0.1043930E+01  0.7957747E-01            NaN
         13   -1    0    0    0    0  0.00000000000E+00  0.00000000000E+00  0.74505805969E-08  0.10566000000E+00  0.10566000000E+00 0.  1.
     999900   -1    0    0    0    0 -0.00000000000E+00 -0.00000000000E+00 -0.74505805969E-08  0.93827000000E+00  0.93827000000E+00 0. -1.
     999902    2    1    2    0    0 -0.10219009691E-01  0.19674930817E-01 -0.74280683462E-02  0.10205482280E+01  0.10202803431E+01 0.  0.
     999903    2    3    3    0    0  0.83013874561E-01 -0.45643870375E-01 -0.86197837019E-01  0.12972636426E+00  0.20596023990E-01 0.  0.
         14    1    1    2    0    0  0.10219009691E-01 -0.19674930817E-01  0.74280683462E-02  0.23381771983E-01  0.00000000000E+00 0.  1.
     999901    1    3    3    0    0 -0.93232884252E-01  0.65318801192E-01  0.78769768673E-01  0.89082186376E+00  0.88000000000E+00 0. -1.
        -11    1    4    4    0    0  0.57362082567E-01 -0.30070924770E-01 -0.70933168999E-01  0.96054383648E-01  0.51100000000E-03 0. -1.
         11    1    4    4    0    0  0.25651791994E-01 -0.15572945606E-01 -0.15264668021E-01  0.33671980609E-01  0.51100000000E-03 0.  1.
</event>
<event>
 8    1  0.1233916E+005  0.1043930E+01  0.7957747E-01            NaN
         13   -1    0    0    0    0  0.00000000000E+00  0.00000000000E+00  0.74505805969E-08  0.10566000000E+00  0.10566000000E+00 0. -1.
     999900   -1    0    0    0    0 -0.00000000000E+00 -0.00000000000E+00 -0.74505805969E-08  0.93827000000E+00  0.93827000000E+00 0.  1.
     999902    2    1    2    0    0  0.63545525454E-02  0.17018652348E-01  0.15515910793E-01  0.10200394505E+01  0.10197596395E+01 0.  0.
     999903    2    3    3    0    0  0.25039769397E-01 -0.59440269715E-01  0.11245201659E+00  0.13122467079E+00  0.20354912739E-01 0.  0.
         14    1    1    2    0    0 -0.63545525454E-02 -0.17018652348E-01 -0.15515910793E-01  0.23890549461E-01  0.00000000000E+00 0.  1.
     999901    1    3    3    0    0 -0.18685216851E-01  0.76458922063E-01 -0.96936105802E-01  0.88881477975E+00  0.88000000000E+00 0.  1.
        -11    1    4    4    0    0  0.26318734546E-01 -0.51311185178E-01  0.86231026198E-01  0.10373796081E+00  0.51100000000E-03 0. -1.
         11    1    4    4    0    0 -0.12789651495E-02 -0.81290845372E-02  0.26220990397E-01  0.27486709983E-01  0.51100000000E-03 0.  1.
</event>
<event>
 8    1  0.1233916E+005  0.1043930E+01  0.7957747E-01            NaN
         13   -1    0    0    0    0  0.00000000000E+00  0.00000000000E+00  0.74505805969E-08  0.10566000000E+00  0.10566000000E+00 0. -1.
     999900   -1    0    0    0    0 -0.00000000000E+00 -0.00000000000E+00 -0.74505805969E-08  0.93827000000E+00  0.93827000000E+00 0. -1.
     999902    2    1    2    0    0 -0.16588487445E-02  0.19142951260E-01  0.13885660830E-01  0.10202231247E+01  0.10199476497E+01 0.  0.
     999903    2    3    3    0    0 -0.92742955430E-01  0.53495401596E-01  0.75782368853E-01  0.13269419115E+00  0.20044130378E-01 0.  0.
         14    1    1    2    0    0  0.16588487445E-02 -0.19142951260E-01 -0.13885660830E-01  0.23706875349E-01  0.00000000000E+00 0.  1.
     999901    1    3    3    0    0  0.91084106686E-01 -0.34352450335E-01 -0.61896708023E-01  0.88752893350E+00  0.88000000000E+00 0.  1.
        -11    1    4    4    0    0 -0.64798598819E-01  0.43032204837E-01  0.63529061120E-01  0.10043322055E+00  0.51100000000E-03 0. -1.
         11    1    4    4    0    0 -0.27944356611E-01  0.10463196759E-01  0.12253307733E-01  0.32260970602E-01  0.51100000000E-03 0.  1.
</event>
<event>
 8    1  0.1233916E+005  0.1043930E+01  0.7957747E-01            NaN
         13   -1    0    0    0    0  0.00000000000E+00  0.00000000000E+00  0.74505805969E-08  0.10566000000E+00  0.10566000000E+00 0.  1.
     999900   -1    0    0    0    0 -0.00000000000E+00 -0.00000000000E+00 -0.74505805969E-08  0.93827000000E+00  0.93827000000E+00 0.  1.
     999902    2    1    2    0    0  0.22983137369E-02 -0.18702466039E-01 -0.16640702358E-01  0.10187908382E+01  0.10184806304E+01 0.  0.
     999903    2    3    3    0    0 -0.10278175703E+00  0.26707001743E-01  0.67535418922E-01  0.12739336206E+00  0.19765686670E-01 0.  0.
         14    1    1    2    0    0 -0.22983137369E-02  0.18702466039E-01  0.16640702358E-01  0.25139161819E-01  0.00000000000E+00 0.  1.
     999901    1    3    3    0    0  0.10508007076E+00 -0.45409467782E-01 -0.84176121280E-01  0.89139747612E+00  0.88000000000E+00 0.  1.
        -11    1    4    4    0    0 -0.82778769571E-01  0.13220915621E-01  0.50661994396E-01  0.97949048483E-01  0.51100000000E-03 0. -1.
         11    1    4    4    0    0 -0.20002987454E-01  0.13486086122E-01  0.16873424526E-01  0.29444313581E-01  0.51100000000E-03 0.  1.
</event>
<event>
 8    1  0.1233916E+005  0.1043930E+01  0.7957747E-01            NaN
         13   -1    0    0    0    0  0.00000000000E+00  0.00000000000E+00  0.74505805969E-08  0.10566000000E+00  0.10566000000E+00 0.  1.
     999900   -1    0    0    0    0 -0.00000000000E+00 -0.00000000000E+00 -0.74505805969E-08  0.93827000000E+00  0.93827000000E+00 0. -1.
     999902    2    1    2    0    0 -0.12025134157E-01  0.13007920543E-01  0.15588723853E-01  0.10203330053E+01  0.10200601078E+01 0.  0.
     999903    2    3    3    0    0  0.97808200237E-01  0.35350157171E-01 -0.74352524734E-01  0.12867614018E+00  0.14600461374E-01 0.  0.
         14    1    1    2    0    0  0.12025134157E-01 -0.13007920543E-01 -0.15588723853E-01  0.23596994718E-01  0.00000000000E+00 0. -1.
     999901    1    3    3    0    0 -0.10983333439E+00 -0.22342236628E-01  0.89941248587E-01  0.89165686510E+00  0.88000000000E+00 0.  1.
        -11    1    4    4    0    0  0.60721151423E-01  0.22397300080E-01 -0.54733370616E-01  0.84762611221E-01  0.51100000000E-03 0.  1.
         11    1    4    4    0    0  0.37087048814E-01  0.12952857091E-01 -0.19619154118E-01  0.43913528961E-01  0.51100000000E-03 0. -1.
</event>
<event>
 8    1  0.1233916E+005  0.1043930E+01  0.7957747E-01            NaN
         13   -1    0    0    0    0  0.00000000000E+00  0.00000000000E+00  0.74505805969E-08  0.10566000000E+00  0.10566000000E+00 0. -1.
     999900   -1    0    0    0    0 -0.00000000000E+00 -0.00000000000E+00 -0.74505805969E-08  0.93827000000E+00  0.93827000000E+00 0. -1.
     999902    2    1    2    0    0 -0.97278065220E-02  0.19291986785E-01  0.10697290455E-01  0.10198210183E+01  0.10195360055E+01 0.  0.
     999903    2    3    3    0    0  0.12236830574E+00 -0.25268332340E-01 -0.21129069182E-01  0.12827857847E+00  0.19911435403E-01 0.  0.
         14    1    1    2    0    0  0.97278065220E-02 -0.19291986785E-01 -0.10697290455E-01  0.24108981665E-01  0.00000000000E+00 0.  1.
     999901    1    3    3    0    0 -0.13209611226E+00  0.44560319125E-01  0.31826359638E-01  0.89154243987E+00  0.88000000000E+00 0.  1.
        -11    1    4    4    0    0  0.10545120846E+00 -0.14572754404E-01 -0.19105606915E-01  0.10815548009E+00  0.51100000000E-03 0.  1.
         11    1    4    4    0    0  0.16917097282E-01 -0.10695577936E-01 -0.20234622673E-02  0.20123098379E-01  0.51100000000E-03 0. -1.
</event>
<event>
 8    1  0.1233916E+005  0.1043930E+01  0.7957747E-01            NaN
         13   -1    0    0    0    0  0.00000000000E+00  0.00000000000E+00  0.74505805969E-08  0.10566000000E+00  0.10566000000E+00 0.  1.
     999900   -1    0    0    0    0 -0.00000000000E+00 -0.00000000000E+00 -0.74505805969E-08  0.93827000000E+00  0.93827000000E+00 0.  1.
     999902    2    1    2    0    0  0.23393501681E-02  0.41514044004E-02 -0.22543694400E-01  0.10208881929E+01  0.10206281289E+01 0.  0.
     999903    2    3    3    0    0 -0.18274747410E-01 -0.67649127314E-01  0.10545214145E+00  0.12849635554E+00  0.21926888307E-01 0.  0.
         14    1    1    2    0    0 -0.23393501681E-02 -0.41514044004E-02  0.22543694400E-01  0.23041807111E-01  0.00000000000E+00 0.  1.
     999901    1    3    3    0    0  0.20614097578E-01  0.71800531714E-01 -0.12799583585E+00  0.89239183735E+00  0.88000000000E+00 0.  1.
        -11    1    4    4    0    0 -0.14400948234E-01 -0.53089404724E-01  0.96173572310E-01  0.11079480735E+00  0.51100000000E-03 0. -1.
         11    1    4    4    0    0 -0.38737991761E-02 -0.14559722590E-01  0.92785691417E-02  0.17701548188E-01  0.51100000000E-03 0.  1.
</event>
<event>
 8    1  0.1233916E+005  0.1043930E+01  0.7957747E-01            NaN
         13   -1    0    0    0    0  0.00000000000E+00  0.00000000000E+00  0.74505805969E-08  0.10566000000E+00  0.10566000000E+00 0.  1.
     999900   -1    0    0    0    0 -0.00000000000E+00 -0.00000000000E+00 -0.74505805969E-08  0.93827000000E+00  0.93827000000E+00 0.  1.
     999902    2    1    2    0    0 -0.15178849660E-01 -0.96963065450E-02  0.14774610614E-01  0.10206339712E+01  0.10203680700E+01 0.  0.
     999903    2    3    3    0    0 -0.75696507419E-01 -0.94240766853E-02 -0.10487995336E+00  0.13047686392E+00  0.14339907448E-01 0.  0.
         14    1    1    2    0    0  0.15178849660E-01  0.96963065450E-02 -0.14774610614E-01  0.23296028769E-01  0.00000000000E+00 0. -1.
     999901    1    3    3    0    0  0.60517657758E-01 -0.27222985966E-03  0.11965456397E+00  0.89015710731E+00  0.88000000000E+00 0. -1.
        -11    1    4    4    0    0 -0.43395633181E-01 -0.10780400555E-01 -0.52981638466E-01  0.69330463368E-01  0.51100000000E-03 0.  1.
         11    1    4    4    0    0 -0.32300874237E-01  0.13563238698E-02 -0.51898314895E-01  0.61146400556E-01  0.51100000000E-03 0. -1.
</event>
<event>
 8    1  0.1233916E+005  0.1043930E+01  0.7957747E-01            NaN
         13   -1    0    0    0    0  0.00000000000E+00  0.00000000000E+00  0.74505805969E-08  0.10566000000E+00  0.10566000000E+00 0. -1.
     999900   -1    0    0    0    0 -0.00000000000E+00 -0.00000000000E+00 -0.74505805969E-08  0.93827000000E+00  0.93827000000E+00 0.  1.
     999902    2    1    2    0    0  0.10345112618E-01 -0.58733499807E-02  0.20177346975E-01  0.10205068720E+01  0.10202380275E+01 0.  0.
     999903    2    3    3    0    0  0.34411133899E-01  0.16753246444E-01 -0.12107044565E+00  0.12863127799E+00  0.20570742900E-01 0.  0.
         14    1    1    2    0    0 -0.10345112618E-01  0.58733499807E-02 -0.20177346975E-01  0.23423128015E-01  0.00000000000E+00 0.  1.
     999901    1    3    3    0    0 -0.24066021281E-01 -0.22626596425E-01  0.14124779263E+00  0.89187559400E+00  0.88000000000E+00 0. -1.
        -11    1    4    4    0    0  0.22403310302E-01  0.48833757981E-04 -0.53706409910E-01  0.58194074300E-01  0.51100000000E-03 0. -1.
         11    1    4    4    0    0  0.12007823597E-01  0.16704412686E-01 -0.67364035742E-01  0.70437203687E-01  0.51100000000E-03 0.  1.
</event>
<event>
 8    1  0.1233916E+005  0.1043930E+01  0.7957747E-01            NaN
         13   -1    0    0    0    0  0.00000000000E+00  0.00000000000E+00  0.74505805969E-08  0.10566000000E+00  0.10566000000E+00 0.  1.
     999900   -1    0    0    0    0 -0.00000000000E+00 -0.00000000000E+00 -0.74505805969E-08  0.93827000000E+00  0.93827000000E+00 0.  1.
     999902    2    1    2    0    0 -0.12482686393E-01 -0.79791252823E-02 -0.18713146123E-01  0.10200623286E+01  0.10197830595E+01 0.  0.
     999903    2    3    3    0    0  0.87164144129E-02  0.30569782769E-01 -0.12696931908E+00  0.13233781099E+00  0.19534603432E-01 0.  0.
         14    1    1    2    0    0  0.12482686393E-01  0.79791252823E-02  0.18713146123E-01  0.23867671392E-01  0.00000000000E+00 0.  1.
     999901    1    3    3    0    0 -0.21199100806E-01 -0.38548908052E-01  0.10825617296E+00  0.88772451761E+00  0.88000000000E+00 0.  1.
        -11    1    4    4    0    0 -0.35104074539E-03  0.10579783327E-01 -0.15827510131E-01  0.19047998394E-01  0.51100000000E-03 0. -1.
         11    1    4    4    0    0  0.90674551583E-02  0.19989999443E-01 -0.11114180895E+00  0.11328981260E+00  0.51100000000E-03 0.  1.
</event>
<event>
 8    1  0.1233916E+005  0.1043930E+01  0.7957747E-01            NaN
         13   -1    0    0    0    0  0.00000000000E+00  0.00000000000E+00  0.74505805969E-08  0.10566000000E+00  0.10566000000E+00 0.  1.
     999900   -1    0    0    0    0 -0.00000000000E+00 -0.00000000000E+00 -0.74505805969E-08  0.93827000000E+00  0.93827000000E+00 0. -1.
     999902    2    1    2    0    0 -0.44376173976E-02  0.17104906146E-01  0.16497523943E-01  0.10197548359E+01  0.10194682373E+01 0.  0.
     999903    2    3    3    0    0 -0.61392111068E-01 -0.10140891344E+00 -0.43832424478E-01  0.12794261215E+00  0.19881437057E-01 0.  0.
         14    1    1    2    0    0  0.44376173976E-02 -0.17104906146E-01 -0.16497523943E-01  0.24175164088E-01  0.00000000000E+00 0. -1.
     999901    1    3    3    0    0  0.56954493671E-01  0.11851381959E+00  0.60329948421E-01  0.89181222377E+00  0.88000000000E+00 0. -1.
        -11    1    4    4    0    0 -0.14398041882E-01 -0.18054619907E-01 -0.16626105786E-01  0.28459821233E-01  0.51100000000E-03 0. -1.
         11    1    4    4    0    0 -0.46994069187E-01 -0.83354293538E-01 -0.27206318693E-01  0.99482790913E-01  0.51100000000E-03 0.  1.
</event>
<event>
 8    1  0.1233916E+005  0.1043930E+01  0.7957747E-01            NaN
         13   -1    0    0    0    0  0.00000000000E+00  0.00000000000E+00  0.74505805969E-08  0.10566000000E+00  0.10566000000E+00 0. -1.
     999900   -1    0    0    0    0 -0.00000000000E+00 -0.00000000000E+00 -0.74505805969E-08  0.93827000000E+00  0.93827000000E+00 0.  1.
     999902    2    1    2    0    0 -0.94284221405E-02  0.11148278615E-02  0.21799617063E-01  0.10201526728E+01  0.10198755387E+01 0.  0.
     999903    2    3    3    0    0 -0.83091339241E-01 -0.33582709970E-03  0.10248994550E+00  0.13339495004E+00  0.19640273195E-01 0.  0.
         14    1    1    2    0    0  0.94284221405E-02 -0.11148278615E-02 -0.21799617063E-01  0.23777327212E-01  0.00000000000E+00 0.  1.
     999901    1    3    3    0    0  0.73662917100E-01  0.14506549612E-02 -0.80690328432E-01  0.88675772275E+00  0.88000000000E+00 0.  1.
        -11    1    4    4    0    0 -0.36805281228E-01 -0.83341818109E-02  0.37478614107E-01  0.53188297107E-01  0.51100000000E-03 0.  1.
         11    1    4    4    0    0 -0.46286058012E-01  0.79983547112E-02  0.65011331389E-01  0.80206652931E-01  0.51100000000E-03 0. -1.
</event>
<event>
 8    1  0.1233916E+005  0.1043930E+01  0.7957747E-01            NaN
         13   -1    0    0    0    0  0.00000000000E+00  0.00000000000E+00  0.74505805969E-08  0.10566000000E+00  0.10566000000E+00 0. -1.
     999900   -1    0    0    0    0 -0.00000000000E+00 -0.00000000000E+00 -0.74505805969E-08  0.93827000000E+00  0.93827000000E+00 0.  1.
     999902    2    1    2    0    0  0.46560989271E-02  0.20196164051E-01  0.23862702721E-02  0.10230671482E+01  0.10228544037E+01 0.  0.
     999903    2    3    3    0    0  0.12507834073E+00 -0.33490313021E-01 -0.21896837003E-01  0.13291355277E+00  0.20502406036E-01 0.  0.
         14    1    1    2    0    0 -0.46560989271E-02 -0.20196164051E-01 -0.23862702721E-02  0.20862851804E-01  0.00000000000E+00 0.  1.
     999901    1    3    3    0    0 -0.12042224181E+00  0.53686477072E-01  0.24283107275E-01  0.89015359542E+00  0.88000000000E+00 0.  1.
        -11    1    4    4    0    0  0.54897359522E-01 -0.68541446256E-02 -0.25086464951E-02  0.55382793441E-01  0.51100000000E-03 0. -1.
         11    1    4    4    0    0  0.70180981212E-01 -0.26636168395E-01 -0.19388190508E-01  0.77530759333E-01  0.51100000000E-03 0.  1.
</event>
<event>
 8    1  0.1233916E+005  0.1043930E+01  0.7957747E-01            NaN
         13   -1    0    0    0    0  0.00000000000E+00  0.00000000000E+00  0.74505805969E-08  0.10566000000E+00  0.10566000000E+00 0. -1.
     999900   -1    0    0    0    0 -0.00000000000E+00 -0.00000000000E+00 -0.74505805969E-08  0.93827000000E+00  0.93827000000E+00 0. -1.
     999902    2    1    2    0    0  0.15213119294E-01 -0.19223762859E-01  0.39591432365E-02  0.10190972218E+01  0.10187946214E+01 0.  0.
     999903    2    3    3    0    0  0.25933515330E-01 -0.12316518332E+00  0.35030098890E-01  0.13237057281E+00  0.21275599126E-01 0.  0.
         14    1    1    2    0    0 -0.15213119294E-01  0.19223762859E-01 -0.39591432365E-02  0.24832778183E-01  0.00000000000E+00 0. -1.
     999901    1    3    3    0    0 -0.10720396036E-01  0.10394142046E+00 -0.31070955654E-01  0.88672664901E+00  0.88000000000E+00 0.  1.
        -11    1    4    4    0    0  0.13759216295E-01 -0.23446094330E-01  0.76166314458E-02  0.28236670625E-01  0.51100000000E-03 0.  1.
         11    1    4    4    0    0  0.12174299035E-01 -0.99719088988E-01  0.27413467444E-01  0.10413390218E+00  0.51100000000E-03 0. -1.
</event>
<event>
 8    1  0.1233916E+005  0.1043930E+01  0.7957747E-01            NaN
         13   -1    0    0    0    0  0.00000000000E+00  0.00000000000E+00  0.74505805969E-08  0.10566000000E+00  0.10566000000E+00 0. -1.
     999900   -1    0    0    0    0 -0.00000000000E+00 -0.00000000000E+00 -0.74505805969E-08  0.93827000000E+00  0.93827000000E+00 0.  1.
     999902    2    1    2    0    0  0.46620428026E-02 -0.21635645377E-01  0.73516079324E-02  0.10206087236E+01  0.10203422390E+01 0.  0.
     999903    2    3    3    0    0 -0.32451097620E-01 -0.12701235325E+00 -0.13589831204E-01  0.13329807922E+00  0.19962033883E-01 0.  0.
         14    1    1    2    0    0 -0.46620428026E-02  0.21635645377E-01 -0.73516079324E-02  0.23321276405E-01  0.00000000000E+00 0. -1.
     999901    1    3    3    0    0  0.37113140423E-01  0.10537670787E+00  0.20941439137E-01  0.88731064438E+00  0.88000000000E+00 0. -1.
        -11    1    4    4    0    0 -0.40874397235E-02 -0.18487020673E-01 -0.91594207841E-02  0.21038849944E-01  0.51100000000E-03 0.  1.
         11    1    4    4    0    0 -0.28363657897E-01 -0.10852533257E+00 -0.44304104202E-02  0.11225922927E+00  0.51100000000E-03 0. -1.
</event>
<event>
 8    1  0.1233916E+005  0.1043930E+01  0.7957747E-01            NaN
         13   -1    0    0    0    0  0.00000000000E+00  0.00000000000E+00  0.74505805969E-08  0.10566000000E+00  0.10566000000E+00 0.  1.
     999900   -1    0    0    0    0 -0.00000000000E+00 -0.00000000000E+00 -0.74505805969E-08  0.93827000000E+00  0.93827000000E+00 0. -1.
     999902    2    1    2    0    0 -0.21681766015E-01  0.64592224239E-02 -0.96499081749E-02  0.10193344463E+01  0.10190376697E+01 0.  0.
     999903    2    3    3    0    0 -0.48204924143E-01 -0.45156751932E-01  0.10927139659E+00  0.12944121485E+00  0.21258951818E-01 0.  0.
         14    1    1    2    0    0  0.21681766015E-01 -0.64592224239E-02  0.96499081749E-02  0.24595553655E-01  0.00000000000E+00 0.  1.
     999901    1    3    3    0    0  0.26523158128E-01  0.51615974356E-01 -0.11892130477E+00  0.88989323149E+00  0.88000000000E+00 0. -1.
        -11    1    4    4    0    0 -0.18664248134E-01 -0.67273626777E-02  0.42747724195E-01  0.47130039379E-01  0.51100000000E-03 0. -1.
         11    1    4    4    0    0 -0.29540676009E-01 -0.38429389254E-01  0.66523672399E-01  0.82311175474E-01  0.51100000000E-03 0.  1.
</event>
<event>
 8    1  0.1233916E+005  0.1043930E+01  0.7957747E-01            NaN
         13   -1    0    0    0    0  0.00000000000E+00  0.00000000000E+00  0.74505805969E-08  0.10566000000E+00  0.10566000000E+00 0.  1.
     999900   -1    0    0    0    0 -0.00000000000E+00 -0.00000000000E+00 -0.74505805969E-08  0.93827000000E+00  0.93827000000E+00 0. -1.
     999902    2    1    2    0    0  0.88760106075E-02  0.78290493994E-02 -0.20415992573E-01  0.10203314761E+01  0.10200585428E+01 0.  0.
     999903    2    3    3    0    0 -0.29667692951E-02  0.92585174413E-01  0.87905210162E-01  0.12956925464E+00  0.21910032730E-01 0.  0.
         14    1    1    2    0    0 -0.88760106075E-02 -0.78290493994E-02  0.20415992573E-01  0.23598523927E-01  0.00000000000E+00 0. -1.
     999901    1    3    3    0    0  0.11842779903E-01 -0.84756125014E-01 -0.10832120273E+00  0.89076222143E+00  0.88000000000E+00 0. -1.
        -11    1    4    4    0    0  0.70505430847E-03  0.59750818696E-01  0.69820086261E-01  0.91900832438E-01  0.51100000000E-03 0. -1.
         11    1    4    4    0    0 -0.36718236036E-02  0.32834355717E-01  0.18085123901E-01  0.37668422206E-01  0.51100000000E-03 0.  1.
</event>
<event>
 8    1  0.1233916E+005  0.1043930E+01  0.7957747E-01            NaN
         13   -1    0    0    0    0  0.00000000000E+00  0.00000000000E+00  0.74505805969E-08  0.10566000000E+00  0.10566000000E+00 0. -1.
     999900   -1    0    0    0    0 -0.00000000000E+00 -0.00000000000E+00 -0.74505805969E-08  0.93827000000E+00  0.93827000000E+00 0. -1.
     999902    2    1    2    0    0  0.43526416245E-02 -0.21758580514E-01 -0.54363834430E-02  0.10210840905E+01  0.10208284794E+01 0.  0.
     999903    2    3    3    0    0  0.27983262486E-01 -0.11348189465E+00 -0.62847462909E-01  0.13414124871E+00  0.19567003279E-01 0.  0.
         14    1    1    2    0    0 -0.43526416245E-02  0.21758580514E-01  0.54363834430E-02  0.22845909481E-01  0.00000000000E+00 0. -1.
     999901    1    3    3    0    0 -0.23630620861E-01  0.91723314137E-01  0.57411079466E-01  0.88694284181E+00  0.88000000000E+00 0.  1.
        -11    1    4    4    0    0  0.13534618222E-01 -0.46757529679E-01 -0.36977950172E-01  0.61131680756E-01  0.51100000000E-03 0.  1.
         11    1    4    4    0    0  0.14448644263E-01 -0.66724364972E-01 -0.25869512736E-01  0.73009567950E-01  0.51100000000E-03 0. -1.
</event>
<event>
 8    1  0.1233916E+005  0.1043930E+01  0.7957747E-01            NaN
         13   -1    0    0    0    0  0.00000000000E+00  0.00000000000E+00  0.74505805969E-08  0.10566000000E+00  0.10566000000E+00 0.  1.
     999900   -1    0    0    0    0 -0.00000000000E+00 -0.00000000000E+00 -0.74505805969E-08  0.93827000000E+00  0.93827000000E+00 0. -1.
     999902    2    1    2    0    0  0.16614647419E-01 -0.59964944172E-02 -0.16844204203E-01  0.10195223850E+01  0.10192301810E+01 0.  0.
     999903    2    3    3    0    0 -0.11530005215E+00  0.51668076553E-02  0.49147217863E-01  0.12717661399E+00  0.20919947313E-01 0.  0.
         14    1    1    2    0    0 -0.16614647419E-01  0.59964944172E-02  0.16844204203E-01  0.24407614988E-01  0.00000000000E+00 0.  1.
     999901    1    3    3    0    0  0.13191469957E+00 -0.11163302072E-01 -0.65991422065E-01  0.89234577102E+00  0.88000000000E+00 0.  1.
        -11    1    4    4    0    0 -0.30930664655E-01  0.50043230301E-02  0.22915360588E-01  0.38821696728E-01  0.51100000000E-03 0. -1.
         11    1    4    4    0    0 -0.84369387493E-01  0.16248462516E-03  0.26231857275E-01  0.88354917262E-01  0.51100000000E-03 0.  1.
</event>
<event>
 8    1  0.1233916E+005  0.1043930E+01  0.7957747E-01            NaN
         13   -1    0    0    0    0  0.00000000000E+00  0.00000000000E+00  0.74505805969E-08  0.10566000000E+00  0.10566000000E+00 0. -1.
     999900   -1    0    0    0    0 -0.00000000000E+00 -0.00000000000E+00 -0.74505805969E-08  0.93827000000E+00  0.93827000000E+00 0.  1.
     999902    2    1    2    0    0 -0.49581204549E-02  0.16490618919E-01 -0.18755458122E-01  0.10184684470E+01  0.10181501298E+01 0.  0.
     999903    2    3    3    0    0 -0.74209047182E-01  0.10610744505E+00 -0.35985454933E-02  0.13108093394E+00  0.20087038953E-01 0.  0.
         14    1    1    2    0    0  0.49581204549E-02 -0.16490618919E-01  0.18755458122E-01  0.25461552980E-01  0.00000000000E+00 0. -1.
     999901    1    3    3    0    0  0.69250926727E-01 -0.89616826128E-01 -0.15156912629E-01  0.88738751308E+00  0.88000000000E+00 0.  1.
        -11    1    4    4    0    0 -0.57880394249E-01  0.70379955665E-01 -0.83625629318E-02  0.91507768947E-01  0.51100000000E-03 0.  1.
         11    1    4    4    0    0 -0.16328652933E-01  0.35727489381E-01  0.47640174385E-02  0.39573164989E-01  0.51100000000E-03 0. -1.
</event>
<event>
 8    1  0.1233916E+005  0.1043930E+01  0.7957747E-01            NaN
         13   -1    0    0    0    0  0.00000000000E+00  0.00000000000E+00  0.74505805969E-08  0.10566000000E+00  0.10566000000E+00 0.  1.
     999900   -1    0    0    0    0 -0.00000000000E+00 -0.00000000000E+00 -0.74505805969E-08  0.93827000000E+00  0.93827000000E+00 0.  1.
     999902    2    1    2    0    0  0.62312803049E-02  0.17492904968E-01 -0.13527559999E-01  0.10209555477E+01  0.10206970192E+01 0.  0.
     999903    2    3    3    0    0  0.80404554305E-01 -0.97665687965E-01 -0.24180874273E-01  0.13029474291E+00  0.19711072802E-01 0.  0.
         14    1    1    2    0    0 -0.62312803049E-02 -0.17492904968E-01  0.13527559999E-01  0.22974452289E-01  0.00000000000E+00 0.  1.
     999901    1    3    3    0    0 -0.74173274001E-01  0.11515859293E+00  0.10653314274E-01  0.89066080480E+00  0.88000000000E+00 0. -1.
        -11    1    4    4    0    0  0.13056144078E-01 -0.21168198899E-01  0.23217355357E-02  0.24984137362E-01  0.51100000000E-03 0.  1.
         11    1    4    4    0    0  0.67348410227E-01 -0.76497489066E-01 -0.26502609808E-01  0.10531060555E+00  0.51100000000E-03 0. -1.
</event>
<event>
 8    1  0.1233916E+005  0.1043930E+01  0.7957747E-01            NaN
         13   -1    0    0    0    0  0.00000000000E+00  0.00000000000E+00  0.74505805969E-08  0.10566000000E+00  0.10566000000E+00 0.  1.
     999900   -1    0    0    0    0 -0.00000000000E+00 -0.00000000000E+00 -0.74505805969E-08  0.93827000000E+00  0.93827000000E+00 0.  1.
     999902    2    1    2    0    0 -0.19246369903E-01  0.80615535549E-03 -0.15039822332E-01  0.10194909146E+01  0.10191979474E+01 0.  0.
     999903    2    3    3    0    0  0.42449042267E-01 -0.10911421659E+00  0.48407757855E-01  0.12824773368E+00  0.19908207415E-01 0.  0.
         14    1    1    2    0    0  0.19246369903E-01 -0.80615535549E-03  0.15039822332E-01  0.24439085431E-01  0.00000000000E+00 0. -1.
     999901    1    3    3    0    0 -0.61695412170E-01  0.10992037194E+00 -0.63447580187E-01  0.89124318089E+00  0.88000000000E+00 0.  1.
        -11    1    4    4    0    0  0.41895930451E-01 -0.10155828776E+00  0.49638347534E-01  0.12055530460E+00  0.51100000000E-03 0. -1.
         11    1    4    4    0    0  0.55311181554E-03 -0.75559288281E-02 -0.12305896793E-02  0.76924290763E-02  0.51100000000E-03 0.  1.
</event>
<event>
 8    1  0.1233916E+005  0.1043930E+01  0.7957747E-01            NaN
         13   -1    0    0    0    0  0.00000000000E+00  0.00000000000E+00  0.74505805969E-08  0.10566000000E+00  0.10566000000E+00 0. -1.
     999900   -1    0    0    0    0 -0.00000000000E+00 -0.00000000000E+00 -0.74505805969E-08  0.93827000000E+00  0.93827000000E+00 0.  1.
     999902    2    1    2    0    0 -0.11654899900E-01 -0.22312205396E-01 -0.13757839405E-02  0.10187196057E+01  0.10184076153E+01 0.  0.
     999903    2    3    3    0    0 -0.61462681834E-01 -0.58193907844E-02 -0.11353084275E+00  0.13005117183E+00  0.14578356260E-01 0.  0.
         14    1    1    2    0    0  0.11654899900E-01  0.22312205396E-01  0.13757839405E-02  0.25210394340E-01  0.00000000000E+00 0. -1.
     999901    1    3    3    0    0  0.49807781934E-01 -0.16492814611E-01  0.11215505881E+00  0.88866843383E+00  0.88000000000E+00 0. -1.
        -11    1    4    4    0    0 -0.37124290825E-01  0.25748095743E-02 -0.74705722716E-01  0.83462858453E-01  0.51100000000E-03 0.  1.
         11    1    4    4    0    0 -0.24338391009E-01 -0.83942003587E-02 -0.38825120032E-01  0.46588313374E-01  0.51100000000E-03 0. -1.
</event>
<event>
 8    1  0.1233916E+005  0.1043930E+01  0.7957747E-01            NaN
         13   -1    0    0    0    0  0.00000000000E+00  0.00000000000E+00  0.74505805969E-08  0.10566000000E+00  0.10566000000E+00 0.  1.
     999900   -1    0    0    0    0 -0.00000000000E+00 -0.00000000000E+00 -0.74505805969E-08  0.93827000000E+00  0.93827000000E+00 0. -1.
     999902    2    1    2    0    0 -0.19973298815E-02 -0.10923521675E-01  0.25213404506E-01  0.10163795296E+01  0.10160060629E+01 0.  0.
     999903    2    3    3    0    0  0.10323140855E+00 -0.66155495812E-01  0.32846972650E-01  0.12835817303E+00  0.19068918012E-01 0.  0.
         14    1    1    2    0    0  0.19973298815E-02  0.10923521675E-01 -0.25213404506E-01  0.27550470399E-01  0.00000000000E+00 0. -1.
     999901    1    3    3    0    0 -0.10522873843E+00  0.55231974137E-01 -0.76335681444E-02  0.88802135657E+00  0.88000000000E+00 0.  1.
        -11    1    4    4    0    0  0.37441394175E-01 -0.29003985073E-01  0.41881369285E-02  0.47548825010E-01  0.51100000000E-03 0.  1.
         11    1    4    4    0    0  0.65790014376E-01 -0.37151510740E-01  0.28658835722E-01  0.80809348022E-01  0.51100000000E-03 0. -1.
</event>
<event>
 8    1  0.1233916E+005  0.1043930E+01  0.7957747E-01            NaN
         13   -1    0    0    0    0  0.00000000000E+00  0.00000000000E+00  0.74505805969E-08  0.10566000000E+00  0.10566000000E+00 0. -1.
     999900   -1    0    0    0    0 -0.00000000000E+00 -0.00000000000E+00 -0.74505805969E-08  0.93827000000E+00  0.93827000000E+00 0.  1.
     999902    2    1    2    0    0  0.84902372898E-03  0.11350013880E-01 -0.20475528678E-01  0.10205037128E+01  0.10202347950E+01 0.  0.
     999903    2    3    3    0    0 -0.18381318047E-01 -0.86604150073E-01 -0.95150965330E-01  0.13171732391E+00  0.21391483133E-01 0.  0.
         14    1    1    2    0    0 -0.84902372898E-03 -0.11350013880E-01  0.20475528678E-01  0.23426287180E-01  0.00000000000E+00 0. -1.
     999901    1    3    3    0    0  0.19230341776E-01  0.97954163953E-01  0.74675436652E-01  0.88878638891E+00  0.88000000000E+00 0.  1.
        -11    1    4    4    0    0 -0.14314581899E-01 -0.22158076292E-01 -0.30721825336E-01  0.40496657552E-01  0.51100000000E-03 0. -1.
         11    1    4    4    0    0 -0.40667361483E-02 -0.64446073781E-01 -0.64429139994E-01  0.91220666354E-01  0.51100000000E-03 0.  1.
</event>
<event>
 8    1  0.1233916E+005  0.1043930E+01  0.7957747E-01            NaN
         13   -1    0    0    0    0  0.00000000000E+00  0.00000000000E+00  0.74505805969E-08  0.10566000000E+00  0.10566000000E+00 0. -1.
     999900   -1    0    0    0    0 -0.00000000000E+00 -0.00000000000E+00 -0.74505805969E-08  0.93827000000E+00  0.93827000000E+00 0. -1.
     999902    2    1    2    0    0  0.14477108816E-01 -0.15611353142E-01 -0.37536494227E-02  0.10223107745E+01  0.10220821536E+01 0.  0.
     999903    2    3    3    0    0  0.11753260417E+00  0.52207803665E-01 -0.29278354323E-01  0.13333868063E+00  0.19555406206E-01 0.  0.
         14    1    1    2    0    0 -0.14477108816E-01  0.15611353142E-01  0.37536494227E-02  0.21619225485E-01  0.00000000000E+00 0. -1.
     999901    1    3    3    0    0 -0.10305549536E+00 -0.67819156807E-01  0.25524704900E-01  0.88897209389E+00  0.88000000000E+00 0.  1.
        -11    1    4    4    0    0  0.68933401501E-01  0.20035222237E-01 -0.15293255046E-01  0.73398697152E-01  0.51100000000E-03 0. -1.
         11    1    4    4    0    0  0.48599202672E-01  0.32172581428E-01 -0.13985099276E-01  0.59939983474E-01  0.51100000000E-03 0.  1.
</event>
<event>
 8    1  0.1233916E+005  0.1043930E+01  0.7957747E-01            NaN
         13   -1    0    0    0    0  0.00000000000E+00  0.00000000000E+00  0.74505805969E-08  0.10566000000E+00  0.10566000000E+00 0.  1.
     999900   -1    0    0    0    0 -0.00000000000E+00 -0.00000000000E+00 -0.74505805969E-08  0.93827000000E+00  0.93827000000E+00 0.  1.
     999902    2    1    2    0    0 -0.30562348026E-03  0.18003432357E-01 -0.13144609913E-01  0.10216365536E+01  0.10213932886E+01 0.  0.
     999903    2    3    3    0    0 -0.86443999090E-01  0.32594723910E-01  0.90504428404E-01  0.13125694429E+00  0.22413229536E-01 0.  0.
         14    1    1    2    0    0  0.30562348026E-03 -0.18003432357E-01  0.13144609913E-01  0.22293446394E-01  0.00000000000E+00 0.  1.
     999901    1    3    3    0    0  0.86138375609E-01 -0.14591291554E-01 -0.10364903832E+00  0.89037960932E+00  0.88000000000E+00 0.  1.
        -11    1    4    4    0    0 -0.34059995564E-01  0.14363136914E-01  0.21656630839E-01  0.42844530341E-01  0.51100000000E-03 0.  1.
         11    1    4    4    0    0 -0.52384003525E-01  0.18231586997E-01  0.68847797565E-01  0.88412413949E-01  0.51100000000E-03 0. -1.
</event>
<event>
 8    1  0.1233916E+005  0.1043930E+01  0.7957747E-01            NaN
         13   -1    0    0    0    0  0.00000000000E+00  0.00000000000E+00  0.74505805969E-08  0.10566000000E+00  0.10566000000E+00 0. -1.
     999900   -1    0    0    0    0 -0.00000000000E+00 -0.00000000000E+00 -0.74505805969E-08  0.93827000000E+00  0.93827000000E+00 0.  1.
     999902    2    1    2    0    0  0.99177479157E-02  0.12531795810E-01  0.17097687402E-01  0.10205261853E+01  0.10202577891E+01 0.  0.
     999903    2    3    3    0    0 -0.10843524813E+00  0.48389297607E-01 -0.47756485904E-01  0.12951594070E+00  0.19848672262E-01 0.  0.
         14    1    1    2    0    0 -0.99177479157E-02 -0.12531795810E-01 -0.17097687402E-01  0.23403814741E-01  0.00000000000E+00 0. -1.
     999901    1    3    3    0    0  0.11835299605E+00 -0.35857501797E-01  0.64854173305E-01  0.89101024456E+00  0.88000000000E+00 0. -1.
        -11    1    4    4    0    0 -0.85148920610E-01  0.41304058734E-01 -0.45665018569E-01  0.10508053574E+00  0.51100000000E-03 0. -1.
         11    1    4    4    0    0 -0.23286327520E-01  0.70852388721E-02 -0.20914673352E-02  0.24435404966E-01  0.51100000000E-03 0.  1.
</event>
<event>
 7    1  0.1233916E+005  0.1043930E+01  0.7957747E-01            NaN
         13   -1    0    0    0    0  0.00000000000E+00  0.00000000000E+00  0.74505805969E-08  0.10566000000E+00  0.10566000000E+00 0.  1.
     999900   -1    0    0    0    0 -0.00000000000E+00 -0.00000000000E+00 -0.74505805969E-08  0.93827000000E+00  0.93827000000E+00 0. -1.
     999903    2    1    2    0    0  0.22738622355E-01 -0.98070495495E-01  0.21067674597E-01  0.10501999945E+00  0.21224663452E-01 0.  0.
         14    1    1    2    0    0 -0.23726357090E-01 -0.35485334663E-01  0.21539565121E-01  0.47813197577E-01  0.00000000000E+00 0.  1.
     999901    1    1    2    0    0  0.98773473499E-03  0.13355583016E+00 -0.42607239718E-01  0.89109680297E+00  0.88000000000E+00 0.  1.
        -11    1    3    3    0    0  0.11581524201E-01 -0.83664440276E-01  0.14843158375E-01  0.85758094318E-01  0.51100000000E-03 0. -1.
         11    1    3    3    0    0  0.11157098154E-01 -0.14406055220E-01  0.62245162217E-02  0.19261905134E-01  0.51100000000E-03 0.  1.
</event>
<event>
 8    1  0.1233916E+005  0.1043930E+01  0.7957747E-01            NaN
         13   -1    0    0    0    0  0.00000000000E+00  0.00000000000E+00  0.74505805969E-08  0.10566000000E+00  0.10566000000E+00 0. -1.
     999900   -1    0    0    0    0 -0.00000000000E+00 -0.00000000000E+00 -0.74505805969E-08  0.93827000000E+00  0.93827000000E+00 0.  1.
     999902    2    1    2    0    0  0.19585515327E-01  0.83795954002E-02 -0.94316639279E-02  0.10206326544E+01  0.10203667227E+01 0.  0.
     999903    2    3    3    0    0 -0.82512815438E-01 -0.56234178047E-01 -0.80460403621E-01  0.12954113788E+00  0.18340729568E-01 0.  0.
         14    1    1    2    0    0 -0.19585515327E-01 -0.83795954002E-02  0.94316639279E-02  0.23297345646E-01  0.00000000000E+00 0. -1.
     999901    1    3    3    0    0  0.10209833076E+00  0.64613773447E-01  0.71028739693E-01  0.89109151647E+00  0.88000000000E+00 0. -1.
        -11    1    4    4    0    0 -0.45633244875E-01 -0.25760065671E-01 -0.31791637569E-01  0.61293909661E-01  0.51100000000E-03 0. -1.
         11    1    4    4    0    0 -0.36879570563E-01 -0.30474112376E-01 -0.48668766052E-01  0.68247228222E-01  0.51100000000E-03 0.  1.
</event>
<event>
 8    1  0.1233916E+005  0.1043930E+01  0.7957747E-01            NaN
         13   -1    0    0    0    0  0.00000000000E+00  0.00000000000E+00  0.74505805969E-08  0.10566000000E+00  0.10566000000E+00 0. -1.
     999900   -1    0    0    0    0 -0.00000000000E+00 -0.00000000000E+00 -0.74505805969E-08  0.93827000000E+00  0.93827000000E+00 0.  1.
     999902    2    1    2    0    0  0.20701798486E-01  0.32828878362E-02 -0.10895963715E-01  0.10203066252E+01  0.10200331100E+01 0.  0.
     999903    2    3    3    0    0  0.66714353754E-01 -0.97673062856E-01  0.52849668843E-01  0.13105257548E+00  0.19770124885E-01 0.  0.
         14    1    1    2    0    0 -0.20701798486E-01 -0.32828878362E-02  0.10895963715E-01  0.23623374831E-01  0.00000000000E+00 0. -1.
     999901    1    3    3    0    0 -0.46012555268E-01  0.10095595069E+00 -0.63745632557E-01  0.88925404969E+00  0.88000000000E+00 0.  1.
        -11    1    4    4    0    0  0.26424074838E-01 -0.53099619426E-01  0.32374887828E-01  0.67573632410E-01  0.51100000000E-03 0. -1.
         11    1    4    4    0    0  0.40290278916E-01 -0.44573443431E-01  0.20474781015E-01  0.63478943068E-01  0.51100000000E-03 0.  1.
</event>
<event>
 8    1  0.1233916E+005  0.1043930E+01  0.7957747E-01            NaN
         13   -1    0    0    0    0  0.00000000000E+00  0.00000000000E+00  0.74505805969E-08  0.10566000000E+00  0.10566000000E+00 0.  1.
     999900   -1    0    0    0    0 -0.00000000000E+00 -0.00000000000E+00 -0.74505805969E-08  0.93827000000E+00  0.93827000000E+00 0.  1.
     999902    2    1    2    0    0 -0.86836041262E-02  0.20661379446E-01  0.19489864797E-02  0.10214334196E+01  0.10211856514E+01 0.  0.
     999903    2    3    3    0    0  0.10773509295E+00  0.66802952599E-01  0.30905705402E-01  0.13209611049E+00  0.20609101180E-01 0.  0.
         14    1    1    2    0    0  0.86836041262E-02 -0.20661379446E-01 -0.19489864797E-02  0.22496580396E-01  0.00000000000E+00 0. -1.
     999901    1    3    3    0    0 -0.11641869708E+00 -0.46141573153E-01 -0.28956718923E-01  0.88933730911E+00  0.88000000000E+00 0.  1.
        -11    1    4    4    0    0  0.42495870209E-01  0.29349213562E-01  0.22719387806E-01  0.56424347801E-01  0.51100000000E-03 0. -1.
         11    1    4    4    0    0  0.65239222746E-01  0.37453739036E-01  0.81863175966E-02  0.75671762693E-01  0.51100000000E-03 0.  1.
</event>
<event>
 8    1  0.1233916E+005  0.1043930E+01  0.7957747E-01            NaN
         13   -1    0    0    0    0  0.00000000000E+00  0.00000000000E+00  0.74505805969E-08  0.10566000000E+00  0.10566000000E+00 0. -1.
     999900   -1    0    0    0    0 -0.00000000000E+00 -0.00000000000E+00 -0.74505805969E-08  0.93827000000E+00  0.93827000000E+00 0. -1.
     999902    2    1    2    0    0  0.19837627657E-01  0.13080732101E-01  0.70663594856E-02  0.10191394683E+01  0.10188379093E+01 0.  0.
     999903    2    3    3    0    0 -0.80136276527E-01  0.95848169782E-01  0.27281381403E-01  0.12939013434E+00  0.19718991505E-01 0.  0.
         14    1    1    2    0    0 -0.19837627657E-01 -0.13080732101E-01 -0.70663594856E-02  0.24790531655E-01  0.00000000000E+00 0. -1.
     999901    1    3    3    0    0  0.99973904184E-01 -0.82767437682E-01 -0.20215021918E-01  0.88974933401E+00  0.88000000000E+00 0. -1.
        -11    1    4    4    0    0 -0.52410243988E-01  0.75098627766E-01  0.23520716548E-01  0.94552222582E-01  0.51100000000E-03 0.  1.
         11    1    4    4    0    0 -0.27726032539E-01  0.20749542016E-01  0.37606648548E-02  0.34837911754E-01  0.51100000000E-03 0. -1.
</event>
<event>
 8    1  0.1233916E+005  0.1043930E+01  0.7957747E-01            NaN
         13   -1    0    0    0    0  0.00000000000E+00  0.00000000000E+00  0.74505805969E-08  0.10566000000E+00  0.10566000000E+00 0.  1.
     999900   -1    0    0    0    0 -0.00000000000E+00 -0.00000000000E+00 -0.74505805969E-08  0.93827000000E+00  0.93827000000E+00 0.  1.
     999902    2    1    2    0    0 -0.28502966107E-03  0.20442978105E-01  0.77781141068E-02  0.10220554565E+01  0.10218213447E+01 0.  0.
     999903    2    3    3    0    0 -0.10277102615E+00 -0.71273697042E-01  0.33502101883E-01  0.13100155713E+00  0.19929712369E-01 0.  0.
         14    1    1    2    0    0  0.28502966107E-03 -0.20442978105E-01 -0.77781141068E-02  0.21874543532E-01  0.00000000000E+00 0. -1.
     999901    1    3    3    0    0  0.10248599648E+00  0.91716675147E-01 -0.25723987776E-01  0.89105389934E+00  0.88000000000E+00 0. -1.
        -11    1    4    4    0    0 -0.74598773148E-01 -0.44594746968E-01  0.15744262648E-01  0.88327862759E-01  0.51100000000E-03 0. -1.
         11    1    4    4    0    0 -0.28172252998E-01 -0.26678950074E-01  0.17757839235E-01  0.42673694372E-01  0.51100000000E-03 0.  1.
</event>
<event>
 8    1  0.1233916E+005  0.1043930E+01  0.7957747E-01            NaN
         13   -1    0    0    0    0  0.00000000000E+00  0.00000000000E+00  0.74505805969E-08  0.10566000000E+00  0.10566000000E+00 0.  1.
     999900   -1    0    0    0    0 -0.00000000000E+00 -0.00000000000E+00 -0.74505805969E-08  0.93827000000E+00  0.93827000000E+00 0.  1.
     999902    2    1    2    0    0  0.20252175797E-01  0.88072045207E-02 -0.99555015266E-02  0.10197054363E+01  0.10194176511E+01 0.  0.
     999903    2    3    3    0    0  0.66016367899E-03  0.96752349265E-01 -0.87035293058E-01  0.13175302221E+00  0.20549056403E-01 0.  0.
         14    1    1    2    0    0 -0.20252175797E-01 -0.88072045207E-02  0.99555015266E-02  0.24224563703E-01  0.00000000000E+00 0. -1.
     999901    1    3    3    0    0  0.19592012118E-01 -0.87945144744E-01  0.77079791531E-01  0.88795241409E+00  0.88000000000E+00 0. -1.
        -11    1    4    4    0    0 -0.84305954821E-02  0.29373694361E-01 -0.21929278292E-01  0.37617060332E-01  0.51100000000E-03 0.  1.
         11    1    4    4    0    0  0.90907591611E-02  0.67378654903E-01 -0.65106014765E-01  0.94135961876E-01  0.51100000000E-03 0. -1.
</event>
<event>
 8    1  0.1233916E+005  0.1043930E+01  0.7957747E-01            NaN
         13   -1    0    0    0    0  0.00000000000E+00  0.00000000000E+00  0.74505805969E-08  0.10566000000E+00  0.10566000000E+00 0.  1.
     999900   -1    0    0    0    0 -0.00000000000E+00 -0.00000000000E+00 -0.74505805969E-08  0.93827000000E+00  0.93827000000E+00 0.  1.
     999902    2    1    2    0    0  0.18616950943E-01 -0.10899169994E-01 -0.10110819747E-01  0.10201054025E+01  0.10198271524E+01 0.  0.
     999903    2    3    3    0    0  0.11290502134E+00 -0.34237373013E-01 -0.58916657608E-01  0.13341666246E+00  0.20226016031E-01 0.  0.
         14    1    1    2    0    0 -0.18616950943E-01  0.10899169994E-01  0.10110819747E-01  0.23824597477E-01  0.00000000000E+00 0. -1.
     999901    1    3    3    0    0 -0.94288070397E-01  0.23338203019E-01  0.48805837861E-01  0.88668874006E+00  0.88000000000E+00 0.  1.
        -11    1    4    4    0    0  0.19110000104E-01  0.70343580270E-03 -0.52166919668E-02  0.19828311122E-01  0.51100000000E-03 0. -1.
         11    1    4    4    0    0  0.93795021237E-01 -0.34940808816E-01 -0.53699965642E-01  0.11358835134E+00  0.51100000000E-03 0.  1.
</event>
<event>
 8    1  0.1233916E+005  0.1043930E+01  0.7957747E-01            NaN
         13   -1    0    0    0    0  0.00000000000E+00  0.00000000000E+00  0.74505805969E-08  0.10566000000E+00  0.10566000000E+00 0.  1.
     999900   -1    0    0    0    0 -0.00000000000E+00 -0.00000000000E+00 -0.74505805969E-08  0.93827000000E+00  0.93827000000E+00 0.  1.
     999902    2    1    2    0    0  0.61490748714E-02 -0.75616150491E-02 -0.21684118367E-01  0.10201562722E+01  0.10198792230E+01 0.  0.
     999903    2    3    3    0    0  0.99945656706E-01 -0.79154479201E-01 -0.23287744024E-01  0.13227907992E+00  0.26473951183E-01 0.  0.
         14    1    1    2    0    0 -0.61490748714E-02  0.75616150491E-02  0.21684118367E-01  0.23773727795E-01  0.00000000000E+00 0.  1.
     999901    1    3    3    0    0 -0.93796581835E-01  0.71592864152E-01  0.16036256566E-02  0.88787719228E+00  0.88000000000E+00 0. -1.
        -11    1    4    4    0    0  0.42957313270E-01 -0.35882027300E-01 -0.23536745561E-01  0.60721414337E-01  0.51100000000E-03 0. -1.
         11    1    4    4    0    0  0.56988343436E-01 -0.43272451901E-01  0.24900153735E-03  0.71557665585E-01  0.51100000000E-03 0.  1.
</event>
<event>
 8    1  0.1233916E+005  0.1043930E+01  0.7957747E-01            NaN
         13   -1    0    0    0    0  0.00000000000E+00  0.00000000000E+00  0.74505805969E-08  0.10566000000E+00  0.10566000000E+00 0. -1.
     999900   -1    0    0    0    0 -0.00000000000E+00 -0.00000000000E+00 -0.74505805969E-08  0.93827000000E+00  0.93827000000E+00 0.  1.
     999902    2    1    2    0    0  0.97569864570E-02  0.20693401698E-01 -0.25086685128E-02  0.10209145905E+01  0.10206551288E+01 0.  0.
     999903    2    3    3    0    0 -0.45413096526E-01 -0.96431882862E-01 -0.69460322017E-01  0.12892546819E+00  0.20870616788E-01 0.  0.
         14    1    1    2    0    0 -0.97569864570E-02 -0.20693401698E-01  0.25086685128E-02  0.23015409540E-01  0.00000000000E+00 0.  1.
     999901    1    3    3    0    0  0.55170082983E-01  0.11712528456E+00  0.66951653505E-01  0.89198912227E+00  0.88000000000E+00 0.  1.
        -11    1    4    4    0    0 -0.10442966888E-01 -0.46290177670E-01 -0.29014754947E-01  0.55623315541E-01  0.51100000000E-03 0.  1.
         11    1    4    4    0    0 -0.34970129638E-01 -0.50141705192E-01 -0.40445567070E-01  0.73302152650E-01  0.51100000000E-03 0. -1.
</event>
<event>
 8    1  0.1233916E+005  0.1043930E+01  0.7957747E-01            NaN
         13   -1    0    0    0    0  0.00000000000E+00  0.00000000000E+00  0.74505805969E-08  0.10566000000E+00  0.10566000000E+00 0.  1.
     999900   -1    0    0    0    0 -0.00000000000E+00 -0.00000000000E+00 -0.74505805969E-08  0.93827000000E+00  0.93827000000E+00 0.  1.
     999902    2    1    2    0    0 -0.25392524654E-02  0.24426600537E-01 -0.18983573504E-01  0.10128899826E+01  0.10124142602E+01 0.  0.
     999903    2    3    3    0    0  0.77861716067E-01  0.26751304115E-02 -0.96491447849E-01  0.12556540119E+00  0.19658772013E-01 0.  0.
         14    1    1    2    0    0  0.25392524654E-02 -0.24426600537E-01  0.18983573504E-01  0.31040017395E-01  0.00000000000E+00 0.  1.
     999901    1    3    3    0    0 -0.80400968533E-01  0.21751470125E-01  0.77507874345E-01  0.88732458141E+00  0.88000000000E+00 0.  1.
        -11    1    4    4    0    0  0.70596149836E-01 -0.12668032952E-02 -0.77475731716E-01  0.10482447848E+00  0.51100000000E-03 0.  1.
         11    1    4    4    0    0  0.72655662311E-02  0.39419337067E-02 -0.19015716133E-01  0.20740922714E-01  0.51100000000E-03 0. -1.
</event>
<event>
 8    1  0.1233916E+005  0.1043930E+01  0.7957747E-01            NaN
         13   -1    0    0    0    0  0.00000000000E+00  0.00000000000E+00  0.74505805969E-08  0.10566000000E+00  0.10566000000E+00 0. -1.
     999900   -1    0    0    0    0 -0.00000000000E+00 -0.00000000000E+00 -0.74505805969E-08  0.93827000000E+00  0.93827000000E+00 0.  1.
     999902    2    1    2    0    0  0.16352895198E-01 -0.16785390256E-01 -0.69906446721E-02  0.10194752332E+01  0.10191818854E+01 0.  0.
     999903    2    3    3    0    0 -0.11547010479E+00  0.21083888806E-01 -0.45651447785E-01  0.12801236613E+00  0.22918021970E-01 0.  0.
         14    1    1    2    0    0 -0.16352895198E-01  0.16785390256E-01  0.69906446721E-02  0.24454766822E-01  0.00000000000E+00 0. -1.
     999901    1    3    3    0    0  0.13182299999E+00 -0.37869279062E-01  0.38660803113E-01  0.89146286704E+00  0.88000000000E+00 0. -1.
        -11    1    4    4    0    0 -0.17525409421E-01  0.91375829888E-03 -0.15881338742E-01  0.23673887954E-01  0.51100000000E-03 0. -1.
         11    1    4    4    0    0 -0.97944695368E-01  0.20170130507E-01 -0.29770109043E-01  0.10433847818E+00  0.51100000000E-03 0.  1.
</event>
<event>
 8    1  0.1233916E+005  0.1043930E+01  0.7957747E-01            NaN
         13   -1    0    0    0    0  0.00000000000E+00  0.00000000000E+00  0.74505805969E-08  0.10566000000E+00  0.10566000000E+00 0. -1.
     999900   -1    0    0    0    0 -0.00000000000E+00 -0.00000000000E+00 -0.74505805969E-08  0.93827000000E+00  0.93827000000E+00 0. -1.
     999902    2    1    2    0    0  0.11252145780E-02  0.22370909651E-01  0.54194447715E-02  0.10208845213E+01  0.10206243735E+01 0.  0.
     999903    2    3    3    0    0  0.12935476008E+00  0.41582961804E-02 -0.97623488668E-02  0.13127505503E+00  0.19694954605E-01 0.  0.
         14    1    1    2    0    0 -0.11252145780E-02 -0.22370909651E-01 -0.54194447715E-02  0.23045478691E-01  0.00000000000E+00 0.  1.
     999901    1    3    3    0    0 -0.12822954550E+00  0.18212613471E-01  0.15181793638E-01  0.88960946628E+00  0.88000000000E+00 0. -1.
        -11    1    4    4    0    0  0.97502005434E-01  0.34998103765E-02 -0.15820865422E-01  0.98840531362E-01  0.51100000000E-03 0. -1.
         11    1    4    4    0    0  0.31852754644E-01  0.65848580392E-03  0.60585165551E-02  0.32434523672E-01  0.51100000000E-03 0.  1.
</event>
<event>
 8    1  0.1233916E+005  0.1043930E+01  0.7957747E-01            NaN
         13   -1    0    0    0    0  0.00000000000E+00  0.00000000000E+00  0.74505805969E-08  0.10566000000E+00  0.10566000000E+00 0. -1.
     999900   -1    0    0    0    0 -0.00000000000E+00 -0.00000000000E+00 -0.74505805969E-08  0.93827000000E+00  0.93827000000E+00 0.  1.
     999902    2    1    2    0    0 -0.17359517279E-01  0.12178909716E-01 -0.97769297600E-02  0.10205790463E+01  0.10203118752E+01 0.  0.
     999903    2    3    3    0    0 -0.71178438527E-01  0.10791279436E+00 -0.27759909265E-01  0.13357011711E+00  0.18942606103E-01 0.  0.
         14    1    1    2    0    0  0.17359517279E-01 -0.12178909716E-01  0.97769297600E-02  0.23350953676E-01  0.00000000000E+00 0. -1.
     999901    1    3    3    0    0  0.53818921247E-01 -0.95733884639E-01  0.17982979505E-01  0.88700892921E+00  0.88000000000E+00 0.  1.
        -11    1    4    4    0    0 -0.27716727873E-01  0.30883041694E-01 -0.15396040226E-01  0.44263737347E-01  0.51100000000E-03 0. -1.
         11    1    4    4    0    0 -0.43461710654E-01  0.77029752661E-01 -0.12363869039E-01  0.89306379764E-01  0.51100000000E-03 0.  1.
</event>
<event>
 8    1  0.1233916E+005  0.1043930E+01  0.7957747E-01            NaN
         13   -1    0    0    0    0  0.00000000000E+00  0.00000000000E+00  0.74505805969E-08  0.10566000000E+00  0.10566000000E+00 0. -1.
     999900   -1    0    0    0    0 -0.00000000000E+00 -0.00000000000E+00 -0.74505805969E-08  0.93827000000E+00  0.93827000000E+00 0. -1.
     999902    2    1    2    0    0  0.19730920144E-02  0.22312599130E-01  0.46589648567E-02  0.10210509457E+01  0.10207945839E+01 0.  0.
     999903    2    3    3    0    0  0.10067218010E+00  0.78144633056E-01 -0.32430115588E-01  0.13300008799E+00  0.19895715260E-01 0.  0.
         14    1    1    2    0    0 -0.19730920144E-02 -0.22312599130E-01 -0.46589648567E-02  0.22879054298E-01  0.00000000000E+00 0. -1.
     999901    1    3    3    0    0 -0.98699088086E-01 -0.55832033926E-01  0.37089080444E-01  0.88805085772E+00  0.88000000000E+00 0.  1.
        -11    1    4    4    0    0  0.48564225295E-01  0.49851907922E-01 -0.15013404626E-01  0.71199439193E-01  0.51100000000E-03 0. -1.
         11    1    4    4    0    0  0.52107954806E-01  0.28292725134E-01 -0.17416710962E-01  0.61800648793E-01  0.51100000000E-03 0.  1.
</event>
<event>
 8    1  0.1233916E+005  0.1043930E+01  0.7957747E-01            NaN
         13   -1    0    0    0    0  0.00000000000E+00  0.00000000000E+00  0.74505805969E-08  0.10566000000E+00  0.10566000000E+00 0.  1.
     999900   -1    0    0    0    0 -0.00000000000E+00 -0.00000000000E+00 -0.74505805969E-08  0.93827000000E+00  0.93827000000E+00 0.  1.
     999902    2    1    2    0    0  0.69286039607E-02  0.21271568481E-01  0.13726096270E-01  0.10176832688E+01  0.10173447522E+01 0.  0.
     999903    2    3    3    0    0 -0.35992208312E-01  0.11527832890E+00 -0.43221088836E-01  0.12980802476E+00  0.19938119226E-01 0.  0.
         14    1    1    2    0    0 -0.69286039607E-02 -0.21271568481E-01 -0.13726096270E-01  0.26246731174E-01  0.00000000000E+00 0. -1.
     999901    1    3    3    0    0  0.42920812273E-01 -0.94006760423E-01  0.56947185106E-01  0.88787524406E+00  0.88000000000E+00 0. -1.
        -11    1    4    4    0    0 -0.10769678943E-01  0.44419817598E-01 -0.67107302232E-02  0.46199580096E-01  0.51100000000E-03 0. -1.
         11    1    4    4    0    0 -0.25222529369E-01  0.70858511306E-01 -0.36510358613E-01  0.83608444665E-01  0.51100000000E-03 0.  1.
</event>
<event>
 8    1  0.1233916E+005  0.1043930E+01  0.7957747E-01            NaN
         13   -1    0    0    0    0  0.00000000000E+00  0.00000000000E+00  0.74505805969E-08  0.10566000000E+00  0.10566000000E+00 0. -1.
     999900   -1    0    0    0    0 -0.00000000000E+00 -0.00000000000E+00 -0.74505805969E-08  0.93827000000E+00  0.93827000000E+00 0.  1.
     999902    2    1    2    0    0 -0.20051806258E-01  0.98866190665E-02  0.88720247637E-02  0.10198772872E+01  0.10195936190E+01 0.  0.
     999903    2    3    3    0    0  0.75209882755E-01  0.34568965564E-01 -0.96013019222E-01  0.12820196506E+00  0.19123392489E-01 0.  0.
         14    1    1    2    0    0  0.20051806258E-01 -0.98866190665E-02 -0.88720247637E-02  0.24052712824E-01  0.00000000000E+00 0.  1.
     999901    1    3    3    0    0 -0.95261689013E-01 -0.24682346498E-01  0.10488504399E+00  0.89167532212E+00  0.88000000000E+00 0.  1.
        -11    1    4    4    0    0  0.41422612997E-01  0.10428464134E-01 -0.56929612042E-01  0.71174627361E-01  0.51100000000E-03 0. -1.
         11    1    4    4    0    0  0.33787269758E-01  0.24140501430E-01 -0.39083407181E-01  0.57027337697E-01  0.51100000000E-03 0.  1.
</event>
<event>
 8    1  0.1233916E+005  0.1043930E+01  0.7957747E-01            NaN
         13   -1    0    0    0    0  0.00000000000E+00  0.00000000000E+00  0.74505805969E-08  0.10566000000E+00  0.10566000000E+00 0.  1.
     999900   -1    0    0    0    0 -0.00000000000E+00 -0.00000000000E+00 -0.74505805969E-08  0.93827000000E+00  0.93827000000E+00 0.  1.
     999902    2    1    2    0    0 -0.16385064759E-01  0.15904847233E-01 -0.36616454826E-02  0.10208033452E+01  0.10205413404E+01 0.  0.
     999903    2    3    3    0    0 -0.38063359590E-01  0.12429923373E+00  0.23055999222E-01  0.13348540672E+00  0.19688978086E-01 0.  0.
         14    1    1    2    0    0  0.16385064759E-01 -0.15904847233E-01  0.36616454826E-02  0.23126654758E-01  0.00000000000E+00 0. -1.
     999901    1    3    3    0    0  0.21678294831E-01 -0.10839438649E+00 -0.26717644705E-01  0.88731793853E+00  0.88000000000E+00 0.  1.
        -11    1    4    4    0    0 -0.15725801983E-02  0.34595830153E-01  0.63031802382E-02  0.35204199673E-01  0.51100000000E-03 0.  1.
         11    1    4    4    0    0 -0.36490779392E-01  0.89703403572E-01  0.16752818984E-01  0.98281207044E-01  0.51100000000E-03 0. -1.
</event>
<event>
 8    1  0.1233916E+005  0.1043930E+01  0.7957747E-01            NaN
         13   -1    0    0    0    0  0.00000000000E+00  0.00000000000E+00  0.74505805969E-08  0.10566000000E+00  0.10566000000E+00 0.  1.
     999900   -1    0    0    0    0 -0.00000000000E+00 -0.00000000000E+00 -0.74505805969E-08  0.93827000000E+00  0.93827000000E+00 0.  1.
     999902    2    1    2    0    0  0.22058212108E-01  0.10278236746E-02  0.83655684457E-02  0.10203163625E+01  0.10200430754E+01 0.  0.
     999903    2    3    3    0    0  0.65892249260E-01 -0.83188572645E-01 -0.74818200843E-01  0.13130940877E+00  0.19551739625E-01 0.  0.
         14    1    1    2    0    0 -0.22058212108E-01 -0.10278236746E-02 -0.83655684457E-02  0.23613637550E-01  0.00000000000E+00 0.  1.
     999901    1    3    3    0    0 -0.43834037152E-01  0.84216396319E-01  0.83183769289E-01  0.88900695368E+00  0.88000000000E+00 0.  1.
        -11    1    4    4    0    0  0.15203101337E-01 -0.25603141264E-01 -0.11825656231E-01  0.32043133417E-01  0.51100000000E-03 0.  1.
         11    1    4    4    0    0  0.50689147923E-01 -0.57585431381E-01 -0.62992544612E-01  0.99266275351E-01  0.51100000000E-03 0. -1.
</event>
<event>
 8    1  0.1233916E+005  0.1043930E+01  0.7957747E-01            NaN
         13   -1    0    0    0    0  0.00000000000E+00  0.00000000000E+00  0.74505805969E-08  0.10566000000E+00  0.10566000000E+00 0.  1.
     999900   -1    0    0    0    0 -0.00000000000E+00 -0.00000000000E+00 -0.74505805969E-08  0.93827000000E+00  0.93827000000E+00 0. -1.
     999902    2    1    2    0    0  0.18741638343E-01  0.11351091774E-01 -0.84739461196E-02  0.10204373617E+01  0.10201669006E+01 0.  0.
     999903    2    3    3    0    0  0.29822740873E-01 -0.12056407505E+00  0.31039481090E-01  0.12965921141E+00  0.20566226019E-01 0.  0.
         14    1    1    2    0    0 -0.18741638343E-01 -0.11351091774E-01  0.84739461196E-02  0.23492638317E-01  0.00000000000E+00 0. -1.
     999901    1    3    3    0    0 -0.11081102530E-01  0.13191516682E+00 -0.39513427210E-01  0.89077815027E+00  0.88000000000E+00 0.  1.
        -11    1    4    4    0    0  0.67715871899E-02 -0.68770788886E-01  0.19491203368E-01  0.71801420089E-01  0.51100000000E-03 0. -1.
         11    1    4    4    0    0  0.23051153683E-01 -0.51793286161E-01  0.11548277722E-01  0.57857791323E-01  0.51100000000E-03 0.  1.
</event>
<event>
 8    1  0.1233916E+005  0.1043930E+01  0.7957747E-01            NaN
         13   -1    0    0    0    0  0.00000000000E+00  0.00000000000E+00  0.74505805969E-08  0.10566000000E+00  0.10566000000E+00 0. -1.
     999900   -1    0    0    0    0 -0.00000000000E+00 -0.00000000000E+00 -0.74505805969E-08  0.93827000000E+00  0.93827000000E+00 0.  1.
     999902    2    1    2    0    0 -0.35918756907E-03  0.12804019134E-01  0.19548517235E-01  0.10205587260E+01  0.10202910843E+01 0.  0.
     999903    2    3    3    0    0 -0.12248844846E+00  0.27150921607E-01 -0.30889690610E-01  0.13057816286E+00  0.18865075697E-01 0.  0.
         14    1    1    2    0    0  0.35918756907E-03 -0.12804019134E-01 -0.19548517235E-01  0.23371273987E-01  0.00000000000E+00 0.  1.
     999901    1    3    3    0    0  0.12212926089E+00 -0.14346902473E-01  0.50438207845E-01  0.88998056315E+00  0.88000000000E+00 0. -1.
        -11    1    4    4    0    0 -0.45175358966E-01  0.25131717203E-02 -0.56588222646E-02  0.45600575437E-01  0.51100000000E-03 0.  1.
         11    1    4    4    0    0 -0.77313089491E-01  0.24637749887E-01 -0.25230868346E-01  0.84977587425E-01  0.51100000000E-03 0. -1.
</event>
<event>
 8    1  0.1233916E+005  0.1043930E+01  0.7957747E-01            NaN
         13   -1    0    0    0    0  0.00000000000E+00  0.00000000000E+00  0.74505805969E-08  0.10566000000E+00  0.10566000000E+00 0. -1.
     999900   -1    0    0    0    0 -0.00000000000E+00 -0.00000000000E+00 -0.74505805969E-08  0.93827000000E+00  0.93827000000E+00 0.  1.
     999902    2    1    2    0    0 -0.30877524812E-02 -0.10302806406E-01  0.20511444399E-01  0.10207696592E+01  0.10205068818E+01 0.  0.
     999903    2    3    3    0    0 -0.19527051144E-01  0.58612464161E-01 -0.11066357262E+00  0.12823033224E+00  0.19490128756E-01 0.  0.
         14    1    1    2    0    0  0.30877524812E-02  0.10302806406E-01 -0.20511444399E-01  0.23160340813E-01  0.00000000000E+00 0.  1.
     999901    1    3    3    0    0  0.16439298662E-01 -0.68915270567E-01  0.13117501702E+00  0.89253932695E+00  0.88000000000E+00 0. -1.
        -11    1    4    4    0    0 -0.13366584392E-01  0.31753262428E-01 -0.42545993298E-01  0.54748131656E-01  0.51100000000E-03 0.  1.
         11    1    4    4    0    0 -0.61604667515E-02  0.26859201733E-01 -0.68117579326E-01  0.73482200583E-01  0.51100000000E-03 0. -1.
</event>
<event>
 8    1  0.1233916E+005  0.1043930E+01  0.7957747E-01            NaN
         13   -1    0    0    0    0  0.00000000000E+00  0.00000000000E+00  0.74505805969E-08  0.10566000000E+00  0.10566000000E+00 0. -1.
     999900   -1    0    0    0    0 -0.00000000000E+00 -0.00000000000E+00 -0.74505805969E-08  0.93827000000E+00  0.93827000000E+00 0.  1.
     999902    2    1    2    0    0 -0.18119366896E-01  0.11143307094E-01  0.80327588890E-02  0.10211921469E+01  0.10209389751E+01 0.  0.
     999903    2    3    3    0    0 -0.11141010529E+00  0.67310325412E-01  0.25170955528E-01  0.13431469558E+00  0.21539939168E-01 0.  0.
         14    1    1    2    0    0  0.18119366896E-01 -0.11143307094E-01 -0.80327588890E-02  0.22737853132E-01  0.00000000000E+00 0.  1.
     999901    1    3    3    0    0  0.93290738393E-01 -0.56167018318E-01 -0.17138196639E-01  0.88687745129E+00  0.88000000000E+00 0.  1.
        -11    1    4    4    0    0 -0.61549818201E-01  0.35719948709E-01  0.24558242511E-01  0.75283884415E-01  0.51100000000E-03 0.  1.
         11    1    4    4    0    0 -0.49860287088E-01  0.31590376702E-01  0.61271301683E-03  0.59030811167E-01  0.51100000000E-03 0. -1.
</event>
<event>
 8    1  0.1233916E+005  0.1043930E+01  0.7957747E-01            NaN
         13   -1    0    0    0    0  0.00000000000E+00  0.00000000000E+00  0.74505805969E-08  0.10566000000E+00  0.10566000000E+00 0. -1.
     999900   -1    0    0    0    0 -0.00000000000E+00 -0.00000000000E+00 -0.74505805969E-08  0.93827000000E+00  0.93827000000E+00 0.  1.
     999902    2    1    2    0    0  0.97309808523E-02 -0.24507502168E-02  0.21539852049E-01  0.10201673530E+01  0.10198905651E+01 0.  0.
     999903    2    3    3    0    0 -0.35360490590E-01  0.11139349295E+00 -0.50631626517E-01  0.12876257695E+00  0.18904101462E-01 0.  0.
         14    1    1    2    0    0 -0.97309808523E-02  0.24507502168E-02 -0.21539852049E-01  0.23762646975E-01  0.00000000000E+00 0.  1.
     999901    1    3    3    0    0  0.45091471442E-01 -0.11384424316E+00  0.72171478566E-01  0.89140477608E+00  0.88000000000E+00 0. -1.
        -11    1    4    4    0    0 -0.54782016420E-03  0.27837878747E-01 -0.12995055923E-01  0.30730769589E-01  0.51100000000E-03 0.  1.
         11    1    4    4    0    0 -0.34812670426E-01  0.83555614200E-01 -0.37636570594E-01  0.98031807357E-01  0.51100000000E-03 0. -1.
</event>
<event>
 8    1  0.1233916E+005  0.1043930E+01  0.7957747E-01            NaN
         13   -1    0    0    0    0  0.00000000000E+00  0.00000000000E+00  0.74505805969E-08  0.10566000000E+00  0.10566000000E+00 0.  1.
     999900   -1    0    0    0    0 -0.00000000000E+00 -0.00000000000E+00 -0.74505805969E-08  0.93827000000E+00  0.93827000000E+00 0.  1.
     999902    2    1    2    0    0 -0.20230125152E-01 -0.84445815868E-02  0.88804034721E-02  0.10202777171E+01  0.10200035242E+01 0.  0.
     999903    2    3    3    0    0  0.37427417965E-01 -0.92999140420E-01  0.82897338666E-01  0.13126007248E+00  0.17538133756E-01 0.  0.
         14    1    1    2    0    0  0.20230125152E-01  0.84445815868E-02 -0.88804034721E-02  0.23652282928E-01  0.00000000000E+00 0. -1.
     999901    1    3    3    0    0 -0.57657543117E-01  0.84554558833E-01 -0.74016935194E-01  0.88901764459E+00  0.88000000000E+00 0. -1.
        -11    1    4    4    0    0  0.14757721737E-01 -0.58448963018E-01  0.52754889093E-01  0.80108745296E-01  0.51100000000E-03 0. -1.
         11    1    4    4    0    0  0.22669696228E-01 -0.34550177403E-01  0.30142449573E-01  0.51151327186E-01  0.51100000000E-03 0.  1.
</event>
<event>
 8    1  0.1233916E+005  0.1043930E+01  0.7957747E-01            NaN
         13   -1    0    0    0    0  0.00000000000E+00  0.00000000000E+00  0.74505805969E-08  0.10566000000E+00  0.10566000000E+00 0.  1.
     999900   -1    0    0    0    0 -0.00000000000E+00 -0.00000000000E+00 -0.74505805969E-08  0.93827000000E+00  0.93827000000E+00 0. -1.
     999902    2    1    2    0    0  0.14913539652E-01  0.13208610884E-01  0.24666627746E-02  0.10238559996E+01  0.10236591925E+01 0.  0.
     999903    2    3    3    0    0  0.15957747196E-01  0.51920219582E-01  0.12195976969E+00  0.13493627229E+00  0.19576855183E-01 0.  0.
         14    1    1    2    0    0 -0.14913539652E-01 -0.13208610884E-01 -0.24666627746E-02  0.20074000391E-01  0.00000000000E+00 0.  1.
     999901    1    3    3    0    0 -0.10442075445E-02 -0.38711608698E-01 -0.11949310692E+00  0.88891972732E+00  0.88000000000E+00 0. -1.
        -11    1    4    4    0    0  0.18950383652E-01  0.34714552643E-01  0.74251029930E-01  0.84129030497E-01  0.51100000000E-03 0. -1.
         11    1    4    4    0    0 -0.29926364561E-02  0.17205666939E-01  0.47708739763E-01  0.50807241792E-01  0.51100000000E-03 0.  1.
</event>
<event>
 8    1  0.1233916E+005  0.1043930E+01  0.7957747E-01            NaN
         13   -1    0    0    0    0  0.00000000000E+00  0.00000000000E+00  0.74505805969E-08  0.10566000000E+00  0.10566000000E+00 0. -1.
     999900   -1    0    0    0    0 -0.00000000000E+00 -0.00000000000E+00 -0.74505805969E-08  0.93827000000E+00  0.93827000000E+00 0. -1.
     999902    2    1    2    0    0 -0.11814854044E-01 -0.16866774582E-01 -0.96940418101E-02  0.10211692156E+01  0.10209155271E+01 0.  0.
     999903    2    3    3    0    0  0.22748173694E-03 -0.98192500749E-01 -0.88589619234E-01  0.13382294510E+00  0.20460719659E-01 0.  0.
         14    1    1    2    0    0  0.11814854044E-01  0.16866774582E-01  0.96940418101E-02  0.22760784422E-01  0.00000000000E+00 0. -1.
     999901    1    3    3    0    0 -0.12042335781E-01  0.81325726167E-01  0.78895577424E-01  0.88734627047E+00  0.88000000000E+00 0.  1.
        -11    1    4    4    0    0  0.39863288170E-02 -0.84383189020E-01 -0.83058534038E-01  0.11847107075E+00  0.51100000000E-03 0.  1.
         11    1    4    4    0    0 -0.37588470801E-02 -0.13809311729E-01 -0.55310851967E-02  0.15351874356E-01  0.51100000000E-03 0. -1.
</event>
<event>
 8    1  0.1233916E+005  0.1043930E+01  0.7957747E-01            NaN
         13   -1    0    0    0    0  0.00000000000E+00  0.00000000000E+00  0.74505805969E-08  0.10566000000E+00  0.10566000000E+00 0. -1.
     999900   -1    0    0    0    0 -0.00000000000E+00 -0.00000000000E+00 -0.74505805969E-08  0.93827000000E+00  0.93827000000E+00 0.  1.
     999902    2    1    2    0    0  0.27633008476E-02 -0.10928256862E-01  0.20558746133E-01  0.10204837919E+01  0.10202144113E+01 0.  0.
     999903    2    3    3    0    0 -0.77546013849E-01  0.37185646480E-01 -0.93227380864E-01  0.12823280908E+00  0.18871995508E-01 0.  0.
         14    1    1    2    0    0 -0.27633008476E-02  0.10928256862E-01 -0.20558746133E-01  0.23446208055E-01  0.00000000000E+00 0.  1.
     999901    1    3    3    0    0  0.80309314697E-01 -0.48113903342E-01  0.11378612700E+00  0.89225098286E+00  0.88000000000E+00 0. -1.
        -11    1    4    4    0    0 -0.59087830218E-01  0.19239863423E-01 -0.62388709692E-01  0.88057687015E-01  0.51100000000E-03 0. -1.
         11    1    4    4    0    0 -0.18458183631E-01  0.17945783057E-01 -0.30838671172E-01  0.40175122067E-01  0.51100000000E-03 0.  1.
</event>
<event>
 8    1  0.1233916E+005  0.1043930E+01  0.7957747E-01            NaN
         13   -1    0    0    0    0  0.00000000000E+00  0.00000000000E+00  0.74505805969E-08  0.10566000000E+00  0.10566000000E+00 0. -1.
     999900   -1    0    0    0    0 -0.00000000000E+00 -0.00000000000E+00 -0.74505805969E-08  0.93827000000E+00  0.93827000000E+00 0. -1.
     999902    2    1    2    0    0 -0.80921436122E-02 -0.19850736375E-01  0.87611519280E-02  0.10207720142E+01  0.10205092908E+01 0.  0.
     999903    2    3    3    0    0  0.41089272622E-01 -0.10787857692E+00  0.63673681792E-01  0.13331322736E+00  0.19798059366E-01 0.  0.
         14    1    1    2    0    0  0.80921436122E-02  0.19850736375E-01 -0.87611519280E-02  0.23157985793E-01  0.00000000000E+00 0.  1.
     999901    1    3    3    0    0 -0.49181416234E-01  0.88027840540E-01 -0.54912529864E-01  0.88745878685E+00  0.88000000000E+00 0. -1.
        -11    1    4    4    0    0  0.33190425625E-01 -0.75266809610E-01  0.53948828614E-01  0.98373950881E-01  0.51100000000E-03 0. -1.
         11    1    4    4    0    0  0.78988469969E-02 -0.32611767306E-01  0.97248531778E-02  0.34939276481E-01  0.51100000000E-03 0.  1.
</event>
<event>
 8    1  0.1233916E+005  0.1043930E+01  0.7957747E-01            NaN
         13   -1    0    0    0    0  0.00000000000E+00  0.00000000000E+00  0.74505805969E-08  0.10566000000E+00  0.10566000000E+00 0. -1.
     999900   -1    0    0    0    0 -0.00000000000E+00 -0.00000000000E+00 -0.74505805969E-08  0.93827000000E+00  0.93827000000E+00 0. -1.
     999902    2    1    2    0    0  0.16124579399E-01 -0.17824961607E-01 -0.31278701629E-02  0.10196912936E+01  0.10194031682E+01 0.  0.
     999903    2    3    3    0    0  0.42238832574E-01  0.57865656549E-01 -0.10675370769E+00  0.13000070798E+00  0.19268543930E-01 0.  0.
         14    1    1    2    0    0 -0.16124579399E-01  0.17824961607E-01  0.31278701629E-02  0.24238706419E-01  0.00000000000E+00 0.  1.
     999901    1    3    3    0    0 -0.26114253174E-01 -0.75690618156E-01  0.10362583753E+00  0.88969058560E+00  0.88000000000E+00 0.  1.
        -11    1    4    4    0    0  0.14174011034E-01  0.30327064803E-01 -0.61715729356E-01  0.70212006234E-01  0.51100000000E-03 0. -1.
         11    1    4    4    0    0  0.28064821539E-01  0.27538591745E-01 -0.45037978337E-01  0.59788701751E-01  0.51100000000E-03 0.  1.
</event>
<event>
 8    1  0.1233916E+005  0.1043930E+01  0.7957747E-01            NaN
         13   -1    0    0    0    0  0.00000000000E+00  0.00000000000E+00  0.74505805969E-08  0.10566000000E+00  0.10566000000E+00 0. -1.
     999900   -1    0    0    0    0 -0.00000000000E+00 -0.00000000000E+00 -0.74505805969E-08  0.93827000000E+00  0.93827000000E+00 0.  1.
     999902    2    1    2    0    0  0.20157410467E-01 -0.51014556163E-02  0.97842251009E-02  0.10209500716E+01  0.10206914184E+01 0.  0.
     999903    2    3    3    0    0 -0.10240813058E+00 -0.69132599844E-01 -0.32140192768E-01  0.12916536888E+00  0.19594870665E-01 0.  0.
         14    1    1    2    0    0 -0.20157410467E-01  0.51014556163E-02 -0.97842251009E-02  0.22979928350E-01  0.00000000000E+00 0. -1.
     999901    1    3    3    0    0  0.12256554105E+00  0.64031144227E-01  0.41924417869E-01  0.89178470277E+00  0.88000000000E+00 0. -1.
        -11    1    4    4    0    0 -0.31071511764E-01 -0.30162985445E-01 -0.56753563881E-02  0.43677400625E-01  0.51100000000E-03 0.  1.
         11    1    4    4    0    0 -0.71336618816E-01 -0.38969614399E-01 -0.26464836380E-01  0.85487968253E-01  0.51100000000E-03 0. -1.
</event>
<event>
 8    1  0.1233916E+005  0.1043930E+01  0.7957747E-01            NaN
         13   -1    0    0    0    0  0.00000000000E+00  0.00000000000E+00  0.74505805969E-08  0.10566000000E+00  0.10566000000E+00 0.  1.
     999900   -1    0    0    0    0 -0.00000000000E+00 -0.00000000000E+00 -0.74505805969E-08  0.93827000000E+00  0.93827000000E+00 0. -1.
     999902    2    1    2    0    0 -0.17928936165E-01  0.17396715727E-01  0.22704628540E-02  0.10188451944E+01  0.10185363433E+01 0.  0.
     999903    2    3    3    0    0  0.95823562005E-02  0.25715889974E-01 -0.12472346366E+00  0.12926465435E+00  0.20006997056E-01 0.  0.
         14    1    1    2    0    0  0.17928936165E-01 -0.17396715727E-01 -0.22704628540E-02  0.25084805593E-01  0.00000000000E+00 0. -1.
     999901    1    3    3    0    0 -0.27511292365E-01 -0.83191742464E-02  0.12699392651E+00  0.88958054005E+00  0.88000000000E+00 0.  1.
        -11    1    4    4    0    0  0.15796750212E-01  0.20074211002E-01 -0.93016469206E-01  0.96461577476E-01  0.51100000000E-03 0.  1.
         11    1    4    4    0    0 -0.62143940115E-02  0.56416789717E-02 -0.31706994452E-01  0.32803076879E-01  0.51100000000E-03 0. -1.
</event>
<event>
 8    1  0.1233916E+005  0.1043930E+01  0.7957747E-01            NaN
         13   -1    0    0    0    0  0.00000000000E+00  0.00000000000E+00  0.74505805969E-08  0.10566000000E+00  0.10566000000E+00 0.  1.
     999900   -1    0    0    0    0 -0.00000000000E+00 -0.00000000000E+00 -0.74505805969E-08  0.93827000000E+00  0.93827000000E+00 0. -1.
     999902    2    1    2    0    0  0.15759776287E-01 -0.11407628118E-01  0.12997315256E-01  0.10205326768E+01  0.10202644313E+01 0.  0.
     999903    2    3    3    0    0 -0.12179201521E+00  0.25306584599E-01  0.27352128664E-01  0.12897533743E+00  0.20317001035E-01 0.  0.
         14    1    1    2    0    0 -0.15759776287E-01  0.11407628118E-01 -0.12997315256E-01  0.23397323175E-01  0.00000000000E+00 0. -1.
     999901    1    3    3    0    0  0.13755179149E+00 -0.36714212718E-01 -0.14354813408E-01  0.89155733939E+00  0.88000000000E+00 0. -1.
        -11    1    4    4    0    0 -0.53152468216E-01  0.17808170269E-01  0.44859833435E-02  0.56237896238E-01  0.51100000000E-03 0. -1.
         11    1    4    4    0    0 -0.68639546990E-01  0.74984143308E-02  0.22866145320E-01  0.72737441193E-01  0.51100000000E-03 0.  1.
</event>
<event>
 8    1  0.1233916E+005  0.1043930E+01  0.7957747E-01            NaN
         13   -1    0    0    0    0  0.00000000000E+00  0.00000000000E+00  0.74505805969E-08  0.10566000000E+00  0.10566000000E+00 0. -1.
     999900   -1    0    0    0    0 -0.00000000000E+00 -0.00000000000E+00 -0.74505805969E-08  0.93827000000E+00  0.93827000000E+00 0.  1.
     999902    2    1    2    0    0  0.55354578342E-02 -0.14343342079E-01  0.17728357015E-01  0.10204636965E+01  0.10201938485E+01 0.  0.
     999903    2    3    3    0    0  0.33905962865E-01  0.11187025076E+00 -0.51216641682E-01  0.12833804989E+00  0.13525654888E-01 0.  0.
         14    1    1    2    0    0 -0.55354578342E-02  0.14343342079E-01 -0.17728357015E-01  0.23466303456E-01  0.00000000000E+00 0.  1.
     999901    1    3    3    0    0 -0.28370505031E-01 -0.12621359284E+00  0.68944998697E-01  0.89212564666E+00  0.88000000000E+00 0. -1.
        -11    1    4    4    0    0  0.30497147770E-01  0.86063231473E-01 -0.35771585786E-01  0.98065403197E-01  0.51100000000E-03 0.  1.
         11    1    4    4    0    0  0.34088150956E-02  0.25807019292E-01 -0.15445055895E-01  0.30272646692E-01  0.51100000000E-03 0. -1.
</event>
<event>
 8    1  0.1233916E+005  0.1043930E+01  0.7957747E-01            NaN
         13   -1    0    0    0    0  0.00000000000E+00  0.00000000000E+00  0.74505805969E-08  0.10566000000E+00  0.10566000000E+00 0. -1.
     999900   -1    0    0    0    0 -0.00000000000E+00 -0.00000000000E+00 -0.74505805969E-08  0.93827000000E+00  0.93827000000E+00 0. -1.
     999902    2    1    2    0    0  0.21460073275E-01  0.11768878549E-02  0.11137216546E-01  0.10197234430E+01  0.10194360906E+01 0.  0.
     999903    2    3    3    0    0  0.12360899244E+00  0.17400127835E-01 -0.38855303794E-01  0.13225690993E+00  0.20005202586E-01 0.  0.
         14    1    1    2    0    0 -0.21460073275E-01 -0.11768878549E-02 -0.11137216546E-01  0.24206557012E-01  0.00000000000E+00 0.  1.
     999901    1    3    3    0    0 -0.10214891917E+00 -0.16223239980E-01  0.49992520340E-01  0.88746653305E+00  0.88000000000E+00 0. -1.
        -11    1    4    4    0    0  0.33657171185E-01 -0.32401876487E-03 -0.18233355173E-01  0.38283501958E-01  0.51100000000E-03 0.  1.
         11    1    4    4    0    0  0.89951821259E-01  0.17724146600E-01 -0.20621948621E-01  0.93973407975E-01  0.51100000000E-03 0. -1.
</event>
<event>
 8    1  0.1233916E+005  0.1043930E+01  0.7957747E-01            NaN
         13   -1    0    0    0    0  0.00000000000E+00  0.00000000000E+00  0.74505805969E-08  0.10566000000E+00  0.10566000000E+00 0. -1.
     999900   -1    0    0    0    0 -0.00000000000E+00 -0.00000000000E+00 -0.74505805969E-08  0.93827000000E+00  0.93827000000E+00 0.  1.
     999902    2    1    2    0    0 -0.23158389223E-01 -0.18227033290E-02 -0.30589781700E-03  0.10206979787E+01  0.10204335534E+01 0.  0.
     999903    2    3    3    0    0 -0.23476997288E-01  0.10716151169E+00  0.68696646659E-01  0.13129423926E+00  0.22004295295E-01 0.  0.
         14    1    1    2    0    0  0.23158389223E-01  0.18227033290E-02  0.30589781700E-03  0.23232021271E-01  0.00000000000E+00 0. -1.
     999901    1    3    3    0    0  0.31860806479E-03 -0.10898421502E+00 -0.69002544476E-01  0.88940373947E+00  0.88000000000E+00 0.  1.
        -11    1    4    4    0    0 -0.81660522505E-02  0.48857549442E-01  0.18607993327E-01  0.52917512069E-01  0.51100000000E-03 0.  1.
         11    1    4    4    0    0 -0.15310945038E-01  0.58303962249E-01  0.50088653332E-01  0.78376727193E-01  0.51100000000E-03 0. -1.
</event>
<event>
 8    1  0.1233916E+005  0.1043930E+01  0.7957747E-01            NaN
         13   -1    0    0    0    0  0.00000000000E+00  0.00000000000E+00  0.74505805969E-08  0.10566000000E+00  0.10566000000E+00 0.  1.
     999900   -1    0    0    0    0 -0.00000000000E+00 -0.00000000000E+00 -0.74505805969E-08  0.93827000000E+00  0.93827000000E+00 0. -1.
     999902    2    1    2    0    0 -0.18847368836E-01  0.11811397793E-01 -0.55756209577E-02  0.10209992351E+01  0.10207417000E+01 0.  0.
     999903    2    3    3    0    0 -0.15482352262E-01  0.12873386060E+00 -0.17220955641E-01  0.13318292557E+00  0.25080276168E-01 0.  0.
         14    1    1    2    0    0  0.18847368836E-01 -0.11811397793E-01  0.55756209577E-02  0.22930764901E-01  0.00000000000E+00 0.  1.
     999901    1    3    3    0    0 -0.33650165741E-02 -0.11692246281E+00  0.11645334684E-01  0.88781630953E+00  0.88000000000E+00 0.  1.
        -11    1    4    4    0    0  0.19353497492E-02  0.75121165447E-01 -0.38547322711E-02  0.75246628886E-01  0.51100000000E-03 0.  1.
         11    1    4    4    0    0 -0.17417702011E-01  0.53612695157E-01 -0.13366223370E-01  0.57936296684E-01  0.51100000000E-03 0. -1.
</event>
<event>
 8    1  0.1233916E+005  0.1043930E+01  0.7957747E-01            NaN
         13   -1    0    0    0    0  0.00000000000E+00  0.00000000000E+00  0.74505805969E-08  0.10566000000E+00  0.10566000000E+00 0. -1.
     999900   -1    0    0    0    0 -0.00000000000E+00 -0.00000000000E+00 -0.74505805969E-08  0.93827000000E+00  0.93827000000E+00 0.  1.
     999902    2    1    2    0    0  0.16879391879E-01  0.23909305966E-02  0.14644294678E-01  0.10214558863E+01  0.10212086182E+01 0.  0.
     999903    2    3    3    0    0 -0.56836223065E-01  0.10063128441E+00  0.59817112400E-01  0.13177856140E+00  0.20748268721E-01 0.  0.
         14    1    1    2    0    0 -0.16879391879E-01 -0.23909305966E-02 -0.14644294678E-01  0.22474113685E-01  0.00000000000E+00 0.  1.
     999901    1    3    3    0    0  0.73715614944E-01 -0.98240353813E-01 -0.45172817722E-01  0.88967732491E+00  0.88000000000E+00 0.  1.
        -11    1    4    4    0    0 -0.10325503906E-01  0.37013381710E-01  0.23081899728E-01  0.44829027121E-01  0.51100000000E-03 0. -1.
         11    1    4    4    0    0 -0.46510719159E-01  0.63617902700E-01  0.36735212671E-01  0.86949534281E-01  0.51100000000E-03 0.  1.
</event>
<event>
 8    1  0.1233916E+005  0.1043930E+01  0.7957747E-01            NaN
         13   -1    0    0    0    0  0.00000000000E+00  0.00000000000E+00  0.74505805969E-08  0.10566000000E+00  0.10566000000E+00 0. -1.
     999900   -1    0    0    0    0 -0.00000000000E+00 -0.00000000000E+00 -0.74505805969E-08  0.93827000000E+00  0.93827000000E+00 0. -1.
     999902    2    1    2    0    0  0.54013700718E-02  0.46575412603E-02  0.23133912612E-01  0.10197216254E+01  0.10194342293E+01 0.  0.
     999903    2    3    3    0    0  0.11782609547E+00  0.97506328078E-02  0.55430576245E-01  0.13196696729E+00  0.19096283952E-01 0.  0.
         14    1    1    2    0    0 -0.54013700718E-02 -0.46575412603E-02 -0.23133912612E-01  0.24208374625E-01  0.00000000000E+00 0.  1.
     999901    1    3    3    0    0 -0.11242472540E+00 -0.50930915474E-02 -0.32296663633E-01  0.88775465808E+00  0.88000000000E+00 0.  1.
        -11    1    4    4    0    0  0.94948992620E-01  0.11017398464E-01  0.36780628894E-01  0.10241957846E+00  0.51100000000E-03 0.  1.
         11    1    4    4    0    0  0.22877102848E-01 -0.12667656560E-02  0.18649947351E-01  0.29547388838E-01  0.51100000000E-03 0. -1.
</event>
<event>
 8    1  0.1233916E+005  0.1043930E+01  0.7957747E-01            NaN
         13   -1    0    0    0    0  0.00000000000E+00  0.00000000000E+00  0.74505805969E-08  0.10566000000E+00  0.10566000000E+00 0. -1.
     999900   -1    0    0    0    0 -0.00000000000E+00 -0.00000000000E+00 -0.74505805969E-08  0.93827000000E+00  0.93827000000E+00 0.  1.
     999902    2    1    2    0    0  0.49270303076E-03 -0.44378596073E-02  0.23774648852E-01  0.10197396862E+01  0.10194527239E+01 0.  0.
     999903    2    3    3    0    0  0.11839000755E+00 -0.43125600877E-02  0.53091693970E-01  0.13139331273E+00  0.20265305269E-01 0.  0.
         14    1    1    2    0    0 -0.49270303076E-03  0.44378596073E-02 -0.23774648852E-01  0.24190313809E-01  0.00000000000E+00 0.  1.
     999901    1    3    3    0    0 -0.11789730452E+00 -0.12529951957E-03 -0.29317045118E-01  0.88834637346E+00  0.88000000000E+00 0.  1.
        -11    1    4    4    0    0  0.54542448618E-01 -0.88766511052E-02  0.32694894691E-01  0.64209741441E-01  0.51100000000E-03 0. -1.
         11    1    4    4    0    0  0.63847558934E-01  0.45640910175E-02  0.20396799279E-01  0.67183571285E-01  0.51100000000E-03 0.  1.
</event>
<event>
 8    1  0.1233916E+005  0.1043930E+01  0.7957747E-01            NaN
         13   -1    0    0    0    0  0.00000000000E+00  0.00000000000E+00  0.74505805969E-08  0.10566000000E+00  0.10566000000E+00 0. -1.
     999900   -1    0    0    0    0 -0.00000000000E+00 -0.00000000000E+00 -0.74505805969E-08  0.93827000000E+00  0.93827000000E+00 0.  1.
     999902    2    1    2    0    0 -0.75988797671E-03  0.23112094527E-01 -0.17396681528E-02  0.10207400714E+01  0.10204766144E+01 0.  0.
     999903    2    3    3    0    0  0.21118446547E-01 -0.77748131991E-01 -0.98418654451E-01  0.12944984190E+00  0.24088777698E-01 0.  0.
         14    1    1    2    0    0  0.75988797671E-03 -0.23112094527E-01  0.17396681528E-02  0.23189928599E-01  0.00000000000E+00 0.  1.
     999901    1    3    3    0    0 -0.21878334523E-01  0.10086022652E+00  0.96678986298E-01  0.89129022950E+00  0.88000000000E+00 0. -1.
        -11    1    4    4    0    0  0.15463459867E-01 -0.16715305782E-01 -0.27803717173E-01  0.35942006734E-01  0.51100000000E-03 0.  1.
         11    1    4    4    0    0  0.56549866801E-02 -0.61032826208E-01 -0.70614937278E-01  0.93507835164E-01  0.51100000000E-03 0. -1.
</event>
<event>
 8    1  0.1233916E+005  0.1043930E+01  0.7957747E-01            NaN
         13   -1    0    0    0    0  0.00000000000E+00  0.00000000000E+00  0.74505805969E-08  0.10566000000E+00  0.10566000000E+00 0. -1.
     999900   -1    0    0    0    0 -0.00000000000E+00 -0.00000000000E+00 -0.74505805969E-08  0.93827000000E+00  0.93827000000E+00 0. -1.
     999902    2    1    2    0    0 -0.16308600247E-01  0.15078204251E-01  0.62593890323E-02  0.10208539814E+01  0.10205931357E+01 0.  0.
     999903    2    3    3    0    0 -0.87665784538E-01  0.28955173549E-01 -0.91904302329E-01  0.13241685453E+00  0.23751436209E-01 0.  0.
         14    1    1    2    0    0  0.16308600247E-01 -0.15078204251E-01 -0.62593890323E-02  0.23076018645E-01  0.00000000000E+00 0.  1.
     999901    1    3    3    0    0  0.71357184291E-01 -0.13876969298E-01  0.98163691362E-01  0.88843712683E+00  0.88000000000E+00 0.  1.
        -11    1    4    4    0    0 -0.62718414988E-01  0.30489133391E-01 -0.73888859144E-01  0.10160222173E+00  0.51100000000E-03 0. -1.
         11    1    4    4    0    0 -0.24947369550E-01 -0.15339598426E-02 -0.18015443185E-01  0.30814632797E-01  0.51100000000E-03 0.  1.
</event>
<event>
 8    1  0.1233916E+005  0.1043930E+01  0.7957747E-01            NaN
         13   -1    0    0    0    0  0.00000000000E+00  0.00000000000E+00  0.74505805969E-08  0.10566000000E+00  0.10566000000E+00 0.  1.
     999900   -1    0    0    0    0 -0.00000000000E+00 -0.00000000000E+00 -0.74505805969E-08  0.93827000000E+00  0.93827000000E+00 0.  1.
     999902    2    1    2    0    0 -0.17581547671E-01  0.14267101865E-01  0.74344930353E-02  0.10200986614E+01  0.10198202519E+01 0.  0.
     999903    2    3    3    0    0 -0.73462108492E-01  0.74944386364E-01  0.79528752715E-01  0.13330558956E+00  0.20789787595E-01 0.  0.
         14    1    1    2    0    0  0.17581547671E-01 -0.14267101865E-01 -0.74344930353E-02  0.23831338629E-01  0.00000000000E+00 0. -1.
     999901    1    3    3    0    0  0.55880560821E-01 -0.60677284499E-01 -0.72094259680E-01  0.88679307181E+00  0.88000000000E+00 0.  1.
        -11    1    4    4    0    0 -0.10340112033E-02  0.74668286212E-02  0.90424487948E-02  0.11783450684E-01  0.51100000000E-03 0. -1.
         11    1    4    4    0    0 -0.72428097289E-01  0.67477557743E-01  0.70486303920E-01  0.12152213888E+00  0.51100000000E-03 0.  1.
</event>
<event>
 8    1  0.1233916E+005  0.1043930E+01  0.7957747E-01            NaN
         13   -1    0    0    0    0  0.00000000000E+00  0.00000000000E+00  0.74505805969E-08  0.10566000000E+00  0.10566000000E+00 0. -1.
     999900   -1    0    0    0    0 -0.00000000000E+00 -0.00000000000E+00 -0.74505805969E-08  0.93827000000E+00  0.93827000000E+00 0.  1.
     999902    2    1    2    0    0  0.14571730372E-01  0.87130986992E-03  0.18770891022E-01  0.10201509997E+01  0.10198738262E+01 0.  0.
     999903    2    3    3    0    0  0.10854291156E-02 -0.12880107924E+00 -0.10685697367E-02  0.13032494194E+00  0.19812937141E-01 0.  0.
         14    1    1    2    0    0 -0.14571730372E-01 -0.87130986992E-03 -0.18770891022E-01  0.23779000330E-01  0.00000000000E+00 0.  1.
     999901    1    3    3    0    0  0.13486301257E-01  0.12967238911E+00  0.19839460759E-01  0.88982605773E+00  0.88000000000E+00 0. -1.
        -11    1    4    4    0    0 -0.12674847463E-02 -0.53655065519E-01  0.91576055543E-02  0.54448098533E-01  0.51100000000E-03 0.  1.
         11    1    4    4    0    0  0.23529138619E-02 -0.75146013726E-01 -0.10226175291E-01  0.75876843402E-01  0.51100000000E-03 0. -1.
</event>
<event>
 8    1  0.1233916E+005  0.1043930E+01  0.7957747E-01            NaN
         13   -1    0    0    0    0  0.00000000000E+00  0.00000000000E+00  0.74505805969E-08  0.10566000000E+00  0.10566000000E+00 0.  1.
     999900   -1    0    0    0    0 -0.00000000000E+00 -0.00000000000E+00 -0.74505805969E-08  0.93827000000E+00  0.93827000000E+00 0.  1.
     999902    2    1    2    0    0 -0.13917342785E-01  0.16747084884E-01  0.94243190086E-02  0.10202029043E+01  0.10199269537E+01 0.  0.
     999903    2    3    3    0    0 -0.49939966587E-01 -0.99975655943E-01  0.63599207727E-01  0.13011484897E+00  0.19896800098E-01 0.  0.
         14    1    1    2    0    0  0.13917342785E-01 -0.16747084884E-01 -0.94243190086E-02  0.23727095715E-01  0.00000000000E+00 0.  1.
     999901    1    3    3    0    0  0.36022623802E-01  0.11672274083E+00 -0.54174888719E-01  0.89008805532E+00  0.88000000000E+00 0.  1.
        -11    1    4    4    0    0 -0.51714456924E-01 -0.95649040133E-01  0.59993865004E-01  0.12418795792E+00  0.51100000000E-03 0. -1.
         11    1    4    4    0    0  0.17744903369E-02 -0.43266158107E-02  0.36053427235E-02  0.59268910470E-02  0.51100000000E-03 0.  1.
</event>
<event>
 8    1  0.1233916E+005  0.1043930E+01  0.7957747E-01            NaN
         13   -1    0    0    0    0  0.00000000000E+00  0.00000000000E+00  0.74505805969E-08  0.10566000000E+00  0.10566000000E+00 0. -1.
     999900   -1    0    0    0    0 -0.00000000000E+00 -0.00000000000E+00 -0.74505805969E-08  0.93827000000E+00  0.93827000000E+00 0.  1.
     999902    2    1    2    0    0  0.24796175792E-01  0.12630949932E-02 -0.48875100044E-02  0.10186251883E+01  0.10183108271E+01 0.  0.
     999903    2    3    3    0    0  0.53080835375E-01 -0.28447030597E-01  0.11321887468E+00  0.12978784002E+00  0.19989026974E-01 0.  0.
         14    1    1    2    0    0 -0.24796175792E-01 -0.12630949932E-02  0.48875100044E-02  0.25304811734E-01  0.00000000000E+00 0.  1.
     999901    1    3    3    0    0 -0.28284659583E-01  0.29710125590E-01 -0.11810638469E+00  0.88883734824E+00  0.88000000000E+00 0.  1.
        -11    1    4    4    0    0  0.84624706530E-02 -0.10803055364E-01  0.39589017424E-01  0.41903112490E-01  0.51100000000E-03 0. -1.
         11    1    4    4    0    0  0.44618364722E-01 -0.17643975232E-01  0.73629857258E-01  0.87884727531E-01  0.51100000000E-03 0.  1.
</event>
<event>
 8    1  0.1233916E+005  0.1043930E+01  0.7957747E-01            NaN
         13   -1    0    0    0    0  0.00000000000E+00  0.00000000000E+00  0.74505805969E-08  0.10566000000E+00  0.10566000000E+00 0.  1.
     999900   -1    0    0    0    0 -0.00000000000E+00 -0.00000000000E+00 -0.74505805969E-08  0.93827000000E+00  0.93827000000E+00 0. -1.
     999902    2    1    2    0    0  0.13615062555E-01  0.12821091541E-02  0.22501531916E-01  0.10175987890E+01  0.10172580611E+01 0.  0.
     999903    2    3    3    0    0  0.82425004857E-01 -0.96075829779E-01 -0.12849312194E-01  0.12885638619E+00  0.20357233245E-01 0.  0.
         14    1    1    2    0    0 -0.13615062555E-01 -0.12821091541E-02 -0.22501531916E-01  0.26331210964E-01  0.00000000000E+00 0. -1.
     999901    1    3    3    0    0 -0.68809942302E-01  0.97357938933E-01  0.35350844110E-01  0.88874240284E+00  0.88000000000E+00 0. -1.
        -11    1    4    4    0    0  0.29032545405E-01 -0.31548328048E-01 -0.13966473345E-01  0.45094447485E-01  0.51100000000E-03 0.  1.
         11    1    4    4    0    0  0.53392459451E-01 -0.64527501731E-01  0.11171611508E-02  0.83761938707E-01  0.51100000000E-03 0. -1.
</event>
<event>
 8    1  0.1233916E+005  0.1043930E+01  0.7957747E-01            NaN
         13   -1    0    0    0    0  0.00000000000E+00  0.00000000000E+00  0.74505805969E-08  0.10566000000E+00  0.10566000000E+00 0.  1.
     999900   -1    0    0    0    0 -0.00000000000E+00 -0.00000000000E+00 -0.74505805969E-08  0.93827000000E+00  0.93827000000E+00 0.  1.
     999902    2    1    2    0    0 -0.21420185975E-01 -0.62845153458E-02 -0.82649801974E-02  0.10201260214E+01  0.10198482584E+01 0.  0.
     999903    2    3    3    0    0 -0.32967534592E-02 -0.13023632880E+00  0.13770548594E-02  0.13120224529E+00  0.15484281222E-01 0.  0.
         14    1    1    2    0    0  0.21420185975E-01  0.62845153458E-02  0.82649801974E-02  0.23803978617E-01  0.00000000000E+00 0.  1.
     999901    1    3    3    0    0 -0.18123432515E-01  0.12395181346E+00 -0.96420350567E-02  0.88892377609E+00  0.88000000000E+00 0. -1.
        -11    1    4    4    0    0 -0.45579300243E-02 -0.17999199302E-01  0.36699488110E-02  0.18933450475E-01  0.51100000000E-03 0.  1.
         11    1    4    4    0    0  0.12611765651E-02 -0.11223712950E+00 -0.22928939516E-02  0.11226879481E+00  0.51100000000E-03 0. -1.
</event>
<event>
 8    1  0.1233916E+005  0.1043930E+01  0.7957747E-01            NaN
         13   -1    0    0    0    0  0.00000000000E+00  0.00000000000E+00  0.74505805969E-08  0.10566000000E+00  0.10566000000E+00 0. -1.
     999900   -1    0    0    0    0 -0.00000000000E+00 -0.00000000000E+00 -0.74505805969E-08  0.93827000000E+00  0.93827000000E+00 0. -1.
     999902    2    1    2    0    0  0.10127351167E-01  0.14820038311E-01  0.14546982574E-01  0.10208256394E+01  0.10205641452E+01 0.  0.
     999903    2    3    3    0    0 -0.40414501107E-01  0.77209062250E-01 -0.94912607309E-01  0.13041659240E+00  0.20137362156E-01 0.  0.
         14    1    1    2    0    0 -0.10127351167E-01 -0.14820038311E-01 -0.14546982574E-01  0.23104360610E-01  0.00000000000E+00 0.  1.
     999901    1    3    3    0    0  0.50541852274E-01 -0.62389023939E-01  0.10945958988E+00  0.89040904699E+00  0.88000000000E+00 0.  1.
        -11    1    4    4    0    0 -0.16309244793E-01  0.41072880118E-01 -0.60887183081E-01  0.75236182329E-01  0.51100000000E-03 0.  1.
         11    1    4    4    0    0 -0.24105256314E-01  0.36136182132E-01 -0.34025424227E-01  0.55180410073E-01  0.51100000000E-03 0. -1.
</event>
<event>
 8    1  0.1233916E+005  0.1043930E+01  0.7957747E-01            NaN
         13   -1    0    0    0    0  0.00000000000E+00  0.00000000000E+00  0.74505805969E-08  0.10566000000E+00  0.10566000000E+00 0. -1.
     999900   -1    0    0    0    0 -0.00000000000E+00 -0.00000000000E+00 -0.74505805969E-08  0.93827000000E+00  0.93827000000E+00 0. -1.
     999902    2    1    2    0    0  0.13447597252E-01 -0.17524475475E-01 -0.91147431815E-03  0.10218217233E+01  0.10215825264E+01 0.  0.
     999903    2    3    3    0    0 -0.15746553672E-04  0.10501585123E+00  0.74103340764E-01  0.13006804893E+00  0.19951515829E-01 0.  0.
         14    1    1    2    0    0 -0.13447597252E-01  0.17524475475E-01  0.91147431815E-03  0.22108276684E-01  0.00000000000E+00 0. -1.
     999901    1    3    3    0    0  0.13463343806E-01 -0.12254032670E+00 -0.75014815082E-01  0.89175367438E+00  0.88000000000E+00 0. -1.
        -11    1    4    4    0    0  0.80973239024E-02  0.22076341044E-01  0.17749278216E-01  0.29465734107E-01  0.51100000000E-03 0.  1.
         11    1    4    4    0    0 -0.81130704561E-02  0.82939510183E-01  0.56354062548E-01  0.10060231483E+00  0.51100000000E-03 0. -1.
</event>
<event>
 8    1  0.1233916E+005  0.1043930E+01  0.7957747E-01            NaN
         13   -1    0    0    0    0  0.00000000000E+00  0.00000000000E+00  0.74505805969E-08  0.10566000000E+00  0.10566000000E+00 0. -1.
     999900   -1    0    0    0    0 -0.00000000000E+00 -0.00000000000E+00 -0.74505805969E-08  0.93827000000E+00  0.93827000000E+00 0.  1.
     999902    2    1    2    0    0  0.60066370408E-02 -0.71081273699E-02  0.21669097645E-01  0.10203470622E+01  0.10200744935E+01 0.  0.
     999903    2    3    3    0    0 -0.91492719609E-01 -0.11938969906E-01 -0.86895745903E-01  0.12831803416E+00  0.20029740146E-01 0.  0.
         14    1    1    2    0    0 -0.60066370408E-02  0.71081273699E-02 -0.21669097645E-01  0.23582937815E-01  0.00000000000E+00 0. -1.
     999901    1    3    3    0    0  0.97499356650E-01  0.48308425357E-02  0.10856484355E+00  0.89202902803E+00  0.88000000000E+00 0. -1.
        -11    1    4    4    0    0 -0.76756939122E-01 -0.16467763593E-01 -0.77171475592E-01  0.11008411651E+00  0.51100000000E-03 0. -1.
         11    1    4    4    0    0 -0.14735780487E-01  0.45287936871E-02 -0.97242703111E-02  0.18233917651E-01  0.51100000000E-03 0.  1.
</event>
<event>
 8    1  0.1233916E+005  0.1043930E+01  0.7957747E-01            NaN
         13   -1    0    0    0    0  0.00000000000E+00  0.00000000000E+00  0.74505805969E-08  0.10566000000E+00  0.10566000000E+00 0. -1.
     999900   -1    0    0    0    0 -0.00000000000E+00 -0.00000000000E+00 -0.74505805969E-08  0.93827000000E+00  0.93827000000E+00 0.  1.
     999902    2    1    2    0    0 -0.13476815661E-01 -0.66573834862E-02 -0.18145006785E-01  0.10203676023E+01  0.10200955138E+01 0.  0.
     999903    2    3    3    0    0  0.10951059903E+00  0.42240344512E-01 -0.50608382087E-01  0.12987854411E+00  0.23030629119E-01 0.  0.
         14    1    1    2    0    0  0.13476815661E-01  0.66573834862E-02  0.18145006785E-01  0.23562397723E-01  0.00000000000E+00 0. -1.
     999901    1    3    3    0    0 -0.12298741470E+00 -0.48897727998E-01  0.32463375302E-01  0.89048905817E+00  0.88000000000E+00 0. -1.
        -11    1    4    4    0    0  0.67708554957E-01  0.14567485567E-01 -0.33216626804E-01  0.76813185504E-01  0.51100000000E-03 0.  1.
         11    1    4    4    0    0  0.41802044078E-01  0.27672858945E-01 -0.17391755283E-01  0.53065358607E-01  0.51100000000E-03 0. -1.
</event>
<event>
 8    1  0.1233916E+005  0.1043930E+01  0.7957747E-01            NaN
         13   -1    0    0    0    0  0.00000000000E+00  0.00000000000E+00  0.74505805969E-08  0.10566000000E+00  0.10566000000E+00 0. -1.
     999900   -1    0    0    0    0 -0.00000000000E+00 -0.00000000000E+00 -0.74505805969E-08  0.93827000000E+00  0.93827000000E+00 0.  1.
     999902    2    1    2    0    0 -0.23892847821E-01  0.16011051703E-02  0.42592678002E-03  0.10199797781E+01  0.10196985509E+01 0.  0.
     999903    2    3    3    0    0  0.91607781189E-01 -0.71695109047E-01  0.49604563456E-01  0.12805418221E+00  0.20126764034E-01 0.  0.
         14    1    1    2    0    0  0.23892847821E-01 -0.16011051703E-02 -0.42592678002E-03  0.23950221886E-01  0.00000000000E+00 0. -1.
     999901    1    3    3    0    0 -0.11550062901E+00  0.73296214217E-01 -0.49178636676E-01  0.89192559590E+00  0.88000000000E+00 0. -1.
        -11    1    4    4    0    0  0.31651979601E-01 -0.14385028245E-01  0.10260260932E-01  0.36253426399E-01  0.51100000000E-03 0. -1.
         11    1    4    4    0    0  0.59955801588E-01 -0.57310080802E-01  0.39344302524E-01  0.91800755812E-01  0.51100000000E-03 0.  1.
</event>
<event>
 8    1  0.1233916E+005  0.1043930E+01  0.7957747E-01            NaN
         13   -1    0    0    0    0  0.00000000000E+00  0.00000000000E+00  0.74505805969E-08  0.10566000000E+00  0.10566000000E+00 0.  1.
     999900   -1    0    0    0    0 -0.00000000000E+00 -0.00000000000E+00 -0.74505805969E-08  0.93827000000E+00  0.93827000000E+00 0. -1.
     999902    2    1    2    0    0 -0.15835697875E-01  0.14946301513E-01 -0.87150370254E-02  0.10204755095E+01  0.10202059362E+01 0.  0.
     999903    2    3    3    0    0  0.12530693626E+00  0.51956612730E-02 -0.22025882688E-01  0.12907576930E+00  0.21132712580E-01 0.  0.
         14    1    1    2    0    0  0.15835697875E-01 -0.14946301513E-01  0.87150370254E-02  0.23454490540E-01  0.00000000000E+00 0. -1.
     999901    1    3    3    0    0 -0.14114263413E+00  0.97506402403E-02  0.13310845663E-01  0.89139974017E+00  0.88000000000E+00 0.  1.
        -11    1    4    4    0    0  0.64229974778E-01 -0.33168338120E-02 -0.20066593078E-01  0.67375220409E-01  0.51100000000E-03 0. -1.
         11    1    4    4    0    0  0.61076961479E-01  0.85124950850E-02 -0.19592896101E-02  0.61700548886E-01  0.51100000000E-03 0.  1.
</event>
<event>
 8    1  0.1233916E+005  0.1043930E+01  0.7957747E-01            NaN
         13   -1    0    0    0    0  0.00000000000E+00  0.00000000000E+00  0.74505805969E-08  0.10566000000E+00  0.10566000000E+00 0. -1.
     999900   -1    0    0    0    0 -0.00000000000E+00 -0.00000000000E+00 -0.74505805969E-08  0.93827000000E+00  0.93827000000E+00 0. -1.
     999902    2    1    2    0    0 -0.20257631981E-01 -0.11842996994E-01  0.11407293930E-01  0.10178387259E+01  0.10175042591E+01 0.  0.
     999903    2    3    3    0    0 -0.91742114724E-01 -0.32588604542E-01 -0.83196389988E-01  0.12964377625E+00  0.20180105390E-01 0.  0.
         14    1    1    2    0    0  0.20257631981E-01  0.11842996994E-01 -0.11407293930E-01  0.26091274137E-01  0.00000000000E+00 0.  1.
     999901    1    3    3    0    0  0.71484482743E-01  0.20745607548E-01  0.94603683918E-01  0.88819494961E+00  0.88000000000E+00 0.  1.
        -11    1    4    4    0    0 -0.29761900704E-01 -0.16486992091E-02 -0.20225319275E-01  0.36025180130E-01  0.51100000000E-03 0.  1.
         11    1    4    4    0    0 -0.61980214019E-01 -0.30939905333E-01 -0.62971070713E-01  0.93618596121E-01  0.51100000000E-03 0. -1.
</event>
<event>
 8    1  0.1233916E+005  0.1043930E+01  0.7957747E-01            NaN
         13   -1    0    0    0    0  0.00000000000E+00  0.00000000000E+00  0.74505805969E-08  0.10566000000E+00  0.10566000000E+00 0. -1.
     999900   -1    0    0    0    0 -0.00000000000E+00 -0.00000000000E+00 -0.74505805969E-08  0.93827000000E+00  0.93827000000E+00 0.  1.
     999902    2    1    2    0    0  0.22765786755E-01  0.71608805196E-02  0.28333481654E-02  0.10198969578E+01  0.10196137589E+01 0.  0.
     999903    2    3    3    0    0  0.54637044502E-01 -0.57600776183E-01  0.10262772311E+00  0.13132013695E+00  0.20235433506E-01 0.  0.
         14    1    1    2    0    0 -0.22765786755E-01 -0.71608805196E-02 -0.28333481654E-02  0.24033042218E-01  0.00000000000E+00 0. -1.
     999901    1    3    3    0    0 -0.31871257746E-01  0.64761656703E-01 -0.99794374945E-01  0.88857682083E+00  0.88000000000E+00 0.  1.
        -11    1    4    4    0    0  0.19269009528E-01 -0.11802533789E-01  0.18479917841E-01  0.29195256745E-01  0.51100000000E-03 0.  1.
         11    1    4    4    0    0  0.35368034974E-01 -0.45798242394E-01  0.84147805269E-01  0.10212488021E+00  0.51100000000E-03 0. -1.
</event>
<event>
 8    1  0.1233916E+005  0.1043930E+01  0.7957747E-01            NaN
         13   -1    0    0    0    0  0.00000000000E+00  0.00000000000E+00  0.74505805969E-08  0.10566000000E+00  0.10566000000E+00 0. -1.
     999900   -1    0    0    0    0 -0.00000000000E+00 -0.00000000000E+00 -0.74505805969E-08  0.93827000000E+00  0.93827000000E+00 0. -1.
     999902    2    1    2    0    0  0.23729621579E-01  0.16584022158E-02  0.32053110450E-02  0.10199275156E+01  0.10196450450E+01 0.  0.
     999903    2    3    3    0    0  0.92907079931E-01  0.53257830402E-01  0.75883489982E-01  0.13272396544E+00  0.19728784809E-01 0.  0.
         14    1    1    2    0    0 -0.23729621579E-01 -0.16584022158E-02 -0.32053110450E-02  0.24002484394E-01  0.00000000000E+00 0.  1.
     999901    1    3    3    0    0 -0.69177458352E-01 -0.51599428186E-01 -0.72678178937E-01  0.88720355017E+00  0.88000000000E+00 0. -1.
        -11    1    4    4    0    0  0.35557363351E-01  0.97427243741E-02  0.27136370464E-01  0.45780896558E-01  0.51100000000E-03 0. -1.
         11    1    4    4    0    0  0.57349716580E-01  0.43515106028E-01  0.48747119518E-01  0.86943068883E-01  0.51100000000E-03 0.  1.
</event>
<event>
 8    1  0.1233916E+005  0.1043930E+01  0.7957747E-01            NaN
         13   -1    0    0    0    0  0.00000000000E+00  0.00000000000E+00  0.74505805969E-08  0.10566000000E+00  0.10566000000E+00 0.  1.
     999900   -1    0    0    0    0 -0.00000000000E+00 -0.00000000000E+00 -0.74505805969E-08  0.93827000000E+00  0.93827000000E+00 0.  1.
     999902    2    1    2    0    0 -0.13222536766E-01  0.17586437069E-01  0.91524493126E-02  0.10200996501E+01  0.10198212640E+01 0.  0.
     999903    2    3    3    0    0  0.48159213338E-01  0.10522715246E+00 -0.58064846569E-01  0.13107390296E+00  0.20415146004E-01 0.  0.
         14    1    1    2    0    0  0.13222536766E-01 -0.17586437069E-01 -0.91524493126E-02  0.23830349887E-01  0.00000000000E+00 0.  1.
     999901    1    3    3    0    0 -0.61381750104E-01 -0.87640715386E-01  0.67217295882E-01  0.88902574716E+00  0.88000000000E+00 0. -1.
        -11    1    4    4    0    0  0.35943244113E-01  0.69393283278E-01 -0.29062126797E-01  0.83379931017E-01  0.51100000000E-03 0. -1.
         11    1    4    4    0    0  0.12215969225E-01  0.35833869177E-01 -0.29002719772E-01  0.47693971941E-01  0.51100000000E-03 0.  1.
</event>
<event>
 8    1  0.1233916E+005  0.1043930E+01  0.7957747E-01            NaN
         13   -1    0    0    0    0  0.00000000000E+00  0.00000000000E+00  0.74505805969E-08  0.10566000000E+00  0.10566000000E+00 0.  1.
     999900   -1    0    0    0    0 -0.00000000000E+00 -0.00000000000E+00 -0.74505805969E-08  0.93827000000E+00  0.93827000000E+00 0.  1.
     999902    2    1    2    0    0  0.12287147526E-01 -0.20008467746E-01 -0.58445863964E-02  0.10197334720E+01  0.10194463605E+01 0.  0.
     999903    2    3    3    0    0  0.63527138224E-01  0.10658461441E+00 -0.29072829653E-01  0.12889628354E+00  0.19314377217E-01 0.  0.
         14    1    1    2    0    0 -0.12287147526E-01  0.20008467746E-01  0.58445863964E-02  0.24196527974E-01  0.00000000000E+00 0. -1.
     999901    1    3    3    0    0 -0.51239990698E-01 -0.12659308216E+00  0.23228243256E-01  0.89083718848E+00  0.88000000000E+00 0.  1.
        -11    1    4    4    0    0 -0.99139588962E-03  0.45106839335E-02 -0.23997125254E-02  0.52296153360E-02  0.51100000000E-03 0. -1.
         11    1    4    4    0    0  0.64518534113E-01  0.10207393048E+00 -0.26673117127E-01  0.12366666821E+00  0.51100000000E-03 0.  1.
</event>
<event>
 8    1  0.1233916E+005  0.1043930E+01  0.7957747E-01            NaN
         13   -1    0    0    0    0  0.00000000000E+00  0.00000000000E+00  0.74505805969E-08  0.10566000000E+00  0.10566000000E+00 0. -1.
     999900   -1    0    0    0    0 -0.00000000000E+00 -0.00000000000E+00 -0.74505805969E-08  0.93827000000E+00  0.93827000000E+00 0. -1.
     999902    2    1    2    0    0  0.21993653776E-01  0.31800619288E-02 -0.50735717931E-02  0.10211358180E+01  0.10208813761E+01 0.  0.
     999903    2    3    3    0    0  0.63998231723E-01 -0.10666916075E+00 -0.39599997367E-01  0.13264084881E+00  0.23480874384E-01 0.  0.
         14    1    1    2    0    0 -0.21993653776E-01 -0.31800619288E-02  0.50735717931E-02  0.22794181956E-01  0.00000000000E+00 0. -1.
     999901    1    3    3    0    0 -0.42004577947E-01  0.10984922268E+00  0.34526425574E-01  0.88849496923E+00  0.88000000000E+00 0.  1.
        -11    1    4    4    0    0  0.22482188187E-02 -0.12862174677E-01 -0.10121351034E-01  0.16528547820E-01  0.51100000000E-03 0.  1.
         11    1    4    4    0    0  0.61750012904E-01 -0.93806986076E-01 -0.29478646333E-01  0.11611230099E+00  0.51100000000E-03 0. -1.
</event>
<event>
 8    1  0.1233916E+005  0.1043930E+01  0.7957747E-01            NaN
         13   -1    0    0    0    0  0.00000000000E+00  0.00000000000E+00  0.74505805969E-08  0.10566000000E+00  0.10566000000E+00 0. -1.
     999900   -1    0    0    0    0 -0.00000000000E+00 -0.00000000000E+00 -0.74505805969E-08  0.93827000000E+00  0.93827000000E+00 0.  1.
     999902    2    1    2    0    0 -0.18791304006E-01 -0.35871659704E-02  0.15749199697E-01  0.10191506102E+01  0.10188493256E+01 0.  0.
     999903    2    3    3    0    0  0.78466706634E-01  0.74197046981E-01 -0.61403482638E-01  0.12703960772E+00  0.26579097415E-01 0.  0.
         14    1    1    2    0    0  0.18791304006E-01  0.35871659704E-02 -0.15749199697E-01  0.24779389763E-01  0.00000000000E+00 0.  1.
     999901    1    3    3    0    0 -0.97258010639E-01 -0.77784212951E-01  0.77152682335E-01  0.89211100252E+00  0.88000000000E+00 0. -1.
        -11    1    4    4    0    0  0.10088823405E-01  0.11318105125E-01 -0.20586567998E-01  0.25572480604E-01  0.51100000000E-03 0.  1.
         11    1    4    4    0    0  0.68377883229E-01  0.62878941855E-01 -0.40816914640E-01  0.10146712712E+00  0.51100000000E-03 0. -1.
</event>
<event>
 8    1  0.1233916E+005  0.1043930E+01  0.7957747E-01            NaN
         13   -1    0    0    0    0  0.00000000000E+00  0.00000000000E+00  0.74505805969E-08  0.10566000000E+00  0.10566000000E+00 0.  1.
     999900   -1    0    0    0    0 -0.00000000000E+00 -0.00000000000E+00 -0.74505805969E-08  0.93827000000E+00  0.93827000000E+00 0.  1.
     999902    2    1    2    0    0 -0.12234541343E-01 -0.21633657032E-01  0.12607489080E-02  0.10190444900E+01  0.10187405872E+01 0.  0.
     999903    2    3    3    0    0 -0.10744989331E+00 -0.21358125764E-01  0.69427811660E-01  0.13128732300E+00  0.20359053041E-01 0.  0.
         14    1    1    2    0    0  0.12234541343E-01  0.21633657032E-01 -0.12607489080E-02  0.24885509966E-01  0.00000000000E+00 0. -1.
     999901    1    3    3    0    0  0.95215351970E-01 -0.27553126766E-03 -0.68167062752E-01  0.88775716703E+00  0.88000000000E+00 0.  1.
        -11    1    4    4    0    0 -0.49634208771E-01 -0.14524443253E-01  0.22037579972E-01  0.56217703476E-01  0.51100000000E-03 0.  1.
         11    1    4    4    0    0 -0.57815684542E-01 -0.68336825113E-02  0.47390231688E-01  0.75069619529E-01  0.51100000000E-03 0. -1.
</event>
<event>
 8    1  0.1233916E+005  0.1043930E+01  0.7957747E-01            NaN
         13   -1    0    0    0    0  0.00000000000E+00  0.00000000000E+00  0.74505805969E-08  0.10566000000E+00  0.10566000000E+00 0. -1.
     999900   -1    0    0    0    0 -0.00000000000E+00 -0.00000000000E+00 -0.74505805969E-08  0.93827000000E+00  0.93827000000E+00 0.  1.
     999902    2    1    2    0    0  0.19010076211E-01  0.75756814409E-02 -0.13953682187E-01  0.10191614879E+01  0.10188604709E+01 0.  0.
     999903    2    3    3    0    0  0.93115163268E-01  0.67045818187E-01 -0.63464358749E-01  0.13266300045E+00  0.20153696699E-01 0.  0.
         14    1    1    2    0    0 -0.19010076211E-01 -0.75756814409E-02  0.13953682187E-01  0.24768512135E-01  0.00000000000E+00 0. -1.
     999901    1    3    3    0    0 -0.74105087057E-01 -0.59470136746E-01  0.49510676562E-01  0.88649848741E+00  0.88000000000E+00 0.  1.
        -11    1    4    4    0    0  0.72805334820E-01  0.43034427679E-01 -0.51442274175E-01  0.98990643180E-01  0.51100000000E-03 0.  1.
         11    1    4    4    0    0  0.20309828448E-01  0.24011390508E-01 -0.12022084574E-01  0.33672357272E-01  0.51100000000E-03 0. -1.
</event>
<event>
 8    1  0.1233916E+005  0.1043930E+01  0.7957747E-01            NaN
         13   -1    0    0    0    0  0.00000000000E+00  0.00000000000E+00  0.74505805969E-08  0.10566000000E+00  0.10566000000E+00 0. -1.
     999900   -1    0    0    0    0 -0.00000000000E+00 -0.00000000000E+00 -0.74505805969E-08  0.93827000000E+00  0.93827000000E+00 0.  1.
     999902    2    1    2    0    0  0.15223906806E-01  0.33804856208E-02  0.17649946883E-01  0.10203775979E+01  0.10201057428E+01 0.  0.
     999903    2    3    3    0    0 -0.85910416600E-01  0.72559768765E-01  0.63445447489E-01  0.13070847259E+00  0.20343556132E-01 0.  0.
         14    1    1    2    0    0 -0.15223906806E-01 -0.33804856208E-02 -0.17649946883E-01  0.23552402138E-01  0.00000000000E+00 0.  1.
     999901    1    3    3    0    0  0.10113432341E+00 -0.69179283144E-01 -0.45795500606E-01  0.88966912527E+00  0.88000000000E+00 0. -1.
        -11    1    4    4    0    0 -0.59833756434E-01  0.55067825214E-01  0.55053739722E-01  0.98202439691E-01  0.51100000000E-03 0.  1.
         11    1    4    4    0    0 -0.26076660166E-01  0.17491943550E-01  0.83917077671E-02  0.32506032899E-01  0.51100000000E-03 0. -1.
</event>
<event>
 8    1  0.1233916E+005  0.1043930E+01  0.7957747E-01            NaN
         13   -1    0    0    0    0  0.00000000000E+00  0.00000000000E+00  0.74505805969E-08  0.10566000000E+00  0.10566000000E+00 0.  1.
     999900   -1    0    0    0    0 -0.00000000000E+00 -0.00000000000E+00 -0.74505805969E-08  0.93827000000E+00  0.93827000000E+00 0.  1.
     999902    2    1    2    0    0  0.16641612456E-01  0.11867252606E-01  0.10668676192E-01  0.10208736429E+01  0.10206132466E+01 0.  0.
     999903    2    3    3    0    0 -0.62825559317E-01  0.11159734227E+00 -0.19929692824E-01  0.13115605720E+00  0.20092311464E-01 0.  0.
         14    1    1    2    0    0 -0.16641612456E-01 -0.11867252606E-01 -0.10668676192E-01  0.23056357068E-01  0.00000000000E+00 0.  1.
     999901    1    3    3    0    0  0.79467171773E-01 -0.99730089660E-01  0.30598369017E-01  0.88971758573E+00  0.88000000000E+00 0. -1.
        -11    1    4    4    0    0 -0.34742770558E-01  0.80505669249E-01 -0.15172704525E-01  0.88987049456E-01  0.51100000000E-03 0.  1.
         11    1    4    4    0    0 -0.28082788759E-01  0.31091673017E-01 -0.47569882993E-02  0.42169007744E-01  0.51100000000E-03 0. -1.
</event>
<event>
 8    1  0.1233916E+005  0.1043930E+01  0.7957747E-01            NaN
         13   -1    0    0    0    0  0.00000000000E+00  0.00000000000E+00  0.74505805969E-08  0.10566000000E+00  0.10566000000E+00 0. -1.
     999900   -1    0    0    0    0 -0.00000000000E+00 -0.00000000000E+00 -0.74505805969E-08  0.93827000000E+00  0.93827000000E+00 0.  1.
     999902    2    1    2    0    0  0.12301184848E-01  0.16398287069E-01 -0.97418762111E-02  0.10212335880E+01  0.10209813485E+01 0.  0.
     999903    2    3    3    0    0 -0.26782823644E-01  0.17035658994E-01 -0.12723401352E+00  0.13256471358E+00  0.19426162019E-01 0.  0.
         14    1    1    2    0    0 -0.12301184848E-01 -0.16398287069E-01  0.97418762111E-02  0.22696412042E-01  0.00000000000E+00 0. -1.
     999901    1    3    3    0    0  0.39084008492E-01 -0.63737192517E-03  0.11749213731E+00  0.88866887438E+00  0.88000000000E+00 0. -1.
        -11    1    4    4    0    0 -0.22998273516E-01  0.38510495091E-02 -0.73950408931E-01  0.77541442269E-01  0.51100000000E-03 0.  1.
         11    1    4    4    0    0 -0.37845501277E-02  0.13184609485E-01 -0.53283604586E-01  0.55023271309E-01  0.51100000000E-03 0. -1.
</event>
<event>
 8    1  0.1233916E+005  0.1043930E+01  0.7957747E-01            NaN
         13   -1    0    0    0    0  0.00000000000E+00  0.00000000000E+00  0.74505805969E-08  0.10566000000E+00  0.10566000000E+00 0.  1.
     999900   -1    0    0    0    0 -0.00000000000E+00 -0.00000000000E+00 -0.74505805969E-08  0.93827000000E+00  0.93827000000E+00 0. -1.
     999902    2    1    2    0    0 -0.59105469189E-02 -0.18482176337E-01 -0.13562751666E-01  0.10202556755E+01  0.10199809654E+01 0.  0.
     999903    2    3    3    0    0 -0.86758362426E-01  0.85091648538E-01 -0.41789065328E-01  0.13005309674E+00  0.19996997016E-01 0.  0.
         14    1    1    2    0    0  0.59105469189E-02  0.18482176337E-01  0.13562751666E-01  0.23674324484E-01  0.00000000000E+00 0.  1.
     999901    1    3    3    0    0  0.80847815507E-01 -0.10357382488E+00  0.28226313662E-01  0.89020257877E+00  0.88000000000E+00 0.  1.
        -11    1    4    4    0    0 -0.52594494569E-01  0.54557529232E-01 -0.35891223002E-01  0.83851928209E-01  0.51100000000E-03 0. -1.
         11    1    4    4    0    0 -0.34163867857E-01  0.30534119306E-01 -0.58978423259E-02  0.46201168533E-01  0.51100000000E-03 0.  1.
</event>
<event>
 8    1  0.1233916E+005  0.1043930E+01  0.7957747E-01            NaN
         13   -1    0    0    0    0  0.00000000000E+00  0.00000000000E+00  0.74505805969E-08  0.10566000000E+00  0.10566000000E+00 0. -1.
     999900   -1    0    0    0    0 -0.00000000000E+00 -0.00000000000E+00 -0.74505805969E-08  0.93827000000E+00  0.93827000000E+00 0. -1.
     999902    2    1    2    0    0  0.15719511292E-01  0.17966127123E-01 -0.56056493619E-03  0.10200511602E+01  0.10197716266E+01 0.  0.
     999903    2    3    3    0    0  0.83409672967E-01 -0.38971513521E-01 -0.90860856883E-01  0.13101910470E+00  0.20841258897E-01 0.  0.
         14    1    1    2    0    0 -0.15719511292E-01 -0.17966127123E-01  0.56056493619E-03  0.23878839840E-01  0.00000000000E+00 0.  1.
     999901    1    3    3    0    0 -0.67690161675E-01  0.56937640644E-01  0.90300291946E-01  0.88903205546E+00  0.88000000000E+00 0.  1.
        -11    1    4    4    0    0  0.70231531205E-01 -0.31838398476E-01 -0.63808807818E-01  0.10008984299E+00  0.51100000000E-03 0. -1.
         11    1    4    4    0    0  0.13178141762E-01 -0.71331150446E-02 -0.27052049065E-01  0.30929261714E-01  0.51100000000E-03 0.  1.
</event>
<event>
 8    1  0.1233916E+005  0.1043930E+01  0.7957747E-01            NaN
         13   -1    0    0    0    0  0.00000000000E+00  0.00000000000E+00  0.74505805969E-08  0.10566000000E+00  0.10566000000E+00 0.  1.
     999900   -1    0    0    0    0 -0.00000000000E+00 -0.00000000000E+00 -0.74505805969E-08  0.93827000000E+00  0.93827000000E+00 0. -1.
     999902    2    1    2    0    0  0.14241172362E-01  0.13577810502E-01  0.34325390826E-03  0.10242504230E+01  0.10240613474E+01 0.  0.
     999903    2    3    3    0    0 -0.71054450517E-01 -0.64898964778E-01 -0.88182620175E-01  0.13224662371E+00  0.21269330355E-01 0.  0.
         14    1    1    2    0    0 -0.14241172362E-01 -0.13577810502E-01 -0.34325390826E-03  0.19679577015E-01  0.00000000000E+00 0. -1.
     999901    1    3    3    0    0  0.85295622879E-01  0.78476775280E-01  0.88525874084E-01  0.89200379928E+00  0.88000000000E+00 0.  1.
        -11    1    4    4    0    0 -0.29536751915E-01 -0.28948165244E-01 -0.24181795199E-01  0.47910712004E-01  0.51100000000E-03 0.  1.
         11    1    4    4    0    0 -0.41517698602E-01 -0.35950799534E-01 -0.64000824977E-01  0.84335911704E-01  0.51100000000E-03 0. -1.
</event>
<event>
 8    1  0.1233916E+005  0.1043930E+01  0.7957747E-01            NaN
         13   -1    0    0    0    0  0.00000000000E+00  0.00000000000E+00  0.74505805969E-08  0.10566000000E+00  0.10566000000E+00 0. -1.
     999900   -1    0    0    0    0 -0.00000000000E+00 -0.00000000000E+00 -0.74505805969E-08  0.93827000000E+00  0.93827000000E+00 0.  1.
     999902    2    1    2    0    0 -0.74807369510E-02 -0.19319709062E-01  0.11669743748E-01  0.10201519533E+01  0.10198748023E+01 0.  0.
     999903    2    3    3    0    0  0.44651070094E-01  0.11096442612E+00 -0.36044567056E-01  0.12775723315E+00  0.26755894353E-01 0.  0.
         14    1    1    2    0    0  0.74807369510E-02  0.19319709062E-01 -0.11669743748E-01  0.23778046654E-01  0.00000000000E+00 0.  1.
     999901    1    3    3    0    0 -0.52131807045E-01 -0.13028413518E+00  0.47714310803E-01  0.89239472020E+00  0.88000000000E+00 0. -1.
        -11    1    4    4    0    0  0.11754883022E-01  0.62685029830E-01 -0.13894256071E-01  0.65275582820E-01  0.51100000000E-03 0. -1.
         11    1    4    4    0    0  0.32896187072E-01  0.48279396288E-01 -0.22150310985E-01  0.62481650326E-01  0.51100000000E-03 0.  1.
</event>
<event>
 8    1  0.1233916E+005  0.1043930E+01  0.7957747E-01            NaN
         13   -1    0    0    0    0  0.00000000000E+00  0.00000000000E+00  0.74505805969E-08  0.10566000000E+00  0.10566000000E+00 0.  1.
     999900   -1    0    0    0    0 -0.00000000000E+00 -0.00000000000E+00 -0.74505805969E-08  0.93827000000E+00  0.93827000000E+00 0. -1.
     999902    2    1    2    0    0 -0.48212072116E-02  0.12845835445E-01  0.19755338146E-01  0.10198772889E+01  0.10195936207E+01 0.  0.
     999903    2    3    3    0    0  0.55983607583E-01 -0.11083588261E+00 -0.18925302286E-01  0.12831092296E+00  0.26206271997E-01 0.  0.
         14    1    1    2    0    0  0.48212072116E-02 -0.12845835445E-01 -0.19755338146E-01  0.24052711127E-01  0.00000000000E+00 0. -1.
     999901    1    3    3    0    0 -0.60804814795E-01  0.12368171806E+00  0.38680640433E-01  0.89156636591E+00  0.88000000000E+00 0.  1.
        -11    1    4    4    0    0  0.36000443144E-01 -0.42837386729E-01 -0.61846330930E-02  0.56299062299E-01  0.51100000000E-03 0. -1.
         11    1    4    4    0    0  0.19983164439E-01 -0.67998495883E-01 -0.12740669193E-01  0.72011860661E-01  0.51100000000E-03 0.  1.
</event>
<event>
 8    1  0.1233916E+005  0.1043930E+01  0.7957747E-01            NaN
         13   -1    0    0    0    0  0.00000000000E+00  0.00000000000E+00  0.74505805969E-08  0.10566000000E+00  0.10566000000E+00 0.  1.
     999900   -1    0    0    0    0 -0.00000000000E+00 -0.00000000000E+00 -0.74505805969E-08  0.93827000000E+00  0.93827000000E+00 0. -1.
     999902    2    1    2    0    0  0.21698813102E-01  0.12908250478E-02 -0.89879216023E-02  0.10204079369E+01  0.10201367899E+01 0.  0.
     999903    2    3    3    0    0  0.13023516694E+00  0.35022742747E-02 -0.24962494778E-01  0.13359329017E+00  0.15829605173E-01 0.  0.
         14    1    1    2    0    0 -0.21698813102E-01 -0.12908250478E-02  0.89879216023E-02  0.23522063134E-01  0.00000000000E+00 0. -1.
     999901    1    3    3    0    0 -0.10853635384E+00 -0.22114492269E-02  0.15974573175E-01  0.88681464670E+00  0.88000000000E+00 0. -1.
        -11    1    4    4    0    0  0.78722425374E-01  0.96944044649E-02 -0.13568865169E-01  0.80470969658E-01  0.51100000000E-03 0.  1.
         11    1    4    4    0    0  0.51512741563E-01 -0.61921301902E-02 -0.11393629608E-01  0.53122320509E-01  0.51100000000E-03 0. -1.
</event>
<event>
 8    1  0.1233916E+005  0.1043930E+01  0.7957747E-01            NaN
         13   -1    0    0    0    0  0.00000000000E+00  0.00000000000E+00  0.74505805969E-08  0.10566000000E+00  0.10566000000E+00 0.  1.
     999900   -1    0    0    0    0 -0.00000000000E+00 -0.00000000000E+00 -0.74505805969E-08  0.93827000000E+00  0.93827000000E+00 0.  1.
     999902    2    1    2    0    0 -0.11876599034E-01 -0.82627800040E-03 -0.20285013575E-01  0.10204094108E+01  0.10201382983E+01 0.  0.
     999903    2    3    3    0    0 -0.90075251151E-01  0.77123055722E-01  0.50992565797E-01  0.13065010564E+00  0.20191377953E-01 0.  0.
         14    1    1    2    0    0  0.11876599034E-01  0.82627800040E-03  0.20285013575E-01  0.23520589186E-01  0.00000000000E+00 0.  1.
     999901    1    3    3    0    0  0.78198652117E-01 -0.77949333723E-01 -0.71277579371E-01  0.88975930517E+00  0.88000000000E+00 0.  1.
        -11    1    4    4    0    0 -0.71521686730E-01  0.49510378007E-01  0.35591527960E-01  0.93987484202E-01  0.51100000000E-03 0. -1.
         11    1    4    4    0    0 -0.18553564421E-01  0.27612677715E-01  0.15401037837E-01  0.36662621439E-01  0.51100000000E-03 0.  1.
</event>
<event>
 8    1  0.1233916E+005  0.1043930E+01  0.7957747E-01            NaN
         13   -1    0    0    0    0  0.00000000000E+00  0.00000000000E+00  0.74505805969E-08  0.10566000000E+00  0.10566000000E+00 0.  1.
     999900   -1    0    0    0    0 -0.00000000000E+00 -0.00000000000E+00 -0.74505805969E-08  0.93827000000E+00  0.93827000000E+00 0. -1.
     999902    2    1    2    0    0 -0.91847642226E-02  0.38614069097E-02  0.22391786912E-01  0.10194215835E+01  0.10191269315E+01 0.  0.
     999903    2    3    3    0    0  0.39148322118E-01  0.64454194957E-01  0.10650676107E+00  0.13201924970E+00  0.19961406903E-01 0.  0.
         14    1    1    2    0    0  0.91847642226E-02 -0.38614069097E-02 -0.22391786912E-01  0.24508416478E-01  0.00000000000E+00 0. -1.
     999901    1    3    3    0    0 -0.48333086341E-01 -0.60592788047E-01 -0.84114974157E-01  0.88740233382E+00  0.88000000000E+00 0.  1.
        -11    1    4    4    0    0  0.20755438494E-01  0.21199041933E-01  0.29786164402E-01  0.42043600188E-01  0.51100000000E-03 0. -1.
         11    1    4    4    0    0  0.18392883624E-01  0.43255153024E-01  0.76720596666E-01  0.89975649511E-01  0.51100000000E-03 0.  1.
</event>
<event>
 8    1  0.1233916E+005  0.1043930E+01  0.7957747E-01            NaN
         13   -1    0    0    0    0  0.00000000000E+00  0.00000000000E+00  0.74505805969E-08  0.10566000000E+00  0.10566000000E+00 0.  1.
     999900   -1    0    0    0    0 -0.00000000000E+00 -0.00000000000E+00 -0.74505805969E-08  0.93827000000E+00  0.93827000000E+00 0.  1.
     999902    2    1    2    0    0  0.10094623723E-01 -0.51717546272E-02 -0.20683996847E-01  0.10203402522E+01  0.10200675243E+01 0.  0.
     999903    2    3    3    0    0 -0.77314295670E-01 -0.82172743805E-01  0.59439706365E-01  0.12905506817E+00  0.19805852352E-01 0.  0.
         14    1    1    2    0    0 -0.10094623723E-01  0.51717546272E-02  0.20683996847E-01  0.23589747764E-01  0.00000000000E+00 0.  1.
     999901    1    3    3    0    0  0.87408919393E-01  0.77000989178E-01 -0.80123703211E-01  0.89128518407E+00  0.88000000000E+00 0.  1.
        -11    1    4    4    0    0 -0.73065670253E-01 -0.68248979919E-01  0.51661668873E-01  0.11254201252E+00  0.51100000000E-03 0.  1.
         11    1    4    4    0    0 -0.42486254170E-02 -0.13923763886E-01  0.77780374916E-02  0.16513055650E-01  0.51100000000E-03 0. -1.
</event>
<event>
 8    1  0.1233916E+005  0.1043930E+01  0.7957747E-01            NaN
         13   -1    0    0    0    0  0.00000000000E+00  0.00000000000E+00  0.74505805969E-08  0.10566000000E+00  0.10566000000E+00 0.  1.
     999900   -1    0    0    0    0 -0.00000000000E+00 -0.00000000000E+00 -0.74505805969E-08  0.93827000000E+00  0.93827000000E+00 0.  1.
     999902    2    1    2    0    0  0.18290211871E-01  0.12865491471E-01 -0.10116480373E-01  0.10193862453E+01  0.10190907325E+01 0.  0.
     999903    2    3    3    0    0 -0.65358075683E-01 -0.10518655109E+00 -0.22254430089E-01  0.12748902553E+00  0.20550021493E-01 0.  0.
         14    1    1    2    0    0 -0.18290211871E-01 -0.12865491471E-01  0.10116480373E-01  0.24543754729E-01  0.00000000000E+00 0. -1.
     999901    1    3    3    0    0  0.83648287554E-01  0.11805204256E+00  0.12137949716E-01  0.89189721974E+00  0.88000000000E+00 0. -1.
        -11    1    4    4    0    0 -0.26096778152E-01 -0.25070923782E-01 -0.89531786073E-02  0.37282885851E-01  0.51100000000E-03 0. -1.
         11    1    4    4    0    0 -0.39261297531E-01 -0.80115627310E-01 -0.13301251481E-01  0.90206139675E-01  0.51100000000E-03 0.  1.
</event>
<event>
 8    1  0.1233916E+005  0.1043930E+01  0.7957747E-01            NaN
         13   -1    0    0    0    0  0.00000000000E+00  0.00000000000E+00  0.74505805969E-08  0.10566000000E+00  0.10566000000E+00 0. -1.
     999900   -1    0    0    0    0 -0.00000000000E+00 -0.00000000000E+00 -0.74505805969E-08  0.93827000000E+00  0.93827000000E+00 0.  1.
     999902    2    1    2    0    0  0.15476998508E-01 -0.18547992866E-01  0.31053612227E-02  0.10195741221E+01  0.10192831705E+01 0.  0.
     999903    2    3    3    0    0 -0.36731744459E-01  0.80860320607E-01 -0.89216756804E-01  0.12764859876E+00  0.21140543286E-01 0.  0.
         14    1    1    2    0    0 -0.15476998508E-01  0.18547992866E-01 -0.31053612227E-02  0.24355877946E-01  0.00000000000E+00 0.  1.
     999901    1    3    3    0    0  0.52208742968E-01 -0.99408313474E-01  0.92322118027E-01  0.89192552330E+00  0.88000000000E+00 0. -1.
        -11    1    4    4    0    0 -0.83755053210E-02  0.30199739992E-01 -0.44182497292E-01  0.54171279964E-01  0.51100000000E-03 0.  1.
         11    1    4    4    0    0 -0.28356239138E-01  0.50660580615E-01 -0.45034259513E-01  0.73477318794E-01  0.51100000000E-03 0. -1.
</event>
<event>
 8    1  0.1233916E+005  0.1043930E+01  0.7957747E-01            NaN
         13   -1    0    0    0    0  0.00000000000E+00  0.00000000000E+00  0.74505805969E-08  0.10566000000E+00  0.10566000000E+00 0. -1.
     999900   -1    0    0    0    0 -0.00000000000E+00 -0.00000000000E+00 -0.74505805969E-08  0.93827000000E+00  0.93827000000E+00 0. -1.
     999902    2    1    2    0    0 -0.18420451731E-01 -0.16424262398E-02 -0.15084122894E-01  0.10200649341E+01  0.10197857267E+01 0.  0.
     999903    2    3    3    0    0  0.29138170867E-01  0.11983778102E+00 -0.36199239774E-01  0.13019690374E+00  0.20753843549E-01 0.  0.
         14    1    1    2    0    0  0.18420451731E-01  0.16424262398E-02  0.15084122894E-01  0.23865065879E-01  0.00000000000E+00 0. -1.
     999901    1    3    3    0    0 -0.47558622598E-01 -0.12148020726E+00  0.21115116880E-01  0.88986803038E+00  0.88000000000E+00 0.  1.
        -11    1    4    4    0    0  0.86337415599E-02  0.69366995225E-01 -0.13592321312E-01  0.71213298193E-01  0.51100000000E-03 0.  1.
         11    1    4    4    0    0  0.20504429307E-01  0.50470785791E-01 -0.22606918462E-01  0.58983605544E-01  0.51100000000E-03 0. -1.
</event>
<event>
 8    1  0.1233916E+005  0.1043930E+01  0.7957747E-01            NaN
         13   -1    0    0    0    0  0.00000000000E+00  0.00000000000E+00  0.74505805969E-08  0.10566000000E+00  0.10566000000E+00 0.  1.
     999900   -1    0    0    0    0 -0.00000000000E+00 -0.00000000000E+00 -0.74505805969E-08  0.93827000000E+00  0.93827000000E+00 0. -1.
     999902    2    1    2    0    0  0.16187112986E-01  0.13708362861E-01  0.10857395463E-01  0.10201009237E+01  0.10198225678E+01 0.  0.
     999903    2    3    3    0    0 -0.17259199772E-01  0.10740378510E+00  0.72670595565E-01  0.13234061843E+00  0.19989267021E-01 0.  0.
         14    1    1    2    0    0 -0.16187112986E-01 -0.13708362861E-01 -0.10857395463E-01  0.23829076260E-01  0.00000000000E+00 0. -1.
     999901    1    3    3    0    0  0.33446312758E-01 -0.93695422234E-01 -0.61813200102E-01  0.88776030531E+00  0.88000000000E+00 0. -1.
        -11    1    4    4    0    0 -0.14140665875E-01  0.33610177795E-01  0.28465530293E-01  0.46261755465E-01  0.51100000000E-03 0. -1.
         11    1    4    4    0    0 -0.31185338978E-02  0.73793607300E-01  0.44205065272E-01  0.86078862961E-01  0.51100000000E-03 0.  1.
</event>
<event>
 8    1  0.1233916E+005  0.1043930E+01  0.7957747E-01            NaN
         13   -1    0    0    0    0  0.00000000000E+00  0.00000000000E+00  0.74505805969E-08  0.10566000000E+00  0.10566000000E+00 0.  1.
     999900   -1    0    0    0    0 -0.00000000000E+00 -0.00000000000E+00 -0.74505805969E-08  0.93827000000E+00  0.93827000000E+00 0.  1.
     999902    2    1    2    0    0 -0.19795313817E-01  0.70923502498E-02  0.78875152685E-02  0.10214718438E+01  0.10212249306E+01 0.  0.
     999903    2    3    3    0    0  0.69398295554E-01  0.10887351286E+00  0.11987814559E-01  0.13111701711E+00  0.19452487018E-01 0.  0.
         14    1    1    2    0    0  0.19795313817E-01 -0.70923502498E-02 -0.78875152685E-02  0.22458156164E-01  0.00000000000E+00 0. -1.
     999901    1    3    3    0    0 -0.89193609371E-01 -0.10178116261E+00 -0.41002992904E-02  0.89035482672E+00  0.88000000000E+00 0.  1.
        -11    1    4    4    0    0  0.57354388914E-01  0.73780825721E-01  0.78569930390E-02  0.93782352457E-01  0.51100000000E-03 0.  1.
         11    1    4    4    0    0  0.12043906640E-01  0.35092687136E-01  0.41308215198E-02  0.37334664656E-01  0.51100000000E-03 0. -1.
</event>
<event>
 8    1  0.1233916E+005  0.1043930E+01  0.7957747E-01            NaN
         13   -1    0    0    0    0  0.00000000000E+00  0.00000000000E+00  0.74505805969E-08  0.10566000000E+00  0.10566000000E+00 0. -1.
     999900   -1    0    0    0    0 -0.00000000000E+00 -0.00000000000E+00 -0.74505805969E-08  0.93827000000E+00  0.93827000000E+00 0.  1.
     999902    2    1    2    0    0  0.14334802996E-01  0.15860726876E-01  0.81259124055E-02  0.10210590646E+01  0.10208028868E+01 0.  0.
     999903    2    3    3    0    0  0.81714327139E-01  0.26523780824E-01  0.10035811746E+00  0.13361302080E+00  0.19998634437E-01 0.  0.
         14    1    1    2    0    0 -0.14334802996E-01 -0.15860726876E-01 -0.81259124055E-02  0.22870935407E-01  0.00000000000E+00 0. -1.
     999901    1    3    3    0    0 -0.67379524143E-01 -0.10663053948E-01 -0.92232205050E-01  0.88744604379E+00  0.88000000000E+00 0.  1.
        -11    1    4    4    0    0  0.58138130886E-01  0.18688932110E-01  0.56463477352E-01  0.83172734968E-01  0.51100000000E-03 0.  1.
         11    1    4    4    0    0  0.23576196253E-01  0.78348487143E-02  0.43894640103E-01  0.50440285833E-01  0.51100000000E-03 0. -1.
</event>
<event>
 8    1  0.1233916E+005  0.1043930E+01  0.7957747E-01            NaN
         13   -1    0    0    0    0  0.00000000000E+00  0.00000000000E+00  0.74505805969E-08  0.10566000000E+00  0.10566000000E+00 0.  1.
     999900   -1    0    0    0    0 -0.00000000000E+00 -0.00000000000E+00 -0.74505805969E-08  0.93827000000E+00  0.93827000000E+00 0. -1.
     999902    2    1    2    0    0  0.14245241602E-01  0.11004143521E-01 -0.15967431050E-01  0.10198680604E+01  0.10195841719E+01 0.  0.
     999903    2    3    3    0    0  0.11175778612E+00 -0.77626093322E-02 -0.65958135896E-01  0.13287315742E+00  0.27472520955E-01 0.  0.
         14    1    1    2    0    0 -0.14245241602E-01 -0.11004143521E-01  0.15967431050E-01  0.24061939599E-01  0.00000000000E+00 0.  1.
     999901    1    3    3    0    0 -0.97512544522E-01  0.18766752853E-01  0.49990704846E-01  0.88699490299E+00  0.88000000000E+00 0.  1.
        -11    1    4    4    0    0  0.87753966231E-01 -0.26324859228E-02 -0.38001300877E-01  0.95666339748E-01  0.51100000000E-03 0.  1.
         11    1    4    4    0    0  0.24003819893E-01 -0.51301234094E-02 -0.27956835019E-01  0.37206817667E-01  0.51100000000E-03 0. -1.
</event>
<event>
 8    1  0.1233916E+005  0.1043930E+01  0.7957747E-01            NaN
         13   -1    0    0    0    0  0.00000000000E+00  0.00000000000E+00  0.74505805969E-08  0.10566000000E+00  0.10566000000E+00 0. -1.
     999900   -1    0    0    0    0 -0.00000000000E+00 -0.00000000000E+00 -0.74505805969E-08  0.93827000000E+00  0.93827000000E+00 0. -1.
     999902    2    1    2    0    0 -0.13956540177E-01 -0.14349568371E-01  0.14550255831E-01  0.10191831806E+01  0.10188826971E+01 0.  0.
     999903    2    3    3    0    0  0.11459802027E+00 -0.69259271845E-02  0.54845428504E-01  0.12889946941E+00  0.20648909641E-01 0.  0.
         14    1    1    2    0    0  0.13956540177E-01  0.14349568371E-01 -0.14550255831E-01  0.24746819409E-01  0.00000000000E+00 0. -1.
     999901    1    3    3    0    0 -0.12855456044E+00 -0.74236411866E-02 -0.40295172673E-01  0.89028371118E+00  0.88000000000E+00 0. -1.
        -11    1    4    4    0    0  0.84850329148E-01 -0.30003871769E-02  0.49905899218E-01  0.98485737939E-01  0.51100000000E-03 0.  1.
         11    1    4    4    0    0  0.29747691118E-01 -0.39255400076E-02  0.49395292860E-02  0.30413731468E-01  0.51100000000E-03 0. -1.
</event>
<event>
 7    1  0.1233916E+005  0.1043930E+01  0.7957747E-01            NaN
         13   -1    0    0    0    0  0.00000000000E+00  0.00000000000E+00  0.74505805969E-08  0.10566000000E+00  0.10566000000E+00 0.  1.
     999900   -1    0    0    0    0 -0.00000000000E+00 -0.00000000000E+00 -0.74505805969E-08  0.93827000000E+00  0.93827000000E+00 0. -1.
     999902    2    1    2    0    0 -0.12728676525E-01  0.10126444685E-01 -0.15559561720E-01  0.10214208008E+01  0.10211727514E+01 0.  0.
         14    1    1    2    0    0  0.12728676525E-01 -0.10126444685E-01  0.15559561720E-01  0.22509199207E-01  0.00000000000E+00 0.  1.
     999901    1    3    3    0    0  0.15926967099E-01  0.53033030317E-01 -0.13426595278E+00  0.89190443247E+00  0.88000000000E+00 0. -1.
        -11    1    3    3    0    0 -0.15795645339E-01 -0.26355450948E-01  0.74538663141E-01  0.80624969025E-01  0.51100000000E-03 0.  1.
         11    1    3    3    0    0 -0.12859998285E-01 -0.16551134684E-01  0.44167727914E-01  0.48891399298E-01  0.51100000000E-03 0. -1.
</event>
<event>
 8    1  0.1233916E+005  0.1043930E+01  0.7957747E-01            NaN
         13   -1    0    0    0    0  0.00000000000E+00  0.00000000000E+00  0.74505805969E-08  0.10566000000E+00  0.10566000000E+00 0.  1.
     999900   -1    0    0    0    0 -0.00000000000E+00 -0.00000000000E+00 -0.74505805969E-08  0.93827000000E+00  0.93827000000E+00 0. -1.
     999902    2    1    2    0    0 -0.12089748393E-01 -0.82227757245E-02 -0.17815166454E-01  0.10208831735E+01  0.10206229949E+01 0.  0.
     999903    2    3    3    0    0 -0.45466967716E-01  0.48213074037E-01 -0.11387368459E+00  0.13323105535E+00  0.19787683192E-01 0.  0.
         14    1    1    2    0    0  0.12089748393E-01  0.82227757245E-02  0.17815166454E-01  0.23046826519E-01  0.00000000000E+00 0.  1.
     999901    1    3    3    0    0  0.33377219322E-01 -0.56435849762E-01  0.96058518141E-01  0.88765211813E+00  0.88000000000E+00 0.  1.
        -11    1    4    4    0    0 -0.22721048183E-01  0.10436216079E-01 -0.43759544851E-01  0.50401582546E-01  0.51100000000E-03 0.  1.
         11    1    4    4    0    0 -0.22745919533E-01  0.37776857959E-01 -0.70114139744E-01  0.82829472808E-01  0.51100000000E-03 0. -1.
</event>
<event>
 8    1  0.1233916E+005  0.1043930E+01  0.7957747E-01            NaN
         13   -1    0    0    0    0  0.00000000000E+00  0.00000000000E+00  0.74505805969E-08  0.10566000000E+00  0.10566000000E+00 0.  1.
     999900   -1    0    0    0    0 -0.00000000000E+00 -0.00000000000E+00 -0.74505805969E-08  0.93827000000E+00  0.93827000000E+00 0. -1.
     999902    2    1    2    0    0  0.97569493351E-02  0.14277172785E-01 -0.16484548509E-01  0.10200390799E+01  0.10197592601E+01 0.  0.
     999903    2    3    3    0    0 -0.33265541694E-01 -0.11733137046E+00 -0.37544864458E-01  0.12896372940E+00  0.18675649753E-01 0.  0.
         14    1    1    2    0    0 -0.97569493351E-02 -0.14277172785E-01  0.16484548509E-01  0.23890920087E-01  0.00000000000E+00 0. -1.
     999901    1    3    3    0    0  0.43022491029E-01  0.13160854325E+00  0.21060315949E-01  0.89107535052E+00  0.88000000000E+00 0.  1.
        -11    1    4    4    0    0 -0.90051254074E-02 -0.65832755778E-01 -0.20021242809E-01  0.69398525212E-01  0.51100000000E-03 0. -1.
         11    1    4    4    0    0 -0.24260416286E-01 -0.51498614685E-01 -0.17523621648E-01  0.59565204185E-01  0.51100000000E-03 0.  1.
</event>
<event>
 8    1  0.1233916E+005  0.1043930E+01  0.7957747E-01            NaN
         13   -1    0    0    0    0  0.00000000000E+00  0.00000000000E+00  0.74505805969E-08  0.10566000000E+00  0.10566000000E+00 0.  1.
     999900   -1    0    0    0    0 -0.00000000000E+00 -0.00000000000E+00 -0.74505805969E-08  0.93827000000E+00  0.93827000000E+00 0. -1.
     999902    2    1    2    0    0  0.94548224329E-03  0.12670002173E-02  0.25821718251E-01  0.10180599331E+01  0.10177311861E+01 0.  0.
     999903    2    3    3    0    0 -0.11482898086E+00  0.34661271558E-01  0.45116899695E-01  0.12963930770E+00  0.19588692443E-01 0.  0.
         14    1    1    2    0    0 -0.94548224329E-03 -0.12670002173E-02 -0.25821718251E-01  0.25870066867E-01  0.00000000000E+00 0. -1.
     999901    1    3    3    0    0  0.11577446310E+00 -0.33394271341E-01 -0.19295181444E-01  0.88842062543E+00  0.88000000000E+00 0. -1.
        -11    1    4    4    0    0 -0.59474194924E-01  0.24866880611E-01  0.31726381317E-01  0.71849606858E-01  0.51100000000E-03 0. -1.
         11    1    4    4    0    0 -0.55354785937E-01  0.97943909478E-02  0.13390518378E-01  0.57789700844E-01  0.51100000000E-03 0.  1.
</event>
<event>
 8    1  0.1233916E+005  0.1043930E+01  0.7957747E-01            NaN
         13   -1    0    0    0    0  0.00000000000E+00  0.00000000000E+00  0.74505805969E-08  0.10566000000E+00  0.10566000000E+00 0. -1.
     999900   -1    0    0    0    0 -0.00000000000E+00 -0.00000000000E+00 -0.74505805969E-08  0.93827000000E+00  0.93827000000E+00 0. -1.
     999902    2    1    2    0    0 -0.79085404569E-02 -0.18073111694E-01 -0.12268816793E-01  0.10206984214E+01  0.10204340063E+01 0.  0.
     999903    2    3    3    0    0  0.78333946419E-01  0.36062374175E-01 -0.96394462242E-01  0.13084138705E+00  0.19770539222E-01 0.  0.
         14    1    1    2    0    0  0.79085404569E-02  0.18073111694E-01  0.12268816793E-01  0.23231578594E-01  0.00000000000E+00 0. -1.
     999901    1    3    3    0    0 -0.86242486876E-01 -0.54135485870E-01  0.84125645449E-01  0.88985703436E+00  0.88000000000E+00 0.  1.
        -11    1    4    4    0    0  0.32880260584E-01  0.47975972299E-02 -0.33722040987E-01  0.47345175515E-01  0.51100000000E-03 0. -1.
         11    1    4    4    0    0  0.45453685835E-01  0.31264776945E-01 -0.62672421255E-01  0.83496211533E-01  0.51100000000E-03 0.  1.
</event>
<event>
 8    1  0.1233916E+005  0.1043930E+01  0.7957747E-01            NaN
         13   -1    0    0    0    0  0.00000000000E+00  0.00000000000E+00  0.74505805969E-08  0.10566000000E+00  0.10566000000E+00 0.  1.
     999900   -1    0    0    0    0 -0.00000000000E+00 -0.00000000000E+00 -0.74505805969E-08  0.93827000000E+00  0.93827000000E+00 0. -1.
     999902    2    1    2    0    0 -0.47907015466E-02 -0.13091218603E-01 -0.19521046931E-01  0.10199424595E+01  0.10196603447E+01 0.  0.
     999903    2    3    3    0    0 -0.65075146757E-01 -0.10133411061E+00  0.46888903754E-01  0.13099290870E+00  0.21382145276E-01 0.  0.
         14    1    1    2    0    0  0.47907015466E-02  0.13091218603E-01  0.19521046931E-01  0.23987540497E-01  0.00000000000E+00 0. -1.
     999901    1    3    3    0    0  0.60284445210E-01  0.88242892003E-01 -0.66409950685E-01  0.88894955080E+00  0.88000000000E+00 0.  1.
        -11    1    4    4    0    0 -0.24287247915E-01 -0.54013120043E-01  0.16275836806E-01  0.61420286004E-01  0.51100000000E-03 0. -1.
         11    1    4    4    0    0 -0.40787898841E-01 -0.47320990563E-01  0.30613066948E-01  0.69572622696E-01  0.51100000000E-03 0.  1.
</event>
<event>
 8    1  0.1233916E+005  0.1043930E+01  0.7957747E-01            NaN
         13   -1    0    0    0    0  0.00000000000E+00  0.00000000000E+00  0.74505805969E-08  0.10566000000E+00  0.10566000000E+00 0. -1.
     999900   -1    0    0    0    0 -0.00000000000E+00 -0.00000000000E+00 -0.74505805969E-08  0.93827000000E+00  0.93827000000E+00 0. -1.
     999902    2    1    2    0    0 -0.70705727595E-03 -0.16150939188E-01  0.18309113841E-01  0.10195050862E+01  0.10192124628E+01 0.  0.
     999903    2    3    3    0    0 -0.65582543968E-01 -0.11235784297E+00  0.11818637672E-02  0.13172248901E+00  0.20592774375E-01 0.  0.
         14    1    1    2    0    0  0.70705727595E-03  0.16150939188E-01 -0.18309113841E-01  0.24424913843E-01  0.00000000000E+00 0.  1.
     999901    1    3    3    0    0  0.64875486692E-01  0.96206903787E-01  0.17127250073E-01  0.88778259715E+00  0.88000000000E+00 0.  1.
        -11    1    4    4    0    0 -0.52305020150E-01 -0.72636375076E-01 -0.34856139355E-02  0.89578282762E-01  0.51100000000E-03 0. -1.
         11    1    4    4    0    0 -0.13277523818E-01 -0.39721467899E-01  0.46674777027E-02  0.42144206243E-01  0.51100000000E-03 0.  1.
</event>
<event>
 8    1  0.1233916E+005  0.1043930E+01  0.7957747E-01            NaN
         13   -1    0    0    0    0  0.00000000000E+00  0.00000000000E+00  0.74505805969E-08  0.10566000000E+00  0.10566000000E+00 0. -1.
     999900   -1    0    0    0    0 -0.00000000000E+00 -0.00000000000E+00 -0.74505805969E-08  0.93827000000E+00  0.93827000000E+00 0. -1.
     999902    2    1    2    0    0 -0.12678365809E-01 -0.20033148602E-01  0.37386341250E-02  0.10199290544E+01  0.10196466205E+01 0.  0.
     999903    2    3    3    0    0 -0.21959145109E-01  0.60249207104E-02  0.12736382534E+00  0.13085743543E+00  0.19586236937E-01 0.  0.
         14    1    1    2    0    0  0.12678365809E-01  0.20033148602E-01 -0.37386341250E-02  0.24000945556E-01  0.00000000000E+00 0.  1.
     999901    1    3    3    0    0  0.92807793002E-02 -0.26058069312E-01 -0.12362519122E+00  0.88907161902E+00  0.88000000000E+00 0. -1.
        -11    1    4    4    0    0 -0.25501426166E-01  0.47730201171E-02  0.11637120149E+00  0.11922928380E+00  0.51100000000E-03 0.  1.
         11    1    4    4    0    0  0.35422810567E-02  0.12519005933E-02  0.10992623845E-01  0.11628151624E-01  0.51100000000E-03 0. -1.
</event>
<event>
 8    1  0.1233916E+005  0.1043930E+01  0.7957747E-01            NaN
         13   -1    0    0    0    0  0.00000000000E+00  0.00000000000E+00  0.74505805969E-08  0.10566000000E+00  0.10566000000E+00 0.  1.
     999900   -1    0    0    0    0 -0.00000000000E+00 -0.00000000000E+00 -0.74505805969E-08  0.93827000000E+00  0.93827000000E+00 0.  1.
     999902    2    1    2    0    0 -0.16852910525E-01  0.16523670458E-01  0.32356048747E-02  0.10201072920E+01  0.10198290865E+01 0.  0.
     999903    2    3    3    0    0  0.64692745872E-02  0.12967505930E+00  0.16902163046E-01  0.13245086299E+00  0.20001886699E-01 0.  0.
         14    1    1    2    0    0  0.16852910525E-01 -0.16523670458E-01 -0.32356048747E-02  0.23822708021E-01  0.00000000000E+00 0.  1.
     999901    1    3    3    0    0 -0.23322185112E-01 -0.11315138885E+00 -0.13666558171E-01  0.88765642899E+00  0.88000000000E+00 0. -1.
        -11    1    4    4    0    0  0.43282485458E-02  0.74413748497E-01  0.19616273528E-01  0.77079173640E-01  0.51100000000E-03 0.  1.
         11    1    4    4    0    0  0.21410260414E-02  0.55261310807E-01 -0.27141104820E-02  0.55371689348E-01  0.51100000000E-03 0. -1.
</event>
<event>
 8    1  0.1233916E+005  0.1043930E+01  0.7957747E-01            NaN
         13   -1    0    0    0    0  0.00000000000E+00  0.00000000000E+00  0.74505805969E-08  0.10566000000E+00  0.10566000000E+00 0. -1.
     999900   -1    0    0    0    0 -0.00000000000E+00 -0.00000000000E+00 -0.74505805969E-08  0.93827000000E+00  0.93827000000E+00 0.  1.
     999902    2    1    2    0    0 -0.17876507525E-01  0.12556437951E-01 -0.20151753260E-02  0.10219915728E+01  0.10217560767E+01 0.  0.
     999903    2    3    3    0    0  0.10406486992E+00 -0.15855991939E-01 -0.73307657128E-01  0.13027436223E+00  0.22726355401E-01 0.  0.
         14    1    1    2    0    0  0.17876507525E-01 -0.12556437951E-01  0.20151753260E-02  0.21938427175E-01  0.00000000000E+00 0. -1.
     999901    1    3    3    0    0 -0.12194137744E+00  0.28412429889E-01  0.71292481802E-01  0.89171721059E+00  0.88000000000E+00 0. -1.
        -11    1    4    4    0    0  0.34666449373E-01 -0.90796194475E-02 -0.13134282827E-01  0.38170311865E-01  0.51100000000E-03 0.  1.
         11    1    4    4    0    0  0.69398420546E-01 -0.67763724911E-02 -0.60173374301E-01  0.92104050368E-01  0.51100000000E-03 0. -1.
</event>
<event>
 8    1  0.1233916E+005  0.1043930E+01  0.7957747E-01            NaN
         13   -1    0    0    0    0  0.00000000000E+00  0.00000000000E+00  0.74505805969E-08  0.10566000000E+00  0.10566000000E+00 0.  1.
     999900   -1    0    0    0    0 -0.00000000000E+00 -0.00000000000E+00 -0.74505805969E-08  0.93827000000E+00  0.93827000000E+00 0. -1.
     999902    2    1    2    0    0  0.19761648746E-01 -0.27940808706E-02  0.13175120260E-01  0.10200152881E+01  0.10197349041E+01 0.  0.
     999903    2    3    3    0    0 -0.87851995321E-01 -0.42143516949E-01 -0.79806385234E-01  0.12772910375E+00  0.21251252132E-01 0.  0.
         14    1    1    2    0    0 -0.19761648746E-01  0.27940808706E-02 -0.13175120260E-01  0.23914711852E-01  0.00000000000E+00 0. -1.
     999901    1    3    3    0    0  0.10761364407E+00  0.39349436078E-01  0.92981505494E-01  0.89228618440E+00  0.88000000000E+00 0.  1.
        -11    1    4    4    0    0 -0.66142302206E-01 -0.29233762441E-01 -0.46700306030E-01  0.86084822773E-01  0.51100000000E-03 0. -1.
         11    1    4    4    0    0 -0.21709693116E-01 -0.12909754508E-01 -0.33106079203E-01  0.41644280974E-01  0.51100000000E-03 0.  1.
</event>
<event>
 8    1  0.1233916E+005  0.1043930E+01  0.7957747E-01            NaN
         13   -1    0    0    0    0  0.00000000000E+00  0.00000000000E+00  0.74505805969E-08  0.10566000000E+00  0.10566000000E+00 0.  1.
     999900   -1    0    0    0    0 -0.00000000000E+00 -0.00000000000E+00 -0.74505805969E-08  0.93827000000E+00  0.93827000000E+00 0. -1.
     999902    2    1    2    0    0  0.21788906740E-01  0.47209602321E-02 -0.83814986593E-02  0.10201120773E+01  0.10198339849E+01 0.  0.
     999903    2    3    3    0    0  0.13787005887E-01  0.10792258650E+00  0.69633121352E-01  0.13061734037E+00  0.19358507375E-01 0.  0.
         14    1    1    2    0    0 -0.21788906740E-01 -0.47209602321E-02  0.83814986593E-02  0.23817922710E-01  0.00000000000E+00 0.  1.
     999901    1    3    3    0    0  0.80019008532E-02 -0.10320162626E+00 -0.78014620011E-01  0.88949473692E+00  0.88000000000E+00 0. -1.
        -11    1    4    4    0    0  0.66815957032E-02  0.47402108325E-01  0.42084037506E-01  0.63741124312E-01  0.51100000000E-03 0. -1.
         11    1    4    4    0    0  0.71054101839E-02  0.60520478170E-01  0.27549083846E-01  0.66876216053E-01  0.51100000000E-03 0.  1.
</event>
<event>
 8    1  0.1233916E+005  0.1043930E+01  0.7957747E-01            NaN
         13   -1    0    0    0    0  0.00000000000E+00  0.00000000000E+00  0.74505805969E-08  0.10566000000E+00  0.10566000000E+00 0.  1.
     999900   -1    0    0    0    0 -0.00000000000E+00 -0.00000000000E+00 -0.74505805969E-08  0.93827000000E+00  0.93827000000E+00 0.  1.
     999902    2    1    2    0    0 -0.22067021216E-01  0.67761084910E-02  0.30877343156E-02  0.10206404492E+01  0.10203746976E+01 0.  0.
     999903    2    3    3    0    0  0.15896724895E-01  0.12484929670E+00 -0.31125982393E-01  0.13128500724E+00  0.20660919601E-01 0.  0.
         14    1    1    2    0    0  0.22067021216E-01 -0.67761084910E-02 -0.30877343156E-02  0.23289550765E-01  0.00000000000E+00 0.  1.
     999901    1    3    3    0    0 -0.37963746111E-01 -0.11807318820E+00  0.34213716709E-01  0.88935544199E+00  0.88000000000E+00 0. -1.
        -11    1    4    4    0    0  0.34132681753E-02  0.22479208265E-01  0.23366024356E-02  0.22862327873E-01  0.51100000000E-03 0. -1.
         11    1    4    4    0    0  0.12483456720E-01  0.10237008843E+00 -0.33462584829E-01  0.10842267937E+00  0.51100000000E-03 0.  1.
</event>
<event>
 8    1  0.1233916E+005  0.1043930E+01  0.7957747E-01            NaN
         13   -1    0    0    0    0  0.00000000000E+00  0.00000000000E+00  0.74505805969E-08  0.10566000000E+00  0.10566000000E+00 0.  1.
     999900   -1    0    0    0    0 -0.00000000000E+00 -0.00000000000E+00 -0.74505805969E-08  0.93827000000E+00  0.93827000000E+00 0.  1.
     999902    2    1    2    0    0 -0.27493801154E-01 -0.18992131978E-01 -0.37403776592E-02  0.10103055951E+01  0.10097459061E+01 0.  0.
     999903    2    3    3    0    0 -0.11604959940E+00  0.32589087344E-01 -0.21977599732E-01  0.12417053325E+00  0.20143194991E-01 0.  0.
         14    1    1    2    0    0  0.27493801154E-01  0.18992131978E-01  0.37403776592E-02  0.33624404887E-01  0.00000000000E+00 0.  1.
     999901    1    3    3    0    0  0.88555798242E-01 -0.51581219322E-01  0.18237222073E-01  0.88613506186E+00  0.88000000000E+00 0. -1.
        -11    1    4    4    0    0 -0.65987139952E-01  0.16067827472E-01 -0.24876356644E-02  0.67962689550E-01  0.51100000000E-03 0.  1.
         11    1    4    4    0    0 -0.50062459444E-01  0.16521259872E-01 -0.19489964067E-01  0.56207843703E-01  0.51100000000E-03 0. -1.
</event>
<event>
 8    1  0.1233916E+005  0.1043930E+01  0.7957747E-01            NaN
         13   -1    0    0    0    0  0.00000000000E+00  0.00000000000E+00  0.74505805969E-08  0.10566000000E+00  0.10566000000E+00 0.  1.
     999900   -1    0    0    0    0 -0.00000000000E+00 -0.00000000000E+00 -0.74505805969E-08  0.93827000000E+00  0.93827000000E+00 0.  1.
     999902    2    1    2    0    0  0.61156236380E-02 -0.19386439793E-01  0.13627574379E-01  0.10194566332E+01  0.10191628335E+01 0.  0.
     999903    2    3    3    0    0  0.31653809918E-01 -0.65778433592E-01  0.10911909818E+00  0.13270805146E+00  0.19382552176E-01 0.  0.
         14    1    1    2    0    0 -0.61156236380E-02  0.19386439793E-01 -0.13627574379E-01  0.24473366826E-01  0.00000000000E+00 0. -1.
     999901    1    3    3    0    0 -0.25538186280E-01  0.46391993799E-01 -0.95491523796E-01  0.88674858171E+00  0.88000000000E+00 0.  1.
        -11    1    4    4    0    0 -0.84034211045E-03 -0.14348840328E-01  0.25861704361E-01  0.29591962879E-01  0.51100000000E-03 0.  1.
         11    1    4    4    0    0  0.32494152028E-01 -0.51429593264E-01  0.83257393814E-01  0.10311608859E+00  0.51100000000E-03 0. -1.
</event>
<event>
 8    1  0.1233916E+005  0.1043930E+01  0.7957747E-01            NaN
         13   -1    0    0    0    0  0.00000000000E+00  0.00000000000E+00  0.74505805969E-08  0.10566000000E+00  0.10566000000E+00 0. -1.
     999900   -1    0    0    0    0 -0.00000000000E+00 -0.00000000000E+00 -0.74505805969E-08  0.93827000000E+00  0.93827000000E+00 0.  1.
     999902    2    1    2    0    0  0.12619597877E-01 -0.13836815996E-01  0.14699679305E-01  0.10201225999E+01  0.10198447561E+01 0.  0.
     999903    2    3    3    0    0  0.89323991529E-01 -0.94997517729E-01  0.14773618156E-01  0.13306531372E+00  0.22018494157E-01 0.  0.
         14    1    1    2    0    0 -0.12619597877E-01  0.13836815996E-01 -0.14699679305E-01  0.23807400092E-01  0.00000000000E+00 0.  1.
     999901    1    3    3    0    0 -0.76704393652E-01  0.81160701733E-01 -0.73938850752E-04  0.88705728619E+00  0.88000000000E+00 0.  1.
        -11    1    4    4    0    0  0.46749647202E-01 -0.54886022029E-01  0.18551838829E-01  0.74447543764E-01  0.51100000000E-03 0.  1.
         11    1    4    4    0    0  0.42574344327E-01 -0.40111495700E-01 -0.37782206738E-02  0.58617769956E-01  0.51100000000E-03 0. -1.
</event>
<event>
 8    1  0.1233916E+005  0.1043930E+01  0.7957747E-01            NaN
         13   -1    0    0    0    0  0.00000000000E+00  0.00000000000E+00  0.74505805969E-08  0.10566000000E+00  0.10566000000E+00 0. -1.
     999900   -1    0    0    0    0 -0.00000000000E+00 -0.00000000000E+00 -0.74505805969E-08  0.93827000000E+00  0.93827000000E+00 0. -1.
     999902    2    1    2    0    0  0.47987121672E-02  0.24104732756E-01 -0.10720879951E-02  0.10193288790E+01  0.10190319664E+01 0.  0.
     999903    2    3    3    0    0  0.10184788219E+00  0.81668265717E-01  0.62958000884E-02  0.13209362980E+00  0.19141400203E-01 0.  0.
         14    1    1    2    0    0 -0.47987121672E-02 -0.24104732756E-01  0.10720879951E-02  0.24601120958E-01  0.00000000000E+00 0.  1.
     999901    1    3    3    0    0 -0.97049170025E-01 -0.57563532961E-01 -0.73678880835E-02  0.88723524925E+00  0.88000000000E+00 0. -1.
        -11    1    4    4    0    0  0.17068933311E-01  0.21482629277E-01 -0.34847277617E-02  0.27663266141E-01  0.51100000000E-03 0. -1.
         11    1    4    4    0    0  0.84778948881E-01  0.60185636440E-01  0.97805278501E-02  0.10443036366E+00  0.51100000000E-03 0.  1.
</event>
<event>
 8    1  0.1233916E+005  0.1043930E+01  0.7957747E-01            NaN
         13   -1    0    0    0    0  0.00000000000E+00  0.00000000000E+00  0.74505805969E-08  0.10566000000E+00  0.10566000000E+00 0.  1.
     999900   -1    0    0    0    0 -0.00000000000E+00 -0.00000000000E+00 -0.74505805969E-08  0.93827000000E+00  0.93827000000E+00 0. -1.
     999902    2    1    2    0    0 -0.11709904739E-01 -0.12487659851E-01 -0.15653294420E-01  0.10207332514E+01  0.10204696377E+01 0.  0.
     999903    2    3    3    0    0  0.10825542541E+00  0.35101969775E-01  0.55460634246E-01  0.12848124436E+00  0.21912617112E-01 0.  0.
         14    1    1    2    0    0  0.11709904739E-01  0.12487659851E-01  0.15653294420E-01  0.23196748560E-01  0.00000000000E+00 0.  1.
     999901    1    3    3    0    0 -0.11996533015E+00 -0.47589629626E-01 -0.71113928666E-01  0.89225200708E+00  0.88000000000E+00 0. -1.
        -11    1    4    4    0    0  0.64393981281E-01  0.31458589677E-01  0.38087048769E-01  0.81161025712E-01  0.51100000000E-03 0. -1.
         11    1    4    4    0    0  0.43861444130E-01  0.36433800976E-02  0.17373585477E-01  0.47320218649E-01  0.51100000000E-03 0.  1.
</event>
<event>
 8    1  0.1233916E+005  0.1043930E+01  0.7957747E-01            NaN
         13   -1    0    0    0    0  0.00000000000E+00  0.00000000000E+00  0.74505805969E-08  0.10566000000E+00  0.10566000000E+00 0.  1.
     999900   -1    0    0    0    0 -0.00000000000E+00 -0.00000000000E+00 -0.74505805969E-08  0.93827000000E+00  0.93827000000E+00 0.  1.
     999902    2    1    2    0    0  0.12648355538E-01  0.15028029805E-01 -0.12183271859E-01  0.10208160499E+01  0.10205543361E+01 0.  0.
     999903    2    3    3    0    0 -0.11580259344E+00  0.54578637967E-01  0.68775252019E-02  0.13040759815E+00  0.23869916905E-01 0.  0.
         14    1    1    2    0    0 -0.12648355538E-01 -0.15028029805E-01  0.12183271859E-01  0.23113950134E-01  0.00000000000E+00 0.  1.
     999901    1    3    3    0    0  0.12845094898E+00 -0.39550608162E-01 -0.19060797060E-01  0.89040845171E+00  0.88000000000E+00 0.  1.
        -11    1    4    4    0    0 -0.63086092961E-01  0.42019665717E-01  0.78364893004E-02  0.76204849699E-01  0.51100000000E-03 0.  1.
         11    1    4    4    0    0 -0.52716500478E-01  0.12558972250E-01 -0.95896409854E-03  0.54202748452E-01  0.51100000000E-03 0. -1.
</event>
<event>
 8    1  0.1233916E+005  0.1043930E+01  0.7957747E-01            NaN
         13   -1    0    0    0    0  0.00000000000E+00  0.00000000000E+00  0.74505805969E-08  0.10566000000E+00  0.10566000000E+00 0.  1.
     999900   -1    0    0    0    0 -0.00000000000E+00 -0.00000000000E+00 -0.74505805969E-08  0.93827000000E+00  0.93827000000E+00 0. -1.
     999902    2    1    2    0    0 -0.12867936012E-01  0.96892779925E-02  0.18137468328E-01  0.10196723488E+01  0.10193837674E+01 0.  0.
     999903    2    3    3    0    0  0.17875801295E-01 -0.56147882742E-01 -0.11108239899E+00  0.12727250386E+00  0.19668804347E-01 0.  0.
         14    1    1    2    0    0  0.12867936012E-01 -0.96892779925E-02 -0.18137468328E-01  0.24257651217E-01  0.00000000000E+00 0. -1.
     999901    1    3    3    0    0 -0.30743737307E-01  0.65837160735E-01  0.12921986732E+00  0.89239984493E+00  0.88000000000E+00 0.  1.
        -11    1    4    4    0    0  0.15559542750E-01 -0.32797578501E-01 -0.49635498646E-01  0.61495726461E-01  0.51100000000E-03 0. -1.
         11    1    4    4    0    0  0.23162585448E-02 -0.23350304241E-01 -0.61446900342E-01  0.65776777395E-01  0.51100000000E-03 0.  1.
</event>
<event>
 8    1  0.1233916E+005  0.1043930E+01  0.7957747E-01            NaN
         13   -1    0    0    0    0  0.00000000000E+00  0.00000000000E+00  0.74505805969E-08  0.10566000000E+00  0.10566000000E+00 0. -1.
     999900   -1    0    0    0    0 -0.00000000000E+00 -0.00000000000E+00 -0.74505805969E-08  0.93827000000E+00  0.93827000000E+00 0.  1.
     999902    2    1    2    0    0  0.71822024153E-02 -0.17864855032E-01 -0.13836831629E-01  0.10202193487E+01  0.10199437849E+01 0.  0.
     999903    2    3    3    0    0  0.12679632752E+00  0.56124061488E-02  0.22851790778E-01  0.13105975910E+00  0.23359116829E-01 0.  0.
         14    1    1    2    0    0 -0.71822024153E-02  0.17864855032E-01  0.13836831629E-01  0.23710651328E-01  0.00000000000E+00 0. -1.
     999901    1    3    3    0    0 -0.11961412510E+00 -0.23477261181E-01 -0.36688622408E-01  0.88915958957E+00  0.88000000000E+00 0. -1.
        -11    1    4    4    0    0  0.52686846067E-01  0.13466863749E-01  0.12688033624E-01  0.55843598434E-01  0.51100000000E-03 0.  1.
         11    1    4    4    0    0  0.74109481448E-01 -0.78544576004E-02  0.10163757154E-01  0.75216160665E-01  0.51100000000E-03 0. -1.
</event>
<event>
 8    1  0.1233916E+005  0.1043930E+01  0.7957747E-01            NaN
         13   -1    0    0    0    0  0.00000000000E+00  0.00000000000E+00  0.74505805969E-08  0.10566000000E+00  0.10566000000E+00 0. -1.
     999900   -1    0    0    0    0 -0.00000000000E+00 -0.00000000000E+00 -0.74505805969E-08  0.93827000000E+00  0.93827000000E+00 0. -1.
     999902    2    1    2    0    0  0.14936462424E-01 -0.27042743299E-01 -0.28522595936E-03  0.10130351909E+01  0.10125639776E+01 0.  0.
     999903    2    3    3    0    0  0.44039318073E-01  0.42905726730E-02  0.11479088580E+00  0.12451323598E+00  0.19202289442E-01 0.  0.
         14    1    1    2    0    0 -0.14936462424E-01  0.27042743299E-01  0.28522595936E-03  0.30894809091E-01  0.00000000000E+00 0.  1.
     999901    1    3    3    0    0 -0.29102855649E-01 -0.31333315972E-01 -0.11507611176E+00  0.88852195493E+00  0.88000000000E+00 0. -1.
        -11    1    4    4    0    0  0.33967181844E-01 -0.35015952386E-02  0.95214726903E-01  0.10115402094E+00  0.51100000000E-03 0.  1.
         11    1    4    4    0    0  0.10072136229E-01  0.77921679116E-02  0.19576158901E-01  0.23359215040E-01  0.51100000000E-03 0. -1.
</event>
<event>
 8    1  0.1233916E+005  0.1043930E+01  0.7957747E-01            NaN
         13   -1    0    0    0    0  0.00000000000E+00  0.00000000000E+00  0.74505805969E-08  0.10566000000E+00  0.10566000000E+00 0. -1.
     999900   -1    0    0    0    0 -0.00000000000E+00 -0.00000000000E+00 -0.74505805969E-08  0.93827000000E+00  0.93827000000E+00 0. -1.
     999902    2    1    2    0    0 -0.94392565426E-02  0.11354349880E-01 -0.18053579895E-01  0.10206072092E+01  0.10203406896E+01 0.  0.
     999903    2    3    3    0    0  0.32867459120E-01  0.11997971845E+00  0.31936154259E-01  0.13151311830E+00  0.28290981390E-01 0.  0.
         14    1    1    2    0    0  0.94392565426E-02 -0.11354349880E-01  0.18053579895E-01  0.23322790834E-01  0.00000000000E+00 0. -1.
     999901    1    3    3    0    0 -0.42306715662E-01 -0.10862536857E+00 -0.49989734154E-01  0.88909409086E+00  0.88000000000E+00 0. -1.
        -11    1    4    4    0    0  0.28110592484E-01  0.94397853728E-01  0.36594417615E-01  0.10507412964E+00  0.51100000000E-03 0.  1.
         11    1    4    4    0    0  0.47568666357E-02  0.25581864723E-01 -0.46582633560E-02  0.26438988661E-01  0.51100000000E-03 0. -1.
</event>
<event>
 8    1  0.1233916E+005  0.1043930E+01  0.7957747E-01            NaN
         13   -1    0    0    0    0  0.00000000000E+00  0.00000000000E+00  0.74505805969E-08  0.10566000000E+00  0.10566000000E+00 0.  1.
     999900   -1    0    0    0    0 -0.00000000000E+00 -0.00000000000E+00 -0.74505805969E-08  0.93827000000E+00  0.93827000000E+00 0. -1.
     999902    2    1    2    0    0  0.11713322828E-01  0.19540564048E-01  0.18501828179E-02  0.10210726434E+01  0.10208167731E+01 0.  0.
     999903    2    3    3    0    0  0.12884673746E+00  0.13184563699E-01  0.21443631171E-01  0.13307234002E+00  0.21750951367E-01 0.  0.
         14    1    1    2    0    0 -0.11713322828E-01 -0.19540564048E-01 -0.18501828179E-02  0.22857356616E-01  0.00000000000E+00 0. -1.
     999901    1    3    3    0    0 -0.11713341463E+00  0.63560003496E-02 -0.19593448353E-01  0.88800030337E+00  0.88000000000E+00 0. -1.
        -11    1    4    4    0    0  0.51365605630E-01  0.15225446535E-01  0.47653311790E-02  0.53788559808E-01  0.51100000000E-03 0. -1.
         11    1    4    4    0    0  0.77481131830E-01 -0.20408828365E-02  0.16678299992E-01  0.79283780208E-01  0.51100000000E-03 0.  1.
</event>
<event>
 8    1  0.1233916E+005  0.1043930E+01  0.7957747E-01            NaN
         13   -1    0    0    0    0  0.00000000000E+00  0.00000000000E+00  0.74505805969E-08  0.10566000000E+00  0.10566000000E+00 0. -1.
     999900   -1    0    0    0    0 -0.00000000000E+00 -0.00000000000E+00 -0.74505805969E-08  0.93827000000E+00  0.93827000000E+00 0.  1.
     999902    2    1    2    0    0  0.77394222252E-02  0.24454999804E-01  0.79735777146E-02  0.10170688084E+01  0.10167140392E+01 0.  0.
     999903    2    3    3    0    0  0.10474436582E+00  0.68791407727E-01  0.29764957771E-01  0.13036111115E+00  0.20110361517E-01 0.  0.
         14    1    1    2    0    0 -0.77394222252E-02 -0.24454999804E-01 -0.79735777146E-02  0.26861191585E-01  0.00000000000E+00 0. -1.
     999901    1    3    3    0    0 -0.97004943595E-01 -0.44336407922E-01 -0.21791380056E-01  0.88670769727E+00  0.88000000000E+00 0.  1.
        -11    1    4    4    0    0  0.85694494518E-01  0.62646195884E-01  0.19753839893E-01  0.10797484689E+00  0.51100000000E-03 0. -1.
         11    1    4    4    0    0  0.19049871301E-01  0.61452118429E-02  0.10011117878E-01  0.22386264257E-01  0.51100000000E-03 0.  1.
</event>
<event>
 8    1  0.1233916E+005  0.1043930E+01  0.7957747E-01            NaN
         13   -1    0    0    0    0  0.00000000000E+00  0.00000000000E+00  0.74505805969E-08  0.10566000000E+00  0.10566000000E+00 0.  1.
     999900   -1    0    0    0    0 -0.00000000000E+00 -0.00000000000E+00 -0.74505805969E-08  0.93827000000E+00  0.93827000000E+00 0. -1.
     999902    2    1    2    0    0  0.11445562080E-01 -0.23555137424E-01  0.50814850025E-02  0.10172529147E+01  0.10169030561E+01 0.  0.
     999903    2    3    3    0    0  0.11250746774E+00  0.41307542773E-01 -0.40064367278E-01  0.12795047793E+00  0.20048139361E-01 0.  0.
         14    1    1    2    0    0 -0.11445562080E-01  0.23555137424E-01 -0.50814850025E-02  0.26677085302E-01  0.00000000000E+00 0. -1.
     999901    1    3    3    0    0 -0.10106190566E+00 -0.64862680196E-01  0.45145852281E-01  0.88930243676E+00  0.88000000000E+00 0.  1.
        -11    1    4    4    0    0  0.66344243762E-01  0.23690351528E-01 -0.13092256273E-01  0.71655144485E-01  0.51100000000E-03 0.  1.
         11    1    4    4    0    0  0.46163223974E-01  0.17617191245E-01 -0.26972111005E-01  0.56295333449E-01  0.51100000000E-03 0. -1.
</event>
<event>
 8    1  0.1233916E+005  0.1043930E+01  0.7957747E-01            NaN
         13   -1    0    0    0    0  0.00000000000E+00  0.00000000000E+00  0.74505805969E-08  0.10566000000E+00  0.10566000000E+00 0.  1.
     999900   -1    0    0    0    0 -0.00000000000E+00 -0.00000000000E+00 -0.74505805969E-08  0.93827000000E+00  0.93827000000E+00 0.  1.
     999902    2    1    2    0    0  0.11570533163E-02  0.19026384224E-01  0.12888094264E-01  0.10209203272E+01  0.10206609963E+01 0.  0.
     999903    2    3    3    0    0  0.10395821572E+00 -0.67356715751E-01 -0.36633863118E-01  0.12935847111E+00  0.68801415622E-02 0.  0.
         14    1    1    2    0    0 -0.11570533163E-02 -0.19026384224E-01 -0.12888094264E-01  0.23009672809E-01  0.00000000000E+00 0. -1.
     999901    1    3    3    0    0 -0.10280116241E+00  0.86383099975E-01  0.49521957381E-01  0.89156185608E+00  0.88000000000E+00 0. -1.
        -11    1    4    4    0    0  0.62939509444E-01 -0.37999121103E-01 -0.24214630060E-01  0.77407522139E-01  0.51100000000E-03 0. -1.
         11    1    4    4    0    0  0.41018706280E-01 -0.29357594647E-01 -0.12419233057E-01  0.51950948972E-01  0.51100000000E-03 0.  1.
</event>
<event>
 8    1  0.1233916E+005  0.1043930E+01  0.7957747E-01            NaN
         13   -1    0    0    0    0  0.00000000000E+00  0.00000000000E+00  0.74505805969E-08  0.10566000000E+00  0.10566000000E+00 0. -1.
     999900   -1    0    0    0    0 -0.00000000000E+00 -0.00000000000E+00 -0.74505805969E-08  0.93827000000E+00  0.93827000000E+00 0.  1.
     999902    2    1    2    0    0 -0.13184130956E-01 -0.16076996039E-01 -0.11008903191E-01  0.10204036943E+01  0.10201324484E+01 0.  0.
     999903    2    3    3    0    0  0.27124042642E-01 -0.11811313106E+00 -0.50434138446E-01  0.13271542081E+00  0.19579458134E-01 0.  0.
         14    1    1    2    0    0  0.13184130956E-01  0.16076996039E-01  0.11008903191E-01  0.23526305706E-01  0.00000000000E+00 0.  1.
     999901    1    3    3    0    0 -0.40308173598E-01  0.10203613502E+00  0.39425235255E-01  0.88768827349E+00  0.88000000000E+00 0.  1.
        -11    1    4    4    0    0  0.14801310458E-01 -0.27355114141E-01 -0.14601981257E-01  0.34363644140E-01  0.51100000000E-03 0. -1.
         11    1    4    4    0    0  0.12322732184E-01 -0.90758016921E-01 -0.35832157189E-01  0.98351776668E-01  0.51100000000E-03 0.  1.
</event>
<event>
 8    1  0.1233916E+005  0.1043930E+01  0.7957747E-01            NaN
         13   -1    0    0    0    0  0.00000000000E+00  0.00000000000E+00  0.74505805969E-08  0.10566000000E+00  0.10566000000E+00 0.  1.
     999900   -1    0    0    0    0 -0.00000000000E+00 -0.00000000000E+00 -0.74505805969E-08  0.93827000000E+00  0.93827000000E+00 0. -1.
     999902    2    1    2    0    0  0.20238474265E-02 -0.91556385638E-02  0.23490509731E-01  0.10186372002E+01  0.10183231412E+01 0.  0.
     999903    2    3    3    0    0 -0.97672299728E-01 -0.48292857930E-01  0.69672319903E-01  0.13094141709E+00  0.20477897566E-01 0.  0.
         14    1    1    2    0    0 -0.20238474265E-02  0.91556385638E-02 -0.23490509731E-01  0.25292799832E-01  0.00000000000E+00 0. -1.
     999901    1    3    3    0    0  0.99696147154E-01  0.39137219366E-01 -0.46181810172E-01  0.88769578307E+00  0.88000000000E+00 0. -1.
        -11    1    4    4    0    0 -0.79034036298E-01 -0.37860848768E-01  0.45721570590E-01  0.98846071754E-01  0.51100000000E-03 0. -1.
         11    1    4    4    0    0 -0.18638263429E-01 -0.10432009162E-01  0.23950749313E-01  0.32095345339E-01  0.51100000000E-03 0.  1.
</event>
<event>
 8    1  0.1233916E+005  0.1043930E+01  0.7957747E-01            NaN
         13   -1    0    0    0    0  0.00000000000E+00  0.00000000000E+00  0.74505805969E-08  0.10566000000E+00  0.10566000000E+00 0. -1.
     999900   -1    0    0    0    0 -0.00000000000E+00 -0.00000000000E+00 -0.74505805969E-08  0.93827000000E+00  0.93827000000E+00 0. -1.
     999902    2    1    2    0    0 -0.19351133630E-02 -0.21610153826E-01  0.98643011805E-02  0.10200962456E+01  0.10198177790E+01 0.  0.
     999903    2    3    3    0    0  0.28857210999E-01 -0.28124097096E-01 -0.12166140545E+00  0.12976506551E+00  0.20341366361E-01 0.  0.
         14    1    1    2    0    0  0.19351133630E-02  0.21610153826E-01 -0.98643011805E-02  0.23833754423E-01  0.00000000000E+00 0. -1.
     999901    1    3    3    0    0 -0.30792324362E-01  0.65139432698E-02  0.13152570663E+00  0.89033118007E+00  0.88000000000E+00 0.  1.
        -11    1    4    4    0    0  0.59638450167E-02  0.18049099384E-02 -0.30273933839E-01  0.30912737478E-01  0.51100000000E-03 0.  1.
         11    1    4    4    0    0  0.22893365983E-01 -0.29929007035E-01 -0.91387471614E-01  0.98852328031E-01  0.51100000000E-03 0. -1.
</event>
<event>
 8    1  0.1233916E+005  0.1043930E+01  0.7957747E-01            NaN
         13   -1    0    0    0    0  0.00000000000E+00  0.00000000000E+00  0.74505805969E-08  0.10566000000E+00  0.10566000000E+00 0.  1.
     999900   -1    0    0    0    0 -0.00000000000E+00 -0.00000000000E+00 -0.74505805969E-08  0.93827000000E+00  0.93827000000E+00 0.  1.
     999902    2    1    2    0    0  0.84065465642E-02  0.20074245745E-01  0.12782353729E-01  0.10186904688E+01  0.10183777479E+01 0.  0.
     999903    2    3    3    0    0 -0.98549872111E-01  0.29649014628E-01  0.76614519983E-01  0.12986770969E+00  0.20117057114E-01 0.  0.
         14    1    1    2    0    0 -0.84065465642E-02 -0.20074245745E-01 -0.12782353729E-01  0.25239531181E-01  0.00000000000E+00 0. -1.
     999901    1    3    3    0    0  0.10695641867E+00 -0.95747688832E-02 -0.63832166253E-01  0.88882275913E+00  0.88000000000E+00 0.  1.
        -11    1    4    4    0    0 -0.85994105824E-01  0.28764490632E-01  0.73907838128E-01  0.11698295524E+00  0.51100000000E-03 0. -1.
         11    1    4    4    0    0 -0.12555766286E-01  0.88452399596E-03  0.27066818547E-02  0.12884754456E-01  0.51100000000E-03 0.  1.
</event>
<event>
 8    1  0.1233916E+005  0.1043930E+01  0.7957747E-01            NaN
         13   -1    0    0    0    0  0.00000000000E+00  0.00000000000E+00  0.74505805969E-08  0.10566000000E+00  0.10566000000E+00 0. -1.
     999900   -1    0    0    0    0 -0.00000000000E+00 -0.00000000000E+00 -0.74505805969E-08  0.93827000000E+00  0.93827000000E+00 0.  1.
     999902    2    1    2    0    0 -0.46112518216E-02 -0.43786351095E-02 -0.22701493731E-01  0.10203547183E+01  0.10200823287E+01 0.  0.
     999903    2    3    3    0    0 -0.43263707582E-01 -0.11497929900E+00  0.38896356434E-01  0.13045539012E+00  0.20339485621E-01 0.  0.
         14    1    1    2    0    0  0.46112518216E-02  0.43786351095E-02  0.22701493731E-01  0.23575281682E-01  0.00000000000E+00 0. -1.
     999901    1    3    3    0    0  0.38652455760E-01  0.11060066389E+00 -0.61597850165E-01  0.88989932820E+00  0.88000000000E+00 0.  1.
        -11    1    4    4    0    0 -0.53959304490E-03 -0.22591929295E-01  0.93798320472E-02  0.24473021885E-01  0.51100000000E-03 0.  1.
         11    1    4    4    0    0 -0.42724114537E-01 -0.92387369700E-01  0.29516524387E-01  0.10598236823E+00  0.51100000000E-03 0. -1.
</event>
<event>
 8    1  0.1233916E+005  0.1043930E+01  0.7957747E-01            NaN
         13   -1    0    0    0    0  0.00000000000E+00  0.00000000000E+00  0.74505805969E-08  0.10566000000E+00  0.10566000000E+00 0. -1.
     999900   -1    0    0    0    0 -0.00000000000E+00 -0.00000000000E+00 -0.74505805969E-08  0.93827000000E+00  0.93827000000E+00 0.  1.
     999902    2    1    2    0    0  0.22496340025E-01 -0.57937997759E-02  0.40872997105E-02  0.10203427270E+01  0.10200700569E+01 0.  0.
     999903    2    3    3    0    0  0.94520881284E-01  0.53009305812E-01  0.73724457113E-01  0.13270841405E+00  0.20785670108E-01 0.  0.
         14    1    1    2    0    0 -0.22496340025E-01  0.57937997759E-02 -0.40872997105E-02  0.23587273036E-01  0.00000000000E+00 0. -1.
     999901    1    3    3    0    0 -0.72024541259E-01 -0.58803105588E-01 -0.69637157402E-01  0.88763431291E+00  0.88000000000E+00 0.  1.
        -11    1    4    4    0    0  0.17598755894E-01  0.18222636057E-01  0.11472797308E-01  0.27814867840E-01  0.51100000000E-03 0.  1.
         11    1    4    4    0    0  0.76922125389E-01  0.34786669755E-01  0.62251659805E-01  0.10489354621E+00  0.51100000000E-03 0. -1.
</event>
<event>
 8    1  0.1233916E+005  0.1043930E+01  0.7957747E-01            NaN
         13   -1    0    0    0    0  0.00000000000E+00  0.00000000000E+00  0.74505805969E-08  0.10566000000E+00  0.10566000000E+00 0.  1.
     999900   -1    0    0    0    0 -0.00000000000E+00 -0.00000000000E+00 -0.74505805969E-08  0.93827000000E+00  0.93827000000E+00 0.  1.
     999902    2    1    2    0    0  0.12250243087E-01 -0.19251385371E-01 -0.55725769552E-02  0.10204408981E+01  0.10201705194E+01 0.  0.
     999903    2    3    3    0    0 -0.55159821904E-01 -0.11786193881E+00  0.12997837659E-01  0.13217685041E+00  0.19176376806E-01 0.  0.
         14    1    1    2    0    0 -0.12250243087E-01  0.19251385371E-01  0.55725769552E-02  0.23489101905E-01  0.00000000000E+00 0. -1.
     999901    1    3    3    0    0  0.67410064991E-01  0.98610553441E-01 -0.18570414614E-01  0.88826404769E+00  0.88000000000E+00 0.  1.
        -11    1    4    4    0    0 -0.12088188695E-01 -0.32463170826E-01 -0.45219405993E-02  0.34938386251E-01  0.51100000000E-03 0. -1.
         11    1    4    4    0    0 -0.43071633209E-01 -0.85398767985E-01  0.17519778258E-01  0.97238464159E-01  0.51100000000E-03 0.  1.
</event>
<event>
 8    1  0.1233916E+005  0.1043930E+01  0.7957747E-01            NaN
         13   -1    0    0    0    0  0.00000000000E+00  0.00000000000E+00  0.74505805969E-08  0.10566000000E+00  0.10566000000E+00 0.  1.
     999900   -1    0    0    0    0 -0.00000000000E+00 -0.00000000000E+00 -0.74505805969E-08  0.93827000000E+00  0.93827000000E+00 0. -1.
     999902    2    1    2    0    0  0.19459476931E-01  0.81407321944E-02  0.11862726997E-01  0.10197294410E+01  0.10194422327E+01 0.  0.
     999903    2    3    3    0    0 -0.67483709411E-01  0.10884274593E+00  0.65936461814E-03  0.12965892216E+00  0.20253566470E-01 0.  0.
         14    1    1    2    0    0 -0.19459476931E-01 -0.81407321944E-02 -0.11862726997E-01  0.24200558979E-01  0.00000000000E+00 0. -1.
     999901    1    3    3    0    0  0.86943186343E-01 -0.10070201374E+00  0.11203362379E-01  0.89007051886E+00  0.88000000000E+00 0.  1.
        -11    1    4    4    0    0 -0.31400624159E-01  0.56273034247E-01 -0.93379333523E-02  0.65116140098E-01  0.51100000000E-03 0. -1.
         11    1    4    4    0    0 -0.36083085252E-01  0.52569711687E-01  0.99972979705E-02  0.64542782059E-01  0.51100000000E-03 0.  1.
</event>
<event>
 8    1  0.1233916E+005  0.1043930E+01  0.7957747E-01            NaN
         13   -1    0    0    0    0  0.00000000000E+00  0.00000000000E+00  0.74505805969E-08  0.10566000000E+00  0.10566000000E+00 0. -1.
     999900   -1    0    0    0    0 -0.00000000000E+00 -0.00000000000E+00 -0.74505805969E-08  0.93827000000E+00  0.93827000000E+00 0. -1.
     999902    2    1    2    0    0  0.99402968171E-02 -0.20608242697E-01  0.19502499560E-01  0.10138657911E+01  0.10134199454E+01 0.  0.
     999903    2    3    3    0    0  0.34418741452E-01 -0.11639838569E+00  0.36422060369E-01  0.12816763863E+00  0.19160980014E-01 0.  0.
         14    1    1    2    0    0 -0.99402968171E-02  0.20608242697E-01 -0.19502499560E-01  0.30064208903E-01  0.00000000000E+00 0.  1.
     999901    1    3    3    0    0 -0.24478444635E-01  0.95790142996E-01 -0.16919560810E-01  0.88569815247E+00  0.88000000000E+00 0. -1.
        -11    1    4    4    0    0  0.89641639949E-02 -0.44951893936E-01  0.51561814369E-02  0.46128909944E-01  0.51100000000E-03 0.  1.
         11    1    4    4    0    0  0.25454577457E-01 -0.71446491757E-01  0.31265878932E-01  0.82038728685E-01  0.51100000000E-03 0. -1.
</event>
<event>
 8    1  0.1233916E+005  0.1043930E+01  0.7957747E-01            NaN
         13   -1    0    0    0    0  0.00000000000E+00  0.00000000000E+00  0.74505805969E-08  0.10566000000E+00  0.10566000000E+00 0. -1.
     999900   -1    0    0    0    0 -0.00000000000E+00 -0.00000000000E+00 -0.74505805969E-08  0.93827000000E+00  0.93827000000E+00 0. -1.
     999902    2    1    2    0    0  0.10672490288E-01 -0.76994630157E-02  0.22907775483E-01  0.10175112575E+01  0.10171682305E+01 0.  0.
     999903    2    3    3    0    0  0.39833877828E-02  0.12008226097E+00  0.39552392119E-01  0.12810136526E+00  0.20247253685E-01 0.  0.
         14    1    1    2    0    0 -0.10672490288E-01  0.76994630157E-02 -0.22907775483E-01  0.26418742538E-01  0.00000000000E+00 0.  1.
     999901    1    3    3    0    0  0.66891025053E-02 -0.12778172399E+00 -0.16644616636E-01  0.88940989220E+00  0.88000000000E+00 0. -1.
        -11    1    4    4    0    0 -0.53593409984E-02  0.51438535283E-01  0.24395052478E-01  0.57184133765E-01  0.51100000000E-03 0. -1.
         11    1    4    4    0    0  0.93427287812E-02  0.68643725689E-01  0.15157339641E-01  0.70917231499E-01  0.51100000000E-03 0.  1.
</event>
<event>
 8    1  0.1233916E+005  0.1043930E+01  0.7957747E-01            NaN
         13   -1    0    0    0    0  0.00000000000E+00  0.00000000000E+00  0.74505805969E-08  0.10566000000E+00  0.10566000000E+00 0. -1.
     999900   -1    0    0    0    0 -0.00000000000E+00 -0.00000000000E+00 -0.74505805969E-08  0.93827000000E+00  0.93827000000E+00 0. -1.
     999902    2    1    2    0    0 -0.17563762326E-01  0.12152598490E-01  0.15954968692E-01  0.10172704347E+01  0.10169210416E+01 0.  0.
     999903    2    3    3    0    0  0.41394694941E-02 -0.11786634016E+00  0.43033734100E-01  0.12704056874E+00  0.19436936116E-01 0.  0.
         14    1    1    2    0    0  0.17563762326E-01 -0.12152598490E-01 -0.15954968692E-01  0.26659565320E-01  0.00000000000E+00 0.  1.
     999901    1    3    3    0    0 -0.21703231820E-01  0.13001893864E+00 -0.27078765408E-01  0.89022986594E+00  0.88000000000E+00 0. -1.
        -11    1    4    4    0    0  0.58344803010E-02 -0.45246905056E-01  0.77283202528E-02  0.46274308557E-01  0.51100000000E-03 0.  1.
         11    1    4    4    0    0 -0.16950108069E-02 -0.72619435099E-01  0.35305413847E-01  0.80766260181E-01  0.51100000000E-03 0. -1.
</event>
<event>
 8    1  0.1233916E+005  0.1043930E+01  0.7957747E-01            NaN
         13   -1    0    0    0    0  0.00000000000E+00  0.00000000000E+00  0.74505805969E-08  0.10566000000E+00  0.10566000000E+00 0.  1.
     999900   -1    0    0    0    0 -0.00000000000E+00 -0.00000000000E+00 -0.74505805969E-08  0.93827000000E+00  0.93827000000E+00 0. -1.
     999902    2    1    2    0    0 -0.20200331238E-01 -0.56125793480E-02  0.79453141179E-02  0.10215094192E+01  0.10212633407E+01 0.  0.
     999903    2    3    3    0    0 -0.11325033896E+00  0.84581738594E-02  0.69389568432E-01  0.13436135574E+00  0.18462982668E-01 0.  0.
         14    1    1    2    0    0  0.20200331238E-01  0.56125793480E-02 -0.79453141179E-02  0.22420580847E-01  0.00000000000E+00 0.  1.
     999901    1    3    3    0    0  0.93050007722E-01 -0.14070753207E-01 -0.61444254314E-01  0.88714806342E+00  0.88000000000E+00 0. -1.
        -11    1    4    4    0    0 -0.13739452251E-01  0.33909630279E-02  0.15822628270E-01  0.21234120297E-01  0.51100000000E-03 0. -1.
         11    1    4    4    0    0 -0.99510886710E-01  0.50672108315E-02  0.53566940162E-01  0.11312723544E+00  0.51100000000E-03 0.  1.
</event>
<event>
 8    1  0.1233916E+005  0.1043930E+01  0.7957747E-01            NaN
         13   -1    0    0    0    0  0.00000000000E+00  0.00000000000E+00  0.74505805969E-08  0.10566000000E+00  0.10566000000E+00 0. -1.
     999900   -1    0    0    0    0 -0.00000000000E+00 -0.00000000000E+00 -0.74505805969E-08  0.93827000000E+00  0.93827000000E+00 0.  1.
     999902    2    1    2    0    0 -0.93119245472E-02 -0.12001769783E-01  0.17575904147E-01  0.10206992699E+01  0.10204348743E+01 0.  0.
     999903    2    3    3    0    0  0.10465587166E+00  0.60805281647E-01  0.42833065767E-01  0.13000995840E+00  0.20439765466E-01 0.  0.
         14    1    1    2    0    0  0.93119245472E-02  0.12001769783E-01 -0.17575904147E-01  0.23230730150E-01  0.00000000000E+00 0.  1.
     999901    1    3    3    0    0 -0.11396779621E+00 -0.72807051431E-01 -0.25257161620E-01  0.89068931145E+00  0.88000000000E+00 0. -1.
        -11    1    4    4    0    0  0.21702673305E-01  0.22802588643E-01  0.99058930417E-02  0.33005331620E-01  0.51100000000E-03 0. -1.
         11    1    4    4    0    0  0.82953198355E-01  0.38002693004E-01  0.32927172725E-01  0.97004626785E-01  0.51100000000E-03 0.  1.
</event>
<event>
 8    1  0.1233916E+005  0.1043930E+01  0.7957747E-01            NaN
         13   -1    0    0    0    0  0.00000000000E+00  0.00000000000E+00  0.74505805969E-08  0.10566000000E+00  0.10566000000E+00 0. -1.
     999900   -1    0    0    0    0 -0.00000000000E+00 -0.00000000000E+00 -0.74505805969E-08  0.93827000000E+00  0.93827000000E+00 0. -1.
     999902    2    1    2    0    0  0.70422197333E-03  0.10323490102E-01  0.21445038789E-01  0.10201190768E+01  0.10198411497E+01 0.  0.
     999903    2    3    3    0    0 -0.30636346311E-01  0.17515624705E-01 -0.12150315994E+00  0.12800465275E+00  0.19411090310E-01 0.  0.
         14    1    1    2    0    0 -0.70422197333E-03 -0.10323490102E-01 -0.21445038789E-01  0.23810923231E-01  0.00000000000E+00 0.  1.
     999901    1    3    3    0    0  0.31340568284E-01 -0.71921346029E-02  0.14294819873E+00  0.89211442402E+00  0.88000000000E+00 0.  1.
        -11    1    4    4    0    0 -0.12345746079E-01  0.11850304265E-01 -0.85763175446E-01  0.87455305963E-01  0.51100000000E-03 0. -1.
         11    1    4    4    0    0 -0.18290600232E-01  0.56653204393E-02 -0.35739984492E-01  0.40549346789E-01  0.51100000000E-03 0.  1.
</event>
<event>
 8    1  0.1233916E+005  0.1043930E+01  0.7957747E-01            NaN
         13   -1    0    0    0    0  0.00000000000E+00  0.00000000000E+00  0.74505805969E-08  0.10566000000E+00  0.10566000000E+00 0.  1.
     999900   -1    0    0    0    0 -0.00000000000E+00 -0.00000000000E+00 -0.74505805969E-08  0.93827000000E+00  0.93827000000E+00 0.  1.
     999902    2    1    2    0    0 -0.42918712052E-02  0.20168849440E-01 -0.11762225438E-01  0.10201907373E+01  0.10199145003E+01 0.  0.
     999903    2    3    3    0    0  0.10818574622E+00  0.15127336466E-01  0.66771199250E-01  0.12954819954E+00  0.19782592418E-01 0.  0.
         14    1    1    2    0    0  0.42918712052E-02 -0.20168849440E-01  0.11762225438E-01  0.23739262697E-01  0.00000000000E+00 0.  1.
     999901    1    3    3    0    0 -0.11247761742E+00  0.50415129737E-02 -0.78533424688E-01  0.89064253776E+00  0.88000000000E+00 0.  1.
        -11    1    4    4    0    0  0.36900583025E-01  0.10510871321E-01  0.14456938094E-01  0.41004824394E-01  0.51100000000E-03 0.  1.
         11    1    4    4    0    0  0.71285163190E-01  0.46164651451E-02  0.52314261156E-01  0.88543375149E-01  0.51100000000E-03 0. -1.
</event>
<event>
 8    1  0.1233916E+005  0.1043930E+01  0.7957747E-01            NaN
         13   -1    0    0    0    0  0.00000000000E+00  0.00000000000E+00  0.74505805969E-08  0.10566000000E+00  0.10566000000E+00 0.  1.
     999900   -1    0    0    0    0 -0.00000000000E+00 -0.00000000000E+00 -0.74505805969E-08  0.93827000000E+00  0.93827000000E+00 0.  1.
     999902    2    1    2    0    0 -0.17598230573E-01  0.13386230166E-01 -0.66981856321E-02  0.10208268710E+01  0.10205654051E+01 0.  0.
     999903    2    3    3    0    0  0.24913008893E-01  0.60865195734E-01  0.11110648896E+00  0.13069238737E+00  0.20263715454E-01 0.  0.
         14    1    1    2    0    0  0.17598230573E-01 -0.13386230166E-01  0.66981856321E-02  0.23103128968E-01  0.00000000000E+00 0.  1.
     999901    1    3    3    0    0 -0.42511239466E-01 -0.47478965568E-01 -0.11780467459E+00  0.89013448366E+00  0.88000000000E+00 0.  1.
        -11    1    4    4    0    0  0.26920438189E-01  0.58256915838E-01  0.97814135644E-01  0.11698907850E+00  0.51100000000E-03 0. -1.
         11    1    4    4    0    0 -0.20074292963E-02  0.26082798963E-02  0.13292353312E-01  0.13703308869E-01  0.51100000000E-03 0.  1.
</event>
<event>
 8    1  0.1233916E+005  0.1043930E+01  0.7957747E-01            NaN
         13   -1    0    0    0    0  0.00000000000E+00  0.00000000000E+00  0.74505805969E-08  0.10566000000E+00  0.10566000000E+00 0. -1.
     999900   -1    0    0    0    0 -0.00000000000E+00 -0.00000000000E+00 -0.74505805969E-08  0.93827000000E+00  0.93827000000E+00 0.  1.
     999902    2    1    2    0    0 -0.22347311439E-02 -0.23073428959E-01  0.86989402819E-02  0.10191701795E+01  0.10188693764E+01 0.  0.
     999903    2    3    3    0    0 -0.85089676608E-01 -0.69320452404E-01  0.70374590283E-01  0.13192296767E+00  0.20137235530E-01 0.  0.
         14    1    1    2    0    0  0.22347311439E-02  0.23073428959E-01 -0.86989402819E-02  0.24759820461E-01  0.00000000000E+00 0.  1.
     999901    1    3    3    0    0  0.82854945464E-01  0.46247023445E-01 -0.61675650001E-01  0.88724721187E+00  0.88000000000E+00 0. -1.
        -11    1    4    4    0    0 -0.24576865696E-01 -0.25096647958E-01  0.32875829457E-01  0.48113878971E-01  0.51100000000E-03 0. -1.
         11    1    4    4    0    0 -0.60512810913E-01 -0.44223804446E-01  0.37498760826E-01  0.83809088700E-01  0.51100000000E-03 0.  1.
</event>
<event>
 8    1  0.1233916E+005  0.1043930E+01  0.7957747E-01            NaN
         13   -1    0    0    0    0  0.00000000000E+00  0.00000000000E+00  0.74505805969E-08  0.10566000000E+00  0.10566000000E+00 0.  1.
     999900   -1    0    0    0    0 -0.00000000000E+00 -0.00000000000E+00 -0.74505805969E-08  0.93827000000E+00  0.93827000000E+00 0. -1.
     999902    2    1    2    0    0 -0.16542007405E-01  0.13167479857E-01 -0.11063004585E-01  0.10200676739E+01  0.10197885314E+01 0.  0.
     999903    2    3    3    0    0 -0.38899441036E-01 -0.10078750387E+00  0.67515156295E-01  0.12896716304E+00  0.20073499045E-01 0.  0.
         14    1    1    2    0    0  0.16542007405E-01 -0.13167479857E-01  0.11063004585E-01  0.23862326065E-01  0.00000000000E+00 0.  1.
     999901    1    3    3    0    0  0.22357433631E-01  0.11395498372E+00 -0.78578160880E-01  0.89110051090E+00  0.88000000000E+00 0. -1.
        -11    1    4    4    0    0 -0.13939122806E-01 -0.17473441244E-01  0.87914097422E-02  0.24024368873E-01  0.51100000000E-03 0.  1.
         11    1    4    4    0    0 -0.24960318230E-01 -0.83314062623E-01  0.58723746553E-01  0.10494279416E+00  0.51100000000E-03 0. -1.
</event>
<event>
 8    1  0.1233916E+005  0.1043930E+01  0.7957747E-01            NaN
         13   -1    0    0    0    0  0.00000000000E+00  0.00000000000E+00  0.74505805969E-08  0.10566000000E+00  0.10566000000E+00 0. -1.
     999900   -1    0    0    0    0 -0.00000000000E+00 -0.00000000000E+00 -0.74505805969E-08  0.93827000000E+00  0.93827000000E+00 0. -1.
     999902    2    1    2    0    0  0.38603715499E-02  0.19591409849E-02  0.24408670644E-01  0.10191404073E+01  0.10188388714E+01 0.  0.
     999903    2    3    3    0    0 -0.71739699808E-01  0.10382342029E+00 -0.17493751617E-01  0.12905753750E+00  0.20589548582E-01 0.  0.
         14    1    1    2    0    0 -0.38603715499E-02 -0.19591409849E-02 -0.24408670644E-01  0.24789592665E-01  0.00000000000E+00 0.  1.
     999901    1    3    3    0    0  0.75600071357E-01 -0.10186427930E+00  0.41902422261E-01  0.89008286984E+00  0.88000000000E+00 0.  1.
        -11    1    4    4    0    0 -0.36565379183E-02  0.13710401280E-01  0.23302772501E-02  0.14388769436E-01  0.51100000000E-03 0.  1.
         11    1    4    4    0    0 -0.68083161889E-01  0.90113019006E-01 -0.19824028867E-01  0.11466876806E+00  0.51100000000E-03 0. -1.
</event>
<event>
 8    1  0.1233916E+005  0.1043930E+01  0.7957747E-01            NaN
         13   -1    0    0    0    0  0.00000000000E+00  0.00000000000E+00  0.74505805969E-08  0.10566000000E+00  0.10566000000E+00 0.  1.
     999900   -1    0    0    0    0 -0.00000000000E+00 -0.00000000000E+00 -0.74505805969E-08  0.93827000000E+00  0.93827000000E+00 0. -1.
     999902    2    1    2    0    0 -0.15545158979E-01  0.11063185682E-01  0.11981430854E-01  0.10214000038E+01  0.10211514907E+01 0.  0.
     999903    2    3    3    0    0 -0.10214009794E+00 -0.40760117572E-01 -0.68397195394E-01  0.13199286315E+00  0.25494171747E-01 0.  0.
         14    1    1    2    0    0  0.15545158979E-01 -0.11063185682E-01 -0.11981430854E-01  0.22529996236E-01  0.00000000000E+00 0. -1.
     999901    1    3    3    0    0  0.86594938964E-01  0.51823303253E-01  0.80378626248E-01  0.88940714061E+00  0.88000000000E+00 0.  1.
        -11    1    4    4    0    0 -0.60059235962E-01 -0.21056848826E-01 -0.53649175166E-01  0.83240602015E-01  0.51100000000E-03 0.  1.
         11    1    4    4    0    0 -0.42080861981E-01 -0.19703268745E-01 -0.14748020228E-01  0.48752261137E-01  0.51100000000E-03 0. -1.
</event>
<event>
 8    1  0.1233916E+005  0.1043930E+01  0.7957747E-01            NaN
         13   -1    0    0    0    0  0.00000000000E+00  0.00000000000E+00  0.74505805969E-08  0.10566000000E+00  0.10566000000E+00 0.  1.
     999900   -1    0    0    0    0 -0.00000000000E+00 -0.00000000000E+00 -0.74505805969E-08  0.93827000000E+00  0.93827000000E+00 0.  1.
     999902    2    1    2    0    0  0.24337150164E-02 -0.65576467266E-02 -0.22401987703E-01  0.10204614092E+01  0.10201915080E+01 0.  0.
     999903    2    3    3    0    0  0.17791738690E-01  0.96191833483E-01 -0.86361871451E-01  0.13204473261E+00  0.20199598406E-01 0.  0.
         14    1    1    2    0    0 -0.24337150164E-02  0.65576467266E-02  0.22401987703E-01  0.23468590763E-01  0.00000000000E+00 0.  1.
     999901    1    3    3    0    0 -0.15358023673E-01 -0.10274948021E+00  0.63959883748E-01  0.88841667662E+00  0.88000000000E+00 0.  1.
        -11    1    4    4    0    0  0.26454836280E-02  0.42049462353E-02 -0.45318940200E-04  0.49943299124E-02  0.51100000000E-03 0. -1.
         11    1    4    4    0    0  0.15146255062E-01  0.91986887248E-01 -0.86316552511E-01  0.12705040270E+00  0.51100000000E-03 0.  1.
</event>
<event>
 8    1  0.1233916E+005  0.1043930E+01  0.7957747E-01            NaN
         13   -1    0    0    0    0  0.00000000000E+00  0.00000000000E+00  0.74505805969E-08  0.10566000000E+00  0.10566000000E+00 0. -1.
     999900   -1    0    0    0    0 -0.00000000000E+00 -0.00000000000E+00 -0.74505805969E-08  0.93827000000E+00  0.93827000000E+00 0.  1.
     999902    2    1    2    0    0  0.10112358831E-01  0.29559490694E-02  0.21813646343E-01  0.10197053720E+01  0.10194175852E+01 0.  0.
     999903    2    3    3    0    0  0.82811911504E-01  0.62404134326E-01  0.80587207272E-01  0.13275912606E+00  0.19457618237E-01 0.  0.
         14    1    1    2    0    0 -0.10112358831E-01 -0.29559490694E-02 -0.21813646343E-01  0.24224628022E-01  0.00000000000E+00 0.  1.
     999901    1    3    3    0    0 -0.72699552673E-01 -0.59448185257E-01 -0.58773560929E-01  0.88694624592E+00  0.88000000000E+00 0.  1.
        -11    1    4    4    0    0  0.49300859165E-01  0.25226462901E-01  0.44661063741E-01  0.71146474828E-01  0.51100000000E-03 0.  1.
         11    1    4    4    0    0  0.33511052339E-01  0.37177671425E-01  0.35926143531E-01  0.61612651229E-01  0.51100000000E-03 0. -1.
</event>
<event>
 8    1  0.1233916E+005  0.1043930E+01  0.7957747E-01            NaN
         13   -1    0    0    0    0  0.00000000000E+00  0.00000000000E+00  0.74505805969E-08  0.10566000000E+00  0.10566000000E+00 0. -1.
     999900   -1    0    0    0    0 -0.00000000000E+00 -0.00000000000E+00 -0.74505805969E-08  0.93827000000E+00  0.93827000000E+00 0. -1.
     999902    2    1    2    0    0  0.94348296326E-02  0.51703109287E-02 -0.21756256540E-01  0.10196589715E+01  0.10193700679E+01 0.  0.
     999903    2    3    3    0    0 -0.62391458451E-01  0.10546418172E+00  0.35977081384E-01  0.12918100183E+00  0.19442045544E-01 0.  0.
         14    1    1    2    0    0 -0.94348296326E-02 -0.51703109287E-02  0.21756256540E-01  0.24271028489E-01  0.00000000000E+00 0. -1.
     999901    1    3    3    0    0  0.71826288084E-01 -0.10029387079E+00 -0.57733337924E-01  0.89047796968E+00  0.88000000000E+00 0. -1.
        -11    1    4    4    0    0 -0.35310699669E-01  0.68123913905E-01  0.31094200472E-01  0.82793861976E-01  0.51100000000E-03 0.  1.
         11    1    4    4    0    0 -0.27080758782E-01  0.37340267817E-01  0.48828809121E-02  0.46387139855E-01  0.51100000000E-03 0. -1.
</event>
<event>
 7    1  0.1233916E+005  0.1043930E+01  0.7957747E-01            NaN
         13   -1    0    0    0    0  0.00000000000E+00  0.00000000000E+00  0.74505805969E-08  0.10566000000E+00  0.10566000000E+00 0.  1.
     999900   -1    0    0    0    0 -0.00000000000E+00 -0.00000000000E+00 -0.74505805969E-08  0.93827000000E+00  0.93827000000E+00 0. -1.
     999903    2    1    2    0    0 -0.37695012131E-01 -0.40172466178E-02  0.10128228994E+00  0.10993531605E+00  0.19764089903E-01 0.  0.
         14    1    1    2    0    0 -0.32124448962E-01  0.25716436552E-01 -0.23879464343E-01  0.47576718544E-01  0.00000000000E+00 0. -1.
     999901    1    1    2    0    0  0.69819461093E-01 -0.21699189934E-01 -0.77402825593E-01  0.88641796541E+00  0.88000000000E+00 0. -1.
        -11    1    3    3    0    0 -0.27736087707E-01 -0.99925286333E-02  0.57284361643E-01  0.64427481711E-01  0.51100000000E-03 0.  1.
         11    1    3    3    0    0 -0.99589244237E-02  0.59752820154E-02  0.43997928293E-01  0.45507834336E-01  0.51100000000E-03 0. -1.
</event>
<event>
 8    1  0.1233916E+005  0.1043930E+01  0.7957747E-01            NaN
         13   -1    0    0    0    0  0.00000000000E+00  0.00000000000E+00  0.74505805969E-08  0.10566000000E+00  0.10566000000E+00 0.  1.
     999900   -1    0    0    0    0 -0.00000000000E+00 -0.00000000000E+00 -0.74505805969E-08  0.93827000000E+00  0.93827000000E+00 0.  1.
     999902    2    1    2    0    0  0.22302712495E-02 -0.17771007574E-01 -0.15052858340E-01  0.10205340310E+01  0.10202658169E+01 0.  0.
     999903    2    3    3    0    0  0.40364163765E-02  0.12095953344E+00  0.37165394696E-01  0.12813492125E+00  0.19743102455E-01 0.  0.
         14    1    1    2    0    0 -0.22302712495E-02  0.17771007574E-01  0.15052858340E-01  0.23395968974E-01  0.00000000000E+00 0. -1.
     999901    1    3    3    0    0 -0.18061451270E-02 -0.13873054101E+00 -0.52218253036E-01  0.89239910977E+00  0.88000000000E+00 0. -1.
        -11    1    4    4    0    0  0.32232503912E-02  0.10356947836E-01 -0.15055871924E-02  0.10962829259E-01  0.51100000000E-03 0. -1.
         11    1    4    4    0    0  0.81316598524E-03  0.11060258561E+00  0.38670981888E-01  0.11717209200E+00  0.51100000000E-03 0.  1.
</event>
<event>
 8    1  0.1233916E+005  0.1043930E+01  0.7957747E-01            NaN
         13   -1    0    0    0    0  0.00000000000E+00  0.00000000000E+00  0.74505805969E-08  0.10566000000E+00  0.10566000000E+00 0.  1.
     999900   -1    0    0    0    0 -0.00000000000E+00 -0.00000000000E+00 -0.74505805969E-08  0.93827000000E+00  0.93827000000E+00 0. -1.
     999902    2    1    2    0    0 -0.77578318478E-03  0.60777361059E-02 -0.23126366502E-01  0.10200057541E+01  0.10197251437E+01 0.  0.
     999903    2    3    3    0    0  0.86761560609E-01 -0.48042806038E-01  0.78376579051E-01  0.12821280299E+00  0.21446563724E-01 0.  0.
         14    1    1    2    0    0  0.77578318478E-03 -0.60777361059E-02  0.23126366502E-01  0.23924245930E-01  0.00000000000E+00 0.  1.
     999901    1    3    3    0    0 -0.87537343794E-01  0.54120542144E-01 -0.10150294555E+00  0.89179295108E+00  0.88000000000E+00 0. -1.
        -11    1    4    4    0    0  0.51084926365E-01 -0.18533594416E-01  0.50377473976E-01  0.74103406324E-01  0.51100000000E-03 0. -1.
         11    1    4    4    0    0  0.35676634244E-01 -0.29509211622E-01  0.27999105075E-01  0.54109396666E-01  0.51100000000E-03 0.  1.
</event>
<event>
 8    1  0.1233916E+005  0.1043930E+01  0.7957747E-01            NaN
         13   -1    0    0    0    0  0.00000000000E+00  0.00000000000E+00  0.74505805969E-08  0.10566000000E+00  0.10566000000E+00 0.  1.
     999900   -1    0    0    0    0 -0.00000000000E+00 -0.00000000000E+00 -0.74505805969E-08  0.93827000000E+00  0.93827000000E+00 0. -1.
     999902    2    1    2    0    0  0.30264358462E-02 -0.14742948778E-01  0.18151793254E-01  0.10203503170E+01  0.10200778244E+01 0.  0.
     999903    2    3    3    0    0 -0.32043817996E-01 -0.52604790995E-01  0.11661730630E+00  0.13335601088E+00  0.19752448047E-01 0.  0.
         14    1    1    2    0    0 -0.30264358462E-02  0.14742948778E-01 -0.18151793254E-01  0.23579683012E-01  0.00000000000E+00 0. -1.
     999901    1    3    3    0    0  0.35070253842E-01  0.37861842216E-01 -0.98465513042E-01  0.88699430610E+00  0.88000000000E+00 0. -1.
        -11    1    4    4    0    0 -0.26496567156E-01 -0.28388082319E-01  0.59314389405E-01  0.70897173429E-01  0.51100000000E-03 0. -1.
         11    1    4    4    0    0 -0.55472508398E-02 -0.24216708676E-01  0.57302916892E-01  0.62458837455E-01  0.51100000000E-03 0.  1.
</event>
<event>
 7    1  0.1233916E+005  0.1043930E+01  0.7957747E-01            NaN
         13   -1    0    0    0    0  0.00000000000E+00  0.00000000000E+00  0.74505805969E-08  0.10566000000E+00  0.10566000000E+00 0.  1.
     999900   -1    0    0    0    0 -0.00000000000E+00 -0.00000000000E+00 -0.74505805969E-08  0.93827000000E+00  0.93827000000E+00 0.  1.
     999903    2    1    2    0    0  0.61941838140E-01  0.92150199458E-01  0.39798231854E-01  0.11966292051E+00  0.20170887793E-01 0.  0.
         14    1    1    2    0    0 -0.28551656771E-01 -0.10992537662E-01 -0.25433162961E-01  0.39785408969E-01  0.00000000000E+00 0. -1.
     999901    1    1    2    0    0 -0.33390181370E-01 -0.81157661796E-01 -0.14365068893E-01  0.88448167052E+00  0.88000000000E+00 0. -1.
        -11    1    3    3    0    0  0.15984174061E-01  0.35785862322E-01  0.67295316818E-02  0.39770208451E-01  0.51100000000E-03 0.  1.
         11    1    3    3    0    0  0.45957664080E-01  0.56364337136E-01  0.33068700172E-01  0.79892712061E-01  0.51100000000E-03 0. -1.
</event>
<event>
 8    1  0.1233916E+005  0.1043930E+01  0.7957747E-01            NaN
         13   -1    0    0    0    0  0.00000000000E+00  0.00000000000E+00  0.74505805969E-08  0.10566000000E+00  0.10566000000E+00 0.  1.
     999900   -1    0    0    0    0 -0.00000000000E+00 -0.00000000000E+00 -0.74505805969E-08  0.93827000000E+00  0.93827000000E+00 0. -1.
     999902    2    1    2    0    0  0.16064258064E-01 -0.59890896995E-02  0.16139148992E-01  0.10203842634E+01  0.10201125640E+01 0.  0.
     999903    2    3    3    0    0 -0.57684310392E-01  0.45163556305E-01  0.10684782365E+00  0.13118040138E+00  0.20606159382E-01 0.  0.
         14    1    1    2    0    0 -0.16064258064E-01  0.59890896995E-02 -0.16139148992E-01  0.23545736616E-01  0.00000000000E+00 0.  1.
     999901    1    3    3    0    0  0.73748568457E-01 -0.51152646004E-01 -0.90708674657E-01  0.88920386200E+00  0.88000000000E+00 0. -1.
        -11    1    4    4    0    0 -0.35543087154E-01  0.34234868420E-01  0.55939110933E-01  0.74597469884E-01  0.51100000000E-03 0.  1.
         11    1    4    4    0    0 -0.22141223239E-01  0.10928687885E-01  0.50908712716E-01  0.56582931497E-01  0.51100000000E-03 0. -1.
</event>
<event>
 8    1  0.1233916E+005  0.1043930E+01  0.7957747E-01            NaN
         13   -1    0    0    0    0  0.00000000000E+00  0.00000000000E+00  0.74505805969E-08  0.10566000000E+00  0.10566000000E+00 0.  1.
     999900   -1    0    0    0    0 -0.00000000000E+00 -0.00000000000E+00 -0.74505805969E-08  0.93827000000E+00  0.93827000000E+00 0.  1.
     999902    2    1    2    0    0 -0.15553076628E-01 -0.61550322125E-02  0.16739045276E-01  0.10202661404E+01  0.10199916760E+01 0.  0.
     999903    2    3    3    0    0  0.97067796332E-01  0.80827881886E-02  0.84370181896E-01  0.13040089937E+00  0.19964428735E-01 0.  0.
         14    1    1    2    0    0  0.15553076628E-01  0.61550322125E-02 -0.16739045276E-01  0.23663859594E-01  0.00000000000E+00 0. -1.
     999901    1    3    3    0    0 -0.11262087296E+00 -0.14237820401E-01 -0.67631136620E-01  0.88986524103E+00  0.88000000000E+00 0.  1.
        -11    1    4    4    0    0  0.50387629322E-01  0.96694547679E-02  0.55035611451E-01  0.75243545856E-01  0.51100000000E-03 0. -1.
         11    1    4    4    0    0  0.46680167010E-01 -0.15866665792E-02  0.29334570445E-01  0.55157353518E-01  0.51100000000E-03 0.  1.
</event>
<event>
 8    1  0.1233916E+005  0.1043930E+01  0.7957747E-01            NaN
         13   -1    0    0    0    0  0.00000000000E+00  0.00000000000E+00  0.74505805969E-08  0.10566000000E+00  0.10566000000E+00 0.  1.
     999900   -1    0    0    0    0 -0.00000000000E+00 -0.00000000000E+00 -0.74505805969E-08  0.93827000000E+00  0.93827000000E+00 0. -1.
     999902    2    1    2    0    0 -0.26558051232E-01 -0.37718489532E-03 -0.98319438350E-02  0.10156079331E+01  0.10152129502E+01 0.  0.
     999903    2    3    3    0    0  0.87290584239E-01 -0.86646803132E-01 -0.51646957092E-02  0.12407793247E+00  0.15535271287E-01 0.  0.
         14    1    1    2    0    0  0.26558051232E-01  0.37718489532E-03  0.98319438350E-02  0.28322066896E-01  0.00000000000E+00 0.  1.
     999901    1    3    3    0    0 -0.11384863547E+00  0.86269618236E-01 -0.46672481258E-02  0.89153000064E+00  0.88000000000E+00 0.  1.
        -11    1    4    4    0    0  0.52611328479E-01 -0.49932764501E-01 -0.10495812881E-01  0.73291582491E-01  0.51100000000E-03 0. -1.
         11    1    4    4    0    0  0.34679255760E-01 -0.36714038631E-01  0.53311171716E-02  0.50786349977E-01  0.51100000000E-03 0.  1.
</event>
<event>
 8    1  0.1233916E+005  0.1043930E+01  0.7957747E-01            NaN
         13   -1    0    0    0    0  0.00000000000E+00  0.00000000000E+00  0.74505805969E-08  0.10566000000E+00  0.10566000000E+00 0. -1.
     999900   -1    0    0    0    0 -0.00000000000E+00 -0.00000000000E+00 -0.74505805969E-08  0.93827000000E+00  0.93827000000E+00 0.  1.
     999902    2    1    2    0    0  0.22273293104E-01 -0.88065191528E-02 -0.39163886355E-02  0.10196608330E+01  0.10193719743E+01 0.  0.
     999903    2    3    3    0    0  0.11112413289E+00  0.63753931551E-01 -0.24897849010E-01  0.13196735417E+00  0.19553592608E-01 0.  0.
         14    1    1    2    0    0 -0.22273293104E-01  0.88065191528E-02  0.39163886355E-02  0.24269166966E-01  0.00000000000E+00 0. -1.
     999901    1    3    3    0    0 -0.88850839782E-01 -0.72560450703E-01  0.20981460375E-01  0.88769347886E+00  0.88000000000E+00 0.  1.
        -11    1    4    4    0    0  0.70808932502E-01  0.46602404311E-01 -0.24162034978E-01  0.88146208455E-01  0.51100000000E-03 0. -1.
         11    1    4    4    0    0  0.40315200384E-01  0.17151527239E-01 -0.73581403221E-03  0.43821145717E-01  0.51100000000E-03 0.  1.
</event>
<event>
 8    1  0.1233916E+005  0.1043930E+01  0.7957747E-01            NaN
         13   -1    0    0    0    0  0.00000000000E+00  0.00000000000E+00  0.74505805969E-08  0.10566000000E+00  0.10566000000E+00 0. -1.
     999900   -1    0    0    0    0 -0.00000000000E+00 -0.00000000000E+00 -0.74505805969E-08  0.93827000000E+00  0.93827000000E+00 0. -1.
     999902    2    1    2    0    0 -0.20399266509E-01  0.31748399314E-02 -0.12549442878E-01  0.10197701532E+01  0.10194839219E+01 0.  0.
     999903    2    3    3    0    0 -0.32048410963E-01 -0.10032486681E+00  0.73003858597E-01  0.12950768666E+00  0.18721591548E-01 0.  0.
         14    1    1    2    0    0  0.20399266509E-01 -0.31748399314E-02  0.12549442878E-01  0.24159846838E-01  0.00000000000E+00 0.  1.
     999901    1    3    3    0    0  0.11649144454E-01  0.10349970674E+00 -0.85553301476E-01  0.89026246650E+00  0.88000000000E+00 0. -1.
        -11    1    4    4    0    0 -0.19165242580E-01 -0.56866827366E-01  0.30286217513E-01  0.67220968976E-01  0.51100000000E-03 0. -1.
         11    1    4    4    0    0 -0.12883168384E-01 -0.43458039440E-01  0.42717641084E-01  0.62286717688E-01  0.51100000000E-03 0.  1.
</event>
<event>
 8    1  0.1233916E+005  0.1043930E+01  0.7957747E-01            NaN
         13   -1    0    0    0    0  0.00000000000E+00  0.00000000000E+00  0.74505805969E-08  0.10566000000E+00  0.10566000000E+00 0. -1.
     999900   -1    0    0    0    0 -0.00000000000E+00 -0.00000000000E+00 -0.74505805969E-08  0.93827000000E+00  0.93827000000E+00 0.  1.
     999902    2    1    2    0    0 -0.17034465794E-01 -0.17753957675E-01  0.34290477549E-02  0.10190878099E+01  0.10187849773E+01 0.  0.
     999903    2    3    3    0    0  0.61882583611E-03  0.11555374584E+00  0.50398842296E-01  0.12763464566E+00  0.19937611299E-01 0.  0.
         14    1    1    2    0    0  0.17034465794E-01  0.17753957675E-01 -0.34290477549E-02  0.24842190051E-01  0.00000000000E+00 0. -1.
     999901    1    3    3    0    0 -0.17653291631E-01 -0.13330770352E+00 -0.46969794541E-01  0.89145316429E+00  0.88000000000E+00 0.  1.
        -11    1    4    4    0    0 -0.72661368071E-02  0.78066724398E-01  0.27993740892E-01  0.83253353401E-01  0.51100000000E-03 0. -1.
         11    1    4    4    0    0  0.78849626432E-02  0.37487021444E-01  0.22405101404E-01  0.44381292259E-01  0.51100000000E-03 0.  1.
</event>
<event>
 8    1  0.1233916E+005  0.1043930E+01  0.7957747E-01            NaN
         13   -1    0    0    0    0  0.00000000000E+00  0.00000000000E+00  0.74505805969E-08  0.10566000000E+00  0.10566000000E+00 0.  1.
     999900   -1    0    0    0    0 -0.00000000000E+00 -0.00000000000E+00 -0.74505805969E-08  0.93827000000E+00  0.93827000000E+00 0.  1.
     999902    2    1    2    0    0 -0.22069185702E-01  0.78538211722E-02  0.24340218162E-02  0.10203788657E+01  0.10201070403E+01 0.  0.
     999903    2    3    3    0    0  0.62332320064E-01 -0.10194008453E+00 -0.42298319687E-01  0.12842634551E+00  0.20665899748E-01 0.  0.
         14    1    1    2    0    0  0.22069185702E-01 -0.78538211722E-02 -0.24340218162E-02  0.23551134299E-01  0.00000000000E+00 0.  1.
     999901    1    3    3    0    0 -0.84401505766E-01  0.10979390571E+00  0.44732341503E-01  0.89195252019E+00  0.88000000000E+00 0.  1.
        -11    1    4    4    0    0  0.26539190945E-01 -0.56676187092E-01 -0.13899979825E-01  0.64109199024E-01  0.51100000000E-03 0. -1.
         11    1    4    4    0    0  0.35793129119E-01 -0.45263897441E-01 -0.28398339862E-01  0.64317146482E-01  0.51100000000E-03 0.  1.
</event>
<event>
 8    1  0.1233916E+005  0.1043930E+01  0.7957747E-01            NaN
         13   -1    0    0    0    0  0.00000000000E+00  0.00000000000E+00  0.74505805969E-08  0.10566000000E+00  0.10566000000E+00 0.  1.
     999900   -1    0    0    0    0 -0.00000000000E+00 -0.00000000000E+00 -0.74505805969E-08  0.93827000000E+00  0.93827000000E+00 0. -1.
     999902    2    1    2    0    0  0.10915086868E-02  0.24023019247E-01 -0.59273449416E-02  0.10191624756E+01  0.10188614830E+01 0.  0.
     999903    2    3    3    0    0 -0.71298159696E-01 -0.87356716756E-01 -0.56524312787E-01  0.12775585527E+00  0.20296233181E-01 0.  0.
         14    1    1    2    0    0 -0.10915086868E-02 -0.24023019247E-01  0.59273449416E-02  0.24767524362E-01  0.00000000000E+00 0.  1.
     999901    1    3    3    0    0  0.72389668382E-01  0.11137973600E+00  0.50596967846E-01  0.89140662037E+00  0.88000000000E+00 0.  1.
        -11    1    4    4    0    0 -0.43869040153E-01 -0.67837870725E-01 -0.42470600056E-01  0.91271476259E-01  0.51100000000E-03 0.  1.
         11    1    4    4    0    0 -0.27429119543E-01 -0.19518846032E-01 -0.14053712731E-01  0.36484379011E-01  0.51100000000E-03 0. -1.
</event>
<event>
 8    1  0.1233916E+005  0.1043930E+01  0.7957747E-01            NaN
         13   -1    0    0    0    0  0.00000000000E+00  0.00000000000E+00  0.74505805969E-08  0.10566000000E+00  0.10566000000E+00 0. -1.
     999900   -1    0    0    0    0 -0.00000000000E+00 -0.00000000000E+00 -0.74505805969E-08  0.93827000000E+00  0.93827000000E+00 0. -1.
     999902    2    1    2    0    0 -0.59573936497E-02  0.19280192191E-01 -0.12399812326E-01  0.10202451589E+01  0.10199702018E+01 0.  0.
     999903    2    3    3    0    0 -0.42652470474E-01 -0.50781173337E-01  0.10814323491E+00  0.12851327669E+00  0.20560696140E-01 0.  0.
         14    1    1    2    0    0  0.59573936497E-02 -0.19280192191E-01  0.12399812326E-01  0.23684841054E-01  0.00000000000E+00 0. -1.
     999901    1    3    3    0    0  0.36695076824E-01  0.70061365527E-01 -0.12054304723E+00  0.89173188226E+00  0.88000000000E+00 0. -1.
        -11    1    4    4    0    0 -0.22928078908E-01 -0.41932057485E-01  0.73301413763E-01  0.87506300504E-01  0.51100000000E-03 0. -1.
         11    1    4    4    0    0 -0.19724391566E-01 -0.88491158511E-02  0.34841821144E-01  0.41006976182E-01  0.51100000000E-03 0.  1.
</event>
<event>
 8    1  0.1233916E+005  0.1043930E+01  0.7957747E-01            NaN
         13   -1    0    0    0    0  0.00000000000E+00  0.00000000000E+00  0.74505805969E-08  0.10566000000E+00  0.10566000000E+00 0.  1.
     999900   -1    0    0    0    0 -0.00000000000E+00 -0.00000000000E+00 -0.74505805969E-08  0.93827000000E+00  0.93827000000E+00 0. -1.
     999902    2    1    2    0    0  0.22406732224E-01  0.26556974982E-02  0.87215687032E-02  0.10197395031E+01  0.10194525365E+01 0.  0.
     999903    2    3    3    0    0  0.26527374239E-01  0.14575291913E-01  0.12691468730E+00  0.13174813510E+00  0.18278198258E-01 0.  0.
         14    1    1    2    0    0 -0.22406732224E-01 -0.26556974982E-02 -0.87215687032E-02  0.24190496870E-01  0.00000000000E+00 0. -1.
     999901    1    3    3    0    0 -0.41206420147E-02 -0.11919594415E-01 -0.11819311859E+00  0.88799136803E+00  0.88000000000E+00 0. -1.
        -11    1    4    4    0    0 -0.12315481832E-02  0.51700826365E-02  0.30917736091E-01  0.31375372370E-01  0.51100000000E-03 0. -1.
         11    1    4    4    0    0  0.27758922422E-01  0.94052092764E-02  0.95996951205E-01  0.10037276273E+00  0.51100000000E-03 0.  1.
</event>
<event>
 8    1  0.1233916E+005  0.1043930E+01  0.7957747E-01            NaN
         13   -1    0    0    0    0  0.00000000000E+00  0.00000000000E+00  0.74505805969E-08  0.10566000000E+00  0.10566000000E+00 0.  1.
     999900   -1    0    0    0    0 -0.00000000000E+00 -0.00000000000E+00 -0.74505805969E-08  0.93827000000E+00  0.93827000000E+00 0. -1.
     999902    2    1    2    0    0 -0.44182256359E-02  0.14051133315E-01  0.18611607100E-01  0.10201950683E+01  0.10199189332E+01 0.  0.
     999903    2    3    3    0    0 -0.21574761110E-01 -0.16376421038E-01 -0.12341489035E+00  0.12812348552E+00  0.21230518123E-01 0.  0.
         14    1    1    2    0    0  0.44182256359E-02 -0.14051133315E-01 -0.18611607100E-01  0.23734931726E-01  0.00000000000E+00 0. -1.
     999901    1    3    3    0    0  0.17156535474E-01  0.30427554353E-01  0.14202649745E+00  0.89207158275E+00  0.88000000000E+00 0.  1.
        -11    1    4    4    0    0 -0.86288458343E-02 -0.16984877574E-01 -0.94937630766E-01  0.96831595583E-01  0.51100000000E-03 0. -1.
         11    1    4    4    0    0 -0.12945915276E-01  0.60845653610E-03 -0.28477259583E-01  0.31291889940E-01  0.51100000000E-03 0.  1.
</event>
<event>
 8    1  0.1233916E+005  0.1043930E+01  0.7957747E-01            NaN
         13   -1    0    0    0    0  0.00000000000E+00  0.00000000000E+00  0.74505805969E-08  0.10566000000E+00  0.10566000000E+00 0.  1.
     999900   -1    0    0    0    0 -0.00000000000E+00 -0.00000000000E+00 -0.74505805969E-08  0.93827000000E+00  0.93827000000E+00 0.  1.
     999902    2    1    2    0    0 -0.61277685622E-02 -0.54097329991E-02 -0.22059150208E-01  0.10204051011E+01  0.10201338881E+01 0.  0.
     999903    2    3    3    0    0 -0.12166160342E-01 -0.11575406028E+00  0.55016431787E-01  0.13015065544E+00  0.19114586465E-01 0.  0.
         14    1    1    2    0    0  0.61277685622E-02  0.54097329991E-02  0.22059150208E-01  0.23524898864E-01  0.00000000000E+00 0.  1.
     999901    1    3    3    0    0  0.60383917794E-02  0.11034432728E+00 -0.77075581995E-01  0.89025444569E+00  0.88000000000E+00 0.  1.
        -11    1    4    4    0    0  0.47469132772E-02 -0.41003100776E-01  0.17898443741E-01  0.44993364714E-01  0.51100000000E-03 0. -1.
         11    1    4    4    0    0 -0.16913073619E-01 -0.74750959507E-01  0.37117988046E-01  0.85157290727E-01  0.51100000000E-03 0.  1.
</event>
<event>
 8    1  0.1233916E+005  0.1043930E+01  0.7957747E-01            NaN
         13   -1    0    0    0    0  0.00000000000E+00  0.00000000000E+00  0.74505805969E-08  0.10566000000E+00  0.10566000000E+00 0.  1.
     999900   -1    0    0    0    0 -0.00000000000E+00 -0.00000000000E+00 -0.74505805969E-08  0.93827000000E+00  0.93827000000E+00 0. -1.
     999902    2    1    2    0    0  0.18230300388E-01 -0.11557800519E-01 -0.46463233777E-02  0.10218502598E+01  0.10216116868E+01 0.  0.
     999903    2    3    3    0    0 -0.82023978667E-01  0.24197894796E-02  0.98768925774E-01  0.13003132796E+00  0.20470884058E-01 0.  0.
         14    1    1    2    0    0 -0.18230300388E-01  0.11557800519E-01  0.46463233777E-02  0.22079740170E-01  0.00000000000E+00 0. -1.
     999901    1    3    3    0    0  0.10025427905E+00 -0.13977589998E-01 -0.10341524915E+00  0.89181893187E+00  0.88000000000E+00 0. -1.
        -11    1    4    4    0    0 -0.13927888940E-01 -0.67679006303E-02  0.23137046938E-01  0.27845549578E-01  0.51100000000E-03 0.  1.
         11    1    4    4    0    0 -0.68096089727E-01  0.91876901099E-02  0.75631878836E-01  0.10218577838E+00  0.51100000000E-03 0. -1.
</event>
<event>
 8    1  0.1233916E+005  0.1043930E+01  0.7957747E-01            NaN
         13   -1    0    0    0    0  0.00000000000E+00  0.00000000000E+00  0.74505805969E-08  0.10566000000E+00  0.10566000000E+00 0.  1.
     999900   -1    0    0    0    0 -0.00000000000E+00 -0.00000000000E+00 -0.74505805969E-08  0.93827000000E+00  0.93827000000E+00 0. -1.
     999902    2    1    2    0    0 -0.10862862929E-01 -0.39531350436E-02  0.21052173244E-01  0.10199128589E+01  0.10196300391E+01 0.  0.
     999903    2    3    3    0    0  0.74700699671E-01 -0.34921783306E-01  0.10067858538E+00  0.13164457403E+00  0.19859275834E-01 0.  0.
         14    1    1    2    0    0  0.10862862929E-01  0.39531350436E-02 -0.21052173244E-01  0.24017141087E-01  0.00000000000E+00 0. -1.
     999901    1    3    3    0    0 -0.85563562600E-01  0.30968648263E-01 -0.79626412137E-01  0.88826828488E+00  0.88000000000E+00 0. -1.
        -11    1    4    4    0    0  0.17219578379E-01 -0.17772441223E-01  0.32041366626E-01  0.40488070377E-01  0.51100000000E-03 0.  1.
         11    1    4    4    0    0  0.57481121292E-01 -0.17149342083E-01  0.68637218754E-01  0.91156503653E-01  0.51100000000E-03 0. -1.
</event>
<event>
 8    1  0.1233916E+005  0.1043930E+01  0.7957747E-01            NaN
         13   -1    0    0    0    0  0.00000000000E+00  0.00000000000E+00  0.74505805969E-08  0.10566000000E+00  0.10566000000E+00 0. -1.
     999900   -1    0    0    0    0 -0.00000000000E+00 -0.00000000000E+00 -0.74505805969E-08  0.93827000000E+00  0.93827000000E+00 0.  1.
     999902    2    1    2    0    0  0.18420882543E-01 -0.62976948623E-02  0.12791864573E-01  0.10206357588E+01  0.10203698988E+01 0.  0.
     999903    2    3    3    0    0  0.39943408470E-01 -0.11722840988E+00  0.44007431673E-01  0.13286143258E+00  0.19430137937E-01 0.  0.
         14    1    1    2    0    0 -0.18420882543E-01  0.62976948623E-02 -0.12791864573E-01  0.23294241209E-01  0.00000000000E+00 0.  1.
     999901    1    3    3    0    0 -0.21522525927E-01  0.11093071502E+00 -0.31215567099E-01  0.88777432621E+00  0.88000000000E+00 0.  1.
        -11    1    4    4    0    0  0.10567456232E-01 -0.28288642681E-01  0.19810051360E-01  0.36119491854E-01  0.51100000000E-03 0.  1.
         11    1    4    4    0    0  0.29375952238E-01 -0.88939767201E-01  0.24197380312E-01  0.96741940722E-01  0.51100000000E-03 0. -1.
</event>
<event>
 8    1  0.1233916E+005  0.1043930E+01  0.7957747E-01            NaN
         13   -1    0    0    0    0  0.00000000000E+00  0.00000000000E+00  0.74505805969E-08  0.10566000000E+00  0.10566000000E+00 0. -1.
     999900   -1    0    0    0    0 -0.00000000000E+00 -0.00000000000E+00 -0.74505805969E-08  0.93827000000E+00  0.93827000000E+00 0. -1.
     999902    2    1    2    0    0  0.17465224232E-02 -0.90701491534E-02  0.21662126224E-01  0.10203807822E+01  0.10201090015E+01 0.  0.
     999903    2    3    3    0    0  0.91940432417E-01 -0.79523750845E-01  0.49056956546E-01  0.13254682919E+00  0.19621592242E-01 0.  0.
         14    1    1    2    0    0 -0.17465224232E-02  0.90701491534E-02 -0.21662126224E-01  0.23549217796E-01  0.00000000000E+00 0.  1.
     999901    1    3    3    0    0 -0.90193909994E-01  0.70453601691E-01 -0.27394830322E-01  0.88783395301E+00  0.88000000000E+00 0.  1.
        -11    1    4    4    0    0  0.46770648400E-01 -0.27620785621E-01  0.20952723582E-01  0.58220950667E-01  0.51100000000E-03 0.  1.
         11    1    4    4    0    0  0.45169784017E-01 -0.51902965224E-01  0.28104232965E-01  0.74325878526E-01  0.51100000000E-03 0. -1.
</event>
<event>
 8    1  0.1233916E+005  0.1043930E+01  0.7957747E-01            NaN
         13   -1    0    0    0    0  0.00000000000E+00  0.00000000000E+00  0.74505805969E-08  0.10566000000E+00  0.10566000000E+00 0. -1.
     999900   -1    0    0    0    0 -0.00000000000E+00 -0.00000000000E+00 -0.74505805969E-08  0.93827000000E+00  0.93827000000E+00 0.  1.
     999902    2    1    2    0    0 -0.17563637635E-01  0.12495732098E-01 -0.10558932892E-01  0.10199275886E+01  0.10196451198E+01 0.  0.
     999903    2    3    3    0    0  0.56928031273E-01 -0.51222250992E-01 -0.10271767948E+00  0.12970164839E+00  0.20176128864E-01 0.  0.
         14    1    1    2    0    0  0.17563637635E-01 -0.12495732098E-01  0.10558932892E-01  0.24002411367E-01  0.00000000000E+00 0. -1.
     999901    1    3    3    0    0 -0.74491668907E-01  0.63717983089E-01  0.92158746591E-01  0.89022594024E+00  0.88000000000E+00 0.  1.
        -11    1    4    4    0    0  0.49821681390E-01 -0.47414061418E-01 -0.79522142655E-01  0.10513955226E+00  0.51100000000E-03 0. -1.
         11    1    4    4    0    0  0.71063498825E-02 -0.38081895733E-02 -0.23195536828E-01  0.24562096128E-01  0.51100000000E-03 0.  1.
</event>
<event>
 8    1  0.1233916E+005  0.1043930E+01  0.7957747E-01            NaN
         13   -1    0    0    0    0  0.00000000000E+00  0.00000000000E+00  0.74505805969E-08  0.10566000000E+00  0.10566000000E+00 0.  1.
     999900   -1    0    0    0    0 -0.00000000000E+00 -0.00000000000E+00 -0.74505805969E-08  0.93827000000E+00  0.93827000000E+00 0. -1.
     999902    2    1    2    0    0  0.17912071858E-01  0.10473637353E-01  0.10293248564E-01  0.10207677384E+01  0.10205049169E+01 0.  0.
     999903    2    3    3    0    0 -0.11182286179E+00 -0.22204185576E-01 -0.55255405292E-01  0.12824568310E+00  0.19910227134E-01 0.  0.
         14    1    1    2    0    0 -0.17912071858E-01 -0.10473637353E-01 -0.10293248564E-01  0.23162261626E-01  0.00000000000E+00 0.  1.
     999901    1    3    3    0    0  0.12973493365E+00  0.32677822929E-01  0.65548653856E-01  0.89252205527E+00  0.88000000000E+00 0. -1.
        -11    1    4    4    0    0 -0.37182796777E-01  0.20619004077E-02 -0.17543022694E-01  0.41168320050E-01  0.51100000000E-03 0. -1.
         11    1    4    4    0    0 -0.74640065014E-01 -0.24266085984E-01 -0.37712382598E-01  0.87077363055E-01  0.51100000000E-03 0.  1.
</event>
<event>
 8    1  0.1233916E+005  0.1043930E+01  0.7957747E-01            NaN
         13   -1    0    0    0    0  0.00000000000E+00  0.00000000000E+00  0.74505805969E-08  0.10566000000E+00  0.10566000000E+00 0. -1.
     999900   -1    0    0    0    0 -0.00000000000E+00 -0.00000000000E+00 -0.74505805969E-08  0.93827000000E+00  0.93827000000E+00 0. -1.
     999902    2    1    2    0    0 -0.20316783717E-01  0.10136004164E-01 -0.39912019236E-02  0.10208770181E+01  0.10206166989E+01 0.  0.
     999903    2    3    3    0    0  0.45281478981E-01 -0.88904560613E-01  0.79294493863E-01  0.12899772546E+00  0.19959037571E-01 0.  0.
         14    1    1    2    0    0  0.20316783717E-01 -0.10136004164E-01  0.39912019236E-02  0.23052981886E-01  0.00000000000E+00 0.  1.
     999901    1    3    3    0    0 -0.65598262698E-01  0.99040564777E-01 -0.83285695786E-01  0.89187929265E+00  0.88000000000E+00 0. -1.
        -11    1    4    4    0    0  0.72902671535E-02 -0.30418608796E-01  0.17672700302E-01  0.35930839306E-01  0.51100000000E-03 0.  1.
         11    1    4    4    0    0  0.37991211827E-01 -0.58485951817E-01  0.61621793561E-01  0.93066886156E-01  0.51100000000E-03 0. -1.
</event>
<event>
 8    1  0.1233916E+005  0.1043930E+01  0.7957747E-01            NaN
         13   -1    0    0    0    0  0.00000000000E+00  0.00000000000E+00  0.74505805969E-08  0.10566000000E+00  0.10566000000E+00 0. -1.
     999900   -1    0    0    0    0 -0.00000000000E+00 -0.00000000000E+00 -0.74505805969E-08  0.93827000000E+00  0.93827000000E+00 0.  1.
     999902    2    1    2    0    0  0.21010129267E-01 -0.79383329633E-02 -0.69822441700E-02  0.10204099151E+01  0.10201388143E+01 0.  0.
     999903    2    3    3    0    0  0.74798623909E-01 -0.56395561556E-01 -0.92695109546E-01  0.13328647356E+00  0.19940090249E-01 0.  0.
         14    1    1    2    0    0 -0.21010129267E-01  0.79383329633E-02  0.69822441700E-02  0.23520084943E-01  0.00000000000E+00 0.  1.
     999901    1    3    3    0    0 -0.53788494642E-01  0.48457228593E-01  0.85712865376E-01  0.88712344149E+00  0.88000000000E+00 0. -1.
        -11    1    4    4    0    0  0.33736508787E-01 -0.31845607224E-01 -0.33773564502E-01  0.57386492355E-01  0.51100000000E-03 0.  1.
         11    1    4    4    0    0  0.41062115122E-01 -0.24549954332E-01 -0.58921545044E-01  0.75899981208E-01  0.51100000000E-03 0. -1.
</event>
<event>
 8    1  0.1233916E+005  0.1043930E+01  0.7957747E-01            NaN
         13   -1    0    0    0    0  0.00000000000E+00  0.00000000000E+00  0.74505805969E-08  0.10566000000E+00  0.10566000000E+00 0. -1.
     999900   -1    0    0    0    0 -0.00000000000E+00 -0.00000000000E+00 -0.74505805969E-08  0.93827000000E+00  0.93827000000E+00 0. -1.
     999902    2    1    2    0    0  0.18000725958E-01 -0.66655128665E-02  0.21354875157E-01  0.10152161377E+01  0.10148099922E+01 0.  0.
     999903    2    3    3    0    0 -0.81657362585E-01 -0.72596325004E-02  0.93680353982E-01  0.12664252650E+00  0.23274313459E-01 0.  0.
         14    1    1    2    0    0 -0.18000725958E-01  0.66655128665E-02 -0.21354875157E-01  0.28713862328E-01  0.00000000000E+00 0.  1.
     999901    1    3    3    0    0  0.99658088543E-01  0.59411963390E-03 -0.72325478824E-01  0.88857361118E+00  0.88000000000E+00 0. -1.
        -11    1    4    4    0    0 -0.33769179992E-01 -0.45580490812E-02  0.22602091698E-01  0.40893141221E-01  0.51100000000E-03 0. -1.
         11    1    4    4    0    0 -0.47888182593E-01 -0.27015834191E-02  0.71078262283E-01  0.85749385276E-01  0.51100000000E-03 0.  1.
</event>
<event>
 8    1  0.1233916E+005  0.1043930E+01  0.7957747E-01            NaN
         13   -1    0    0    0    0  0.00000000000E+00  0.00000000000E+00  0.74505805969E-08  0.10566000000E+00  0.10566000000E+00 0.  1.
     999900   -1    0    0    0    0 -0.00000000000E+00 -0.00000000000E+00 -0.74505805969E-08  0.93827000000E+00  0.93827000000E+00 0.  1.
     999902    2    1    2    0    0  0.19214997133E-01  0.10620689726E-01  0.81173204010E-02  0.10205226068E+01  0.10202541276E+01 0.  0.
     999903    2    3    3    0    0 -0.79977589753E-01 -0.96288719619E-01 -0.18937110146E-01  0.12810973527E+00  0.19635624270E-01 0.  0.
         14    1    1    2    0    0 -0.19214997133E-01 -0.10620689726E-01 -0.81173204010E-02  0.23407393182E-01  0.00000000000E+00 0.  1.
     999901    1    3    3    0    0  0.99192586887E-01  0.10690940935E+00  0.27054430547E-01  0.89241287155E+00  0.88000000000E+00 0.  1.
        -11    1    4    4    0    0 -0.39319932370E-01 -0.36199257738E-01 -0.13994962998E-02  0.53466466624E-01  0.51100000000E-03 0.  1.
         11    1    4    4    0    0 -0.40657657384E-01 -0.60089461881E-01 -0.17537613847E-01  0.74643268642E-01  0.51100000000E-03 0. -1.
</event>
<event>
 8    1  0.1233916E+005  0.1043930E+01  0.7957747E-01            NaN
         13   -1    0    0    0    0  0.00000000000E+00  0.00000000000E+00  0.74505805969E-08  0.10566000000E+00  0.10566000000E+00 0.  1.
     999900   -1    0    0    0    0 -0.00000000000E+00 -0.00000000000E+00 -0.74505805969E-08  0.93827000000E+00  0.93827000000E+00 0.  1.
     999902    2    1    2    0    0  0.22007905808E-01 -0.63815179739E-02 -0.34670636246E-02  0.10207547498E+01  0.10204916301E+01 0.  0.
     999903    2    3    3    0    0 -0.85034400758E-01 -0.39118308783E-01 -0.87511957752E-01  0.12969173462E+00  0.20012793028E-01 0.  0.
         14    1    1    2    0    0 -0.22007905808E-01  0.63815179739E-02  0.34670636246E-02  0.23175250158E-01  0.00000000000E+00 0.  1.
     999901    1    3    3    0    0  0.10704230657E+00  0.32736790809E-01  0.84044894127E-01  0.89106301522E+00  0.88000000000E+00 0. -1.
        -11    1    4    4    0    0 -0.29226042128E-01 -0.23666839255E-01 -0.38545862195E-01  0.53854669548E-01  0.51100000000E-03 0. -1.
         11    1    4    4    0    0 -0.55808358630E-01 -0.15451469528E-01 -0.48966095557E-01  0.75837065071E-01  0.51100000000E-03 0.  1.
</event>
<event>
 8    1  0.1233916E+005  0.1043930E+01  0.7957747E-01            NaN
         13   -1    0    0    0    0  0.00000000000E+00  0.00000000000E+00  0.74505805969E-08  0.10566000000E+00  0.10566000000E+00 0. -1.
     999900   -1    0    0    0    0 -0.00000000000E+00 -0.00000000000E+00 -0.74505805969E-08  0.93827000000E+00  0.93827000000E+00 0. -1.
     999902    2    1    2    0    0  0.10255067096E-01  0.22921405640E-02 -0.21203778354E-01  0.10202652472E+01  0.10199907618E+01 0.  0.
     999903    2    3    3    0    0  0.12994136032E+00 -0.10007530417E-01 -0.34005141820E-02  0.13189986801E+00  0.20027578425E-01 0.  0.
         14    1    1    2    0    0 -0.10255067096E-01 -0.22921405640E-02  0.21203778354E-01  0.23664752819E-01  0.00000000000E+00 0. -1.
     999901    1    3    3    0    0 -0.11968629323E+00  0.12299670981E-01 -0.17803264172E-01  0.88836537917E+00  0.88000000000E+00 0.  1.
        -11    1    4    4    0    0  0.89281703373E-01 -0.14444132809E-01 -0.76955907531E-02  0.90770803499E-01  0.51100000000E-03 0.  1.
         11    1    4    4    0    0  0.40659656948E-01  0.44366023920E-02  0.42950765711E-02  0.41129064512E-01  0.51100000000E-03 0. -1.
</event>
<event>
 8    1  0.1233916E+005  0.1043930E+01  0.7957747E-01            NaN
         13   -1    0    0    0    0  0.00000000000E+00  0.00000000000E+00  0.74505805969E-08  0.10566000000E+00  0.10566000000E+00 0.  1.
     999900   -1    0    0    0    0 -0.00000000000E+00 -0.00000000000E+00 -0.74505805969E-08  0.93827000000E+00  0.93827000000E+00 0.  1.
     999902    2    1    2    0    0  0.24680700205E-01 -0.72330995519E-03  0.11849382124E-02  0.10192102868E+01  0.10189104694E+01 0.  0.
     999903    2    3    3    0    0  0.71467472367E-01 -0.62807621567E-01  0.88467006269E-01  0.13148193695E+00  0.20216122607E-01 0.  0.
         14    1    1    2    0    0 -0.24680700205E-01  0.72330995519E-03 -0.11849382124E-02  0.24719713156E-01  0.00000000000E+00 0.  1.
     999901    1    3    3    0    0 -0.46786772161E-01  0.62084311612E-01 -0.87282068057E-01  0.88772834989E+00  0.88000000000E+00 0.  1.
        -11    1    4    4    0    0  0.27306940882E-01 -0.35326950600E-01  0.48172163118E-01  0.65684708110E-01  0.51100000000E-03 0.  1.
         11    1    4    4    0    0  0.44160531485E-01 -0.27480670967E-01  0.40294843150E-01  0.65797228842E-01  0.51100000000E-03 0. -1.
</event>
<event>
 8    1  0.1233916E+005  0.1043930E+01  0.7957747E-01            NaN
         13   -1    0    0    0    0  0.00000000000E+00  0.00000000000E+00  0.74505805969E-08  0.10566000000E+00  0.10566000000E+00 0.  1.
     999900   -1    0    0    0    0 -0.00000000000E+00 -0.00000000000E+00 -0.74505805969E-08  0.93827000000E+00  0.93827000000E+00 0.  1.
     999902    2    1    2    0    0 -0.17673827921E-01  0.11650414534E-01 -0.13232470230E-01  0.10189661337E+01  0.10186602903E+01 0.  0.
     999903    2    3    3    0    0 -0.98101883946E-01  0.83846123463E-01  0.17336231993E-01  0.13182728429E+00  0.20584846112E-01 0.  0.
         14    1    1    2    0    0  0.17673827921E-01 -0.11650414534E-01  0.13232470230E-01  0.24963866298E-01  0.00000000000E+00 0. -1.
     999901    1    3    3    0    0  0.80428056026E-01 -0.72195708929E-01 -0.30568702223E-01  0.88713884941E+00  0.88000000000E+00 0. -1.
        -11    1    4    4    0    0 -0.10546338084E-01  0.17619855082E-01 -0.80055037906E-03  0.20556909836E-01  0.51100000000E-03 0. -1.
         11    1    4    4    0    0 -0.87555545862E-01  0.66226268381E-01  0.18136782372E-01  0.11127037445E+00  0.51100000000E-03 0.  1.
</event>
<event>
 8    1  0.1233916E+005  0.1043930E+01  0.7957747E-01            NaN
         13   -1    0    0    0    0  0.00000000000E+00  0.00000000000E+00  0.74505805969E-08  0.10566000000E+00  0.10566000000E+00 0.  1.
     999900   -1    0    0    0    0 -0.00000000000E+00 -0.00000000000E+00 -0.74505805969E-08  0.93827000000E+00  0.93827000000E+00 0.  1.
     999902    2    1    2    0    0 -0.72778498219E-02 -0.39236719518E-02  0.22031119111E-01  0.10203984784E+01  0.10201271108E+01 0.  0.
     999903    2    3    3    0    0  0.14454511329E-01  0.50760925924E-01 -0.11478507445E+00  0.12788440479E+00  0.19829351317E-01 0.  0.
         14    1    1    2    0    0  0.72778498219E-02  0.39236719518E-02 -0.22031119111E-01  0.23531521602E-01  0.00000000000E+00 0. -1.
     999901    1    3    3    0    0 -0.21732361150E-01 -0.54684597875E-01  0.13681619356E+00  0.89251407361E+00  0.88000000000E+00 0. -1.
        -11    1    4    4    0    0  0.79096353039E-02  0.46584401954E-01 -0.86696701744E-01  0.98738280572E-01  0.51100000000E-03 0.  1.
         11    1    4    4    0    0  0.65448760247E-02  0.41765239694E-02 -0.28088372707E-01  0.29146124219E-01  0.51100000000E-03 0. -1.
</event>
<event>
 8    1  0.1233916E+005  0.1043930E+01  0.7957747E-01            NaN
         13   -1    0    0    0    0  0.00000000000E+00  0.00000000000E+00  0.74505805969E-08  0.10566000000E+00  0.10566000000E+00 0.  1.
     999900   -1    0    0    0    0 -0.00000000000E+00 -0.00000000000E+00 -0.74505805969E-08  0.93827000000E+00  0.93827000000E+00 0.  1.
     999902    2    1    2    0    0  0.77253803509E-02 -0.22023249460E-01 -0.11841077304E-01  0.10177590976E+01  0.10174225596E+01 0.  0.
     999903    2    3    3    0    0  0.34177964593E-01 -0.11138641259E+00 -0.57722838903E-01  0.13164925672E+00  0.20604234771E-01 0.  0.
         14    1    1    2    0    0 -0.77253803509E-02  0.22023249460E-01  0.11841077304E-01  0.26170902355E-01  0.00000000000E+00 0.  1.
     999901    1    3    3    0    0 -0.26452584242E-01  0.89363163130E-01  0.45881761598E-01  0.88610984093E+00  0.88000000000E+00 0. -1.
        -11    1    4    4    0    0  0.49026942108E-02 -0.26626582700E-01 -0.22853684427E-01  0.35433929075E-01  0.51100000000E-03 0.  1.
         11    1    4    4    0    0  0.29275270382E-01 -0.84759829890E-01 -0.34869154475E-01  0.96215327644E-01  0.51100000000E-03 0. -1.
</event>
<event>
 8    1  0.1233916E+005  0.1043930E+01  0.7957747E-01            NaN
         13   -1    0    0    0    0  0.00000000000E+00  0.00000000000E+00  0.74505805969E-08  0.10566000000E+00  0.10566000000E+00 0. -1.
     999900   -1    0    0    0    0 -0.00000000000E+00 -0.00000000000E+00 -0.74505805969E-08  0.93827000000E+00  0.93827000000E+00 0.  1.
     999902    2    1    2    0    0  0.32781671207E-02  0.20180256819E-01 -0.11334150566E-01  0.10205536848E+01  0.10202859263E+01 0.  0.
     999903    2    3    3    0    0  0.65681807294E-01 -0.68382466635E-01  0.84694630377E-01  0.12872461086E+00  0.20163915139E-01 0.  0.
         14    1    1    2    0    0 -0.32781671207E-02 -0.20180256819E-01  0.11334150566E-01  0.23376315236E-01  0.00000000000E+00 0.  1.
     999901    1    3    3    0    0 -0.62403640173E-01  0.88562723454E-01 -0.96028780943E-01  0.89182907390E+00  0.88000000000E+00 0.  1.
        -11    1    4    4    0    0  0.23451967005E-01 -0.37748542269E-01  0.33767468283E-01  0.55816218387E-01  0.51100000000E-03 0.  1.
         11    1    4    4    0    0  0.42229840289E-01 -0.30633924366E-01  0.50927162094E-01  0.72908392472E-01  0.51100000000E-03 0. -1.
</event>
<event>
 8    1  0.1233916E+005  0.1043930E+01  0.7957747E-01            NaN
         13   -1    0    0    0    0  0.00000000000E+00  0.00000000000E+00  0.74505805969E-08  0.10566000000E+00  0.10566000000E+00 0. -1.
     999900   -1    0    0    0    0 -0.00000000000E+00 -0.00000000000E+00 -0.74505805969E-08  0.93827000000E+00  0.93827000000E+00 0.  1.
     999902    2    1    2    0    0  0.23494388542E-01 -0.27938493439E-02 -0.25734486949E-02  0.10201305352E+01  0.10198528788E+01 0.  0.
     999903    2    3    3    0    0  0.55039825173E-01  0.31595310939E-01 -0.11358077355E+00  0.13192990747E+00  0.21846334609E-01 0.  0.
         14    1    1    2    0    0 -0.23494388542E-01  0.27938493439E-02  0.25734486949E-02  0.23799464811E-01  0.00000000000E+00 0. -1.
     999901    1    3    3    0    0 -0.31545436631E-01 -0.34389160283E-01  0.11100732485E+00  0.88820062772E+00  0.88000000000E+00 0. -1.
        -11    1    4    4    0    0  0.42236022743E-01  0.18798807659E-01 -0.62556249699E-01  0.77787031592E-01  0.51100000000E-03 0.  1.
         11    1    4    4    0    0  0.12803802430E-01  0.12796503280E-01 -0.51024523849E-01  0.54142875873E-01  0.51100000000E-03 0. -1.
</event>
<event>
 8    1  0.1233916E+005  0.1043930E+01  0.7957747E-01            NaN
         13   -1    0    0    0    0  0.00000000000E+00  0.00000000000E+00  0.74505805969E-08  0.10566000000E+00  0.10566000000E+00 0.  1.
     999900   -1    0    0    0    0 -0.00000000000E+00 -0.00000000000E+00 -0.74505805969E-08  0.93827000000E+00  0.93827000000E+00 0.  1.
     999902    2    1    2    0    0 -0.18689162117E-01  0.69364486353E-02 -0.11608105401E-01  0.10208616838E+01  0.10206010142E+01 0.  0.
     999903    2    3    3    0    0 -0.33973602068E-01  0.76255117660E-01 -0.10206142913E+00  0.13338182729E+00  0.20127789966E-01 0.  0.
         14    1    1    2    0    0  0.18689162117E-01 -0.69364486353E-02  0.11608105401E-01  0.23068316178E-01  0.00000000000E+00 0.  1.
     999901    1    3    3    0    0  0.15284439951E-01 -0.69318669024E-01  0.90453323725E-01  0.88747985653E+00  0.88000000000E+00 0. -1.
        -11    1    4    4    0    0 -0.11019656399E-01  0.40294698901E-01 -0.62634189255E-01  0.75288766568E-01  0.51100000000E-03 0.  1.
         11    1    4    4    0    0 -0.22953945669E-01  0.35960418759E-01 -0.39427239870E-01  0.58093060720E-01  0.51100000000E-03 0. -1.
</event>
<event>
 8    1  0.1233916E+005  0.1043930E+01  0.7957747E-01            NaN
         13   -1    0    0    0    0  0.00000000000E+00  0.00000000000E+00  0.74505805969E-08  0.10566000000E+00  0.10566000000E+00 0. -1.
     999900   -1    0    0    0    0 -0.00000000000E+00 -0.00000000000E+00 -0.74505805969E-08  0.93827000000E+00  0.93827000000E+00 0. -1.
     999902    2    1    2    0    0 -0.40275494606E-02  0.49442145968E-02  0.22906318047E-01  0.10201525775E+01  0.10198754412E+01 0.  0.
     999903    2    3    3    0    0 -0.10260632161E+00  0.49678947995E-01  0.64398180262E-01  0.13254875526E+00  0.20639568591E-01 0.  0.
         14    1    1    2    0    0  0.40275494606E-02 -0.49442145968E-02 -0.22906318047E-01  0.23777422466E-01  0.00000000000E+00 0.  1.
     999901    1    3    3    0    0  0.98578772146E-01 -0.44734733398E-01 -0.41491862215E-01  0.88760382228E+00  0.88000000000E+00 0. -1.
        -11    1    4    4    0    0 -0.12746357854E-01  0.12771609030E-02  0.13045754084E-01  0.18290806411E-01  0.51100000000E-03 0. -1.
         11    1    4    4    0    0 -0.89859963753E-01  0.48401787092E-01  0.51352426178E-01  0.11425794885E+00  0.51100000000E-03 0.  1.
</event>
<event>
 8    1  0.1233916E+005  0.1043930E+01  0.7957747E-01            NaN
         13   -1    0    0    0    0  0.00000000000E+00  0.00000000000E+00  0.74505805969E-08  0.10566000000E+00  0.10566000000E+00 0. -1.
     999900   -1    0    0    0    0 -0.00000000000E+00 -0.00000000000E+00 -0.74505805969E-08  0.93827000000E+00  0.93827000000E+00 0.  1.
     999902    2    1    2    0    0 -0.93403811117E-02 -0.16533874805E-01 -0.13828780669E-01  0.10204385779E+01  0.10201681452E+01 0.  0.
     999903    2    3    3    0    0  0.91587200694E-01 -0.51542986253E-01  0.73768876817E-01  0.12966062343E+00  0.18031509043E-01 0.  0.
         14    1    1    2    0    0  0.93403811117E-02  0.16533874805E-01  0.13828780669E-01  0.23491422055E-01  0.00000000000E+00 0. -1.
     999901    1    3    3    0    0 -0.10092758181E+00  0.35009111448E-01 -0.87597657486E-01  0.89077795452E+00  0.88000000000E+00 0.  1.
        -11    1    4    4    0    0  0.25235308285E-01 -0.17077047482E-01  0.12288905402E-01  0.32859163896E-01  0.51100000000E-03 0.  1.
         11    1    4    4    0    0  0.66351892409E-01 -0.34465938771E-01  0.61479971415E-01  0.96801459534E-01  0.51100000000E-03 0. -1.
</event>
<event>
 8    1  0.1233916E+005  0.1043930E+01  0.7957747E-01            NaN
         13   -1    0    0    0    0  0.00000000000E+00  0.00000000000E+00  0.74505805969E-08  0.10566000000E+00  0.10566000000E+00 0.  1.
     999900   -1    0    0    0    0 -0.00000000000E+00 -0.00000000000E+00 -0.74505805969E-08  0.93827000000E+00  0.93827000000E+00 0.  1.
     999902    2    1    2    0    0 -0.14966461774E-01  0.62497126437E-03 -0.27244968000E-01  0.10128386210E+01  0.10123612983E+01 0.  0.
     999903    2    3    3    0    0 -0.22074017452E-01 -0.12020784544E+00 -0.11242105579E-01  0.12440900727E+00  0.20347673060E-01 0.  0.
         14    1    1    2    0    0  0.14966461774E-01 -0.62497126437E-03  0.27244968000E-01  0.31091379005E-01  0.00000000000E+00 0.  1.
     999901    1    3    3    0    0  0.71075556778E-02  0.12083281671E+00 -0.16002862421E-01  0.88842961373E+00  0.88000000000E+00 0.  1.
        -11    1    4    4    0    0 -0.10757951830E-01 -0.40413849970E-01  0.52264274085E-02  0.42149608082E-01  0.51100000000E-03 0.  1.
         11    1    4    4    0    0 -0.11316065622E-01 -0.79793995473E-01 -0.16468532987E-01  0.82259399186E-01  0.51100000000E-03 0. -1.
</event>
<event>
 8    1  0.1233916E+005  0.1043930E+01  0.7957747E-01            NaN
         13   -1    0    0    0    0  0.00000000000E+00  0.00000000000E+00  0.74505805969E-08  0.10566000000E+00  0.10566000000E+00 0.  1.
     999900   -1    0    0    0    0 -0.00000000000E+00 -0.00000000000E+00 -0.74505805969E-08  0.93827000000E+00  0.93827000000E+00 0.  1.
     999902    2    1    2    0    0 -0.20027595757E-01  0.13002863961E-01 -0.14283604637E-01  0.10161055427E+01  0.10157245067E+01 0.  0.
     999903    2    3    3    0    0 -0.12247234312E+00 -0.33416786344E-01 -0.11414400479E-01  0.12894268136E+00  0.19487690947E-01 0.  0.
         14    1    1    2    0    0  0.20027595757E-01 -0.13002863961E-01  0.14283604637E-01  0.27824457307E-01  0.00000000000E+00 0.  1.
     999901    1    3    3    0    0  0.10244474737E+00  0.46419650305E-01 -0.28692041579E-02  0.88716286133E+00  0.88000000000E+00 0. -1.
        -11    1    4    4    0    0 -0.86350614973E-02  0.22984530346E-02  0.91892483370E-03  0.89973727979E-02  0.51100000000E-03 0. -1.
         11    1    4    4    0    0 -0.11383728163E+00 -0.35715239379E-01 -0.12333325313E-01  0.11994530856E+00  0.51100000000E-03 0.  1.
</event>
<event>
 8    1  0.1233916E+005  0.1043930E+01  0.7957747E-01            NaN
         13   -1    0    0    0    0  0.00000000000E+00  0.00000000000E+00  0.74505805969E-08  0.10566000000E+00  0.10566000000E+00 0.  1.
     999900   -1    0    0    0    0 -0.00000000000E+00 -0.00000000000E+00 -0.74505805969E-08  0.93827000000E+00  0.93827000000E+00 0. -1.
     999902    2    1    2    0    0  0.23405278827E-01  0.16155963557E-01 -0.63720754485E-02  0.10147850934E+01  0.10143664822E+01 0.  0.
     999903    2    3    3    0    0 -0.91708408854E-01 -0.75494355149E-01 -0.21674212392E-01  0.12243701254E+00  0.20278575965E-01 0.  0.
         14    1    1    2    0    0 -0.23405278827E-01 -0.16155963557E-01  0.63720754485E-02  0.29144906604E-01  0.00000000000E+00 0. -1.
     999901    1    3    3    0    0  0.11511368768E+00  0.91650318706E-01  0.15302136944E-01  0.89234808086E+00  0.88000000000E+00 0. -1.
        -11    1    4    4    0    0 -0.53699913317E-01 -0.54897329686E-01 -0.86364569129E-02  0.77280314479E-01  0.51100000000E-03 0.  1.
         11    1    4    4    0    0 -0.38008495537E-01 -0.20597025463E-01 -0.13037755480E-01  0.45156698062E-01  0.51100000000E-03 0. -1.
</event>
<event>
 7    1  0.1233916E+005  0.1043930E+01  0.7957747E-01            NaN
         13   -1    0    0    0    0  0.00000000000E+00  0.00000000000E+00  0.74505805969E-08  0.10566000000E+00  0.10566000000E+00 0. -1.
     999900   -1    0    0    0    0 -0.00000000000E+00 -0.00000000000E+00 -0.74505805969E-08  0.93827000000E+00  0.93827000000E+00 0.  1.
     999903    2    1    2    0    0  0.15091861480E-01 -0.93379281221E-01 -0.59736997351E-01  0.11369039857E+00  0.20237179377E-01 0.  0.
         14    1    1    2    0    0 -0.79534627809E-02  0.39857154735E-01  0.25377699214E-01  0.47915320840E-01  0.00000000000E+00 0. -1.
     999901    1    1    2    0    0 -0.71383986993E-02  0.53522126486E-01  0.34359298137E-01  0.88232428060E+00  0.88000000000E+00 0.  1.
        -11    1    3    3    0    0  0.13803410780E-01 -0.27071900601E-01 -0.19781714370E-01  0.36262919018E-01  0.51100000000E-03 0.  1.
         11    1    3    3    0    0  0.12884506998E-02 -0.66307380620E-01 -0.39955282981E-01  0.77427479547E-01  0.51100000000E-03 0. -1.
</event>
<event>
 8    1  0.1233916E+005  0.1043930E+01  0.7957747E-01            NaN
         13   -1    0    0    0    0  0.00000000000E+00  0.00000000000E+00  0.74505805969E-08  0.10566000000E+00  0.10566000000E+00 0.  1.
     999900   -1    0    0    0    0 -0.00000000000E+00 -0.00000000000E+00 -0.74505805969E-08  0.93827000000E+00  0.93827000000E+00 0.  1.
     999902    2    1    2    0    0  0.36330489770E-02  0.16559505307E-01 -0.16814456615E-01  0.10200523491E+01  0.10197728437E+01 0.  0.
     999903    2    3    3    0    0  0.92823423207E-01 -0.39915914349E-01  0.76879349836E-01  0.12880438964E+00  0.21694889859E-01 0.  0.
         14    1    1    2    0    0 -0.36330489770E-02 -0.16559505307E-01  0.16814456615E-01  0.23877650893E-01  0.00000000000E+00 0.  1.
     999901    1    3    3    0    0 -0.89190374230E-01  0.56475419656E-01 -0.93693806452E-01  0.89124795946E+00  0.88000000000E+00 0.  1.
        -11    1    4    4    0    0  0.41917740619E-01 -0.21353124876E-01  0.22915483647E-01  0.52330043305E-01  0.51100000000E-03 0.  1.
         11    1    4    4    0    0  0.50905682589E-01 -0.18562789473E-01  0.53963866189E-01  0.76474346339E-01  0.51100000000E-03 0. -1.
</event>
<event>
 8    1  0.1233916E+005  0.1043930E+01  0.7957747E-01            NaN
         13   -1    0    0    0    0  0.00000000000E+00  0.00000000000E+00  0.74505805969E-08  0.10566000000E+00  0.10566000000E+00 0. -1.
     999900   -1    0    0    0    0 -0.00000000000E+00 -0.00000000000E+00 -0.74505805969E-08  0.93827000000E+00  0.93827000000E+00 0. -1.
     999902    2    1    2    0    0 -0.16414737861E-01  0.43304918242E-02 -0.16950279595E-01  0.10199402364E+01  0.10196580687E+01 0.  0.
     999903    2    3    3    0    0  0.34941971553E-01 -0.41886296015E-01  0.11344729141E+00  0.12765271011E+00  0.21201964535E-01 0.  0.
         14    1    1    2    0    0  0.16414737861E-01 -0.43304918242E-02  0.16950279595E-01  0.23989763584E-01  0.00000000000E+00 0. -1.
     999901    1    3    3    0    0 -0.51356709414E-01  0.46216787839E-01 -0.13039757100E+00  0.89228752631E+00  0.88000000000E+00 0. -1.
        -11    1    4    4    0    0  0.30584265824E-01 -0.37061293343E-01  0.78029618003E-01  0.91639615817E-01  0.51100000000E-03 0.  1.
         11    1    4    4    0    0  0.43577057289E-02 -0.48250026713E-02  0.35417673406E-01  0.36013094292E-01  0.51100000000E-03 0. -1.
</event>
<event>
 8    1  0.1233916E+005  0.1043930E+01  0.7957747E-01            NaN
         13   -1    0    0    0    0  0.00000000000E+00  0.00000000000E+00  0.74505805969E-08  0.10566000000E+00  0.10566000000E+00 0.  1.
     999900   -1    0    0    0    0 -0.00000000000E+00 -0.00000000000E+00 -0.74505805969E-08  0.93827000000E+00  0.93827000000E+00 0. -1.
     999902    2    1    2    0    0 -0.12556892030E-01  0.17157867130E-01 -0.17510349507E-02  0.10225961287E+01  0.10223735659E+01 0.  0.
     999903    2    3    3    0    0 -0.65112693316E-01  0.64410770770E-01  0.96155921007E-01  0.13435026116E+00  0.20386792462E-01 0.  0.
         14    1    1    2    0    0  0.12556892030E-01 -0.17157867130E-01  0.17510349507E-02  0.21333871315E-01  0.00000000000E+00 0.  1.
     999901    1    3    3    0    0  0.52555801287E-01 -0.47252903640E-01 -0.97906955958E-01  0.88824586753E+00  0.88000000000E+00 0. -1.
        -11    1    4    4    0    0 -0.13220244517E-01  0.23819702943E-01  0.35882798610E-01  0.45055404454E-01  0.51100000000E-03 0. -1.
         11    1    4    4    0    0 -0.51892448799E-01  0.40591067826E-01  0.60273122397E-01  0.89294856706E-01  0.51100000000E-03 0.  1.
</event>
<event>
 8    1  0.1233916E+005  0.1043930E+01  0.7957747E-01            NaN
         13   -1    0    0    0    0  0.00000000000E+00  0.00000000000E+00  0.74505805969E-08  0.10566000000E+00  0.10566000000E+00 0.  1.
     999900   -1    0    0    0    0 -0.00000000000E+00 -0.00000000000E+00 -0.74505805969E-08  0.93827000000E+00  0.93827000000E+00 0.  1.
     999902    2    1    2    0    0  0.28710210052E-02 -0.10187584818E-01  0.21484041950E-01  0.10199801836E+01  0.10196989660E+01 0.  0.
     999903    2    3    3    0    0 -0.74662688627E-01 -0.80479224425E-01 -0.65757917016E-01  0.12949517525E+00  0.19836182245E-01 0.  0.
         14    1    1    2    0    0 -0.28710210052E-02  0.10187584818E-01 -0.21484041950E-01  0.23949816378E-01  0.00000000000E+00 0. -1.
     999901    1    3    3    0    0  0.77533709633E-01  0.70291639607E-01  0.87241958966E-01  0.89048500837E+00  0.88000000000E+00 0.  1.
        -11    1    4    4    0    0 -0.58414347817E-01 -0.50822979771E-01 -0.41280914742E-01  0.87747286834E-01  0.51100000000E-03 0.  1.
         11    1    4    4    0    0 -0.16248340810E-01 -0.29656244653E-01 -0.24477002274E-01  0.41747888418E-01  0.51100000000E-03 0. -1.
</event>
<event>
 8    1  0.1233916E+005  0.1043930E+01  0.7957747E-01            NaN
         13   -1    0    0    0    0  0.00000000000E+00  0.00000000000E+00  0.74505805969E-08  0.10566000000E+00  0.10566000000E+00 0. -1.
     999900   -1    0    0    0    0 -0.00000000000E+00 -0.00000000000E+00 -0.74505805969E-08  0.93827000000E+00  0.93827000000E+00 0.  1.
     999902    2    1    2    0    0 -0.60063614164E-03 -0.25846821636E-01 -0.17408276473E-03  0.10180756144E+01  0.10177472708E+01 0.  0.
     999903    2    3    3    0    0  0.11956021434E+00 -0.37133247957E-01 -0.26062025612E-01  0.12946085024E+00  0.20183151620E-01 0.  0.
         14    1    1    2    0    0  0.60063614164E-03  0.25846821636E-01  0.17408276473E-03  0.25854385648E-01  0.00000000000E+00 0.  1.
     999901    1    3    3    0    0 -0.12016085048E+00  0.11286426321E-01  0.25887942847E-01  0.88861476411E+00  0.88000000000E+00 0. -1.
        -11    1    4    4    0    0  0.76446571700E-01 -0.15142163404E-01 -0.21503431940E-01  0.80845668675E-01  0.51100000000E-03 0.  1.
         11    1    4    4    0    0  0.43113642641E-01 -0.21991084552E-01 -0.45585936721E-02  0.48615181567E-01  0.51100000000E-03 0. -1.
</event>
<event>
 8    1  0.1233916E+005  0.1043930E+01  0.7957747E-01            NaN
         13   -1    0    0    0    0  0.00000000000E+00  0.00000000000E+00  0.74505805969E-08  0.10566000000E+00  0.10566000000E+00 0. -1.
     999900   -1    0    0    0    0 -0.00000000000E+00 -0.00000000000E+00 -0.74505805969E-08  0.93827000000E+00  0.93827000000E+00 0. -1.
     999902    2    1    2    0    0  0.13239947513E-01  0.14934752902E-01 -0.13416271225E-01  0.10198813121E+01  0.10195977400E+01 0.  0.
     999903    2    3    3    0    0  0.64980283842E-01 -0.10457925682E+00  0.33407928780E-01  0.12906530048E+00  0.19557705294E-01 0.  0.
         14    1    1    2    0    0 -0.13239947513E-01 -0.14934752902E-01  0.13416271225E-01  0.24048687864E-01  0.00000000000E+00 0. -1.
     999901    1    3    3    0    0 -0.51740336329E-01  0.11951400972E+00 -0.46824200004E-01  0.89081601166E+00  0.88000000000E+00 0. -1.
        -11    1    4    4    0    0  0.41820228647E-01 -0.69320184094E-01  0.31379433660E-01  0.86828275491E-01  0.51100000000E-03 0.  1.
         11    1    4    4    0    0  0.23160055196E-01 -0.35259072727E-01  0.20284951199E-02  0.42237024986E-01  0.51100000000E-03 0. -1.
</event>
<event>
 8    1  0.1233916E+005  0.1043930E+01  0.7957747E-01            NaN
         13   -1    0    0    0    0  0.00000000000E+00  0.00000000000E+00  0.74505805969E-08  0.10566000000E+00  0.10566000000E+00 0. -1.
     999900   -1    0    0    0    0 -0.00000000000E+00 -0.00000000000E+00 -0.74505805969E-08  0.93827000000E+00  0.93827000000E+00 0.  1.
     999902    2    1    2    0    0  0.17065173883E-01 -0.17087167189E-01  0.24155997130E-02  0.10196601305E+01  0.10193712549E+01 0.  0.
     999903    2    3    3    0    0  0.11237301539E+00  0.62092282284E-01  0.16027515474E-01  0.13087542425E+00  0.19706580427E-01 0.  0.
         14    1    1    2    0    0 -0.17065173883E-01  0.17087167189E-01 -0.24155997130E-02  0.24269869472E-01  0.00000000000E+00 0. -1.
     999901    1    3    3    0    0 -0.95307841507E-01 -0.79179449473E-01 -0.13611915761E-01  0.88878470628E+00  0.88000000000E+00 0.  1.
        -11    1    4    4    0    0  0.77202063574E-02 -0.67350925766E-03  0.21341358344E-02  0.80542446996E-02  0.51100000000E-03 0. -1.
         11    1    4    4    0    0  0.10465280903E+00  0.62765791541E-01  0.13893379639E-01  0.12282117955E+00  0.51100000000E-03 0.  1.
</event>
<event>
 8    1  0.1233916E+005  0.1043930E+01  0.7957747E-01            NaN
         13   -1    0    0    0    0  0.00000000000E+00  0.00000000000E+00  0.74505805969E-08  0.10566000000E+00  0.10566000000E+00 0. -1.
     999900   -1    0    0    0    0 -0.00000000000E+00 -0.00000000000E+00 -0.74505805969E-08  0.93827000000E+00  0.93827000000E+00 0.  1.
     999902    2    1    2    0    0 -0.94822953739E-02 -0.17271995032E-01  0.14457665609E-01  0.10194911000E+01  0.10191981373E+01 0.  0.
     999903    2    3    3    0    0 -0.99903452217E-01  0.69985005174E-01  0.40430575934E-01  0.13018554973E+00  0.20857736539E-01 0.  0.
         14    1    1    2    0    0  0.94822953739E-02  0.17271995032E-01 -0.14457665609E-01  0.24438899992E-01  0.00000000000E+00 0. -1.
     999901    1    3    3    0    0  0.90421156843E-01 -0.87257000206E-01 -0.25972910325E-01  0.88930555028E+00  0.88000000000E+00 0.  1.
        -11    1    4    4    0    0 -0.56948039500E-01  0.43432387218E-01  0.33977231470E-01  0.79272724450E-01  0.51100000000E-03 0.  1.
         11    1    4    4    0    0 -0.42955412717E-01  0.26552617956E-01  0.64533444633E-02  0.50912825278E-01  0.51100000000E-03 0. -1.
</event>
<event>
 8    1  0.1233916E+005  0.1043930E+01  0.7957747E-01            NaN
         13   -1    0    0    0    0  0.00000000000E+00  0.00000000000E+00  0.74505805969E-08  0.10566000000E+00  0.10566000000E+00 0.  1.
     999900   -1    0    0    0    0 -0.00000000000E+00 -0.00000000000E+00 -0.74505805969E-08  0.93827000000E+00  0.93827000000E+00 0.  1.
     999902    2    1    2    0    0 -0.20648469033E-01  0.77808730701E-02  0.60492602903E-02  0.10210499911E+01  0.10207936077E+01 0.  0.
     999903    2    3    3    0    0 -0.64130153546E-01  0.30557807884E-01 -0.10985365617E+00  0.13209390008E+00  0.18289790766E-01 0.  0.
         14    1    1    2    0    0  0.20648469033E-01 -0.77808730701E-02 -0.60492602903E-02  0.22880008942E-01  0.00000000000E+00 0.  1.
     999901    1    3    3    0    0  0.43481684514E-01 -0.22776934814E-01  0.11590291646E+00  0.88895609098E+00  0.88000000000E+00 0. -1.
        -11    1    4    4    0    0 -0.22705169502E-01  0.17833999350E-01 -0.32891317783E-01  0.43768437960E-01  0.51100000000E-03 0. -1.
         11    1    4    4    0    0 -0.41424984045E-01  0.12723808534E-01 -0.76962338390E-01  0.88325462117E-01  0.51100000000E-03 0.  1.
</event>
<event>
 8    1  0.1233916E+005  0.1043930E+01  0.7957747E-01            NaN
         13   -1    0    0    0    0  0.00000000000E+00  0.00000000000E+00  0.74505805969E-08  0.10566000000E+00  0.10566000000E+00 0. -1.
     999900   -1    0    0    0    0 -0.00000000000E+00 -0.00000000000E+00 -0.74505805969E-08  0.93827000000E+00  0.93827000000E+00 0. -1.
     999902    2    1    2    0    0  0.16288596519E-01 -0.65024719403E-02 -0.15236948424E-01  0.10206971544E+01  0.10204327101E+01 0.  0.
     999903    2    3    3    0    0  0.29185306198E-01  0.12397304681E+00  0.18968215754E-01  0.13032634435E+00  0.20101352947E-01 0.  0.
         14    1    1    2    0    0 -0.16288596519E-01  0.65024719403E-02  0.15236948424E-01  0.23232845610E-01  0.00000000000E+00 0. -1.
     999901    1    3    3    0    0 -0.12896709679E-01 -0.13047551875E+00 -0.34205164178E-01  0.89037081004E+00  0.88000000000E+00 0. -1.
        -11    1    4    4    0    0  0.30310389441E-01  0.10081812129E+00  0.19803000203E-01  0.10712344854E+00  0.51100000000E-03 0. -1.
         11    1    4    4    0    0 -0.11250832439E-02  0.23154925519E-01 -0.83478444871E-03  0.23202895815E-01  0.51100000000E-03 0.  1.
</event>
<event>
 8    1  0.1233916E+005  0.1043930E+01  0.7957747E-01            NaN
         13   -1    0    0    0    0  0.00000000000E+00  0.00000000000E+00  0.74505805969E-08  0.10566000000E+00  0.10566000000E+00 0.  1.
     999900   -1    0    0    0    0 -0.00000000000E+00 -0.00000000000E+00 -0.74505805969E-08  0.93827000000E+00  0.93827000000E+00 0.  1.
     999902    2    1    2    0    0  0.19613521429E-01  0.17532053796E-01 -0.48044493626E-02  0.10171877887E+01  0.10168361970E+01 0.  0.
     999903    2    3    3    0    0  0.58532882139E-01  0.48069039834E-01 -0.10404481336E+00  0.13022901060E+00  0.19938433554E-01 0.  0.
         14    1    1    2    0    0 -0.19613521429E-01 -0.17532053796E-01  0.48044493626E-02  0.26742211330E-01  0.00000000000E+00 0.  1.
     999901    1    3    3    0    0 -0.38919360710E-01 -0.30536986038E-01  0.99240363994E-01  0.88695877807E+00  0.88000000000E+00 0. -1.
        -11    1    4    4    0    0  0.22612192093E-01  0.10010904106E-01 -0.44834456668E-01  0.51204678087E-01  0.51100000000E-03 0. -1.
         11    1    4    4    0    0  0.35920690046E-01  0.38058135728E-01 -0.59210356689E-01  0.79024332510E-01  0.51100000000E-03 0.  1.
</event>
<event>
 8    1  0.1233916E+005  0.1043930E+01  0.7957747E-01            NaN
         13   -1    0    0    0    0  0.00000000000E+00  0.00000000000E+00  0.74505805969E-08  0.10566000000E+00  0.10566000000E+00 0. -1.
     999900   -1    0    0    0    0 -0.00000000000E+00 -0.00000000000E+00 -0.74505805969E-08  0.93827000000E+00  0.93827000000E+00 0. -1.
     999902    2    1    2    0    0  0.99943993348E-02  0.21605818859E-01  0.14343738010E-02  0.10200813762E+01  0.10198025580E+01 0.  0.
     999903    2    3    3    0    0 -0.11860325803E+00  0.85603491184E-02 -0.46702258969E-01  0.12933748647E+00  0.20176025931E-01 0.  0.
         14    1    1    2    0    0 -0.99943993348E-02 -0.21605818859E-01 -0.14343738010E-02  0.23848623751E-01  0.00000000000E+00 0.  1.
     999901    1    3    3    0    0  0.12859765736E+00  0.13045469740E-01  0.48136632770E-01  0.89074388978E+00  0.88000000000E+00 0.  1.
        -11    1    4    4    0    0 -0.62352870930E-01  0.11980137506E-01 -0.17492096708E-01  0.65860752927E-01  0.51100000000E-03 0.  1.
         11    1    4    4    0    0 -0.56250387097E-01 -0.34197883879E-02 -0.29210162262E-01  0.63476733545E-01  0.51100000000E-03 0. -1.
</event>
<event>
 8    1  0.1233916E+005  0.1043930E+01  0.7957747E-01            NaN
         13   -1    0    0    0    0  0.00000000000E+00  0.00000000000E+00  0.74505805969E-08  0.10566000000E+00  0.10566000000E+00 0. -1.
     999900   -1    0    0    0    0 -0.00000000000E+00 -0.00000000000E+00 -0.74505805969E-08  0.93827000000E+00  0.93827000000E+00 0. -1.
     999902    2    1    2    0    0 -0.16655138604E-01  0.42831427407E-02 -0.16240163190E-01  0.10202766312E+01  0.10200024129E+01 0.  0.
     999903    2    3    3    0    0  0.38157924002E-01 -0.61689332673E-01 -0.10765007781E+00  0.13139384265E+00  0.20351945939E-01 0.  0.
         14    1    1    2    0    0  0.16655138604E-01 -0.42831427407E-02  0.16240163190E-01  0.23653368768E-01  0.00000000000E+00 0. -1.
     999901    1    3    3    0    0 -0.54813062606E-01  0.65972475413E-01  0.91409914624E-01  0.88888278858E+00  0.88000000000E+00 0.  1.
        -11    1    4    4    0    0  0.89459355818E-02 -0.65739822812E-02 -0.28680323056E-01  0.30758235614E-01  0.51100000000E-03 0.  1.
         11    1    4    4    0    0  0.29211988420E-01 -0.55115350391E-01 -0.78969754758E-01  0.10063560704E+00  0.51100000000E-03 0. -1.
</event>
<event>
 8    1  0.1233916E+005  0.1043930E+01  0.7957747E-01            NaN
         13   -1    0    0    0    0  0.00000000000E+00  0.00000000000E+00  0.74505805969E-08  0.10566000000E+00  0.10566000000E+00 0.  1.
     999900   -1    0    0    0    0 -0.00000000000E+00 -0.00000000000E+00 -0.74505805969E-08  0.93827000000E+00  0.93827000000E+00 0.  1.
     999902    2    1    2    0    0 -0.15945195176E-01  0.12952943879E-01  0.11887646042E-01  0.10201951283E+01  0.10199189947E+01 0.  0.
     999903    2    3    3    0    0  0.14419356744E-01  0.48249748752E-01  0.12068601094E+00  0.13227342309E+00  0.19879364091E-01 0.  0.
         14    1    1    2    0    0  0.15945195176E-01 -0.12952943879E-01 -0.11887646042E-01  0.23734871661E-01  0.00000000000E+00 0. -1.
     999901    1    3    3    0    0 -0.30364551920E-01 -0.35296804873E-01 -0.10879836490E+00  0.88792170525E+00  0.88000000000E+00 0.  1.
        -11    1    4    4    0    0  0.65496046689E-03  0.20004211113E-01  0.68404450102E-01  0.71274310591E-01  0.51100000000E-03 0.  1.
         11    1    4    4    0    0  0.13764396277E-01  0.28245537639E-01  0.52281560835E-01  0.60999112500E-01  0.51100000000E-03 0. -1.
</event>
<event>
 8    1  0.1233916E+005  0.1043930E+01  0.7957747E-01            NaN
         13   -1    0    0    0    0  0.00000000000E+00  0.00000000000E+00  0.74505805969E-08  0.10566000000E+00  0.10566000000E+00 0. -1.
     999900   -1    0    0    0    0 -0.00000000000E+00 -0.00000000000E+00 -0.74505805969E-08  0.93827000000E+00  0.93827000000E+00 0.  1.
     999902    2    1    2    0    0  0.30097238718E-02  0.19323083176E-01 -0.13683783942E-01  0.10200619057E+01  0.10197826266E+01 0.  0.
     999903    2    3    3    0    0  0.38356398354E-01 -0.11040065722E+00 -0.50933893242E-01  0.12907076836E+00  0.20136617275E-01 0.  0.
         14    1    1    2    0    0 -0.30097238718E-02 -0.19323083176E-01  0.13683783942E-01  0.23868094272E-01  0.00000000000E+00 0. -1.
     999901    1    3    3    0    0 -0.35346674482E-01  0.12972374040E+00  0.37250109300E-01  0.89099113736E+00  0.88000000000E+00 0.  1.
        -11    1    4    4    0    0  0.27053612615E-01 -0.72330382353E-01 -0.23220066704E-01  0.80641272222E-01  0.51100000000E-03 0. -1.
         11    1    4    4    0    0  0.11302785738E-01 -0.38070274869E-01 -0.27713826539E-01  0.48429496141E-01  0.51100000000E-03 0.  1.
</event>
<event>
 8    1  0.1233916E+005  0.1043930E+01  0.7957747E-01            NaN
         13   -1    0    0    0    0  0.00000000000E+00  0.00000000000E+00  0.74505805969E-08  0.10566000000E+00  0.10566000000E+00 0.  1.
     999900   -1    0    0    0    0 -0.00000000000E+00 -0.00000000000E+00 -0.74505805969E-08  0.93827000000E+00  0.93827000000E+00 0.  1.
     999902    2    1    2    0    0  0.73553371627E-02  0.19909239140E-01 -0.10873790848E-01  0.10200821885E+01  0.10198033894E+01 0.  0.
     999903    2    3    3    0    0 -0.62141515212E-01 -0.93670047396E-01 -0.59544625829E-01  0.12873550114E+00  0.19789418789E-01 0.  0.
         14    1    1    2    0    0 -0.73553371627E-02 -0.19909239140E-01  0.10873790848E-01  0.23847811542E-01  0.00000000000E+00 0.  1.
     999901    1    3    3    0    0  0.69496852374E-01  0.11357928654E+00  0.48670834980E-01  0.89134668732E+00  0.88000000000E+00 0. -1.
        -11    1    4    4    0    0 -0.52791481336E-01 -0.69433051548E-01 -0.38699565199E-01  0.95424350229E-01  0.51100000000E-03 0. -1.
         11    1    4    4    0    0 -0.93500338753E-02 -0.24236995848E-01 -0.20845060630E-01  0.33311150909E-01  0.51100000000E-03 0.  1.
</event>
<event>
 8    1  0.1233916E+005  0.1043930E+01  0.7957747E-01            NaN
         13   -1    0    0    0    0  0.00000000000E+00  0.00000000000E+00  0.74505805969E-08  0.10566000000E+00  0.10566000000E+00 0. -1.
     999900   -1    0    0    0    0 -0.00000000000E+00 -0.00000000000E+00 -0.74505805969E-08  0.93827000000E+00  0.93827000000E+00 0. -1.
     999902    2    1    2    0    0 -0.58168902370E-02 -0.46622822918E-02 -0.22498462718E-01  0.10202286517E+01  0.10199533067E+01 0.  0.
     999903    2    3    3    0    0 -0.80433177164E-01  0.61970485709E-01 -0.82665550879E-01  0.13251946812E+00  0.20444535750E-01 0.  0.
         14    1    1    2    0    0  0.58168902370E-02  0.46622822918E-02  0.22498462718E-01  0.23701348335E-01  0.00000000000E+00 0. -1.
     999901    1    3    3    0    0  0.74616286927E-01 -0.66632768001E-01  0.60167088161E-01  0.88770918354E+00  0.88000000000E+00 0. -1.
        -11    1    4    4    0    0 -0.63949248828E-01  0.52943419870E-01 -0.76048004702E-01  0.11258806452E+00  0.51100000000E-03 0.  1.
         11    1    4    4    0    0 -0.16483928336E-01  0.90270658393E-02 -0.66175461769E-02  0.19931403599E-01  0.51100000000E-03 0. -1.
</event>
<event>
 8    1  0.1233916E+005  0.1043930E+01  0.7957747E-01            NaN
         13   -1    0    0    0    0  0.00000000000E+00  0.00000000000E+00  0.74505805969E-08  0.10566000000E+00  0.10566000000E+00 0. -1.
     999900   -1    0    0    0    0 -0.00000000000E+00 -0.00000000000E+00 -0.74505805969E-08  0.93827000000E+00  0.93827000000E+00 0. -1.
     999902    2    1    2    0    0 -0.35892418406E-02  0.18524992662E-01 -0.13602589834E-01  0.10206686918E+01  0.10204035917E+01 0.  0.
     999903    2    3    3    0    0  0.70936772643E-02  0.12134507753E+00 -0.54663335348E-01  0.13366695591E+00  0.10189542310E-01 0.  0.
         14    1    1    2    0    0  0.35892418406E-02 -0.18524992662E-01  0.13602589834E-01  0.23261308225E-01  0.00000000000E+00 0. -1.
     999901    1    3    3    0    0 -0.10682919105E-01 -0.10282008487E+00  0.41060745514E-01  0.88700173587E+00  0.88000000000E+00 0. -1.
        -11    1    4    4    0    0 -0.12697897373E-02  0.59967396626E-01 -0.25005829063E-01  0.64986565013E-01  0.51100000000E-03 0. -1.
         11    1    4    4    0    0  0.83634670016E-02  0.61377680902E-01 -0.29657506285E-01  0.68680390893E-01  0.51100000000E-03 0.  1.
</event>
<event>
 8    1  0.1233916E+005  0.1043930E+01  0.7957747E-01            NaN
         13   -1    0    0    0    0  0.00000000000E+00  0.00000000000E+00  0.74505805969E-08  0.10566000000E+00  0.10566000000E+00 0. -1.
     999900   -1    0    0    0    0 -0.00000000000E+00 -0.00000000000E+00 -0.74505805969E-08  0.93827000000E+00  0.93827000000E+00 0.  1.
     999902    2    1    2    0    0  0.11294469454E-02 -0.21016898905E-02 -0.23950128501E-01  0.10198613190E+01  0.10195772695E+01 0.  0.
     999903    2    3    3    0    0  0.10096444674E+00 -0.27841100308E-01  0.71857562307E-01  0.12867746699E+00  0.20626072748E-01 0.  0.
         14    1    1    2    0    0 -0.11294469454E-02  0.21016898905E-02  0.23950128501E-01  0.24068681020E-01  0.00000000000E+00 0. -1.
     999901    1    3    3    0    0 -0.99834999799E-01  0.25739410418E-01 -0.95807690809E-01  0.89118385199E+00  0.88000000000E+00 0.  1.
        -11    1    4    4    0    0  0.28416038485E-01 -0.44104285312E-03  0.26353887181E-01  0.38761504776E-01  0.51100000000E-03 0. -1.
         11    1    4    4    0    0  0.72548408259E-01 -0.27400057455E-01  0.45503675127E-01  0.89915962212E-01  0.51100000000E-03 0.  1.
</event>
<event>
 8    1  0.1233916E+005  0.1043930E+01  0.7957747E-01            NaN
         13   -1    0    0    0    0  0.00000000000E+00  0.00000000000E+00  0.74505805969E-08  0.10566000000E+00  0.10566000000E+00 0.  1.
     999900   -1    0    0    0    0 -0.00000000000E+00 -0.00000000000E+00 -0.74505805969E-08  0.93827000000E+00  0.93827000000E+00 0. -1.
     999902    2    1    2    0    0  0.11208690438E-01  0.61342688605E-02 -0.20123679658E-01  0.10200924985E+01  0.10198139433E+01 0.  0.
     999903    2    3    3    0    0 -0.48083935774E-01 -0.11845600848E+00 -0.12611020646E-01  0.12930925168E+00  0.14763261992E-01 0.  0.
         14    1    1    2    0    0 -0.11208690438E-01 -0.61342688605E-02  0.20123679658E-01  0.23837501521E-01  0.00000000000E+00 0.  1.
     999901    1    3    3    0    0  0.59292626211E-01  0.12459027734E+00 -0.75126590116E-02  0.89078324680E+00  0.88000000000E+00 0. -1.
        -11    1    4    4    0    0 -0.17807614888E-01 -0.27016968614E-01 -0.38180562040E-02  0.32586291830E-01  0.51100000000E-03 0. -1.
         11    1    4    4    0    0 -0.30276320886E-01 -0.91439039864E-01 -0.87929644420E-02  0.96722959851E-01  0.51100000000E-03 0.  1.
</event>
<event>
 8    1  0.1233916E+005  0.1043930E+01  0.7957747E-01            NaN
         13   -1    0    0    0    0  0.00000000000E+00  0.00000000000E+00  0.74505805969E-08  0.10566000000E+00  0.10566000000E+00 0. -1.
     999900   -1    0    0    0    0 -0.00000000000E+00 -0.00000000000E+00 -0.74505805969E-08  0.93827000000E+00  0.93827000000E+00 0.  1.
     999902    2    1    2    0    0 -0.11761074367E-01  0.13583040980E-01  0.13937193371E-01  0.10211908876E+01  0.10209376875E+01 0.  0.
     999903    2    3    3    0    0  0.10937521473E+00 -0.25119989309E-01  0.64267795504E-01  0.13062640675E+00  0.18410788685E-01 0.  0.
         14    1    1    2    0    0  0.11761074367E-01 -0.13583040980E-01 -0.13937193371E-01  0.22739112374E-01  0.00000000000E+00 0.  1.
     999901    1    3    3    0    0 -0.12113628910E+00  0.38703030288E-01 -0.50330602133E-01  0.89056448088E+00  0.88000000000E+00 0.  1.
        -11    1    4    4    0    0  0.82008089265E-01 -0.14957441662E-01  0.55474045089E-01  0.10013332395E+00  0.51100000000E-03 0. -1.
         11    1    4    4    0    0  0.27367125469E-01 -0.10162547646E-01  0.87937504149E-02  0.30493082797E-01  0.51100000000E-03 0.  1.
</event>
<event>
 8    1  0.1233916E+005  0.1043930E+01  0.7957747E-01            NaN
         13   -1    0    0    0    0  0.00000000000E+00  0.00000000000E+00  0.74505805969E-08  0.10566000000E+00  0.10566000000E+00 0.  1.
     999900   -1    0    0    0    0 -0.00000000000E+00 -0.00000000000E+00 -0.74505805969E-08  0.93827000000E+00  0.93827000000E+00 0. -1.
     999902    2    1    2    0    0 -0.81325782822E-02 -0.19021856450E-01  0.11305905189E-01  0.10203547302E+01  0.10200823409E+01 0.  0.
     999903    2    3    3    0    0  0.12466982556E+00  0.58056065712E-03 -0.28134796966E-01  0.12930125136E+00  0.19604702177E-01 0.  0.
         14    1    1    2    0    0  0.81325782822E-02  0.19021856450E-01 -0.11305905189E-01  0.23575269765E-01  0.00000000000E+00 0.  1.
     999901    1    3    3    0    0 -0.13280240384E+00 -0.19602417108E-01  0.39440702155E-01  0.89105347887E+00  0.88000000000E+00 0.  1.
        -11    1    4    4    0    0  0.79842880169E-01 -0.90328169701E-02 -0.17769608954E-01  0.82295184668E-01  0.51100000000E-03 0.  1.
         11    1    4    4    0    0  0.44826945393E-01  0.96133776272E-02 -0.10365188013E-01  0.47006066696E-01  0.51100000000E-03 0. -1.
</event>
<event>
 8    1  0.1233916E+005  0.1043930E+01  0.7957747E-01            NaN
         13   -1    0    0    0    0  0.00000000000E+00  0.00000000000E+00  0.74505805969E-08  0.10566000000E+00  0.10566000000E+00 0.  1.
     999900   -1    0    0    0    0 -0.00000000000E+00 -0.00000000000E+00 -0.74505805969E-08  0.93827000000E+00  0.93827000000E+00 0. -1.
     999902    2    1    2    0    0 -0.20697521926E-01 -0.11502920657E-01  0.57560332936E-02  0.10195612389E+01  0.10192699757E+01 0.  0.
     999903    2    3    3    0    0 -0.12566420233E+00  0.26190060201E-01 -0.23215005576E-01  0.13204893709E+00  0.20507908270E-01 0.  0.
         14    1    1    2    0    0  0.20697521926E-01  0.11502920657E-01 -0.57560332936E-02  0.24368761084E-01  0.00000000000E+00 0. -1.
     999901    1    3    3    0    0  0.10496668041E+00 -0.37692980857E-01  0.28971038869E-01  0.88751230183E+00  0.88000000000E+00 0.  1.
        -11    1    4    4    0    0 -0.53440090645E-01  0.50273669903E-02 -0.14321585718E-02  0.53697578215E-01  0.51100000000E-03 0. -1.
         11    1    4    4    0    0 -0.72224111686E-01  0.21162693210E-01 -0.21782847004E-01  0.78351358874E-01  0.51100000000E-03 0.  1.
</event>
<event>
 8    1  0.1233916E+005  0.1043930E+01  0.7957747E-01            NaN
         13   -1    0    0    0    0  0.00000000000E+00  0.00000000000E+00  0.74505805969E-08  0.10566000000E+00  0.10566000000E+00 0.  1.
     999900   -1    0    0    0    0 -0.00000000000E+00 -0.00000000000E+00 -0.74505805969E-08  0.93827000000E+00  0.93827000000E+00 0.  1.
     999902    2    1    2    0    0 -0.12735898842E-01 -0.88994833798E-02  0.18420883456E-01  0.10198316002E+01  0.10195468405E+01 0.  0.
     999903    2    3    3    0    0 -0.75360802929E-01 -0.10648487579E+00 -0.36035725995E-03  0.13202671040E+00  0.20313616380E-01 0.  0.
         14    1    1    2    0    0  0.12735898842E-01  0.88994833798E-02 -0.18420883456E-01  0.24098399761E-01  0.00000000000E+00 0.  1.
     999901    1    3    3    0    0  0.62624904087E-01  0.97585392412E-01  0.18781240716E-01  0.88780488984E+00  0.88000000000E+00 0. -1.
        -11    1    4    4    0    0 -0.27389462817E-01 -0.49062441740E-01  0.79074622244E-02  0.56745880403E-01  0.51100000000E-03 0.  1.
         11    1    4    4    0    0 -0.47971340112E-01 -0.57422434052E-01 -0.82678194843E-02  0.75280829994E-01  0.51100000000E-03 0. -1.
</event>
<event>
 8    1  0.1233916E+005  0.1043930E+01  0.7957747E-01            NaN
         13   -1    0    0    0    0  0.00000000000E+00  0.00000000000E+00  0.74505805969E-08  0.10566000000E+00  0.10566000000E+00 0. -1.
     999900   -1    0    0    0    0 -0.00000000000E+00 -0.00000000000E+00 -0.74505805969E-08  0.93827000000E+00  0.93827000000E+00 0.  1.
     999902    2    1    2    0    0  0.11040159870E-01  0.18155885907E-01  0.12047551475E-01  0.10195032765E+01  0.10192106093E+01 0.  0.
     999903    2    3    3    0    0 -0.94833344247E-02  0.88330356960E-01 -0.94256075405E-01  0.13009553466E+00  0.12184202703E-01 0.  0.
         14    1    1    2    0    0 -0.11040159870E-01 -0.18155885907E-01 -0.12047551475E-01  0.24426723471E-01  0.00000000000E+00 0. -1.
     999901    1    3    3    0    0  0.20523494295E-01 -0.70174471053E-01  0.10630362688E+00  0.88940774187E+00  0.88000000000E+00 0. -1.
        -11    1    4    4    0    0 -0.44501278308E-02  0.71468314438E-01 -0.80599415335E-01  0.10781488988E+00  0.51100000000E-03 0. -1.
         11    1    4    4    0    0 -0.50332065939E-02  0.16862042522E-01 -0.13656660071E-01  0.22280644782E-01  0.51100000000E-03 0.  1.
</event>
<event>
 8    1  0.1233916E+005  0.1043930E+01  0.7957747E-01            NaN
         13   -1    0    0    0    0  0.00000000000E+00  0.00000000000E+00  0.74505805969E-08  0.10566000000E+00  0.10566000000E+00 0. -1.
     999900   -1    0    0    0    0 -0.00000000000E+00 -0.00000000000E+00 -0.74505805969E-08  0.93827000000E+00  0.93827000000E+00 0. -1.
     999902    2    1    2    0    0 -0.11651988522E-01 -0.70495142414E-02  0.19285651985E-01  0.10203206616E+01  0.10200474752E+01 0.  0.
     999903    2    3    3    0    0  0.46574260127E-01  0.11867554341E+00  0.12340529768E-01  0.12945292681E+00  0.18780981716E-01 0.  0.
         14    1    1    2    0    0  0.11651988522E-01  0.70495142414E-02 -0.19285651985E-01  0.23609338407E-01  0.00000000000E+00 0.  1.
     999901    1    3    3    0    0 -0.58226248649E-01 -0.12572505765E+00  0.69451222164E-02  0.89086773478E+00  0.88000000000E+00 0. -1.
        -11    1    4    4    0    0  0.31001751939E-01  0.64332715633E-01  0.14531199737E-01  0.72878143575E-01  0.51100000000E-03 0.  1.
         11    1    4    4    0    0  0.15572508188E-01  0.54342827779E-01 -0.21906699687E-02  0.56574783236E-01  0.51100000000E-03 0. -1.
</event>
<event>
 8    1  0.1233916E+005  0.1043930E+01  0.7957747E-01            NaN
         13   -1    0    0    0    0  0.00000000000E+00  0.00000000000E+00  0.74505805969E-08  0.10566000000E+00  0.10566000000E+00 0. -1.
     999900   -1    0    0    0    0 -0.00000000000E+00 -0.00000000000E+00 -0.74505805969E-08  0.93827000000E+00  0.93827000000E+00 0. -1.
     999902    2    1    2    0    0  0.15552614041E-02  0.18935203406E-01 -0.13754415736E-01  0.10204748360E+01  0.10202052471E+01 0.  0.
     999903    2    3    3    0    0  0.30429332011E-01 -0.43355905687E-01  0.11564499519E+00  0.12836604119E+00  0.17274166124E-01 0.  0.
         14    1    1    2    0    0 -0.15552614041E-02 -0.18935203406E-01  0.13754415736E-01  0.23455164001E-01  0.00000000000E+00 0. -1.
     999901    1    3    3    0    0 -0.28874070607E-01  0.62291109093E-01 -0.12939941092E+00  0.89210879481E+00  0.88000000000E+00 0. -1.
        -11    1    4    4    0    0  0.40234751141E-02 -0.70112171779E-02  0.66682108850E-02  0.10491504931E-01  0.51100000000E-03 0.  1.
         11    1    4    4    0    0  0.26405856897E-01 -0.36344688509E-01  0.10897678430E+00  0.11787453626E+00  0.51100000000E-03 0. -1.
</event>
<event>
 8    1  0.1233916E+005  0.1043930E+01  0.7957747E-01            NaN
         13   -1    0    0    0    0  0.00000000000E+00  0.00000000000E+00  0.74505805969E-08  0.10566000000E+00  0.10566000000E+00 0. -1.
     999900   -1    0    0    0    0 -0.00000000000E+00 -0.00000000000E+00 -0.74505805969E-08  0.93827000000E+00  0.93827000000E+00 0.  1.
     999902    2    1    2    0    0  0.21551428724E-01 -0.12420160574E-01 -0.40302191425E-02  0.10187314458E+01  0.10184197521E+01 0.  0.
     999903    2    3    3    0    0  0.44845863753E-02  0.64337407289E-01  0.10884359204E+00  0.12804435224E+00  0.19723466243E-01 0.  0.
         14    1    1    2    0    0 -0.21551428724E-01  0.12420160574E-01  0.40302191425E-02  0.25198554225E-01  0.00000000000E+00 0.  1.
     999901    1    3    3    0    0  0.17066842348E-01 -0.76757567863E-01 -0.11287381119E+00  0.89068709353E+00  0.88000000000E+00 0. -1.
        -11    1    4    4    0    0  0.10628249759E-01  0.46828164475E-01  0.68737497840E-01  0.83850709069E-01  0.51100000000E-03 0.  1.
         11    1    4    4    0    0 -0.61436633841E-02  0.17509242814E-01  0.40106094204E-01  0.44193643174E-01  0.51100000000E-03 0. -1.
</event>
<event>
 8    1  0.1233916E+005  0.1043930E+01  0.7957747E-01            NaN
         13   -1    0    0    0    0  0.00000000000E+00  0.00000000000E+00  0.74505805969E-08  0.10566000000E+00  0.10566000000E+00 0. -1.
     999900   -1    0    0    0    0 -0.00000000000E+00 -0.00000000000E+00 -0.74505805969E-08  0.93827000000E+00  0.93827000000E+00 0.  1.
     999902    2    1    2    0    0 -0.20964235077E-01 -0.27813037322E-02 -0.10366352789E-01  0.10203780134E+01  0.10201061681E+01 0.  0.
     999903    2    3    3    0    0  0.80422063533E-01 -0.66775279315E-01 -0.74461297998E-01  0.12993847448E+00  0.20319350903E-01 0.  0.
         14    1    1    2    0    0  0.20964235077E-01  0.27813037322E-02  0.10366352789E-01  0.23551986604E-01  0.00000000000E+00 0. -1.
     999901    1    3    3    0    0 -0.10138629861E+00  0.63993975583E-01  0.64094945210E-01  0.89043953891E+00  0.88000000000E+00 0. -1.
        -11    1    4    4    0    0  0.67942759562E-01 -0.45379642847E-01 -0.56489010730E-01  0.99331767406E-01  0.51100000000E-03 0.  1.
         11    1    4    4    0    0  0.12479303971E-01 -0.21395636469E-01 -0.17972287268E-01  0.30606707078E-01  0.51100000000E-03 0. -1.
</event>
<event>
 8    1  0.1233916E+005  0.1043930E+01  0.7957747E-01            NaN
         13   -1    0    0    0    0  0.00000000000E+00  0.00000000000E+00  0.74505805969E-08  0.10566000000E+00  0.10566000000E+00 0.  1.
     999900   -1    0    0    0    0 -0.00000000000E+00 -0.00000000000E+00 -0.74505805969E-08  0.93827000000E+00  0.93827000000E+00 0.  1.
     999902    2    1    2    0    0 -0.17694765878E-01  0.87000967097E-02 -0.15709861197E-01  0.10187189675E+01  0.10184069612E+01 0.  0.
     999903    2    3    3    0    0 -0.10692411497E+00  0.71485953746E-01 -0.21305619279E-01  0.13196350338E+00  0.20431076051E-01 0.  0.
         14    1    1    2    0    0  0.17694765878E-01 -0.87000967097E-02  0.15709861197E-01  0.25211032527E-01  0.00000000000E+00 0.  1.
     999901    1    3    3    0    0  0.89229349087E-01 -0.62785857037E-01  0.55957580816E-02  0.88675546409E+00  0.88000000000E+00 0.  1.
        -11    1    4    4    0    0 -0.32054997893E-01  0.16586524851E-01  0.22965362828E-02  0.36168645212E-01  0.51100000000E-03 0. -1.
         11    1    4    4    0    0 -0.74869117072E-01  0.54899428896E-01 -0.23602155562E-01  0.95794858173E-01  0.51100000000E-03 0.  1.
</event>
<event>
 8    1  0.1233916E+005  0.1043930E+01  0.7957747E-01            NaN
         13   -1    0    0    0    0  0.00000000000E+00  0.00000000000E+00  0.74505805969E-08  0.10566000000E+00  0.10566000000E+00 0.  1.
     999900   -1    0    0    0    0 -0.00000000000E+00 -0.00000000000E+00 -0.74505805969E-08  0.93827000000E+00  0.93827000000E+00 0. -1.
     999902    2    1    2    0    0 -0.12841229224E-01 -0.24317220894E-02 -0.19009405092E-01  0.10208612349E+01  0.10206005551E+01 0.  0.
     999903    2    3    3    0    0  0.53989817125E-01  0.10140816082E+00 -0.59722604674E-01  0.13130703497E+00  0.21822751639E-01 0.  0.
         14    1    1    2    0    0  0.12841229224E-01  0.24317220894E-02  0.19009405092E-01  0.23068765079E-01  0.00000000000E+00 0.  1.
     999901    1    3    3    0    0 -0.66831046349E-01 -0.10383988291E+00  0.40713199582E-01  0.88955419996E+00  0.88000000000E+00 0.  1.
        -11    1    4    4    0    0  0.31241911283E-01  0.42409021461E-01 -0.18539828924E-01  0.55844144719E-01  0.51100000000E-03 0.  1.
         11    1    4    4    0    0  0.22747905842E-01  0.58999139356E-01 -0.41182775750E-01  0.75462890247E-01  0.51100000000E-03 0. -1.
</event>
<event>
 8    1  0.1233916E+005  0.1043930E+01  0.7957747E-01            NaN
         13   -1    0    0    0    0  0.00000000000E+00  0.00000000000E+00  0.74505805969E-08  0.10566000000E+00  0.10566000000E+00 0. -1.
     999900   -1    0    0    0    0 -0.00000000000E+00 -0.00000000000E+00 -0.74505805969E-08  0.93827000000E+00  0.93827000000E+00 0. -1.
     999902    2    1    2    0    0 -0.20108377562E-01 -0.20445901283E-04 -0.13946788546E-01  0.10194583802E+01  0.10191646230E+01 0.  0.
     999903    2    3    3    0    0  0.14615425833E-01 -0.98670512536E-01  0.78569917307E-01  0.12844944698E+00  0.19404839786E-01 0.  0.
         14    1    1    2    0    0  0.20108377562E-01  0.20445901283E-04  0.13946788546E-01  0.24471619827E-01  0.00000000000E+00 0. -1.
     999901    1    3    3    0    0 -0.34723803396E-01  0.98650066635E-01 -0.92516705853E-01  0.89100893319E+00  0.88000000000E+00 0. -1.
        -11    1    4    4    0    0  0.32426901885E-02 -0.77542760579E-01  0.60563699945E-01  0.98446013784E-01  0.51100000000E-03 0.  1.
         11    1    4    4    0    0  0.11372735645E-01 -0.21127751957E-01  0.18006217362E-01  0.30003433195E-01  0.51100000000E-03 0. -1.
</event>
<event>
 8    1  0.1233916E+005  0.1043930E+01  0.7957747E-01            NaN
         13   -1    0    0    0    0  0.00000000000E+00  0.00000000000E+00  0.74505805969E-08  0.10566000000E+00  0.10566000000E+00 0. -1.
     999900   -1    0    0    0    0 -0.00000000000E+00 -0.00000000000E+00 -0.74505805969E-08  0.93827000000E+00  0.93827000000E+00 0.  1.
     999902    2    1    2    0    0  0.16462842559E-01  0.16098802771E-01 -0.41211772102E-02  0.10205381053E+01  0.10202699857E+01 0.  0.
     999903    2    3    3    0    0  0.55961074567E-01  0.47333642850E-01 -0.10891195187E+00  0.13289131067E+00  0.20643923555E-01 0.  0.
         14    1    1    2    0    0 -0.16462842559E-01 -0.16098802771E-01  0.41211772102E-02  0.23391894694E-01  0.00000000000E+00 0. -1.
     999901    1    3    3    0    0 -0.39498232009E-01 -0.31234840079E-01  0.10479077466E+00  0.88764679463E+00  0.88000000000E+00 0. -1.
        -11    1    4    4    0    0  0.31705245201E-01  0.33748563189E-01 -0.82127251929E-01  0.94283268510E-01  0.51100000000E-03 0. -1.
         11    1    4    4    0    0  0.24255829366E-01  0.13585079661E-01 -0.26784699944E-01  0.38608042164E-01  0.51100000000E-03 0.  1.
</event>
<event>
 8    1  0.1233916E+005  0.1043930E+01  0.7957747E-01            NaN
         13   -1    0    0    0    0  0.00000000000E+00  0.00000000000E+00  0.74505805969E-08  0.10566000000E+00  0.10566000000E+00 0.  1.
     999900   -1    0    0    0    0 -0.00000000000E+00 -0.00000000000E+00 -0.74505805969E-08  0.93827000000E+00  0.93827000000E+00 0. -1.
     999902    2    1    2    0    0  0.23863133683E-01  0.17419946424E-01  0.66241876239E-03  0.10143776315E+01  0.10139470582E+01 0.  0.
     999903    2    3    3    0    0 -0.89597239071E-01 -0.82332928378E-02  0.81605770656E-01  0.12303977692E+00  0.19591644669E-01 0.  0.
         14    1    1    2    0    0 -0.23863133683E-01 -0.17419946424E-01 -0.66241876239E-03  0.29552368453E-01  0.00000000000E+00 0. -1.
     999901    1    3    3    0    0  0.11346037275E+00  0.25653239262E-01 -0.80943351893E-01  0.89133785462E+00  0.88000000000E+00 0. -1.
        -11    1    4    4    0    0 -0.22352860138E-01  0.61599829043E-02  0.23382941874E-01  0.32933551849E-01  0.51100000000E-03 0.  1.
         11    1    4    4    0    0 -0.67244378933E-01 -0.14393275742E-01  0.58222828782E-01  0.90106225073E-01  0.51100000000E-03 0. -1.
</event>
<event>
 8    1  0.1233916E+005  0.1043930E+01  0.7957747E-01            NaN
         13   -1    0    0    0    0  0.00000000000E+00  0.00000000000E+00  0.74505805969E-08  0.10566000000E+00  0.10566000000E+00 0. -1.
     999900   -1    0    0    0    0 -0.00000000000E+00 -0.00000000000E+00 -0.74505805969E-08  0.93827000000E+00  0.93827000000E+00 0. -1.
     999902    2    1    2    0    0 -0.10285934278E-01 -0.17204960766E-01 -0.95430728176E-02  0.10217290685E+01  0.10214878404E+01 0.  0.
     999903    2    3    3    0    0 -0.74477250098E-02  0.10675117077E+00  0.70186714313E-01  0.12946788652E+00  0.19608103041E-01 0.  0.
         14    1    1    2    0    0  0.10285934278E-01  0.17204960766E-01  0.95430728176E-02  0.22200931461E-01  0.00000000000E+00 0.  1.
     999901    1    3    3    0    0 -0.28382092679E-02 -0.12395613154E+00 -0.79729787131E-01  0.89226118202E+00  0.88000000000E+00 0.  1.
        -11    1    4    4    0    0  0.17076875725E-02  0.59506549875E-01  0.48000472413E-01  0.76473865783E-01  0.51100000000E-03 0.  1.
         11    1    4    4    0    0 -0.91554125823E-02  0.47244620900E-01  0.22186241901E-01  0.52994020740E-01  0.51100000000E-03 0. -1.
</event>
<event>
 8    1  0.1233916E+005  0.1043930E+01  0.7957747E-01            NaN
         13   -1    0    0    0    0  0.00000000000E+00  0.00000000000E+00  0.74505805969E-08  0.10566000000E+00  0.10566000000E+00 0. -1.
     999900   -1    0    0    0    0 -0.00000000000E+00 -0.00000000000E+00 -0.74505805969E-08  0.93827000000E+00  0.93827000000E+00 0.  1.
     999902    2    1    2    0    0 -0.83172570495E-02  0.76350813783E-02  0.13442192352E-01  0.10263754061E+01  0.10262252728E+01 0.  0.
     999903    2    3    3    0    0 -0.80969435114E-01 -0.44039566980E-01  0.10052085935E+00  0.13759461055E+00  0.18229119719E-01 0.  0.
         14    1    1    2    0    0  0.83172570495E-02 -0.76350813783E-02 -0.13442192352E-01  0.17554593920E-01  0.00000000000E+00 0.  1.
     999901    1    3    3    0    0  0.72652178064E-01  0.51674648358E-01 -0.87078666994E-01  0.88878079553E+00  0.88000000000E+00 0.  1.
        -11    1    4    4    0    0 -0.13825635489E-01 -0.97293989749E-02  0.95049648753E-02  0.19401414365E-01  0.51100000000E-03 0.  1.
         11    1    4    4    0    0 -0.67143799625E-01 -0.34310168005E-01  0.91015894471E-01  0.11819319618E+00  0.51100000000E-03 0. -1.
</event>
<event>
 8    1  0.1233916E+005  0.1043930E+01  0.7957747E-01            NaN
         13   -1    0    0    0    0  0.00000000000E+00  0.00000000000E+00  0.74505805969E-08  0.10566000000E+00  0.10566000000E+00 0.  1.
     999900   -1    0    0    0    0 -0.00000000000E+00 -0.00000000000E+00 -0.74505805969E-08  0.93827000000E+00  0.93827000000E+00 0. -1.
     999902    2    1    2    0    0  0.47975486113E-02  0.21538853262E-01  0.77423087515E-02  0.10205444913E+01  0.10202765197E+01 0.  0.
     999903    2    3    3    0    0  0.10678642398E+00  0.59741329412E-01  0.47921787670E-01  0.13292095037E+00  0.19977850913E-01 0.  0.
         14    1    1    2    0    0 -0.47975486113E-02 -0.21538853262E-01 -0.77423087515E-02  0.23385508704E-01  0.00000000000E+00 0. -1.
     999901    1    3    3    0    0 -0.10198887537E+00 -0.38202476150E-01 -0.40179478919E-01  0.88762354093E+00  0.88000000000E+00 0. -1.
        -11    1    4    4    0    0  0.36049876280E-01  0.31260895122E-01  0.19098816193E-01  0.51399056845E-01  0.51100000000E-03 0.  1.
         11    1    4    4    0    0  0.70736547700E-01  0.28480434290E-01  0.28822971477E-01  0.81521893523E-01  0.51100000000E-03 0. -1.
</event>
<event>
 8    1  0.1233916E+005  0.1043930E+01  0.7957747E-01            NaN
         13   -1    0    0    0    0  0.00000000000E+00  0.00000000000E+00  0.74505805969E-08  0.10566000000E+00  0.10566000000E+00 0.  1.
     999900   -1    0    0    0    0 -0.00000000000E+00 -0.00000000000E+00 -0.74505805969E-08  0.93827000000E+00  0.93827000000E+00 0.  1.
     999902    2    1    2    0    0 -0.12164368661E-01  0.69721404480E-02  0.18241350858E-01  0.10209228383E+01  0.10206635647E+01 0.  0.
     999903    2    3    3    0    0  0.12239673736E+00  0.17970043290E-01  0.32869732321E-01  0.13050628711E+00  0.25447748474E-01 0.  0.
         14    1    1    2    0    0  0.12164368661E-01 -0.69721404480E-02 -0.18241350858E-01  0.23007161678E-01  0.00000000000E+00 0. -1.
     999901    1    3    3    0    0 -0.13456110602E+00 -0.10997902842E-01 -0.14628381462E-01  0.89041655121E+00  0.88000000000E+00 0.  1.
        -11    1    4    4    0    0  0.19040845726E-01  0.12291570336E-01  0.80802629645E-02  0.24066330793E-01  0.51100000000E-03 0.  1.
         11    1    4    4    0    0  0.10335589163E+00  0.56784729541E-02  0.24789469356E-01  0.10643995632E+00  0.51100000000E-03 0. -1.
</event>
