<event>
 8    1  0.9952977E+004  0.1043930E+01  0.7957747E-01            NaN
         13   -1    0    0    0    0  0.00000000000E+00  0.00000000000E+00  0.74505805969E-08  0.10566000000E+00  0.10566000000E+00 0. -1.
     999900   -1    0    0    0    0 -0.00000000000E+00 -0.00000000000E+00 -0.74505805969E-08  0.93827000000E+00  0.93827000000E+00 0.  1.
     999902    2    1    2    0    0 -0.72555923141E-02 -0.11882460429E-01  0.18133245874E-01  0.10210684364E+01  0.10208124709E+01 0.  0.
     999903    2    3    3    0    0 -0.10783230572E+00  0.55572793131E-02 -0.71412486485E-01  0.13065378129E+00  0.17662894103E-01 0.  0.
         14    1    1    2    0    0  0.72555923141E-02  0.11882460429E-01 -0.18133245874E-01  0.22861563630E-01  0.00000000000E+00 0. -1.
     999901    1    3    3    0    0  0.10057671341E+00 -0.17439739742E-01  0.89545732359E-01  0.89041465508E+00  0.88000000000E+00 0. -1.
        -11    1    4    4    0    0 -0.81505313402E-01  0.10375970620E-01 -0.48453258386E-01  0.95387400889E-01  0.51100000000E-03 0.  1.
         11    1    4    4    0    0 -0.26326992320E-01 -0.48186913073E-02 -0.22959228099E-01  0.35266380399E-01  0.51100000000E-03 0. -1.
</event>
<event>
 8    1  0.9952977E+004  0.1043930E+01  0.7957747E-01            NaN
         13   -1    0    0    0    0  0.00000000000E+00  0.00000000000E+00  0.74505805969E-08  0.10566000000E+00  0.10566000000E+00 0.  1.
     999900   -1    0    0    0    0 -0.00000000000E+00 -0.00000000000E+00 -0.74505805969E-08  0.93827000000E+00  0.93827000000E+00 0.  1.
     999902    2    1    2    0    0 -0.74092639478E-02  0.18173397267E-01  0.30701202181E-01  0.10074919241E+01  0.10068327784E+01 0.  0.
     999903    2    3    3    0    0  0.10435944245E-01  0.99696580657E-01 -0.60674804107E-01  0.11883335332E+00  0.19789312275E-01 0.  0.
         14    1    1    2    0    0  0.74092639478E-02 -0.18173397267E-01 -0.30701202181E-01  0.36438075908E-01  0.00000000000E+00 0. -1.
     999901    1    3    3    0    0 -0.17845208193E-01 -0.81523183390E-01  0.91376006289E-01  0.88865857077E+00  0.88000000000E+00 0. -1.
        -11    1    4    4    0    0 -0.22141739596E-02  0.61739134932E-01 -0.41790789006E-01  0.74587897915E-01  0.51100000000E-03 0. -1.
         11    1    4    4    0    0  0.12650118204E-01  0.37957445725E-01 -0.18884015101E-01  0.44245455403E-01  0.51100000000E-03 0.  1.
</event>
<event>
 8    1  0.9952977E+004  0.1043930E+01  0.7957747E-01            NaN
         13   -1    0    0    0    0  0.00000000000E+00  0.00000000000E+00  0.74505805969E-08  0.10566000000E+00  0.10566000000E+00 0.  1.
     999900   -1    0    0    0    0 -0.00000000000E+00 -0.00000000000E+00 -0.74505805969E-08  0.93827000000E+00  0.93827000000E+00 0. -1.
     999902    2    1    2    0    0  0.15183085445E-01 -0.15527237031E-01  0.96253803688E-02  0.10201756505E+01  0.10198990581E+01 0.  0.
     999903    2    3    3    0    0 -0.22555404347E-01  0.69233366069E-01  0.10585112602E+00  0.13008130292E+00  0.20363674669E-01 0.  0.
         14    1    1    2    0    0 -0.15183085445E-01  0.15527237031E-01 -0.96253803688E-02  0.23754349511E-01  0.00000000000E+00 0.  1.
     999901    1    3    3    0    0  0.37738489793E-01 -0.84760603100E-01 -0.96225745655E-01  0.89009434757E+00  0.88000000000E+00 0. -1.
        -11    1    4    4    0    0 -0.65381626335E-02  0.48614118709E-01  0.75564775907E-01  0.90090935101E-01  0.51100000000E-03 0.  1.
         11    1    4    4    0    0 -0.16017241714E-01  0.20619247359E-01  0.30286350117E-01  0.39990367817E-01  0.51100000000E-03 0. -1.
</event>
<event>
 8    1  0.9952977E+004  0.1043930E+01  0.7957747E-01            NaN
         13   -1    0    0    0    0  0.00000000000E+00  0.00000000000E+00  0.74505805969E-08  0.10566000000E+00  0.10566000000E+00 0.  1.
     999900   -1    0    0    0    0 -0.00000000000E+00 -0.00000000000E+00 -0.74505805969E-08  0.93827000000E+00  0.93827000000E+00 0. -1.
     999902    2    1    2    0    0  0.29366170915E-02 -0.95055472448E-02  0.21594587110E-01  0.10201538493E+01  0.10198767430E+01 0.  0.
     999903    2    3    3    0    0  0.93895541273E-01 -0.88122355189E-01  0.20246911298E-01  0.13197822221E+00  0.20649250952E-01 0.  0.
         14    1    1    2    0    0 -0.29366170915E-02  0.95055472448E-02 -0.21594587110E-01  0.23776150673E-01  0.00000000000E+00 0. -1.
     999901    1    3    3    0    0 -0.90958924182E-01  0.78616807944E-01  0.13476758118E-02  0.88817562712E+00  0.88000000000E+00 0. -1.
        -11    1    4    4    0    0  0.28001698382E-01 -0.20250194155E-01  0.13621327591E-01  0.37147909254E-01  0.51100000000E-03 0.  1.
         11    1    4    4    0    0  0.65893842891E-01 -0.67872161034E-01  0.66255837066E-02  0.94830312954E-01  0.51100000000E-03 0. -1.
</event>
<event>
 8    1  0.9952977E+004  0.1043930E+01  0.7957747E-01            NaN
         13   -1    0    0    0    0  0.00000000000E+00  0.00000000000E+00  0.74505805969E-08  0.10566000000E+00  0.10566000000E+00 0. -1.
     999900   -1    0    0    0    0 -0.00000000000E+00 -0.00000000000E+00 -0.74505805969E-08  0.93827000000E+00  0.93827000000E+00 0.  1.
     999902    2    1    2    0    0  0.73085917999E-02  0.16057944784E-02  0.28787852568E-01  0.10141855124E+01  0.10137492387E+01 0.  0.
     999903    2    3    3    0    0  0.44750767926E-01  0.34535924694E-01  0.11370484904E+00  0.12869287753E+00  0.20921345734E-01 0.  0.
         14    1    1    2    0    0 -0.73085917999E-02 -0.16057944784E-02 -0.28787852568E-01  0.29744487649E-01  0.00000000000E+00 0.  1.
     999901    1    3    3    0    0 -0.37442176126E-01 -0.32930130215E-01 -0.84916996475E-01  0.88549263482E+00  0.88000000000E+00 0.  1.
        -11    1    4    4    0    0  0.78113421582E-02  0.17491143951E-01  0.43833085305E-01  0.47838871970E-01  0.51100000000E-03 0. -1.
         11    1    4    4    0    0  0.36939425767E-01  0.17044780743E-01  0.69871763737E-01  0.80854005562E-01  0.51100000000E-03 0.  1.
</event>
<event>
 8    1  0.9952977E+004  0.1043930E+01  0.7957747E-01            NaN
         13   -1    0    0    0    0  0.00000000000E+00  0.00000000000E+00  0.74505805969E-08  0.10566000000E+00  0.10566000000E+00 0. -1.
     999900   -1    0    0    0    0 -0.00000000000E+00 -0.00000000000E+00 -0.74505805969E-08  0.93827000000E+00  0.93827000000E+00 0. -1.
     999902    2    1    2    0    0  0.11265807641E-01  0.76761041597E-02  0.22295782985E-01  0.10177968231E+01  0.10174612671E+01 0.  0.
     999903    2    3    3    0    0 -0.11062179949E+00 -0.53067037537E-01  0.27483687822E-01  0.12730637822E+00  0.19956649107E-01 0.  0.
         14    1    1    2    0    0 -0.11265807641E-01 -0.76761041597E-02 -0.22295782985E-01  0.26133176917E-01  0.00000000000E+00 0.  1.
     999901    1    3    3    0    0  0.12188760713E+00  0.60743141696E-01 -0.51879048374E-02  0.89049044486E+00  0.88000000000E+00 0.  1.
        -11    1    4    4    0    0 -0.52649948991E-01 -0.31733962834E-01  0.21978956305E-01  0.65287036747E-01  0.51100000000E-03 0.  1.
         11    1    4    4    0    0 -0.57971850500E-01 -0.21333074703E-01  0.55047315170E-02  0.62019341473E-01  0.51100000000E-03 0. -1.
</event>
<event>
 8    1  0.9952977E+004  0.1043930E+01  0.7957747E-01            NaN
         13   -1    0    0    0    0  0.00000000000E+00  0.00000000000E+00  0.74505805969E-08  0.10566000000E+00  0.10566000000E+00 0. -1.
     999900   -1    0    0    0    0 -0.00000000000E+00 -0.00000000000E+00 -0.74505805969E-08  0.93827000000E+00  0.93827000000E+00 0. -1.
     999902    2    1    2    0    0 -0.16194723874E-01 -0.66889915015E-02 -0.13420159204E-01  0.10218593779E+01  0.10216210040E+01 0.  0.
     999903    2    3    3    0    0 -0.57067292055E-01 -0.10007126132E+00  0.62687887909E-01  0.13271189291E+00  0.20291428384E-01 0.  0.
         14    1    1    2    0    0  0.16194723874E-01  0.66889915015E-02  0.13420159204E-01  0.22070622141E-01  0.00000000000E+00 0. -1.
     999901    1    3    3    0    0  0.40872568181E-01  0.93382269819E-01 -0.76108047113E-01  0.88914748494E+00  0.88000000000E+00 0. -1.
        -11    1    4    4    0    0 -0.65654959856E-02 -0.67059565087E-02  0.11536671066E-01  0.14880574267E-01  0.51100000000E-03 0. -1.
         11    1    4    4    0    0 -0.50501796069E-01 -0.93365304811E-01  0.51151216843E-01  0.11783131865E+00  0.51100000000E-03 0.  1.
</event>
<event>
 8    1  0.9952977E+004  0.1043930E+01  0.7957747E-01            NaN
         13   -1    0    0    0    0  0.00000000000E+00  0.00000000000E+00  0.74505805969E-08  0.10566000000E+00  0.10566000000E+00 0.  1.
     999900   -1    0    0    0    0 -0.00000000000E+00 -0.00000000000E+00 -0.74505805969E-08  0.93827000000E+00  0.93827000000E+00 0. -1.
     999902    2    1    2    0    0 -0.20880086070E-01  0.83656287628E-02  0.63269694224E-02  0.10205635223E+01  0.10202959917E+01 0.  0.
     999903    2    3    3    0    0 -0.57988527875E-02 -0.41312999886E-02  0.12999561046E+00  0.13170045656E+00  0.19886105360E-01 0.  0.
         14    1    1    2    0    0  0.20880086070E-01 -0.83656287628E-02 -0.63269694224E-02  0.23366477718E-01  0.00000000000E+00 0. -1.
     999901    1    3    3    0    0 -0.15081233282E-01  0.12496928751E-01 -0.12366864104E+00  0.88886306572E+00  0.88000000000E+00 0. -1.
        -11    1    4    4    0    0  0.43919846415E-02  0.65302903905E-03  0.90983165850E-01  0.91092884272E-01  0.51100000000E-03 0. -1.
         11    1    4    4    0    0 -0.10190837429E-01 -0.47843290277E-02  0.39012444611E-01  0.40607572289E-01  0.51100000000E-03 0.  1.
</event>
<event>
 8    1  0.9952977E+004  0.1043930E+01  0.7957747E-01            NaN
         13   -1    0    0    0    0  0.00000000000E+00  0.00000000000E+00  0.74505805969E-08  0.10566000000E+00  0.10566000000E+00 0.  1.
     999900   -1    0    0    0    0 -0.00000000000E+00 -0.00000000000E+00 -0.74505805969E-08  0.93827000000E+00  0.93827000000E+00 0. -1.
     999902    2    1    2    0    0  0.20459825875E-02 -0.75047671697E-02 -0.23050929417E-01  0.10196019725E+01  0.10193116939E+01 0.  0.
     999903    2    3    3    0    0  0.15750274300E-01 -0.46996659125E-01 -0.12213354017E+00  0.13305542499E+00  0.18176561168E-01 0.  0.
         14    1    1    2    0    0 -0.20459825875E-02  0.75047671697E-02  0.23050929417E-01  0.24328027499E-01  0.00000000000E+00 0.  1.
     999901    1    3    3    0    0 -0.13704291713E-01  0.39491891955E-01  0.99082610756E-01  0.88654654751E+00  0.88000000000E+00 0.  1.
        -11    1    4    4    0    0 -0.19391662497E-02 -0.21282471374E-01 -0.55432763337E-01  0.59411752420E-01  0.51100000000E-03 0.  1.
         11    1    4    4    0    0  0.17689440550E-01 -0.25714187751E-01 -0.66700776836E-01  0.73643672574E-01  0.51100000000E-03 0. -1.
</event>
<event>
 8    1  0.9952977E+004  0.1043930E+01  0.7957747E-01            NaN
         13   -1    0    0    0    0  0.00000000000E+00  0.00000000000E+00  0.74505805969E-08  0.10566000000E+00  0.10566000000E+00 0.  1.
     999900   -1    0    0    0    0 -0.00000000000E+00 -0.00000000000E+00 -0.74505805969E-08  0.93827000000E+00  0.93827000000E+00 0. -1.
     999902    2    1    2    0    0  0.98634867668E-04 -0.23699939833E-01 -0.30242876256E-02  0.10200376750E+01  0.10197578219E+01 0.  0.
     999903    2    3    3    0    0 -0.38571610933E-01 -0.72037015832E-01 -0.10192698872E+00  0.13233637104E+00  0.21135355448E-01 0.  0.
         14    1    1    2    0    0 -0.98634867668E-04  0.23699939833E-01  0.30242876256E-02  0.23892324972E-01  0.00000000000E+00 0. -1.
     999901    1    3    3    0    0  0.38670245801E-01  0.48337075998E-01  0.98902701092E-01  0.88770130399E+00  0.88000000000E+00 0.  1.
        -11    1    4    4    0    0 -0.25141737446E-01 -0.38750173171E-01 -0.72271779251E-01  0.85773854289E-01  0.51100000000E-03 0. -1.
         11    1    4    4    0    0 -0.13429873487E-01 -0.33286842661E-01 -0.29655209467E-01  0.46562516746E-01  0.51100000000E-03 0.  1.
</event>
<event>
 8    1  0.9952977E+004  0.1043930E+01  0.7957747E-01            NaN
         13   -1    0    0    0    0  0.00000000000E+00  0.00000000000E+00  0.74505805969E-08  0.10566000000E+00  0.10566000000E+00 0. -1.
     999900   -1    0    0    0    0 -0.00000000000E+00 -0.00000000000E+00 -0.74505805969E-08  0.93827000000E+00  0.93827000000E+00 0.  1.
     999902    2    1    2    0    0 -0.81631172842E-02  0.18880963714E-01 -0.11884290098E-01  0.10201736614E+01  0.10198970221E+01 0.  0.
     999903    2    3    3    0    0 -0.12990530344E+00 -0.25441162620E-02  0.61585160380E-02  0.13135099243E+00  0.18256382526E-01 0.  0.
         14    1    1    2    0    0  0.81631172842E-02 -0.18880963714E-01  0.11884290098E-01  0.23756338642E-01  0.00000000000E+00 0. -1.
     999901    1    3    3    0    0  0.12174218616E+00  0.21425079976E-01 -0.18042806136E-01  0.88882266893E+00  0.88000000000E+00 0. -1.
        -11    1    4    4    0    0 -0.11289647862E+00 -0.25250086970E-02  0.11514729283E-01  0.11351141204E+00  0.51100000000E-03 0. -1.
         11    1    4    4    0    0 -0.17008824828E-01 -0.19107565024E-04 -0.53562132447E-02  0.17839580389E-01  0.51100000000E-03 0.  1.
</event>
<event>
 7    1  0.9952977E+004  0.1043930E+01  0.7957747E-01            NaN
         13   -1    0    0    0    0  0.00000000000E+00  0.00000000000E+00  0.74505805969E-08  0.10566000000E+00  0.10566000000E+00 0.  1.
     999900   -1    0    0    0    0 -0.00000000000E+00 -0.00000000000E+00 -0.74505805969E-08  0.93827000000E+00  0.93827000000E+00 0. -1.
     999903    2    1    2    0    0  0.88193014497E-01 -0.43666751028E-01 -0.25025492664E-01  0.10355119387E+00  0.20292400505E-01 0.  0.
         14    1    1    2    0    0  0.57121155556E-02 -0.49798624474E-01  0.83236194551E-03  0.50132066485E-01  0.00000000000E+00 0. -1.
     999901    1    1    2    0    0 -0.93905130053E-01  0.93465375502E-01  0.24193130718E-01  0.89024673964E+00  0.88000000000E+00 0.  1.
        -11    1    3    3    0    0  0.17246153455E-01 -0.15864883741E-01 -0.11687317415E-01  0.26191198034E-01  0.51100000000E-03 0.  1.
         11    1    3    3    0    0  0.70946861042E-01 -0.27801867287E-01 -0.13338175249E-01  0.77359995840E-01  0.51100000000E-03 0. -1.
</event>
<event>
 8    1  0.9952977E+004  0.1043930E+01  0.7957747E-01            NaN
         13   -1    0    0    0    0  0.00000000000E+00  0.00000000000E+00  0.74505805969E-08  0.10566000000E+00  0.10566000000E+00 0. -1.
     999900   -1    0    0    0    0 -0.00000000000E+00 -0.00000000000E+00 -0.74505805969E-08  0.93827000000E+00  0.93827000000E+00 0.  1.
     999902    2    1    2    0    0  0.78316273504E-03 -0.21104582749E-01  0.93928201807E-02  0.10208163281E+01  0.10205546207E+01 0.  0.
     999903    2    3    3    0    0  0.10934496128E+00 -0.37638913170E-01 -0.58117538522E-01  0.13142513370E+00  0.22845330848E-01 0.  0.
         14    1    1    2    0    0 -0.78316273504E-03  0.21104582749E-01 -0.93928201807E-02  0.23113671881E-01  0.00000000000E+00 0.  1.
     999901    1    3    3    0    0 -0.10856179854E+00  0.16534330421E-01  0.67510358702E-01  0.88939119442E+00  0.88000000000E+00 0.  1.
        -11    1    4    4    0    0  0.80698097729E-01 -0.16808484725E-01 -0.39486283298E-01  0.91400961841E-01  0.51100000000E-03 0.  1.
         11    1    4    4    0    0  0.28646863549E-01 -0.20830428446E-01 -0.18631255224E-01  0.40024171855E-01  0.51100000000E-03 0. -1.
</event>
<event>
 8    1  0.9952977E+004  0.1043930E+01  0.7957747E-01            NaN
         13   -1    0    0    0    0  0.00000000000E+00  0.00000000000E+00  0.74505805969E-08  0.10566000000E+00  0.10566000000E+00 0.  1.
     999900   -1    0    0    0    0 -0.00000000000E+00 -0.00000000000E+00 -0.74505805969E-08  0.93827000000E+00  0.93827000000E+00 0.  1.
     999902    2    1    2    0    0 -0.11121393889E-01  0.94937171279E-02  0.17620937637E-01  0.10210321069E+01  0.10207753179E+01 0.  0.
     999903    2    3    3    0    0 -0.20124938179E-01  0.11653145159E+00 -0.54376732954E-01  0.13158182440E+00  0.19296504335E-01 0.  0.
         14    1    1    2    0    0  0.11121393889E-01 -0.94937171279E-02 -0.17620937637E-01  0.22897893137E-01  0.00000000000E+00 0. -1.
     999901    1    3    3    0    0  0.90035442900E-02 -0.10703773446E+00  0.71997670590E-01  0.88945028247E+00  0.88000000000E+00 0. -1.
        -11    1    4    4    0    0 -0.20814332842E-01  0.69077143165E-01 -0.28954401089E-01  0.77739993715E-01  0.51100000000E-03 0. -1.
         11    1    4    4    0    0  0.68939466277E-03  0.47454308421E-01 -0.25422331865E-01  0.53841830682E-01  0.51100000000E-03 0.  1.
</event>
<event>
 8    1  0.9952977E+004  0.1043930E+01  0.7957747E-01            NaN
         13   -1    0    0    0    0  0.00000000000E+00  0.00000000000E+00  0.74505805969E-08  0.10566000000E+00  0.10566000000E+00 0.  1.
     999900   -1    0    0    0    0 -0.00000000000E+00 -0.00000000000E+00 -0.74505805969E-08  0.93827000000E+00  0.93827000000E+00 0.  1.
     999902    2    1    2    0    0  0.18925300580E-01 -0.12202910815E-01  0.76507921145E-02  0.10201473876E+01  0.10198701288E+01 0.  0.
     999903    2    3    3    0    0  0.89344119037E-01 -0.94803750280E-01 -0.18779647354E-01  0.13308466328E+00  0.19716231204E-01 0.  0.
         14    1    1    2    0    0 -0.18925300580E-01  0.12202910815E-01 -0.76507921145E-02  0.23782612438E-01  0.00000000000E+00 0. -1.
     999901    1    3    3    0    0 -0.70418818456E-01  0.82600839465E-01  0.26430439469E-01  0.88706272428E+00  0.88000000000E+00 0.  1.
        -11    1    4    4    0    0  0.30791775258E-01 -0.26375319459E-01  0.22185880854E-02  0.40607562771E-01  0.51100000000E-03 0. -1.
         11    1    4    4    0    0  0.58552343779E-01 -0.68428430821E-01 -0.20998235440E-01  0.92477100513E-01  0.51100000000E-03 0.  1.
</event>
<event>
 7    1  0.9952977E+004  0.1043930E+01  0.7957747E-01            NaN
         13   -1    0    0    0    0  0.00000000000E+00  0.00000000000E+00  0.74505805969E-08  0.10566000000E+00  0.10566000000E+00 0.  1.
     999900   -1    0    0    0    0 -0.00000000000E+00 -0.00000000000E+00 -0.74505805969E-08  0.93827000000E+00  0.93827000000E+00 0. -1.
     999903    2    1    2    0    0 -0.77079991867E-01  0.22013450731E-01 -0.65157452711E-01  0.10524612917E+00  0.20132980468E-01 0.  0.
         14    1    1    2    0    0  0.32074912363E-01 -0.38461602349E-01  0.26198690751E-01  0.56519609477E-01  0.00000000000E+00 0.  1.
     999901    1    1    2    0    0  0.45005079504E-01  0.16448151617E-01  0.38958761960E-01  0.88216426135E+00  0.88000000000E+00 0.  1.
        -11    1    3    3    0    0 -0.23428175607E-01  0.14572357620E-01 -0.14930712083E-01  0.31375472956E-01  0.51100000000E-03 0.  1.
         11    1    3    3    0    0 -0.53651816260E-01  0.74410931113E-02 -0.50226740628E-01  0.73870656216E-01  0.51100000000E-03 0. -1.
</event>
<event>
 8    1  0.9952977E+004  0.1043930E+01  0.7957747E-01            NaN
         13   -1    0    0    0    0  0.00000000000E+00  0.00000000000E+00  0.74505805969E-08  0.10566000000E+00  0.10566000000E+00 0. -1.
     999900   -1    0    0    0    0 -0.00000000000E+00 -0.00000000000E+00 -0.74505805969E-08  0.93827000000E+00  0.93827000000E+00 0.  1.
     999902    2    1    2    0    0 -0.43256618218E-02 -0.22777064616E-01 -0.41651773368E-02  0.10203746455E+01  0.10201027215E+01 0.  0.
     999903    2    3    3    0    0  0.94877105659E-01 -0.45778495043E-01 -0.76211364327E-01  0.13157719506E+00  0.20175490578E-01 0.  0.
         14    1    1    2    0    0  0.43256618218E-02  0.22777064616E-01  0.41651773368E-02  0.23555354487E-01  0.00000000000E+00 0. -1.
     999901    1    3    3    0    0 -0.99202767480E-01  0.23001430427E-01  0.72046186990E-01  0.88879745046E+00  0.88000000000E+00 0.  1.
        -11    1    4    4    0    0  0.24672091017E-01 -0.18463979199E-01 -0.31024245479E-01  0.43730944782E-01  0.51100000000E-03 0. -1.
         11    1    4    4    0    0  0.70205014642E-01 -0.27314515844E-01 -0.45187118848E-01  0.87846250275E-01  0.51100000000E-03 0.  1.
</event>
<event>
 8    1  0.9952977E+004  0.1043930E+01  0.7957747E-01            NaN
         13   -1    0    0    0    0  0.00000000000E+00  0.00000000000E+00  0.74505805969E-08  0.10566000000E+00  0.10566000000E+00 0. -1.
     999900   -1    0    0    0    0 -0.00000000000E+00 -0.00000000000E+00 -0.74505805969E-08  0.93827000000E+00  0.93827000000E+00 0. -1.
     999902    2    1    2    0    0 -0.51283820090E-02 -0.23271199628E-01 -0.17372833515E-02  0.10200371729E+01  0.10197573078E+01 0.  0.
     999903    2    3    3    0    0  0.74871718243E-01  0.36425064959E-01 -0.98327756687E-01  0.12914246553E+00  0.87675035902E-02 0.  0.
         14    1    1    2    0    0  0.51283820090E-02  0.23271199628E-01  0.17372833515E-02  0.23892827116E-01  0.00000000000E+00 0.  1.
     999901    1    3    3    0    0 -0.80000100252E-01 -0.59696264586E-01  0.96590473335E-01  0.89089470735E+00  0.88000000000E+00 0.  1.
        -11    1    4    4    0    0  0.49233727195E-01  0.28389799163E-01 -0.65616708639E-01  0.86808721703E-01  0.51100000000E-03 0.  1.
         11    1    4    4    0    0  0.25637991047E-01  0.80352657956E-02 -0.32711048048E-01  0.42333743831E-01  0.51100000000E-03 0. -1.
</event>
<event>
 8    1  0.9952977E+004  0.1043930E+01  0.7957747E-01            NaN
         13   -1    0    0    0    0  0.00000000000E+00  0.00000000000E+00  0.74505805969E-08  0.10566000000E+00  0.10566000000E+00 0. -1.
     999900   -1    0    0    0    0 -0.00000000000E+00 -0.00000000000E+00 -0.74505805969E-08  0.93827000000E+00  0.93827000000E+00 0.  1.
     999902    2    1    2    0    0  0.61462029105E-02 -0.57644662525E-02  0.20155527035E-01  0.10220839443E+01  0.10218504484E+01 0.  0.
     999903    2    3    3    0    0  0.10377672496E+00  0.77395215262E-01 -0.16311378686E-01  0.13204063819E+00  0.20224763785E-01 0.  0.
         14    1    1    2    0    0 -0.61462029105E-02  0.57644662525E-02 -0.20155527035E-01  0.21846055741E-01  0.00000000000E+00 0.  1.
     999901    1    3    3    0    0 -0.97630522050E-01 -0.83159681514E-01  0.36466905721E-01  0.89004330607E+00  0.88000000000E+00 0.  1.
        -11    1    4    4    0    0  0.47727905521E-01  0.23344371742E-01 -0.52523867526E-02  0.53392521434E-01  0.51100000000E-03 0.  1.
         11    1    4    4    0    0  0.56048819439E-01  0.54050843520E-01 -0.11058991933E-01  0.78648116756E-01  0.51100000000E-03 0. -1.
</event>
<event>
 8    1  0.9952977E+004  0.1043930E+01  0.7957747E-01            NaN
         13   -1    0    0    0    0  0.00000000000E+00  0.00000000000E+00  0.74505805969E-08  0.10566000000E+00  0.10566000000E+00 0.  1.
     999900   -1    0    0    0    0 -0.00000000000E+00 -0.00000000000E+00 -0.74505805969E-08  0.93827000000E+00  0.93827000000E+00 0.  1.
     999902    2    1    2    0    0  0.20915263815E-02 -0.15006187101E-01  0.17790481906E-01  0.10205620437E+01  0.10202944789E+01 0.  0.
     999903    2    3    3    0    0 -0.49775254033E-01  0.56721081335E-01 -0.10170612742E+00  0.12808548740E+00  0.19154601217E-01 0.  0.
         14    1    1    2    0    0 -0.20915263815E-02  0.15006187101E-01 -0.17790481906E-01  0.23367956273E-01  0.00000000000E+00 0. -1.
     999901    1    3    3    0    0  0.51866780414E-01 -0.71727268436E-01  0.11949660932E+00  0.89247655632E+00  0.88000000000E+00 0. -1.
        -11    1    4    4    0    0 -0.17659835811E-01  0.31684036939E-01 -0.57432451973E-01  0.67930079186E-01  0.51100000000E-03 0. -1.
         11    1    4    4    0    0 -0.32115418221E-01  0.25037044396E-01 -0.44273675442E-01  0.60155408217E-01  0.51100000000E-03 0.  1.
</event>
<event>
 8    1  0.9952977E+004  0.1043930E+01  0.7957747E-01            NaN
         13   -1    0    0    0    0  0.00000000000E+00  0.00000000000E+00  0.74505805969E-08  0.10566000000E+00  0.10566000000E+00 0.  1.
     999900   -1    0    0    0    0 -0.00000000000E+00 -0.00000000000E+00 -0.74505805969E-08  0.93827000000E+00  0.93827000000E+00 0.  1.
     999902    2    1    2    0    0 -0.73545374440E-02  0.44279928060E-02  0.22477128160E-01  0.10198692928E+01  0.10195854338E+01 0.  0.
     999903    2    3    3    0    0 -0.77689424164E-01 -0.88901696680E-01 -0.48139212170E-01  0.12933906042E+00  0.21726723258E-01 0.  0.
         14    1    1    2    0    0  0.73545374440E-02 -0.44279928060E-02 -0.22477128160E-01  0.24060707213E-01  0.00000000000E+00 0. -1.
     999901    1    3    3    0    0  0.70334886720E-01  0.93329689486E-01  0.70616340330E-01  0.89053023236E+00  0.88000000000E+00 0. -1.
        -11    1    4    4    0    0 -0.37440429095E-01 -0.52763710730E-01 -0.16892437603E-01  0.66868606012E-01  0.51100000000E-03 0. -1.
         11    1    4    4    0    0 -0.40248995069E-01 -0.36137985950E-01 -0.31246774568E-01  0.62470454413E-01  0.51100000000E-03 0.  1.
</event>
<event>
 8    1  0.9952977E+004  0.1043930E+01  0.7957747E-01            NaN
         13   -1    0    0    0    0  0.00000000000E+00  0.00000000000E+00  0.74505805969E-08  0.10566000000E+00  0.10566000000E+00 0.  1.
     999900   -1    0    0    0    0 -0.00000000000E+00 -0.00000000000E+00 -0.74505805969E-08  0.93827000000E+00  0.93827000000E+00 0. -1.
     999902    2    1    2    0    0  0.12132370185E-01  0.19373500057E-01  0.52341394307E-02  0.10204795602E+01  0.10202100812E+01 0.  0.
     999903    2    3    3    0    0 -0.78278080849E-01  0.76098774798E-01  0.70886461850E-01  0.13160272178E+00  0.19388255215E-01 0.  0.
         14    1    1    2    0    0 -0.12132370185E-01 -0.19373500057E-01 -0.52341394307E-02  0.23450439790E-01  0.00000000000E+00 0.  1.
     999901    1    3    3    0    0  0.90410451034E-01 -0.56725274741E-01 -0.65652322420E-01  0.88887683843E+00  0.88000000000E+00 0.  1.
        -11    1    4    4    0    0 -0.59903764828E-01  0.50122572006E-01  0.57919422066E-01  0.97240186335E-01  0.51100000000E-03 0.  1.
         11    1    4    4    0    0 -0.18374316021E-01  0.25976202792E-01  0.12967039784E-01  0.34362535449E-01  0.51100000000E-03 0. -1.
</event>
<event>
 8    1  0.9952977E+004  0.1043930E+01  0.7957747E-01            NaN
         13   -1    0    0    0    0  0.00000000000E+00  0.00000000000E+00  0.74505805969E-08  0.10566000000E+00  0.10566000000E+00 0.  1.
     999900   -1    0    0    0    0 -0.00000000000E+00 -0.00000000000E+00 -0.74505805969E-08  0.93827000000E+00  0.93827000000E+00 0. -1.
     999902    2    1    2    0    0  0.32011744518E-02  0.17728603960E-01  0.13942841910E-01  0.10211494434E+01  0.10208953091E+01 0.  0.
     999903    2    3    3    0    0  0.23515611046E-01 -0.10055780935E+00 -0.74213749890E-01  0.12863841462E+00  0.19372765874E-01 0.  0.
         14    1    1    2    0    0 -0.32011744518E-02 -0.17728603960E-01 -0.13942841910E-01  0.22780556551E-01  0.00000000000E+00 0. -1.
     999901    1    3    3    0    0 -0.20314436594E-01  0.11828641331E+00  0.88156591800E-01  0.89251102883E+00  0.88000000000E+00 0.  1.
        -11    1    4    4    0    0  0.11928506449E-01 -0.74816755173E-01 -0.61906382696E-01  0.97839140737E-01  0.51100000000E-03 0. -1.
         11    1    4    4    0    0  0.11587104597E-01 -0.25741054181E-01 -0.12307367193E-01  0.30799273880E-01  0.51100000000E-03 0.  1.
</event>
<event>
 8    1  0.9952977E+004  0.1043930E+01  0.7957747E-01            NaN
         13   -1    0    0    0    0  0.00000000000E+00  0.00000000000E+00  0.74505805969E-08  0.10566000000E+00  0.10566000000E+00 0. -1.
     999900   -1    0    0    0    0 -0.00000000000E+00 -0.00000000000E+00 -0.74505805969E-08  0.93827000000E+00  0.93827000000E+00 0.  1.
     999902    2    1    2    0    0  0.75977657041E-02 -0.55830379569E-02 -0.22419527752E-01  0.10196085777E+01  0.10193184587E+01 0.  0.
     999903    2    3    3    0    0 -0.69112032019E-01  0.23635678989E-01  0.10201738374E+00  0.12707136762E+00  0.20111379686E-01 0.  0.
         14    1    1    2    0    0 -0.75977657041E-02  0.55830379569E-02  0.22419527752E-01  0.24321422268E-01  0.00000000000E+00 0. -1.
     999901    1    3    3    0    0  0.76709797723E-01 -0.29218716946E-01 -0.12443691149E+00  0.89253721011E+00  0.88000000000E+00 0.  1.
        -11    1    4    4    0    0 -0.52790499255E-02  0.25977390739E-02  0.20942363502E-01  0.21759143514E-01  0.51100000000E-03 0.  1.
         11    1    4    4    0    0 -0.63832982093E-01  0.21037939915E-01  0.81075020240E-01  0.10531222411E+00  0.51100000000E-03 0. -1.
</event>
<event>
 8    1  0.9952977E+004  0.1043930E+01  0.7957747E-01            NaN
         13   -1    0    0    0    0  0.00000000000E+00  0.00000000000E+00  0.74505805969E-08  0.10566000000E+00  0.10566000000E+00 0. -1.
     999900   -1    0    0    0    0 -0.00000000000E+00 -0.00000000000E+00 -0.74505805969E-08  0.93827000000E+00  0.93827000000E+00 0. -1.
     999902    2    1    2    0    0 -0.12543414502E-02 -0.21983968392E-01 -0.74251344877E-02  0.10206920814E+01  0.10204275203E+01 0.  0.
     999903    2    3    3    0    0 -0.92303941009E-02  0.54731531333E-01  0.11492252788E+00  0.12888614074E+00  0.17991919384E-01 0.  0.
         14    1    1    2    0    0  0.12543414502E-02  0.21983968392E-01  0.74251344877E-02  0.23237918601E-01  0.00000000000E+00 0.  1.
     999901    1    3    3    0    0  0.79760526507E-02 -0.76715499725E-01 -0.12234766236E+00  0.89180594066E+00  0.88000000000E+00 0. -1.
        -11    1    4    4    0    0 -0.67783155376E-02  0.32140696450E-01  0.47645599948E-01  0.57873432983E-01  0.51100000000E-03 0.  1.
         11    1    4    4    0    0 -0.24520785634E-02  0.22590834883E-01  0.67276927929E-01  0.71012707754E-01  0.51100000000E-03 0. -1.
</event>
<event>
 8    1  0.9952977E+004  0.1043930E+01  0.7957747E-01            NaN
         13   -1    0    0    0    0  0.00000000000E+00  0.00000000000E+00  0.74505805969E-08  0.10566000000E+00  0.10566000000E+00 0.  1.
     999900   -1    0    0    0    0 -0.00000000000E+00 -0.00000000000E+00 -0.74505805969E-08  0.93827000000E+00  0.93827000000E+00 0.  1.
     999902    2    1    2    0    0  0.66563008375E-02  0.12386543769E-01 -0.21777500229E-01  0.10180071853E+01  0.10176770789E+01 0.  0.
     999903    2    3    3    0    0  0.10305047169E+00  0.19170113666E-01 -0.76117390873E-01  0.13105133704E+00  0.19841944812E-01 0.  0.
         14    1    1    2    0    0 -0.66563008375E-02 -0.12386543769E-01  0.21777500229E-01  0.25922814731E-01  0.00000000000E+00 0.  1.
     999901    1    3    3    0    0 -0.96394170848E-01 -0.67835698971E-02  0.54339890644E-01  0.88695584823E+00  0.88000000000E+00 0. -1.
        -11    1    4    4    0    0  0.77796139906E-01  0.21485613063E-01 -0.63645430196E-01  0.10278556737E+00  0.51100000000E-03 0.  1.
         11    1    4    4    0    0  0.25254331779E-01 -0.23154993971E-02 -0.12471960677E-01  0.28265769673E-01  0.51100000000E-03 0. -1.
</event>
<event>
 8    1  0.9952977E+004  0.1043930E+01  0.7957747E-01            NaN
         13   -1    0    0    0    0  0.00000000000E+00  0.00000000000E+00  0.74505805969E-08  0.10566000000E+00  0.10566000000E+00 0.  1.
     999900   -1    0    0    0    0 -0.00000000000E+00 -0.00000000000E+00 -0.74505805969E-08  0.93827000000E+00  0.93827000000E+00 0.  1.
     999902    2    1    2    0    0  0.18071324499E-01  0.13336594940E-01 -0.22837459342E-02  0.10213545038E+01  0.10211049747E+01 0.  0.
     999903    2    3    3    0    0 -0.11428246314E-01  0.75494328330E-01 -0.10642530721E+00  0.13254672182E+00  0.20304901542E-01 0.  0.
         14    1    1    2    0    0 -0.18071324499E-01 -0.13336594940E-01  0.22837459342E-02  0.22575496213E-01  0.00000000000E+00 0. -1.
     999901    1    3    3    0    0  0.29499570814E-01 -0.62157733390E-01  0.10414156128E+00  0.88880778197E+00  0.88000000000E+00 0. -1.
        -11    1    4    4    0    0  0.27839897494E-02  0.44409144076E-01 -0.54177839812E-01  0.70110071489E-01  0.51100000000E-03 0. -1.
         11    1    4    4    0    0 -0.14212236064E-01  0.31085184254E-01 -0.52247467399E-01  0.62436650332E-01  0.51100000000E-03 0.  1.
</event>
<event>
 8    1  0.1349781E+005  0.1043930E+01  0.7957747E-01            NaN
         13   -1    0    0    0    0  0.00000000000E+00  0.00000000000E+00  0.74505805969E-08  0.10566000000E+00  0.10566000000E+00 0.  1.
     999900   -1    0    0    0    0 -0.00000000000E+00 -0.00000000000E+00 -0.74505805969E-08  0.93827000000E+00  0.93827000000E+00 0.  1.
     999902    2    1    2    0    0 -0.96125486034E-02  0.55616762406E-03 -0.35313609072E-01  0.10073272488E+01  0.10066620211E+01 0.  0.
     999903    2    3    3    0    0  0.57895041036E-01  0.10053568217E+00  0.79324199333E-02  0.11804473065E+00  0.20307042649E-01 0.  0.
         14    1    1    2    0    0  0.96125486034E-02 -0.55616762406E-03  0.35313609072E-01  0.36602751246E-01  0.00000000000E+00 0.  1.
     999901    1    3    3    0    0 -0.67507589640E-01 -0.99979514547E-01 -0.43246029005E-01  0.88928251811E+00  0.88000000000E+00 0. -1.
        -11    1    4    4    0    0  0.32207329392E-01  0.46419833551E-01  0.12830287302E-01  0.57939540960E-01  0.51100000000E-03 0. -1.
         11    1    4    4    0    0  0.25687711645E-01  0.54115848620E-01 -0.48978673687E-02  0.60105189686E-01  0.51100000000E-03 0.  1.
</event>
<event>
 8    1  0.9952977E+004  0.1043930E+01  0.7957747E-01            NaN
         13   -1    0    0    0    0  0.00000000000E+00  0.00000000000E+00  0.74505805969E-08  0.10566000000E+00  0.10566000000E+00 0.  1.
     999900   -1    0    0    0    0 -0.00000000000E+00 -0.00000000000E+00 -0.74505805969E-08  0.93827000000E+00  0.93827000000E+00 0.  1.
     999902    2    1    2    0    0  0.31433763460E-02  0.11861676356E-01 -0.20395895905E-01  0.10201272113E+01  0.10198494764E+01 0.  0.
     999903    2    3    3    0    0 -0.10740635442E+00  0.59845623164E-01  0.37074640600E-01  0.13005611037E+00  0.20553327872E-01 0.  0.
         14    1    1    2    0    0 -0.31433763460E-02 -0.11861676356E-01  0.20395895905E-01  0.23802788714E-01  0.00000000000E+00 0.  1.
     999901    1    3    3    0    0  0.11054973077E+00 -0.47983946808E-01 -0.57470536505E-01  0.89007110092E+00  0.88000000000E+00 0.  1.
        -11    1    4    4    0    0 -0.51535344017E-01  0.24479447686E-01  0.72469274908E-02  0.57514468797E-01  0.51100000000E-03 0. -1.
         11    1    4    4    0    0 -0.55871010403E-01  0.35366175477E-01  0.29827713110E-01  0.72541641570E-01  0.51100000000E-03 0.  1.
</event>
<event>
 8    1  0.9952977E+004  0.1043930E+01  0.7957747E-01            NaN
         13   -1    0    0    0    0  0.00000000000E+00  0.00000000000E+00  0.74505805969E-08  0.10566000000E+00  0.10566000000E+00 0. -1.
     999900   -1    0    0    0    0 -0.00000000000E+00 -0.00000000000E+00 -0.74505805969E-08  0.93827000000E+00  0.93827000000E+00 0. -1.
     999902    2    1    2    0    0  0.30180998361E-02 -0.19325818235E-01 -0.13901162759E-01  0.10199333648E+01  0.10196510335E+01 0.  0.
     999903    2    3    3    0    0  0.87651173841E-01  0.12499501688E-01  0.91738043260E-01  0.12901515860E+00  0.19750360760E-01 0.  0.
         14    1    1    2    0    0 -0.30180998361E-02  0.19325818235E-01  0.13901162759E-01  0.23996635246E-01  0.00000000000E+00 0. -1.
     999901    1    3    3    0    0 -0.84633074005E-01 -0.31825319922E-01 -0.10563920602E+00  0.89091820615E+00  0.88000000000E+00 0. -1.
        -11    1    4    4    0    0  0.70501930944E-01  0.89149090842E-02  0.83503486866E-01  0.10964985778E+00  0.51100000000E-03 0. -1.
         11    1    4    4    0    0  0.17149242897E-01  0.35845926036E-02  0.82345563933E-02  0.19365300826E-01  0.51100000000E-03 0.  1.
</event>
<event>
 8    1  0.9952977E+004  0.1043930E+01  0.7957747E-01            NaN
         13   -1    0    0    0    0  0.00000000000E+00  0.00000000000E+00  0.74505805969E-08  0.10566000000E+00  0.10566000000E+00 0.  1.
     999900   -1    0    0    0    0 -0.00000000000E+00 -0.00000000000E+00 -0.74505805969E-08  0.93827000000E+00  0.93827000000E+00 0.  1.
     999902    2    1    2    0    0  0.20331983704E-01  0.45536812170E-02 -0.10830514493E-01  0.10204475466E+01  0.10201773227E+01 0.  0.
     999903    2    3    3    0    0  0.17759406423E-01 -0.11096202821E+00 -0.64807418279E-01  0.13125465221E+00  0.19995350468E-01 0.  0.
         14    1    1    2    0    0 -0.20331983704E-01 -0.45536812170E-02  0.10830514493E-01  0.23482453410E-01  0.00000000000E+00 0.  1.
     999901    1    3    3    0    0  0.25725772807E-02  0.11551570943E+00  0.53976903786E-01  0.88919289438E+00  0.88000000000E+00 0.  1.
        -11    1    4    4    0    0  0.36513041746E-02 -0.58430204591E-01 -0.43043791749E-01  0.72666704617E-01  0.51100000000E-03 0. -1.
         11    1    4    4    0    0  0.14108102249E-01 -0.52531823621E-01 -0.21763626530E-01  0.58587947590E-01  0.51100000000E-03 0.  1.
</event>
<event>
 8    1  0.9952977E+004  0.1043930E+01  0.7957747E-01            NaN
         13   -1    0    0    0    0  0.00000000000E+00  0.00000000000E+00  0.74505805969E-08  0.10566000000E+00  0.10566000000E+00 0. -1.
     999900   -1    0    0    0    0 -0.00000000000E+00 -0.00000000000E+00 -0.74505805969E-08  0.93827000000E+00  0.93827000000E+00 0. -1.
     999902    2    1    2    0    0  0.16579480139E-01  0.65277785089E-02  0.15979076077E-01  0.10199963015E+01  0.10197154667E+01 0.  0.
     999903    2    3    3    0    0 -0.98253687663E-02  0.93848387430E-01  0.90348951870E-01  0.13216017738E+00  0.19983034938E-01 0.  0.
         14    1    1    2    0    0 -0.16579480139E-01 -0.65277785089E-02 -0.15979076077E-01  0.23933698549E-01  0.00000000000E+00 0.  1.
     999901    1    3    3    0    0  0.26404848905E-01 -0.87320608921E-01 -0.74369875793E-01  0.88783612408E+00  0.88000000000E+00 0. -1.
        -11    1    4    4    0    0 -0.14766759775E-01  0.84861107226E-01  0.81968530026E-01  0.11890570108E+00  0.51100000000E-03 0.  1.
         11    1    4    4    0    0  0.49413910090E-02  0.89872802040E-02  0.83804218446E-02  0.13254476295E-01  0.51100000000E-03 0. -1.
</event>
<event>
 8    1  0.9952977E+004  0.1043930E+01  0.7957747E-01            NaN
         13   -1    0    0    0    0  0.00000000000E+00  0.00000000000E+00  0.74505805969E-08  0.10566000000E+00  0.10566000000E+00 0. -1.
     999900   -1    0    0    0    0 -0.00000000000E+00 -0.00000000000E+00 -0.74505805969E-08  0.93827000000E+00  0.93827000000E+00 0.  1.
     999902    2    1    2    0    0  0.15194803581E-01 -0.13300940815E-01  0.10142763905E-01  0.10213319306E+01  0.10210818966E+01 0.  0.
     999903    2    3    3    0    0 -0.12529999512E+00 -0.34269624331E-02 -0.25469328691E-01  0.12942133805E+00  0.19732287979E-01 0.  0.
         14    1    1    2    0    0 -0.15194803581E-01  0.13300940815E-01 -0.10142763905E-01  0.22598069432E-01  0.00000000000E+00 0.  1.
     999901    1    3    3    0    0  0.14049479870E+00 -0.98739783819E-02  0.35612092596E-01  0.89191059252E+00  0.88000000000E+00 0. -1.
        -11    1    4    4    0    0 -0.23643798378E-01  0.61798491129E-02 -0.86859433568E-02  0.25940826312E-01  0.51100000000E-03 0. -1.
         11    1    4    4    0    0 -0.10165619674E+00 -0.96068115460E-02 -0.16783385334E-01  0.10348051173E+00  0.51100000000E-03 0.  1.
</event>
<event>
 8    1  0.9952977E+004  0.1043930E+01  0.7957747E-01            NaN
         13   -1    0    0    0    0  0.00000000000E+00  0.00000000000E+00  0.74505805969E-08  0.10566000000E+00  0.10566000000E+00 0.  1.
     999900   -1    0    0    0    0 -0.00000000000E+00 -0.00000000000E+00 -0.74505805969E-08  0.93827000000E+00  0.93827000000E+00 0. -1.
     999902    2    1    2    0    0 -0.23759318174E-01  0.21254982374E-02 -0.59160870805E-02  0.10193531200E+01  0.10190567993E+01 0.  0.
     999903    2    3    3    0    0 -0.62854268311E-02  0.11448683719E+00  0.57339932309E-01  0.12978483633E+00  0.20235943842E-01 0.  0.
         14    1    1    2    0    0  0.23759318174E-01 -0.21254982374E-02  0.59160870805E-02  0.24576879972E-01  0.00000000000E+00 0. -1.
     999901    1    3    3    0    0 -0.17473891342E-01 -0.11236133896E+00 -0.63256019390E-01  0.88956828370E+00  0.88000000000E+00 0. -1.
        -11    1    4    4    0    0  0.33816282808E-02  0.68576392279E-02  0.77061244281E-02  0.10867755072E-01  0.51100000000E-03 0.  1.
         11    1    4    4    0    0 -0.96670551120E-02  0.10762919797E+00  0.49633807881E-01  0.11891708126E+00  0.51100000000E-03 0. -1.
</event>
<event>
 8    1  0.9952977E+004  0.1043930E+01  0.7957747E-01            NaN
         13   -1    0    0    0    0  0.00000000000E+00  0.00000000000E+00  0.74505805969E-08  0.10566000000E+00  0.10566000000E+00 0.  1.
     999900   -1    0    0    0    0 -0.00000000000E+00 -0.00000000000E+00 -0.74505805969E-08  0.93827000000E+00  0.93827000000E+00 0. -1.
     999902    2    1    2    0    0 -0.14159001995E-01  0.16857084620E-01 -0.92332422571E-02  0.10200576017E+01  0.10197782207E+01 0.  0.
     999903    2    3    3    0    0  0.57751342942E-01  0.11542555654E+00 -0.15739723415E-01  0.13161560826E+00  0.20412073115E-01 0.  0.
         14    1    1    2    0    0  0.14159001995E-01 -0.16857084620E-01  0.92332422571E-02  0.23872398329E-01  0.00000000000E+00 0.  1.
     999901    1    3    3    0    0 -0.71910344937E-01 -0.98568471922E-01  0.65064811575E-02  0.88844199341E+00  0.88000000000E+00 0. -1.
        -11    1    4    4    0    0  0.57485882703E-01  0.10412647941E+00 -0.11358454906E-01  0.11948316218E+00  0.51100000000E-03 0.  1.
         11    1    4    4    0    0  0.26546023916E-03  0.11299077131E-01 -0.43812685086E-02  0.12132446080E-01  0.51100000000E-03 0. -1.
</event>
<event>
 8    1  0.9952977E+004  0.1043930E+01  0.7957747E-01            NaN
         13   -1    0    0    0    0  0.00000000000E+00  0.00000000000E+00  0.74505805969E-08  0.10566000000E+00  0.10566000000E+00 0. -1.
     999900   -1    0    0    0    0 -0.00000000000E+00 -0.00000000000E+00 -0.74505805969E-08  0.93827000000E+00  0.93827000000E+00 0.  1.
     999902    2    1    2    0    0 -0.37437456088E-02  0.19655313112E-01 -0.12400894174E-01  0.10203900522E+01  0.10201184880E+01 0.  0.
     999903    2    3    3    0    0  0.51063976586E-01  0.10608413001E+00 -0.59083488079E-01  0.13322992498E+00  0.19949486273E-01 0.  0.
         14    1    1    2    0    0  0.37437456088E-02 -0.19655313112E-01  0.12400894174E-01  0.23539947771E-01  0.00000000000E+00 0. -1.
     999901    1    3    3    0    0 -0.54807722195E-01 -0.86428816898E-01  0.46682593904E-01  0.88716012725E+00  0.88000000000E+00 0. -1.
        -11    1    4    4    0    0  0.30501952622E-01  0.74686686969E-01 -0.31319563522E-01  0.86542743800E-01  0.51100000000E-03 0. -1.
         11    1    4    4    0    0  0.20562023964E-01  0.31397443041E-01 -0.27763924557E-01  0.46687181183E-01  0.51100000000E-03 0.  1.
</event>
<event>
 8    1  0.9952977E+004  0.1043930E+01  0.7957747E-01            NaN
         13   -1    0    0    0    0  0.00000000000E+00  0.00000000000E+00  0.74505805969E-08  0.10566000000E+00  0.10566000000E+00 0.  1.
     999900   -1    0    0    0    0 -0.00000000000E+00 -0.00000000000E+00 -0.74505805969E-08  0.93827000000E+00  0.93827000000E+00 0. -1.
     999902    2    1    2    0    0 -0.84333504392E-03  0.22973949472E-01  0.66578142143E-02  0.10199959227E+01  0.10197150789E+01 0.  0.
     999903    2    3    3    0    0 -0.56389385245E-02  0.41627033298E-01 -0.12191209224E+00  0.13044482452E+00  0.19715133284E-01 0.  0.
         14    1    1    2    0    0  0.84333504392E-03 -0.22973949472E-01 -0.66578142143E-02  0.23934077347E-01  0.00000000000E+00 0. -1.
     999901    1    3    3    0    0  0.47956034806E-02 -0.18653083826E-01  0.12856990645E+00  0.88955109814E+00  0.88000000000E+00 0.  1.
        -11    1    4    4    0    0 -0.13041504362E-01  0.25861766656E-01 -0.77487377146E-01  0.82725247347E-01  0.51100000000E-03 0. -1.
         11    1    4    4    0    0  0.74025658371E-02  0.15765266642E-01 -0.44424715093E-01  0.47719577171E-01  0.51100000000E-03 0.  1.
</event>
<event>
 8    1  0.9952977E+004  0.1043930E+01  0.7957747E-01            NaN
         13   -1    0    0    0    0  0.00000000000E+00  0.00000000000E+00  0.74505805969E-08  0.10566000000E+00  0.10566000000E+00 0.  1.
     999900   -1    0    0    0    0 -0.00000000000E+00 -0.00000000000E+00 -0.74505805969E-08  0.93827000000E+00  0.93827000000E+00 0.  1.
     999902    2    1    2    0    0  0.10303805788E-01  0.20627901529E-01  0.46223085036E-02  0.10204131024E+01  0.10201420760E+01 0.  0.
     999903    2    3    3    0    0 -0.41267355279E-01  0.96376477102E-01  0.78610707332E-01  0.13256642957E+00  0.20069753142E-01 0.  0.
         14    1    1    2    0    0 -0.10303805788E-01 -0.20627901529E-01 -0.46223085036E-02  0.23516897566E-01  0.00000000000E+00 0.  1.
     999901    1    3    3    0    0  0.51571161067E-01 -0.75748575573E-01 -0.73988398829E-01  0.88784667286E+00  0.88000000000E+00 0.  1.
        -11    1    4    4    0    0 -0.29088220202E-01  0.51267299544E-01  0.53058617320E-01  0.79309132829E-01  0.51100000000E-03 0. -1.
         11    1    4    4    0    0 -0.12179135077E-01  0.45109177558E-01  0.25552090012E-01  0.53257296741E-01  0.51100000000E-03 0.  1.
</event>
<event>
 8    1  0.9952977E+004  0.1043930E+01  0.7957747E-01            NaN
         13   -1    0    0    0    0  0.00000000000E+00  0.00000000000E+00  0.74505805969E-08  0.10566000000E+00  0.10566000000E+00 0.  1.
     999900   -1    0    0    0    0 -0.00000000000E+00 -0.00000000000E+00 -0.74505805969E-08  0.93827000000E+00  0.93827000000E+00 0.  1.
     999902    2    1    2    0    0  0.68290901427E-03  0.20796580232E-01 -0.90652871468E-02  0.10212332261E+01  0.10209809786E+01 0.  0.
     999903    2    3    3    0    0  0.11432556074E+00  0.33447702196E-01  0.52314252943E-01  0.13171529424E+00  0.20568302200E-01 0.  0.
         14    1    1    2    0    0 -0.68290901427E-03 -0.20796580232E-01  0.90652871468E-02  0.22696773892E-01  0.00000000000E+00 0.  1.
     999901    1    3    3    0    0 -0.11364265172E+00 -0.12651121964E-01 -0.61379540089E-01  0.88951793187E+00  0.88000000000E+00 0.  1.
        -11    1    4    4    0    0  0.81411973995E-01  0.21705896910E-01  0.46651919840E-01  0.96310530141E-01  0.51100000000E-03 0. -1.
         11    1    4    4    0    0  0.32913586741E-01  0.11741805286E-01  0.56623331029E-02  0.35404764096E-01  0.51100000000E-03 0.  1.
</event>
<event>
 8    1  0.9952977E+004  0.1043930E+01  0.7957747E-01            NaN
         13   -1    0    0    0    0  0.00000000000E+00  0.00000000000E+00  0.74505805969E-08  0.10566000000E+00  0.10566000000E+00 0. -1.
     999900   -1    0    0    0    0 -0.00000000000E+00 -0.00000000000E+00 -0.74505805969E-08  0.93827000000E+00  0.93827000000E+00 0. -1.
     999902    2    1    2    0    0  0.23267154533E-01  0.22150727588E-01 -0.80507688267E-02  0.10108115747E+01  0.10102688798E+01 0.  0.
     999903    2    3    3    0    0 -0.77984548239E-01  0.93061618054E-01 -0.10185036800E-01  0.12216945510E+00  0.89211135283E-02 0.  0.
         14    1    1    2    0    0 -0.23267154533E-01 -0.22150727588E-01  0.80507688267E-02  0.33118425256E-01  0.00000000000E+00 0. -1.
     999901    1    3    3    0    0  0.10125170277E+00 -0.70910890466E-01  0.21342679733E-02  0.88864211964E+00  0.88000000000E+00 0.  1.
        -11    1    4    4    0    0 -0.11867127795E-01  0.16822457120E-01  0.11063255354E-02  0.20623017792E-01  0.51100000000E-03 0. -1.
         11    1    4    4    0    0 -0.66117420445E-01  0.76239160934E-01 -0.11291362335E-01  0.10154643731E+00  0.51100000000E-03 0.  1.
</event>
<event>
 8    1  0.9952977E+004  0.1043930E+01  0.7957747E-01            NaN
         13   -1    0    0    0    0  0.00000000000E+00  0.00000000000E+00  0.74505805969E-08  0.10566000000E+00  0.10566000000E+00 0. -1.
     999900   -1    0    0    0    0 -0.00000000000E+00 -0.00000000000E+00 -0.74505805969E-08  0.93827000000E+00  0.93827000000E+00 0.  1.
     999902    2    1    2    0    0 -0.14612350841E-01 -0.11348995768E-02 -0.19440491225E-01  0.10195837171E+01  0.10192929974E+01 0.  0.
     999903    2    3    3    0    0  0.26916139557E-01 -0.65464431690E-01 -0.10923663349E+00  0.13170633172E+00  0.20095903457E-01 0.  0.
         14    1    1    2    0    0  0.14612350841E-01  0.11348995768E-02  0.19440491225E-01  0.24346282945E-01  0.00000000000E+00 0. -1.
     999901    1    3    3    0    0 -0.41528490398E-01  0.64329532114E-01  0.89796142260E-01  0.88787738533E+00  0.88000000000E+00 0.  1.
        -11    1    4    4    0    0  0.17549345328E-01 -0.53302800614E-01 -0.71005346524E-01  0.90505184552E-01  0.51100000000E-03 0. -1.
         11    1    4    4    0    0  0.93667942291E-02 -0.12161631076E-01 -0.38231286962E-01  0.41201147172E-01  0.51100000000E-03 0.  1.
</event>
<event>
 8    1  0.9952977E+004  0.1043930E+01  0.7957747E-01            NaN
         13   -1    0    0    0    0  0.00000000000E+00  0.00000000000E+00  0.74505805969E-08  0.10566000000E+00  0.10566000000E+00 0. -1.
     999900   -1    0    0    0    0 -0.00000000000E+00 -0.00000000000E+00 -0.74505805969E-08  0.93827000000E+00  0.93827000000E+00 0.  1.
     999902    2    1    2    0    0 -0.20033491109E-02 -0.20404916890E-02  0.22981826896E-01  0.10207709547E+01  0.10205082070E+01 0.  0.
     999903    2    3    3    0    0  0.35019395790E-01  0.21592379148E-02  0.12751487820E+00  0.13380112417E+00  0.20289807213E-01 0.  0.
         14    1    1    2    0    0  0.20033491109E-02  0.20404916890E-02 -0.22981826896E-01  0.23159045349E-01  0.00000000000E+00 0.  1.
     999901    1    3    3    0    0 -0.37022744901E-01 -0.41997296038E-02 -0.10453305130E+00  0.88696983048E+00  0.88000000000E+00 0.  1.
        -11    1    4    4    0    0  0.23623928163E-01 -0.12331303919E-02  0.11070271290E+00  0.11320319058E+00  0.51100000000E-03 0. -1.
         11    1    4    4    0    0  0.11395467628E-01  0.33923683067E-02  0.16812165296E-01  0.20597933589E-01  0.51100000000E-03 0.  1.
</event>
<event>
 8    1  0.9952977E+004  0.1043930E+01  0.7957747E-01            NaN
         13   -1    0    0    0    0  0.00000000000E+00  0.00000000000E+00  0.74505805969E-08  0.10566000000E+00  0.10566000000E+00 0. -1.
     999900   -1    0    0    0    0 -0.00000000000E+00 -0.00000000000E+00 -0.74505805969E-08  0.93827000000E+00  0.93827000000E+00 0. -1.
     999902    2    1    2    0    0  0.84344277311E-02 -0.18052379695E-01 -0.13132511007E-01  0.10200659930E+01  0.10197868107E+01 0.  0.
     999903    2    3    3    0    0  0.57792462228E-02 -0.99722570709E-01 -0.85897675632E-01  0.13328989993E+00  0.20243417424E-01 0.  0.
         14    1    1    2    0    0 -0.84344277311E-02  0.18052379695E-01  0.13132511007E-01  0.23864006980E-01  0.00000000000E+00 0. -1.
     999901    1    3    3    0    0  0.26551815083E-02  0.81670191014E-01  0.72765164625E-01  0.88677609309E+00  0.88000000000E+00 0.  1.
        -11    1    4    4    0    0 -0.45121124626E-02 -0.68325438042E-01 -0.63349028617E-01  0.93284967654E-01  0.51100000000E-03 0. -1.
         11    1    4    4    0    0  0.10291358685E-01 -0.31397132668E-01 -0.22548647016E-01  0.40004932278E-01  0.51100000000E-03 0.  1.
</event>
<event>
 8    1  0.9952977E+004  0.1043930E+01  0.7957747E-01            NaN
         13   -1    0    0    0    0  0.00000000000E+00  0.00000000000E+00  0.74505805969E-08  0.10566000000E+00  0.10566000000E+00 0.  1.
     999900   -1    0    0    0    0 -0.00000000000E+00 -0.00000000000E+00 -0.74505805969E-08  0.93827000000E+00  0.93827000000E+00 0.  1.
     999902    2    1    2    0    0 -0.22005719852E-01 -0.63727376564E-02  0.36878914116E-02  0.10207251722E+01  0.10204613727E+01 0.  0.
     999903    2    3    3    0    0 -0.56420899564E-01  0.11595458661E+00  0.10349768003E-01  0.13157233972E+00  0.23987055241E-01 0.  0.
         14    1    1    2    0    0  0.22005719852E-01  0.63727376564E-02 -0.36878914116E-02  0.23204827827E-01  0.00000000000E+00 0. -1.
     999901    1    3    3    0    0  0.34415179713E-01 -0.12232732426E+00 -0.66618765916E-02  0.88915283245E+00  0.88000000000E+00 0.  1.
        -11    1    4    4    0    0 -0.56398847117E-02  0.62840191245E-02  0.64742454120E-02  0.10652425572E-01  0.51100000000E-03 0.  1.
         11    1    4    4    0    0 -0.50781014853E-01  0.10967056748E+00  0.38755225912E-02  0.12091991415E+00  0.51100000000E-03 0. -1.
</event>
<event>
 8    1  0.9952977E+004  0.1043930E+01  0.7957747E-01            NaN
         13   -1    0    0    0    0  0.00000000000E+00  0.00000000000E+00  0.74505805969E-08  0.10566000000E+00  0.10566000000E+00 0.  1.
     999900   -1    0    0    0    0 -0.00000000000E+00 -0.00000000000E+00 -0.74505805969E-08  0.93827000000E+00  0.93827000000E+00 0.  1.
     999902    2    1    2    0    0  0.88606066971E-02 -0.57570630595E-02  0.22736174325E-01  0.10188583477E+01  0.10185498245E+01 0.  0.
     999903    2    3    3    0    0 -0.88725696179E-01 -0.16311199151E-01 -0.86514992907E-01  0.12668667485E+00  0.20648612698E-01 0.  0.
         14    1    1    2    0    0 -0.88606066971E-02  0.57570630595E-02 -0.22736174325E-01  0.25071652300E-01  0.00000000000E+00 0. -1.
     999901    1    3    3    0    0  0.97586302876E-01  0.10554136092E-01  0.10925116723E+00  0.89217167285E+00  0.88000000000E+00 0. -1.
        -11    1    4    4    0    0 -0.44530515249E-01 -0.18386759310E-01 -0.48298847065E-01  0.68220813943E-01  0.51100000000E-03 0. -1.
         11    1    4    4    0    0 -0.44195180930E-01  0.20755601587E-02 -0.38216145842E-01  0.58465860906E-01  0.51100000000E-03 0.  1.
</event>
<event>
 8    1  0.9952977E+004  0.1043930E+01  0.7957747E-01            NaN
         13   -1    0    0    0    0  0.00000000000E+00  0.00000000000E+00  0.74505805969E-08  0.10566000000E+00  0.10566000000E+00 0.  1.
     999900   -1    0    0    0    0 -0.00000000000E+00 -0.00000000000E+00 -0.74505805969E-08  0.93827000000E+00  0.93827000000E+00 0. -1.
     999902    2    1    2    0    0  0.21141659852E-01  0.10595746103E-01  0.15771069643E-02  0.10202292219E+01  0.10199538903E+01 0.  0.
     999903    2    3    3    0    0 -0.25922752223E-01 -0.94752338022E-01 -0.80930141944E-01  0.12887030213E+00  0.20195847391E-01 0.  0.
         14    1    1    2    0    0 -0.21141659852E-01 -0.10595746103E-01 -0.15771069643E-02  0.23700778113E-01  0.00000000000E+00 0.  1.
     999901    1    3    3    0    0  0.47064412075E-01  0.10534808412E+00  0.82507248908E-01  0.89135891976E+00  0.88000000000E+00 0.  1.
        -11    1    4    4    0    0 -0.25078359858E-01 -0.77837896543E-01 -0.57563888630E-01  0.10000762304E+00  0.51100000000E-03 0.  1.
         11    1    4    4    0    0 -0.84439236535E-03 -0.16914441479E-01 -0.23366253314E-01  0.28862679085E-01  0.51100000000E-03 0. -1.
</event>
<event>
 8    1  0.9952977E+004  0.1043930E+01  0.7957747E-01            NaN
         13   -1    0    0    0    0  0.00000000000E+00  0.00000000000E+00  0.74505805969E-08  0.10566000000E+00  0.10566000000E+00 0. -1.
     999900   -1    0    0    0    0 -0.00000000000E+00 -0.00000000000E+00 -0.74505805969E-08  0.93827000000E+00  0.93827000000E+00 0. -1.
     999902    2    1    2    0    0 -0.17535561263E-01 -0.12344102998E-02  0.15675324085E-01  0.10203771772E+01  0.10201053123E+01 0.  0.
     999903    2    3    3    0    0 -0.46451685128E-01  0.11879721175E+00  0.25641653285E-01  0.13170228712E+00  0.20431874096E-01 0.  0.
         14    1    1    2    0    0  0.17535561263E-01  0.12344102998E-02 -0.15675324085E-01  0.23552822819E-01  0.00000000000E+00 0.  1.
     999901    1    3    3    0    0  0.28916123865E-01 -0.12003162205E+00 -0.99663291999E-02  0.88867489006E+00  0.88000000000E+00 0.  1.
        -11    1    4    4    0    0 -0.13196481873E-01  0.41737857631E-01 -0.54760619349E-03  0.43780782165E-01  0.51100000000E-03 0.  1.
         11    1    4    4    0    0 -0.33255203255E-01  0.77059354115E-01  0.26189259478E-01  0.87921504953E-01  0.51100000000E-03 0. -1.
</event>
<event>
 7    1  0.9952977E+004  0.1043930E+01  0.7957747E-01            NaN
         13   -1    0    0    0    0  0.00000000000E+00  0.00000000000E+00  0.74505805969E-08  0.10566000000E+00  0.10566000000E+00 0.  1.
     999900   -1    0    0    0    0 -0.00000000000E+00 -0.00000000000E+00 -0.74505805969E-08  0.93827000000E+00  0.93827000000E+00 0. -1.
     999902    2    1    2    0    0 -0.16475112892E-01 -0.15457282212E-01  0.21180280555E-02  0.10212398488E+01  0.10209877501E+01 0.  0.
         14    1    1    2    0    0  0.16475112892E-01  0.15457282212E-01 -0.21180280555E-02  0.22690151190E-01  0.00000000000E+00 0. -1.
     999901    1    3    3    0    0  0.18555446398E-01  0.39475388690E-01  0.11074263833E+00  0.88801269295E+00  0.88000000000E+00 0.  1.
        -11    1    3    3    0    0  0.31646451418E-03 -0.37109364546E-01 -0.45531155088E-01  0.58741401851E-01  0.51100000000E-03 0.  1.
         11    1    3    3    0    0 -0.35347023805E-01 -0.17823306356E-01 -0.63093455186E-01  0.74485754005E-01  0.51100000000E-03 0. -1.
</event>
<event>
 8    1  0.9952977E+004  0.1043930E+01  0.7957747E-01            NaN
         13   -1    0    0    0    0  0.00000000000E+00  0.00000000000E+00  0.74505805969E-08  0.10566000000E+00  0.10566000000E+00 0. -1.
     999900   -1    0    0    0    0 -0.00000000000E+00 -0.00000000000E+00 -0.74505805969E-08  0.93827000000E+00  0.93827000000E+00 0.  1.
     999902    2    1    2    0    0 -0.18940493342E-01 -0.85529813465E-03  0.13913389845E-01  0.10204128522E+01  0.10201418199E+01 0.  0.
     999903    2    3    3    0    0  0.94798451081E-01  0.37112487122E-01  0.77899865693E-01  0.12997904261E+00  0.21496032548E-01 0.  0.
         14    1    1    2    0    0  0.18940493342E-01  0.85529813465E-03 -0.13913389845E-01  0.23517147784E-01  0.00000000000E+00 0.  1.
     999901    1    3    3    0    0 -0.11373894442E+00 -0.37967785256E-01 -0.63986475848E-01  0.89043380960E+00  0.88000000000E+00 0.  1.
        -11    1    4    4    0    0  0.31500819106E-01  0.14068111073E-01  0.39467938248E-01  0.52423206923E-01  0.51100000000E-03 0. -1.
         11    1    4    4    0    0  0.63297631975E-01  0.23044376049E-01  0.38431927445E-01  0.77555835688E-01  0.51100000000E-03 0.  1.
</event>
<event>
 8    1  0.9952977E+004  0.1043930E+01  0.7957747E-01            NaN
         13   -1    0    0    0    0  0.00000000000E+00  0.00000000000E+00  0.74505805969E-08  0.10566000000E+00  0.10566000000E+00 0.  1.
     999900   -1    0    0    0    0 -0.00000000000E+00 -0.00000000000E+00 -0.74505805969E-08  0.93827000000E+00  0.93827000000E+00 0.  1.
     999902    2    1    2    0    0 -0.43431575475E-02 -0.23846297993E-01  0.29082347536E-02  0.10195175693E+01  0.10192252485E+01 0.  0.
     999903    2    3    3    0    0  0.11509576242E+00 -0.29937509170E-01 -0.48414819711E-01  0.12994642855E+00  0.19969740678E-01 0.  0.
         14    1    1    2    0    0  0.43431575475E-02  0.23846297993E-01 -0.29082347536E-02  0.24412430744E-01  0.00000000000E+00 0. -1.
     999901    1    3    3    0    0 -0.11943891997E+00  0.60912111771E-02  0.51323054465E-01  0.88957114071E+00  0.88000000000E+00 0. -1.
        -11    1    4    4    0    0  0.26414098804E-01 -0.15593727497E-01 -0.10315891731E-01  0.32365841501E-01  0.51100000000E-03 0. -1.
         11    1    4    4    0    0  0.88681663617E-01 -0.14343781672E-01 -0.38098927980E-01  0.97580587049E-01  0.51100000000E-03 0.  1.
</event>
<event>
 8    1  0.9952977E+004  0.1043930E+01  0.7957747E-01            NaN
         13   -1    0    0    0    0  0.00000000000E+00  0.00000000000E+00  0.74505805969E-08  0.10566000000E+00  0.10566000000E+00 0.  1.
     999900   -1    0    0    0    0 -0.00000000000E+00 -0.00000000000E+00 -0.74505805969E-08  0.93827000000E+00  0.93827000000E+00 0.  1.
     999902    2    1    2    0    0 -0.10378606897E-01  0.19205575801E-01 -0.87708726383E-02  0.10204034654E+01  0.10201322142E+01 0.  0.
     999903    2    3    3    0    0 -0.66601834514E-01  0.11342872113E+00  0.94429306681E-02  0.13340245353E+00  0.20128748875E-01 0.  0.
         14    1    1    2    0    0  0.10378606897E-01 -0.19205575801E-01  0.87708726383E-02  0.23526534590E-01  0.00000000000E+00 0. -1.
     999901    1    3    3    0    0  0.56223227617E-01 -0.94223145329E-01 -0.18213803306E-01  0.88700101188E+00  0.88000000000E+00 0. -1.
        -11    1    4    4    0    0 -0.47149997429E-01  0.69529416911E-01  0.13997404217E-01  0.85168365719E-01  0.51100000000E-03 0. -1.
         11    1    4    4    0    0 -0.19451837085E-01  0.43899304220E-01 -0.45544735493E-02  0.48234087814E-01  0.51100000000E-03 0.  1.
</event>
<event>
 8    1  0.9952977E+004  0.1043930E+01  0.7957747E-01            NaN
         13   -1    0    0    0    0  0.00000000000E+00  0.00000000000E+00  0.74505805969E-08  0.10566000000E+00  0.10566000000E+00 0. -1.
     999900   -1    0    0    0    0 -0.00000000000E+00 -0.00000000000E+00 -0.74505805969E-08  0.93827000000E+00  0.93827000000E+00 0. -1.
     999902    2    1    2    0    0 -0.18067559469E-01 -0.11882284724E-01  0.87654208840E-02  0.10205963762E+01  0.10203296061E+01 0.  0.
     999903    2    3    3    0    0 -0.78976697961E-01 -0.10002151871E+00  0.35031228184E-01  0.13370949485E+00  0.20234105840E-01 0.  0.
         14    1    1    2    0    0  0.18067559469E-01  0.11882284724E-01 -0.87654208840E-02  0.23333623780E-01  0.00000000000E+00 0.  1.
     999901    1    3    3    0    0  0.60909138491E-01  0.88139233982E-01 -0.26265807300E-01  0.88688688137E+00  0.88000000000E+00 0. -1.
        -11    1    4    4    0    0 -0.33756889571E-01 -0.56982659153E-01  0.23131210999E-01  0.70156005309E-01  0.51100000000E-03 0.  1.
         11    1    4    4    0    0 -0.45219808390E-01 -0.43038859553E-01  0.11900017185E-01  0.63553489538E-01  0.51100000000E-03 0. -1.
</event>
<event>
 8    1  0.9952977E+004  0.1043930E+01  0.7957747E-01            NaN
         13   -1    0    0    0    0  0.00000000000E+00  0.00000000000E+00  0.74505805969E-08  0.10566000000E+00  0.10566000000E+00 0. -1.
     999900   -1    0    0    0    0 -0.00000000000E+00 -0.00000000000E+00 -0.74505805969E-08  0.93827000000E+00  0.93827000000E+00 0.  1.
     999902    2    1    2    0    0  0.22073304203E-01 -0.66775603683E-02 -0.51771953443E-02  0.10202947737E+01  0.10200209808E+01 0.  0.
     999903    2    3    3    0    0  0.98288693476E-01  0.76533189994E-02 -0.87212412110E-01  0.13308344799E+00  0.19645832798E-01 0.  0.
         14    1    1    2    0    0 -0.22073304203E-01  0.66775603683E-02  0.51771953443E-02  0.23635226306E-01  0.00000000000E+00 0. -1.
     999901    1    3    3    0    0 -0.76215389273E-01 -0.14330879368E-01  0.82035216765E-01  0.88721132570E+00  0.88000000000E+00 0. -1.
        -11    1    4    4    0    0  0.37683464505E-01  0.10069456130E-01 -0.25814204907E-01  0.46776829091E-01  0.51100000000E-03 0.  1.
         11    1    4    4    0    0  0.60605228971E-01 -0.24161371304E-02 -0.61398207203E-01  0.86306618900E-01  0.51100000000E-03 0. -1.
</event>
<event>
 8    1  0.9952977E+004  0.1043930E+01  0.7957747E-01            NaN
         13   -1    0    0    0    0  0.00000000000E+00  0.00000000000E+00  0.74505805969E-08  0.10566000000E+00  0.10566000000E+00 0. -1.
     999900   -1    0    0    0    0 -0.00000000000E+00 -0.00000000000E+00 -0.74505805969E-08  0.93827000000E+00  0.93827000000E+00 0. -1.
     999902    2    1    2    0    0 -0.95436565895E-02 -0.50319213236E-02  0.20033554112E-01  0.10211759915E+01  0.10209224558E+01 0.  0.
     999903    2    3    3    0    0 -0.11919244298E+00  0.25233785967E-01 -0.44874119843E-01  0.13148397987E+00  0.20754949118E-01 0.  0.
         14    1    1    2    0    0  0.95436565895E-02  0.50319213236E-02 -0.20033554112E-01  0.22754008519E-01  0.00000000000E+00 0.  1.
     999901    1    3    3    0    0  0.10964878639E+00 -0.30265707290E-01  0.64907673955E-01  0.88969201162E+00  0.88000000000E+00 0.  1.
        -11    1    4    4    0    0 -0.61841349336E-01  0.14980116889E-01 -0.12558574002E-01  0.64859350071E-01  0.51100000000E-03 0. -1.
         11    1    4    4    0    0 -0.57351093640E-01  0.10253669077E-01 -0.32315545841E-01  0.66624629795E-01  0.51100000000E-03 0.  1.
</event>
<event>
 8    1  0.9952977E+004  0.1043930E+01  0.7957747E-01            NaN
         13   -1    0    0    0    0  0.00000000000E+00  0.00000000000E+00  0.74505805969E-08  0.10566000000E+00  0.10566000000E+00 0.  1.
     999900   -1    0    0    0    0 -0.00000000000E+00 -0.00000000000E+00 -0.74505805969E-08  0.93827000000E+00  0.93827000000E+00 0.  1.
     999902    2    1    2    0    0 -0.21445610124E-01 -0.12470128625E-01 -0.36765253050E-02  0.10188514207E+01  0.10185427248E+01 0.  0.
     999903    2    3    3    0    0 -0.67715048243E-01  0.25552837284E-01 -0.10706849413E+00  0.13077681456E+00  0.20015932179E-01 0.  0.
         14    1    1    2    0    0  0.21445610124E-01  0.12470128625E-01  0.36765253050E-02  0.25078579303E-01  0.00000000000E+00 0.  1.
     999901    1    3    3    0    0  0.46269438119E-01 -0.38022965909E-01  0.10339196882E+00  0.88807460613E+00  0.88000000000E+00 0. -1.
        -11    1    4    4    0    0 -0.38806956598E-01  0.23027187818E-01 -0.54784472527E-01  0.70977678254E-01  0.51100000000E-03 0.  1.
         11    1    4    4    0    0 -0.28908091645E-01  0.25256494668E-02 -0.52284021601E-01  0.59799136311E-01  0.51100000000E-03 0. -1.
</event>
<event>
 8    1  0.9952977E+004  0.1043930E+01  0.7957747E-01            NaN
         13   -1    0    0    0    0  0.00000000000E+00  0.00000000000E+00  0.74505805969E-08  0.10566000000E+00  0.10566000000E+00 0. -1.
     999900   -1    0    0    0    0 -0.00000000000E+00 -0.00000000000E+00 -0.74505805969E-08  0.93827000000E+00  0.93827000000E+00 0.  1.
     999902    2    1    2    0    0  0.17961123937E-01 -0.14576618495E-01  0.63479260034E-02  0.10199430047E+01  0.10196609029E+01 0.  0.
     999903    2    3    3    0    0 -0.12147069942E+00 -0.13485065690E-01  0.34764868383E-01  0.12851160100E+00  0.19226484476E-01 0.  0.
         14    1    1    2    0    0 -0.17961123937E-01  0.14576618495E-01 -0.63479260034E-02  0.23986995318E-01  0.00000000000E+00 0.  1.
     999901    1    3    3    0    0  0.13943182335E+00 -0.10915528053E-02 -0.28416942379E-01  0.89143140368E+00  0.88000000000E+00 0. -1.
        -11    1    4    4    0    0 -0.10772991414E+00 -0.17648265695E-01  0.28417563702E-01  0.11280520702E+00  0.51100000000E-03 0. -1.
         11    1    4    4    0    0 -0.13740785278E-01  0.41632000054E-02  0.63473046809E-02  0.15706393986E-01  0.51100000000E-03 0.  1.
</event>
<event>
 8    1  0.9952977E+004  0.1043930E+01  0.7957747E-01            NaN
         13   -1    0    0    0    0  0.00000000000E+00  0.00000000000E+00  0.74505805969E-08  0.10566000000E+00  0.10566000000E+00 0.  1.
     999900   -1    0    0    0    0 -0.00000000000E+00 -0.00000000000E+00 -0.74505805969E-08  0.93827000000E+00  0.93827000000E+00 0. -1.
     999902    2    1    2    0    0  0.24879462765E-01 -0.83253067737E-03  0.74647863968E-02  0.10179414677E+01  0.10176096638E+01 0.  0.
     999903    2    3    3    0    0 -0.80213465251E-02  0.19690159229E-01  0.12573331093E+00  0.12918329590E+00  0.20673995555E-01 0.  0.
         14    1    1    2    0    0 -0.24879462765E-01  0.83253067737E-03 -0.74647863968E-02  0.25988532293E-01  0.00000000000E+00 0. -1.
     999901    1    3    3    0    0  0.32900809290E-01 -0.20522689906E-01 -0.11826852453E+00  0.88875817180E+00  0.88000000000E+00 0. -1.
        -11    1    4    4    0    0 -0.67789983605E-02  0.19641090965E-01  0.61144136270E-01  0.64580134672E-01  0.51100000000E-03 0.  1.
         11    1    4    4    0    0 -0.12423481646E-02  0.49068263651E-04  0.64589174661E-01  0.64603161231E-01  0.51100000000E-03 0. -1.
</event>
<event>
 8    1  0.9952977E+004  0.1043930E+01  0.7957747E-01            NaN
         13   -1    0    0    0    0  0.00000000000E+00  0.00000000000E+00  0.74505805969E-08  0.10566000000E+00  0.10566000000E+00 0.  1.
     999900   -1    0    0    0    0 -0.00000000000E+00 -0.00000000000E+00 -0.74505805969E-08  0.93827000000E+00  0.93827000000E+00 0.  1.
     999902    2    1    2    0    0  0.10054584141E-01  0.16525464619E-01  0.13441285955E-01  0.10203746649E+01  0.10201027414E+01 0.  0.
     999903    2    3    3    0    0  0.12513950362E+00 -0.19121088148E-01 -0.28062816540E-01  0.13119650169E+00  0.19987221049E-01 0.  0.
         14    1    1    2    0    0 -0.10054584141E-01 -0.16525464619E-01 -0.13441285955E-01  0.23555335091E-01  0.00000000000E+00 0.  1.
     999901    1    3    3    0    0 -0.11508491948E+00  0.35646552766E-01  0.41504102496E-01  0.88917816322E+00  0.88000000000E+00 0.  1.
        -11    1    4    4    0    0  0.54719683098E-01 -0.15488261719E-01 -0.19699856727E-01  0.60187003959E-01  0.51100000000E-03 0. -1.
         11    1    4    4    0    0  0.70419820525E-01 -0.36328264288E-02 -0.83629598132E-02  0.71009497734E-01  0.51100000000E-03 0.  1.
</event>
<event>
 8    1  0.9952977E+004  0.1043930E+01  0.7957747E-01            NaN
         13   -1    0    0    0    0  0.00000000000E+00  0.00000000000E+00  0.74505805969E-08  0.10566000000E+00  0.10566000000E+00 0. -1.
     999900   -1    0    0    0    0 -0.00000000000E+00 -0.00000000000E+00 -0.74505805969E-08  0.93827000000E+00  0.93827000000E+00 0.  1.
     999902    2    1    2    0    0 -0.44560151388E-02 -0.21068327628E-01  0.11636758985E-01  0.10194525684E+01  0.10191586699E+01 0.  0.
     999903    2    3    3    0    0 -0.10789088429E+00 -0.65776259377E-01 -0.30001666687E-01  0.13129079829E+00  0.19240958959E-01 0.  0.
         14    1    1    2    0    0  0.44560151388E-02  0.21068327628E-01 -0.11636758985E-01  0.24477431639E-01  0.00000000000E+00 0. -1.
     999901    1    3    3    0    0  0.10343486915E+00  0.44707931748E-01  0.41638425672E-01  0.88816177007E+00  0.88000000000E+00 0. -1.
        -11    1    4    4    0    0 -0.76368074652E-01 -0.36169796408E-01 -0.17847707273E-01  0.86366305780E-01  0.51100000000E-03 0.  1.
         11    1    4    4    0    0 -0.31522809639E-01 -0.29606462969E-01 -0.12153959414E-01  0.44924492512E-01  0.51100000000E-03 0. -1.
</event>
<event>
 8    1  0.9952977E+004  0.1043930E+01  0.7957747E-01            NaN
         13   -1    0    0    0    0  0.00000000000E+00  0.00000000000E+00  0.74505805969E-08  0.10566000000E+00  0.10566000000E+00 0. -1.
     999900   -1    0    0    0    0 -0.00000000000E+00 -0.00000000000E+00 -0.74505805969E-08  0.93827000000E+00  0.93827000000E+00 0. -1.
     999902    2    1    2    0    0 -0.36969165686E-03  0.25173904111E-02 -0.25151068571E-01  0.10186505582E+01  0.10183368350E+01 0.  0.
     999903    2    3    3    0    0 -0.96026640981E-01  0.84107089138E-01  0.15354878329E-02  0.12931411840E+00  0.20607408247E-01 0.  0.
         14    1    1    2    0    0  0.36969165686E-03 -0.25173904111E-02  0.25151068571E-01  0.25279441779E-01  0.00000000000E+00 0. -1.
     999901    1    3    3    0    0  0.95656949324E-01 -0.81589698727E-01 -0.26686556404E-01  0.88933643982E+00  0.88000000000E+00 0. -1.
        -11    1    4    4    0    0 -0.33660293879E-01  0.42287036035E-01  0.38436256181E-02  0.54187114516E-01  0.51100000000E-03 0.  1.
         11    1    4    4    0    0 -0.62366347101E-01  0.41820053103E-01 -0.23081377852E-02  0.75127003889E-01  0.51100000000E-03 0. -1.
</event>
<event>
 8    1  0.9952977E+004  0.1043930E+01  0.7957747E-01            NaN
         13   -1    0    0    0    0  0.00000000000E+00  0.00000000000E+00  0.74505805969E-08  0.10566000000E+00  0.10566000000E+00 0.  1.
     999900   -1    0    0    0    0 -0.00000000000E+00 -0.00000000000E+00 -0.74505805969E-08  0.93827000000E+00  0.93827000000E+00 0. -1.
     999902    2    1    2    0    0 -0.35186500384E-02  0.23584263193E-01  0.44990052104E-02  0.10196639864E+01  0.10193752036E+01 0.  0.
     999903    2    3    3    0    0 -0.82713634645E-01 -0.89171542101E-01 -0.34786784277E-01  0.12807602636E+00  0.20005971413E-01 0.  0.
         14    1    1    2    0    0  0.35186500384E-02 -0.23584263193E-01 -0.44990052104E-02  0.24266013606E-01  0.00000000000E+00 0. -1.
     999901    1    3    3    0    0  0.79194984606E-01  0.11275580529E+00  0.39285789488E-01  0.89158796003E+00  0.88000000000E+00 0.  1.
        -11    1    4    4    0    0 -0.59955877365E-01 -0.58336221267E-01 -0.32280618164E-01  0.89666723885E-01  0.51100000000E-03 0.  1.
         11    1    4    4    0    0 -0.22757757280E-01 -0.30835320834E-01 -0.25061661129E-02  0.38409302479E-01  0.51100000000E-03 0. -1.
</event>
<event>
 8    1  0.9952977E+004  0.1043930E+01  0.7957747E-01            NaN
         13   -1    0    0    0    0  0.00000000000E+00  0.00000000000E+00  0.74505805969E-08  0.10566000000E+00  0.10566000000E+00 0. -1.
     999900   -1    0    0    0    0 -0.00000000000E+00 -0.00000000000E+00 -0.74505805969E-08  0.93827000000E+00  0.93827000000E+00 0. -1.
     999902    2    1    2    0    0 -0.79181716259E-02 -0.20977777095E-01 -0.65320847532E-02  0.10205754993E+01  0.10203082461E+01 0.  0.
     999903    2    3    3    0    0 -0.93964158991E-01 -0.56385906745E-01 -0.72950825608E-01  0.13318094399E+00  0.20166983664E-01 0.  0.
         14    1    1    2    0    0  0.79181716259E-02  0.20977777095E-01  0.65320847532E-02  0.23354500743E-01  0.00000000000E+00 0.  1.
     999901    1    3    3    0    0  0.86045987365E-01  0.35408129650E-01  0.66418740855E-01  0.88739455527E+00  0.88000000000E+00 0.  1.
        -11    1    4    4    0    0 -0.53886234843E-01 -0.40352508459E-01 -0.52709111991E-01  0.85501829526E-01  0.51100000000E-03 0. -1.
         11    1    4    4    0    0 -0.40077924148E-01 -0.16033398285E-01 -0.20241713617E-01  0.47679114460E-01  0.51100000000E-03 0.  1.
</event>
<event>
 8    1  0.9952977E+004  0.1043930E+01  0.7957747E-01            NaN
         13   -1    0    0    0    0  0.00000000000E+00  0.00000000000E+00  0.74505805969E-08  0.10566000000E+00  0.10566000000E+00 0. -1.
     999900   -1    0    0    0    0 -0.00000000000E+00 -0.00000000000E+00 -0.74505805969E-08  0.93827000000E+00  0.93827000000E+00 0.  1.
     999902    2    1    2    0    0 -0.21182449133E-01 -0.71440258394E-02 -0.80755166504E-02  0.10201613815E+01  0.10198844528E+01 0.  0.
     999903    2    3    3    0    0 -0.47535171197E-01  0.71292031484E-01  0.95823303833E-01  0.13019416527E+00  0.20646279576E-01 0.  0.
         14    1    1    2    0    0  0.21182449133E-01  0.71440258394E-02  0.80755166504E-02  0.23768618505E-01  0.00000000000E+00 0. -1.
     999901    1    3    3    0    0  0.26352722064E-01 -0.78436057323E-01 -0.10389882048E+00  0.88996721622E+00  0.88000000000E+00 0.  1.
        -11    1    4    4    0    0 -0.31514635183E-01  0.43950682611E-01  0.45281496329E-01  0.70537293423E-01  0.51100000000E-03 0. -1.
         11    1    4    4    0    0 -0.16020536015E-01  0.27341348873E-01  0.50541807504E-01  0.59656871852E-01  0.51100000000E-03 0.  1.
</event>
<event>
 8    1  0.9952977E+004  0.1043930E+01  0.7957747E-01            NaN
         13   -1    0    0    0    0  0.00000000000E+00  0.00000000000E+00  0.74505805969E-08  0.10566000000E+00  0.10566000000E+00 0. -1.
     999900   -1    0    0    0    0 -0.00000000000E+00 -0.00000000000E+00 -0.74505805969E-08  0.93827000000E+00  0.93827000000E+00 0. -1.
     999902    2    1    2    0    0 -0.81047522877E-02  0.96763771979E-02  0.20087442343E-01  0.10202060748E+01  0.10199301988E+01 0.  0.
     999903    2    3    3    0    0  0.10303864854E-01  0.62997714781E-01 -0.11008087520E+00  0.12884428907E+00  0.20203218603E-01 0.  0.
         14    1    1    2    0    0  0.81047522877E-02 -0.96763771979E-02 -0.20087442343E-01  0.23723925165E-01  0.00000000000E+00 0.  1.
     999901    1    3    3    0    0 -0.18408617141E-01 -0.53321337583E-01  0.13016831755E+00  0.89136178576E+00  0.88000000000E+00 0.  1.
        -11    1    4    4    0    0 -0.41477106027E-02  0.16654900427E-01 -0.18832606190E-01  0.25485631018E-01  0.51100000000E-03 0. -1.
         11    1    4    4    0    0  0.14451575456E-01  0.46342814354E-01 -0.91248269014E-01  0.10335865805E+00  0.51100000000E-03 0.  1.
</event>
<event>
 8    1  0.9952977E+004  0.1043930E+01  0.7957747E-01            NaN
         13   -1    0    0    0    0  0.00000000000E+00  0.00000000000E+00  0.74505805969E-08  0.10566000000E+00  0.10566000000E+00 0.  1.
     999900   -1    0    0    0    0 -0.00000000000E+00 -0.00000000000E+00 -0.74505805969E-08  0.93827000000E+00  0.93827000000E+00 0.  1.
     999902    2    1    2    0    0  0.76422471567E-02 -0.21921868561E-01  0.83144479671E-02  0.10192702695E+01  0.10189719231E+01 0.  0.
     999903    2    3    3    0    0  0.62092514765E-01 -0.32821091041E-01  0.10977682798E+00  0.13170154583E+00  0.19016855877E-01 0.  0.
         14    1    1    2    0    0 -0.76422471567E-02  0.21921868561E-01 -0.83144479671E-02  0.24659730489E-01  0.00000000000E+00 0. -1.
     999901    1    3    3    0    0 -0.54450267609E-01  0.10899222480E-01 -0.10146238001E+00  0.88756872368E+00  0.88000000000E+00 0.  1.
        -11    1    4    4    0    0  0.19603018723E-01 -0.31240226598E-02  0.41190958540E-01  0.45727388369E-01  0.51100000000E-03 0.  1.
         11    1    4    4    0    0  0.42489496043E-01 -0.29697068381E-01  0.68585869436E-01  0.85974157464E-01  0.51100000000E-03 0. -1.
</event>
<event>
 8    1  0.9952977E+004  0.1043930E+01  0.7957747E-01            NaN
         13   -1    0    0    0    0  0.00000000000E+00  0.00000000000E+00  0.74505805969E-08  0.10566000000E+00  0.10566000000E+00 0. -1.
     999900   -1    0    0    0    0 -0.00000000000E+00 -0.00000000000E+00 -0.74505805969E-08  0.93827000000E+00  0.93827000000E+00 0. -1.
     999902    2    1    2    0    0  0.18311525564E-01 -0.13436974262E-01  0.65954230710E-02  0.10202791258E+01  0.10200049660E+01 0.  0.
     999903    2    3    3    0    0  0.10245729286E+00 -0.14847104761E-01 -0.79609560905E-01  0.13207093066E+00  0.19675242244E-01 0.  0.
         14    1    1    2    0    0 -0.18311525564E-01  0.13436974262E-01 -0.65954230710E-02  0.23650874218E-01  0.00000000000E+00 0.  1.
     999901    1    3    3    0    0 -0.84145767297E-01  0.14101304992E-02  0.86204983976E-01  0.88820819512E+00  0.88000000000E+00 0. -1.
        -11    1    4    4    0    0  0.32183439731E-01 -0.15005244902E-02 -0.14463699892E-01  0.35319755127E-01  0.51100000000E-03 0. -1.
         11    1    4    4    0    0  0.70273853130E-01 -0.13346580271E-01 -0.65145861013E-01  0.96751175532E-01  0.51100000000E-03 0.  1.
</event>
<event>
 8    1  0.9952977E+004  0.1043930E+01  0.7957747E-01            NaN
         13   -1    0    0    0    0  0.00000000000E+00  0.00000000000E+00  0.74505805969E-08  0.10566000000E+00  0.10566000000E+00 0.  1.
     999900   -1    0    0    0    0 -0.00000000000E+00 -0.00000000000E+00 -0.74505805969E-08  0.93827000000E+00  0.93827000000E+00 0.  1.
     999902    2    1    2    0    0  0.88181632547E-02  0.35129699648E-02  0.23290120309E-01  0.10187798377E+01  0.10184693550E+01 0.  0.
     999903    2    3    3    0    0  0.92999052224E-01  0.76621065903E-01  0.48296269567E-01  0.13139236691E+00  0.20293175552E-01 0.  0.
         14    1    1    2    0    0 -0.88181632547E-02 -0.35129699648E-02 -0.23290120309E-01  0.25150162329E-01  0.00000000000E+00 0. -1.
     999901    1    3    3    0    0 -0.84180888970E-01 -0.73108095938E-01 -0.25006149259E-01  0.88738747076E+00  0.88000000000E+00 0. -1.
        -11    1    4    4    0    0  0.64329223038E-01  0.56402923669E-01  0.24487248052E-01  0.88991152218E-01  0.51100000000E-03 0. -1.
         11    1    4    4    0    0  0.28669829187E-01  0.20218142234E-01  0.23809021516E-01  0.42401214694E-01  0.51100000000E-03 0.  1.
</event>
<event>
 8    1  0.9952977E+004  0.1043930E+01  0.7957747E-01            NaN
         13   -1    0    0    0    0  0.00000000000E+00  0.00000000000E+00  0.74505805969E-08  0.10566000000E+00  0.10566000000E+00 0.  1.
     999900   -1    0    0    0    0 -0.00000000000E+00 -0.00000000000E+00 -0.74505805969E-08  0.93827000000E+00  0.93827000000E+00 0. -1.
     999902    2    1    2    0    0 -0.20222402218E-01  0.46551554668E-02  0.10724216948E-01  0.10205713859E+01  0.10203040375E+01 0.  0.
     999903    2    3    3    0    0 -0.46308061935E-01  0.74599949030E-01 -0.95140133471E-01  0.13108839197E+00  0.20565323158E-01 0.  0.
         14    1    1    2    0    0  0.20222402218E-01 -0.46551554668E-02 -0.10724216948E-01  0.23358614107E-01  0.00000000000E+00 0.  1.
     999901    1    3    3    0    0  0.26085659718E-01 -0.69944793563E-01  0.10586435042E+00  0.88948299392E+00  0.88000000000E+00 0.  1.
        -11    1    4    4    0    0 -0.56523098050E-02  0.26498785273E-01 -0.31459648367E-01  0.41522341257E-01  0.51100000000E-03 0. -1.
         11    1    4    4    0    0 -0.40655752130E-01  0.48101163758E-01 -0.63680485104E-01  0.89566050712E-01  0.51100000000E-03 0.  1.
</event>
<event>
 8    1  0.9952977E+004  0.1043930E+01  0.7957747E-01            NaN
         13   -1    0    0    0    0  0.00000000000E+00  0.00000000000E+00  0.74505805969E-08  0.10566000000E+00  0.10566000000E+00 0. -1.
     999900   -1    0    0    0    0 -0.00000000000E+00 -0.00000000000E+00 -0.74505805969E-08  0.93827000000E+00  0.93827000000E+00 0.  1.
     999902    2    1    2    0    0  0.28409925819E-03  0.21867110190E-01  0.11310526120E-01  0.10193092928E+01  0.10190119014E+01 0.  0.
     999903    2    3    3    0    0  0.11137523846E+00 -0.60816640604E-01  0.33059062283E-03  0.12841176627E+00  0.19656167232E-01 0.  0.
         14    1    1    2    0    0 -0.28409925819E-03 -0.21867110190E-01 -0.11310526120E-01  0.24620707170E-01  0.00000000000E+00 0.  1.
     999901    1    3    3    0    0 -0.11109113920E+00  0.82683750794E-01  0.10979935497E-01  0.89089752656E+00  0.88000000000E+00 0.  1.
        -11    1    4    4    0    0  0.78476533159E-01 -0.49089753248E-01  0.70739122608E-02  0.92836800280E-01  0.51100000000E-03 0.  1.
         11    1    4    4    0    0  0.32898705296E-01 -0.11726887356E-01 -0.67433216379E-02  0.35574965986E-01  0.51100000000E-03 0. -1.
</event>
<event>
 8    1  0.9952977E+004  0.1043930E+01  0.7957747E-01            NaN
         13   -1    0    0    0    0  0.00000000000E+00  0.00000000000E+00  0.74505805969E-08  0.10566000000E+00  0.10566000000E+00 0.  1.
     999900   -1    0    0    0    0 -0.00000000000E+00 -0.00000000000E+00 -0.74505805969E-08  0.93827000000E+00  0.93827000000E+00 0.  1.
     999902    2    1    2    0    0  0.77866579667E-02  0.16639970811E-01  0.20763644994E-01  0.10162054689E+01  0.10158272025E+01 0.  0.
     999903    2    3    3    0    0  0.74276348219E-01  0.31402281223E-02 -0.99639814824E-01  0.12541923467E+00  0.16584775872E-01 0.  0.
         14    1    1    2    0    0 -0.77866579667E-02 -0.16639970811E-01 -0.20763644994E-01  0.27724531093E-01  0.00000000000E+00 0. -1.
     999901    1    3    3    0    0 -0.66489690253E-01  0.13499742689E-01  0.12040345982E+00  0.89078623423E+00  0.88000000000E+00 0. -1.
        -11    1    4    4    0    0  0.28058702535E-01 -0.82521584486E-03 -0.50913620406E-01  0.58141462253E-01  0.51100000000E-03 0.  1.
         11    1    4    4    0    0  0.46217645685E-01  0.39654439671E-02 -0.48726194418E-01  0.67277772421E-01  0.51100000000E-03 0. -1.
</event>
<event>
 8    1  0.9952977E+004  0.1043930E+01  0.7957747E-01            NaN
         13   -1    0    0    0    0  0.00000000000E+00  0.00000000000E+00  0.74505805969E-08  0.10566000000E+00  0.10566000000E+00 0. -1.
     999900   -1    0    0    0    0 -0.00000000000E+00 -0.00000000000E+00 -0.74505805969E-08  0.93827000000E+00  0.93827000000E+00 0. -1.
     999902    2    1    2    0    0  0.79624906475E-02  0.21900571800E-01  0.10166603988E-01  0.10185056782E+01  0.10181883030E+01 0.  0.
     999903    2    3    3    0    0 -0.79358344372E-01  0.50620614234E-01  0.87859770977E-01  0.13031313305E+00  0.20049435935E-01 0.  0.
         14    1    1    2    0    0 -0.79624906475E-02 -0.21900571800E-01 -0.10166603988E-01  0.25424321802E-01  0.00000000000E+00 0. -1.
     999901    1    3    3    0    0  0.87320835019E-01 -0.28720042434E-01 -0.77693166989E-01  0.88819254515E+00  0.88000000000E+00 0. -1.
        -11    1    4    4    0    0 -0.32381857235E-01  0.10726281197E-01  0.25132441630E-01  0.42373795317E-01  0.51100000000E-03 0. -1.
         11    1    4    4    0    0 -0.46976487137E-01  0.39894333037E-01  0.62727329348E-01  0.87939337730E-01  0.51100000000E-03 0.  1.
</event>
<event>
 8    1  0.9952977E+004  0.1043930E+01  0.7957747E-01            NaN
         13   -1    0    0    0    0  0.00000000000E+00  0.00000000000E+00  0.74505805969E-08  0.10566000000E+00  0.10566000000E+00 0.  1.
     999900   -1    0    0    0    0 -0.00000000000E+00 -0.00000000000E+00 -0.74505805969E-08  0.93827000000E+00  0.93827000000E+00 0.  1.
     999902    2    1    2    0    0 -0.47723545143E-02 -0.13073854171E-01 -0.19043185576E-01  0.10203430556E+01  0.10200703932E+01 0.  0.
     999903    2    3    3    0    0  0.67811222759E-02 -0.82227095251E-01 -0.10311394551E+00  0.13356036164E+00  0.19965110335E-01 0.  0.
         14    1    1    2    0    0  0.47723545143E-02  0.13073854171E-01  0.19043185576E-01  0.23586944426E-01  0.00000000000E+00 0.  1.
     999901    1    3    3    0    0 -0.11553476790E-01  0.69153241080E-01  0.84070759935E-01  0.88678269393E+00  0.88000000000E+00 0. -1.
        -11    1    4    4    0    0  0.15854625331E-02 -0.68549581873E-01 -0.93866499211E-01  0.11624431023E+00  0.51100000000E-03 0.  1.
         11    1    4    4    0    0  0.51956597429E-02 -0.13677513378E-01 -0.92474462996E-02  0.17316051410E-01  0.51100000000E-03 0. -1.
</event>
<event>
 8    1  0.9952977E+004  0.1043930E+01  0.7957747E-01            NaN
         13   -1    0    0    0    0  0.00000000000E+00  0.00000000000E+00  0.74505805969E-08  0.10566000000E+00  0.10566000000E+00 0.  1.
     999900   -1    0    0    0    0 -0.00000000000E+00 -0.00000000000E+00 -0.74505805969E-08  0.93827000000E+00  0.93827000000E+00 0. -1.
     999902    2    1    2    0    0 -0.21183650056E-01 -0.57465157865E-02  0.93969699386E-02  0.10200538086E+01  0.10197743377E+01 0.  0.
     999903    2    3    3    0    0  0.10185868980E+00 -0.37249843946E-01 -0.64155307149E-01  0.12789809651E+00  0.21892375259E-01 0.  0.
         14    1    1    2    0    0  0.21183650056E-01  0.57465157865E-02 -0.93969699386E-02  0.23876191434E-01  0.00000000000E+00 0. -1.
     999901    1    3    3    0    0 -0.12304233986E+00  0.31503328159E-01  0.73552277087E-01  0.89215571205E+00  0.88000000000E+00 0.  1.
        -11    1    4    4    0    0  0.35252327618E-01 -0.10240293234E-01 -0.10442450184E-01  0.38169308284E-01  0.51100000000E-03 0.  1.
         11    1    4    4    0    0  0.66606362183E-01 -0.27009550712E-01 -0.53712856965E-01  0.89728788230E-01  0.51100000000E-03 0. -1.
</event>
<event>
 8    1  0.9952977E+004  0.1043930E+01  0.7957747E-01            NaN
         13   -1    0    0    0    0  0.00000000000E+00  0.00000000000E+00  0.74505805969E-08  0.10566000000E+00  0.10566000000E+00 0. -1.
     999900   -1    0    0    0    0 -0.00000000000E+00 -0.00000000000E+00 -0.74505805969E-08  0.93827000000E+00  0.93827000000E+00 0. -1.
     999902    2    1    2    0    0  0.20746415317E-01  0.26212367890E-02  0.11439132694E-01  0.10200943463E+01  0.10198158348E+01 0.  0.
     999903    2    3    3    0    0 -0.10657495541E+00  0.61059132565E-01 -0.30139315482E-01  0.12804362663E+00  0.20008827826E-01 0.  0.
         14    1    1    2    0    0 -0.20746415317E-01 -0.26212367890E-02 -0.11439132694E-01  0.23835653706E-01  0.00000000000E+00 0. -1.
     999901    1    3    3    0    0  0.12732137073E+00 -0.58437895776E-01  0.41578448176E-01  0.89205071967E+00  0.88000000000E+00 0.  1.
        -11    1    4    4    0    0 -0.28874078962E-01  0.12526648687E-01 -0.16111771765E-01  0.35362122018E-01  0.51100000000E-03 0.  1.
         11    1    4    4    0    0 -0.77700876451E-01  0.48532483878E-01 -0.14027543717E-01  0.92681504608E-01  0.51100000000E-03 0. -1.
</event>
<event>
 8    1  0.9952977E+004  0.1043930E+01  0.7957747E-01            NaN
         13   -1    0    0    0    0  0.00000000000E+00  0.00000000000E+00  0.74505805969E-08  0.10566000000E+00  0.10566000000E+00 0. -1.
     999900   -1    0    0    0    0 -0.00000000000E+00 -0.00000000000E+00 -0.74505805969E-08  0.93827000000E+00  0.93827000000E+00 0.  1.
     999902    2    1    2    0    0 -0.37564658617E-02  0.21701925078E-01 -0.91010616310E-02  0.10200990556E+01  0.10198206555E+01 0.  0.
     999903    2    3    3    0    0 -0.37089244456E-01 -0.72806690807E-01  0.96164007211E-01  0.12817770968E+00  0.22485166107E-01 0.  0.
         14    1    1    2    0    0  0.37564658617E-02 -0.21701925078E-01  0.91010616310E-02  0.23830944393E-01  0.00000000000E+00 0. -1.
     999901    1    3    3    0    0  0.33332778594E-01  0.94508615885E-01 -0.10526506884E+00  0.89192134593E+00  0.88000000000E+00 0.  1.
        -11    1    4    4    0    0 -0.29875481379E-02 -0.26538399924E-01  0.23910918741E-01  0.35849759698E-01  0.51100000000E-03 0. -1.
         11    1    4    4    0    0 -0.34101696318E-01 -0.46268290883E-01  0.72253088470E-01  0.92327949980E-01  0.51100000000E-03 0.  1.
</event>
<event>
 8    1  0.9952977E+004  0.1043930E+01  0.7957747E-01            NaN
         13   -1    0    0    0    0  0.00000000000E+00  0.00000000000E+00  0.74505805969E-08  0.10566000000E+00  0.10566000000E+00 0. -1.
     999900   -1    0    0    0    0 -0.00000000000E+00 -0.00000000000E+00 -0.74505805969E-08  0.93827000000E+00  0.93827000000E+00 0. -1.
     999902    2    1    2    0    0  0.16352867307E-01  0.95824755185E-02 -0.15621307506E-01  0.10193685392E+01  0.10190725948E+01 0.  0.
     999903    2    3    3    0    0 -0.29526467528E-01  0.11701919515E-03  0.12232637908E+00  0.12739092043E+00  0.19821140534E-01 0.  0.
         14    1    1    2    0    0 -0.16352867307E-01 -0.95824755185E-02  0.15621307506E-01  0.24561460755E-01  0.00000000000E+00 0. -1.
     999901    1    3    3    0    0  0.45879334834E-01  0.94654563233E-02 -0.13794768658E+00  0.89197761881E+00  0.88000000000E+00 0. -1.
        -11    1    4    4    0    0 -0.22775957635E-01  0.29527650762E-02  0.54159836132E-01  0.58830366637E-01  0.51100000000E-03 0. -1.
         11    1    4    4    0    0 -0.67505098928E-02 -0.28357458811E-02  0.68166542947E-01  0.68560553796E-01  0.51100000000E-03 0.  1.
</event>
<event>
 8    1  0.9952977E+004  0.1043930E+01  0.7957747E-01            NaN
         13   -1    0    0    0    0  0.00000000000E+00  0.00000000000E+00  0.74505805969E-08  0.10566000000E+00  0.10566000000E+00 0. -1.
     999900   -1    0    0    0    0 -0.00000000000E+00 -0.00000000000E+00 -0.74505805969E-08  0.93827000000E+00  0.93827000000E+00 0. -1.
     999902    2    1    2    0    0  0.59769891153E-03 -0.14334759871E-01  0.19342305203E-01  0.10198474886E+01  0.10195631087E+01 0.  0.
     999903    2    3    3    0    0  0.45328056634E-01 -0.82852962962E-01 -0.86728353252E-01  0.12970899733E+00  0.19579850399E-01 0.  0.
         14    1    1    2    0    0 -0.59769891153E-03  0.14334759871E-01 -0.19342305203E-01  0.24082511395E-01  0.00000000000E+00 0.  1.
     999901    1    3    3    0    0 -0.44730357723E-01  0.68518203092E-01  0.10607065846E+00  0.89013849127E+00  0.88000000000E+00 0.  1.
        -11    1    4    4    0    0  0.25542922188E-01 -0.27244307564E-01 -0.31129738383E-01  0.48621136364E-01  0.51100000000E-03 0. -1.
         11    1    4    4    0    0  0.19785134446E-01 -0.55608655399E-01 -0.55598614869E-01  0.81087860970E-01  0.51100000000E-03 0.  1.
</event>
<event>
 8    1  0.9952977E+004  0.1043930E+01  0.7957747E-01            NaN
         13   -1    0    0    0    0  0.00000000000E+00  0.00000000000E+00  0.74505805969E-08  0.10566000000E+00  0.10566000000E+00 0. -1.
     999900   -1    0    0    0    0 -0.00000000000E+00 -0.00000000000E+00 -0.74505805969E-08  0.93827000000E+00  0.93827000000E+00 0. -1.
     999902    2    1    2    0    0 -0.15662763661E-01  0.12356138636E-01 -0.12814689361E-01  0.10202189774E+01  0.10199434050E+01 0.  0.
     999903    2    3    3    0    0 -0.47862006148E-01 -0.44784832936E-01 -0.11308245505E+00  0.13209989382E+00  0.19138636651E-01 0.  0.
         14    1    1    2    0    0  0.15662763661E-01 -0.12356138636E-01  0.12814689361E-01  0.23711022562E-01  0.00000000000E+00 0. -1.
     999901    1    3    3    0    0  0.32199242488E-01  0.57140971572E-01  0.10026776569E+00  0.88811908362E+00  0.88000000000E+00 0.  1.
        -11    1    4    4    0    0 -0.57286398533E-02  0.55782171835E-03 -0.15492539103E-01  0.16535064817E-01  0.51100000000E-03 0. -1.
         11    1    4    4    0    0 -0.42133366295E-01 -0.45342654654E-01 -0.97589915951E-01  0.11556482900E+00  0.51100000000E-03 0.  1.
</event>
<event>
 8    1  0.9952977E+004  0.1043930E+01  0.7957747E-01            NaN
         13   -1    0    0    0    0  0.00000000000E+00  0.00000000000E+00  0.74505805969E-08  0.10566000000E+00  0.10566000000E+00 0.  1.
     999900   -1    0    0    0    0 -0.00000000000E+00 -0.00000000000E+00 -0.74505805969E-08  0.93827000000E+00  0.93827000000E+00 0.  1.
     999902    2    1    2    0    0 -0.62238849838E-02 -0.84865943765E-02 -0.21806069138E-01  0.10197171175E+01  0.10194296131E+01 0.  0.
     999903    2    3    3    0    0  0.11484458741E+00  0.17305948290E-01 -0.55839428767E-01  0.13040215650E+00  0.19947569086E-01 0.  0.
         14    1    1    2    0    0  0.62238849838E-02  0.84865943765E-02  0.21806069138E-01  0.24212882514E-01  0.00000000000E+00 0. -1.
     999901    1    3    3    0    0 -0.12106847239E+00 -0.25792542667E-01  0.34033359630E-01  0.88931496098E+00  0.88000000000E+00 0. -1.
        -11    1    4    4    0    0  0.60891135872E-01 -0.76822534299E-03 -0.27147570802E-01  0.66675125192E-01  0.51100000000E-03 0. -1.
         11    1    4    4    0    0  0.53953451534E-01  0.18074173633E-01 -0.28691857965E-01  0.63727031309E-01  0.51100000000E-03 0.  1.
</event>
<event>
 8    1  0.9952977E+004  0.1043930E+01  0.7957747E-01            NaN
         13   -1    0    0    0    0  0.00000000000E+00  0.00000000000E+00  0.74505805969E-08  0.10566000000E+00  0.10566000000E+00 0. -1.
     999900   -1    0    0    0    0 -0.00000000000E+00 -0.00000000000E+00 -0.74505805969E-08  0.93827000000E+00  0.93827000000E+00 0. -1.
     999902    2    1    2    0    0 -0.10810824103E-01 -0.22945663578E-03  0.21126643783E-01  0.10201968661E+01  0.10199207734E+01 0.  0.
     999903    2    3    3    0    0 -0.12026195328E+00 -0.14617753749E-01  0.48260840886E-01  0.13288472403E+00  0.25546525919E-01 0.  0.
         14    1    1    2    0    0  0.10810824103E-01  0.22945663578E-03 -0.21126643783E-01  0.23733133920E-01  0.00000000000E+00 0.  1.
     999901    1    3    3    0    0  0.10945112918E+00  0.14388297113E-01 -0.27134197103E-01  0.88731214205E+00  0.88000000000E+00 0.  1.
        -11    1    4    4    0    0 -0.74313627417E-01 -0.12652218843E-01  0.42479653852E-01  0.86529624834E-01  0.51100000000E-03 0.  1.
         11    1    4    4    0    0 -0.45948325864E-01 -0.19655349055E-02  0.57811870336E-02  0.46355099199E-01  0.51100000000E-03 0. -1.
</event>
<event>
 8    1  0.9952977E+004  0.1043930E+01  0.7957747E-01            NaN
         13   -1    0    0    0    0  0.00000000000E+00  0.00000000000E+00  0.74505805969E-08  0.10566000000E+00  0.10566000000E+00 0. -1.
     999900   -1    0    0    0    0 -0.00000000000E+00 -0.00000000000E+00 -0.74505805969E-08  0.93827000000E+00  0.93827000000E+00 0.  1.
     999902    2    1    2    0    0  0.25817909845E-03  0.10471086212E-02  0.23839545866E-01  0.10200660724E+01  0.10197868920E+01 0.  0.
     999903    2    3    3    0    0  0.50820552867E-01  0.10949734527E+00 -0.42343732707E-01  0.12950544346E+00  0.20156164597E-01 0.  0.
         14    1    1    2    0    0 -0.25817909845E-03 -0.10471086212E-02 -0.23839545866E-01  0.23863927590E-01  0.00000000000E+00 0.  1.
     999901    1    3    3    0    0 -0.50562373769E-01 -0.10845023665E+00  0.66183278573E-01  0.89056062895E+00  0.88000000000E+00 0. -1.
        -11    1    4    4    0    0  0.83939988696E-02  0.14370705956E-01 -0.13471480494E-01  0.21417710298E-01  0.51100000000E-03 0.  1.
         11    1    4    4    0    0  0.42426553998E-01  0.95126639316E-01 -0.28872252213E-01  0.10808773316E+00  0.51100000000E-03 0. -1.
</event>
<event>
 8    1  0.9952977E+004  0.1043930E+01  0.7957747E-01            NaN
         13   -1    0    0    0    0  0.00000000000E+00  0.00000000000E+00  0.74505805969E-08  0.10566000000E+00  0.10566000000E+00 0. -1.
     999900   -1    0    0    0    0 -0.00000000000E+00 -0.00000000000E+00 -0.74505805969E-08  0.93827000000E+00  0.93827000000E+00 0. -1.
     999902    2    1    2    0    0 -0.16835025057E-02 -0.23322243474E-01 -0.15598398758E-02  0.10204951046E+01  0.10202259868E+01 0.  0.
     999903    2    3    3    0    0  0.96413362094E-01  0.21315095386E-01 -0.82467327920E-01  0.13023586794E+00  0.20264536553E-01 0.  0.
         14    1    1    2    0    0  0.16835025057E-02  0.23322243474E-01  0.15598398758E-02  0.23434895387E-01  0.00000000000E+00 0. -1.
     999901    1    3    3    0    0 -0.98096864599E-01 -0.44637338860E-01  0.80907488044E-01  0.89025923668E+00  0.88000000000E+00 0.  1.
        -11    1    4    4    0    0  0.30921146134E-01  0.47758396197E-02 -0.14774554785E-01  0.34604544679E-01  0.51100000000E-03 0.  1.
         11    1    4    4    0    0  0.65492215959E-01  0.16539255766E-01 -0.67692773134E-01  0.95631323258E-01  0.51100000000E-03 0. -1.
</event>
<event>
 8    1  0.9952977E+004  0.1043930E+01  0.7957747E-01            NaN
         13   -1    0    0    0    0  0.00000000000E+00  0.00000000000E+00  0.74505805969E-08  0.10566000000E+00  0.10566000000E+00 0. -1.
     999900   -1    0    0    0    0 -0.00000000000E+00 -0.00000000000E+00 -0.74505805969E-08  0.93827000000E+00  0.93827000000E+00 0.  1.
     999902    2    1    2    0    0 -0.23637638728E-01  0.97235219488E-02  0.32833675859E-02  0.10181605346E+01  0.10178343720E+01 0.  0.
     999903    2    3    3    0    0 -0.67172986634E-01 -0.49126506197E-01 -0.97024232937E-01  0.12944220631E+00  0.20395079153E-01 0.  0.
         14    1    1    2    0    0  0.23637638728E-01 -0.97235219488E-02 -0.32833675859E-02  0.25769465389E-01  0.00000000000E+00 0.  1.
     999901    1    3    3    0    0  0.43535347906E-01  0.58850028146E-01  0.10030760052E+00  0.88871832830E+00  0.88000000000E+00 0. -1.
        -11    1    4    4    0    0 -0.32217382740E-01 -0.35691794025E-01 -0.58276297709E-01  0.75552974177E-01  0.51100000000E-03 0. -1.
         11    1    4    4    0    0 -0.34955603894E-01 -0.13434712172E-01 -0.38747935228E-01  0.53889232136E-01  0.51100000000E-03 0.  1.
</event>
<event>
 8    1  0.9952977E+004  0.1043930E+01  0.7957747E-01            NaN
         13   -1    0    0    0    0  0.00000000000E+00  0.00000000000E+00  0.74505805969E-08  0.10566000000E+00  0.10566000000E+00 0. -1.
     999900   -1    0    0    0    0 -0.00000000000E+00 -0.00000000000E+00 -0.74505805969E-08  0.93827000000E+00  0.93827000000E+00 0. -1.
     999902    2    1    2    0    0  0.21400169632E-01 -0.92805684398E-02  0.42494847780E-02  0.10202202060E+01  0.10199446624E+01 0.  0.
     999903    2    3    3    0    0 -0.86915938294E-01 -0.90002098526E-01 -0.26903420095E-01  0.12936732918E+00  0.18903803239E-01 0.  0.
         14    1    1    2    0    0 -0.21400169632E-01  0.92805684398E-02 -0.42494847780E-02  0.23709794004E-01  0.00000000000E+00 0.  1.
     999901    1    3    3    0    0  0.10831610793E+00  0.80721530086E-01  0.31152904873E-01  0.89085287682E+00  0.88000000000E+00 0.  1.
        -11    1    4    4    0    0 -0.37964690969E-01 -0.47154823162E-01 -0.51033623911E-02  0.60755251103E-01  0.51100000000E-03 0.  1.
         11    1    4    4    0    0 -0.48951247325E-01 -0.42847275364E-01 -0.21800057704E-01  0.68612078074E-01  0.51100000000E-03 0. -1.
</event>
<event>
 8    1  0.9952977E+004  0.1043930E+01  0.7957747E-01            NaN
         13   -1    0    0    0    0  0.00000000000E+00  0.00000000000E+00  0.74505805969E-08  0.10566000000E+00  0.10566000000E+00 0. -1.
     999900   -1    0    0    0    0 -0.00000000000E+00 -0.00000000000E+00 -0.74505805969E-08  0.93827000000E+00  0.93827000000E+00 0. -1.
     999902    2    1    2    0    0  0.33595385843E-02  0.16557309966E-01  0.17338205104E-01  0.10197216467E+01  0.10194342511E+01 0.  0.
     999903    2    3    3    0    0  0.29094401026E-02 -0.27349582624E-01  0.12745096498E+00  0.13177297832E+00  0.19076289699E-01 0.  0.
         14    1    1    2    0    0 -0.33595385843E-02 -0.16557309966E-01 -0.17338205104E-01  0.24208353291E-01  0.00000000000E+00 0. -1.
     999901    1    3    3    0    0  0.45009848175E-03  0.43906892590E-01 -0.11011275988E+00  0.88794866839E+00  0.88000000000E+00 0.  1.
        -11    1    4    4    0    0  0.33835993046E-02  0.10397814624E-02  0.31657057297E-01  0.31858441385E-01  0.51100000000E-03 0. -1.
         11    1    4    4    0    0 -0.47415920206E-03 -0.28389364087E-01  0.95793907687E-01  0.99914536936E-01  0.51100000000E-03 0.  1.
</event>
<event>
 8    1  0.9952977E+004  0.1043930E+01  0.7957747E-01            NaN
         13   -1    0    0    0    0  0.00000000000E+00  0.00000000000E+00  0.74505805969E-08  0.10566000000E+00  0.10566000000E+00 0.  1.
     999900   -1    0    0    0    0 -0.00000000000E+00 -0.00000000000E+00 -0.74505805969E-08  0.93827000000E+00  0.93827000000E+00 0.  1.
     999902    2    1    2    0    0 -0.59114227147E-02 -0.15557774264E-01  0.16233386308E-01  0.10206810841E+01  0.10204162697E+01 0.  0.
     999903    2    3    3    0    0  0.10838445713E+00  0.58174942882E-01  0.36434146563E-01  0.13000261663E+00  0.21017106564E-01 0.  0.
         14    1    1    2    0    0  0.59114227147E-02  0.15557774264E-01 -0.16233386308E-01  0.23248915880E-01  0.00000000000E+00 0. -1.
     999901    1    3    3    0    0 -0.11429587985E+00 -0.73732717145E-01 -0.20200760255E-01  0.89067846749E+00  0.88000000000E+00 0.  1.
        -11    1    4    4    0    0  0.19596637178E-01  0.23790943789E-02  0.83646213722E-02  0.21445659012E-01  0.51100000000E-03 0.  1.
         11    1    4    4    0    0  0.88787819957E-01  0.55795848503E-01  0.28069525191E-01  0.10855695762E+00  0.51100000000E-03 0. -1.
</event>
<event>
 8    1  0.9952977E+004  0.1043930E+01  0.7957747E-01            NaN
         13   -1    0    0    0    0  0.00000000000E+00  0.00000000000E+00  0.74505805969E-08  0.10566000000E+00  0.10566000000E+00 0.  1.
     999900   -1    0    0    0    0 -0.00000000000E+00 -0.00000000000E+00 -0.74505805969E-08  0.93827000000E+00  0.93827000000E+00 0.  1.
     999902    2    1    2    0    0  0.23614359562E-01  0.10179116912E-02  0.44176228057E-02  0.10198844284E+01  0.10196009307E+01 0.  0.
     999903    2    3    3    0    0 -0.94843804052E-01  0.14635473884E-01 -0.82060657249E-01  0.12764215893E+00  0.18682210937E-01 0.  0.
         14    1    1    2    0    0 -0.23614359562E-01 -0.10179116912E-02 -0.44176228057E-02  0.24045571588E-01  0.00000000000E+00 0.  1.
     999901    1    3    3    0    0  0.11845816361E+00 -0.13617562193E-01  0.86478280055E-01  0.89224226948E+00  0.88000000000E+00 0. -1.
        -11    1    4    4    0    0 -0.84645471332E-01  0.14054527940E-01 -0.64593518388E-01  0.10740097444E+00  0.51100000000E-03 0. -1.
         11    1    4    4    0    0 -0.10198332720E-01  0.58094594389E-03 -0.17467138862E-01  0.20241184488E-01  0.51100000000E-03 0.  1.
</event>
<event>
 8    1  0.9952977E+004  0.1043930E+01  0.7957747E-01            NaN
         13   -1    0    0    0    0  0.00000000000E+00  0.00000000000E+00  0.74505805969E-08  0.10566000000E+00  0.10566000000E+00 0. -1.
     999900   -1    0    0    0    0 -0.00000000000E+00 -0.00000000000E+00 -0.74505805969E-08  0.93827000000E+00  0.93827000000E+00 0. -1.
     999902    2    1    2    0    0 -0.10740396710E-01 -0.17780298385E-01  0.11272487569E-01  0.10202960391E+01  0.10200222759E+01 0.  0.
     999903    2    3    3    0    0 -0.39860391235E-01  0.24911426238E-01  0.12160362010E+00  0.13190225465E+00  0.20033332586E-01 0.  0.
         14    1    1    2    0    0  0.10740396710E-01  0.17780298385E-01 -0.11272487569E-01  0.23633960906E-01  0.00000000000E+00 0.  1.
     999901    1    3    3    0    0  0.29119994526E-01 -0.42691724622E-01 -0.11033113253E+00  0.88839378444E+00  0.88000000000E+00 0. -1.
        -11    1    4    4    0    0 -0.13538900452E-01 -0.66202545034E-03  0.23170103150E-01  0.26848741202E-01  0.51100000000E-03 0. -1.
         11    1    4    4    0    0 -0.26321490783E-01  0.25573451688E-01  0.98433516947E-01  0.10505351345E+00  0.51100000000E-03 0.  1.
</event>
<event>
 8    1  0.9952977E+004  0.1043930E+01  0.7957747E-01            NaN
         13   -1    0    0    0    0  0.00000000000E+00  0.00000000000E+00  0.74505805969E-08  0.10566000000E+00  0.10566000000E+00 0.  1.
     999900   -1    0    0    0    0 -0.00000000000E+00 -0.00000000000E+00 -0.74505805969E-08  0.93827000000E+00  0.93827000000E+00 0.  1.
     999902    2    1    2    0    0  0.12287602813E-02 -0.24066025217E-01  0.64638287352E-02  0.10189807615E+01  0.10186752808E+01 0.  0.
     999903    2    3    3    0    0 -0.12548197910E+00  0.20657578711E-01  0.73585516057E-02  0.12878043977E+00  0.18915357462E-01 0.  0.
         14    1    1    2    0    0 -0.12287602813E-02  0.24066025217E-01 -0.64638287352E-02  0.24949238535E-01  0.00000000000E+00 0.  1.
     999901    1    3    3    0    0  0.12671073938E+00 -0.44723603928E-01 -0.89472287058E-03  0.89020032170E+00  0.88000000000E+00 0.  1.
        -11    1    4    4    0    0 -0.69319491994E-01  0.41757239061E-02 -0.21480716429E-02  0.69480241603E-01  0.51100000000E-03 0.  1.
         11    1    4    4    0    0 -0.56162487105E-01  0.16481854804E-01  0.95066232486E-02  0.59300198163E-01  0.51100000000E-03 0. -1.
</event>
<event>
 8    1  0.9952977E+004  0.1043930E+01  0.7957747E-01            NaN
         13   -1    0    0    0    0  0.00000000000E+00  0.00000000000E+00  0.74505805969E-08  0.10566000000E+00  0.10566000000E+00 0.  1.
     999900   -1    0    0    0    0 -0.00000000000E+00 -0.00000000000E+00 -0.74505805969E-08  0.93827000000E+00  0.93827000000E+00 0.  1.
     999902    2    1    2    0    0  0.20962265483E-01 -0.95803003418E-02  0.50517081813E-02  0.10203351174E+01  0.10200622693E+01 0.  0.
     999903    2    3    3    0    0  0.93935233578E-01  0.86997296609E-01 -0.22527465814E-01  0.13162093549E+00  0.20596752634E-01 0.  0.
         14    1    1    2    0    0 -0.20962265483E-01  0.95803003418E-02 -0.50517081813E-02  0.23594882589E-01  0.00000000000E+00 0. -1.
     999901    1    3    3    0    0 -0.72972968095E-01 -0.96577596951E-01  0.27579173996E-01  0.88871418192E+00  0.88000000000E+00 0.  1.
        -11    1    4    4    0    0  0.71056855868E-01  0.58882019268E-01 -0.23950567014E-01  0.95341804788E-01  0.51100000000E-03 0. -1.
         11    1    4    4    0    0  0.22878377711E-01  0.28115277341E-01  0.14231012000E-02  0.36279130704E-01  0.51100000000E-03 0.  1.
</event>
<event>
 8    1  0.9952977E+004  0.1043930E+01  0.7957747E-01            NaN
         13   -1    0    0    0    0  0.00000000000E+00  0.00000000000E+00  0.74505805969E-08  0.10566000000E+00  0.10566000000E+00 0.  1.
     999900   -1    0    0    0    0 -0.00000000000E+00 -0.00000000000E+00 -0.74505805969E-08  0.93827000000E+00  0.93827000000E+00 0. -1.
     999902    2    1    2    0    0  0.43200579056E-02  0.24028342739E-01 -0.21844248070E-02  0.10194188624E+01  0.10191241441E+01 0.  0.
     999903    2    3    3    0    0  0.10192838122E+00 -0.73659333713E-01 -0.17321809993E-01  0.12852077207E+00  0.20061191679E-01 0.  0.
         14    1    1    2    0    0 -0.43200579056E-02 -0.24028342739E-01  0.21844248070E-02  0.24511137608E-01  0.00000000000E+00 0. -1.
     999901    1    3    3    0    0 -0.97608323311E-01  0.97687676452E-01  0.15137385186E-01  0.89089809032E+00  0.88000000000E+00 0. -1.
        -11    1    4    4    0    0  0.79843637561E-01 -0.46737465701E-01 -0.12094884294E-01  0.93305650988E-01  0.51100000000E-03 0.  1.
         11    1    4    4    0    0  0.22084743655E-01 -0.26921868012E-01 -0.52269256988E-02  0.35215121082E-01  0.51100000000E-03 0. -1.
</event>
<event>
 8    1  0.9952977E+004  0.1043930E+01  0.7957747E-01            NaN
         13   -1    0    0    0    0  0.00000000000E+00  0.00000000000E+00  0.74505805969E-08  0.10566000000E+00  0.10566000000E+00 0.  1.
     999900   -1    0    0    0    0 -0.00000000000E+00 -0.00000000000E+00 -0.74505805969E-08  0.93827000000E+00  0.93827000000E+00 0. -1.
     999902    2    1    2    0    0  0.28642797356E-02  0.87329502476E-02  0.23149766450E-01  0.10190225673E+01  0.10187181222E+01 0.  0.
     999903    2    3    3    0    0  0.76169671395E-01  0.10381933539E+00 -0.16606295000E-02  0.13052346382E+00  0.21291868779E-01 0.  0.
         14    1    1    2    0    0 -0.28642797356E-02 -0.87329502476E-02 -0.23149766450E-01  0.24907432728E-01  0.00000000000E+00 0. -1.
     999901    1    3    3    0    0 -0.73305391660E-01 -0.95086385143E-01  0.24810395950E-01  0.88849910345E+00  0.88000000000E+00 0.  1.
        -11    1    4    4    0    0  0.18318082869E-01  0.23035120850E-01 -0.92922307263E-02  0.30867063764E-01  0.51100000000E-03 0. -1.
         11    1    4    4    0    0  0.57851588526E-01  0.80784214541E-01  0.76316012262E-02  0.99656400056E-01  0.51100000000E-03 0.  1.
</event>
<event>
 8    1  0.9952977E+004  0.1043930E+01  0.7957747E-01            NaN
         13   -1    0    0    0    0  0.00000000000E+00  0.00000000000E+00  0.74505805969E-08  0.10566000000E+00  0.10566000000E+00 0. -1.
     999900   -1    0    0    0    0 -0.00000000000E+00 -0.00000000000E+00 -0.74505805969E-08  0.93827000000E+00  0.93827000000E+00 0. -1.
     999902    2    1    2    0    0  0.21288375411E-01  0.95004883350E-02 -0.23584777375E-02  0.10204988962E+01  0.10202298665E+01 0.  0.
     999903    2    3    3    0    0 -0.98869281621E-01  0.36143915573E-01  0.71576507388E-01  0.12886325497E+00  0.20025598366E-01 0.  0.
         14    1    1    2    0    0 -0.21288375411E-01 -0.95004883350E-02  0.23584777375E-02  0.23431103762E-01  0.00000000000E+00 0.  1.
     999901    1    3    3    0    0  0.12015765703E+00 -0.26643427238E-01 -0.73934985126E-01  0.89163564127E+00  0.88000000000E+00 0. -1.
        -11    1    4    4    0    0 -0.31411543495E-01  0.21643511164E-01  0.24801612545E-01  0.45502832286E-01  0.51100000000E-03 0.  1.
         11    1    4    4    0    0 -0.67457738125E-01  0.14500404409E-01  0.46774894843E-01  0.83360422681E-01  0.51100000000E-03 0. -1.
</event>
<event>
 8    1  0.9952977E+004  0.1043930E+01  0.7957747E-01            NaN
         13   -1    0    0    0    0  0.00000000000E+00  0.00000000000E+00  0.74505805969E-08  0.10566000000E+00  0.10566000000E+00 0.  1.
     999900   -1    0    0    0    0 -0.00000000000E+00 -0.00000000000E+00 -0.74505805969E-08  0.93827000000E+00  0.93827000000E+00 0. -1.
     999902    2    1    2    0    0  0.13534028990E-01  0.11990069346E-01  0.15230717690E-01  0.10202887973E+01  0.10200148643E+01 0.  0.
     999903    2    3    3    0    0 -0.10506551099E+00 -0.25590584147E-01  0.69160191033E-01  0.12990318169E+00  0.19951566170E-01 0.  0.
         14    1    1    2    0    0 -0.13534028990E-01 -0.11990069346E-01 -0.15230717690E-01  0.23641202697E-01  0.00000000000E+00 0. -1.
     999901    1    3    3    0    0  0.11859953998E+00  0.37580653493E-01 -0.53929473344E-01  0.89038561562E+00  0.88000000000E+00 0. -1.
        -11    1    4    4    0    0 -0.76991170112E-01 -0.23550558993E-01  0.59592437921E-01  0.10016880194E+00  0.51100000000E-03 0.  1.
         11    1    4    4    0    0 -0.28074340875E-01 -0.20400251537E-02  0.95677531124E-02  0.29734379745E-01  0.51100000000E-03 0. -1.
</event>
<event>
 8    1  0.9952977E+004  0.1043930E+01  0.7957747E-01            NaN
         13   -1    0    0    0    0  0.00000000000E+00  0.00000000000E+00  0.74505805969E-08  0.10566000000E+00  0.10566000000E+00 0.  1.
     999900   -1    0    0    0    0 -0.00000000000E+00 -0.00000000000E+00 -0.74505805969E-08  0.93827000000E+00  0.93827000000E+00 0. -1.
     999902    2    1    2    0    0  0.13471204806E-01  0.13992772042E-01  0.99873943545E-02  0.10220892337E+01  0.10218558521E+01 0.  0.
     999903    2    3    3    0    0  0.45301492742E-01  0.56579048524E-01  0.11139048836E+00  0.13467200053E+00  0.21801212243E-01 0.  0.
         14    1    1    2    0    0 -0.13471204806E-01 -0.13992772042E-01 -0.99873943545E-02  0.21840766340E-01  0.00000000000E+00 0.  1.
     999901    1    3    3    0    0 -0.31830287936E-01 -0.42586276482E-01 -0.10140309400E+00  0.88741723313E+00  0.88000000000E+00 0. -1.
        -11    1    4    4    0    0  0.16347810073E-01  0.91340550355E-02  0.40211736522E-01  0.44361320208E-01  0.51100000000E-03 0. -1.
         11    1    4    4    0    0  0.28953682669E-01  0.47444993489E-01  0.71178751834E-01  0.90310680326E-01  0.51100000000E-03 0.  1.
</event>
<event>
 8    1  0.9952977E+004  0.1043930E+01  0.7957747E-01            NaN
         13   -1    0    0    0    0  0.00000000000E+00  0.00000000000E+00  0.74505805969E-08  0.10566000000E+00  0.10566000000E+00 0.  1.
     999900   -1    0    0    0    0 -0.00000000000E+00 -0.00000000000E+00 -0.74505805969E-08  0.93827000000E+00  0.93827000000E+00 0. -1.
     999902    2    1    2    0    0  0.78850649364E-03  0.20335947018E-01  0.11417723343E-01  0.10205946858E+01  0.10203278766E+01 0.  0.
     999903    2    3    3    0    0  0.11042422661E+00  0.36044905712E-01  0.60116166937E-01  0.13231640679E+00  0.20023309600E-01 0.  0.
         14    1    1    2    0    0 -0.78850649364E-03 -0.20335947018E-01 -0.11417723343E-01  0.23335314224E-01  0.00000000000E+00 0. -1.
     999901    1    3    3    0    0 -0.10963572012E+00 -0.15708958694E-01 -0.48698443595E-01  0.88827827899E+00  0.88000000000E+00 0.  1.
        -11    1    4    4    0    0  0.41050221598E-01  0.21816742836E-01  0.30192891790E-01  0.55434310646E-01  0.51100000000E-03 0.  1.
         11    1    4    4    0    0  0.69374005016E-01  0.14228162876E-01  0.29923275147E-01  0.76882096143E-01  0.51100000000E-03 0. -1.
</event>
<event>
 8    1  0.9952977E+004  0.1043930E+01  0.7957747E-01            NaN
         13   -1    0    0    0    0  0.00000000000E+00  0.00000000000E+00  0.74505805969E-08  0.10566000000E+00  0.10566000000E+00 0. -1.
     999900   -1    0    0    0    0 -0.00000000000E+00 -0.00000000000E+00 -0.74505805969E-08  0.93827000000E+00  0.93827000000E+00 0. -1.
     999902    2    1    2    0    0 -0.48738071415E-02 -0.70131163244E-02  0.19151827822E-01  0.10229602526E+01  0.10227452997E+01 0.  0.
     999903    2    3    3    0    0  0.33888635760E-01 -0.44762212267E-01  0.12161246869E+00  0.13536479062E+00  0.19543252458E-01 0.  0.
         14    1    1    2    0    0  0.48738071415E-02  0.70131163244E-02 -0.19151827822E-01  0.20969747389E-01  0.00000000000E+00 0.  1.
     999901    1    3    3    0    0 -0.38762442901E-01  0.37749095943E-01 -0.10246064087E+00  0.88759546199E+00  0.88000000000E+00 0. -1.
        -11    1    4    4    0    0  0.49759314000E-02 -0.22178600044E-01  0.48290597806E-01  0.53375023660E-01  0.51100000000E-03 0.  1.
         11    1    4    4    0    0  0.28912704360E-01 -0.22583612223E-01  0.73321870886E-01  0.81989766957E-01  0.51100000000E-03 0. -1.
</event>
<event>
 8    1  0.9952977E+004  0.1043930E+01  0.7957747E-01            NaN
         13   -1    0    0    0    0  0.00000000000E+00  0.00000000000E+00  0.74505805969E-08  0.10566000000E+00  0.10566000000E+00 0. -1.
     999900   -1    0    0    0    0 -0.00000000000E+00 -0.00000000000E+00 -0.74505805969E-08  0.93827000000E+00  0.93827000000E+00 0.  1.
     999902    2    1    2    0    0  0.19057818480E-01 -0.13479223549E-01  0.27496650902E-02  0.10204257329E+01  0.10201550009E+01 0.  0.
     999903    2    3    3    0    0 -0.66069226313E-01  0.58008174006E-01  0.92137288910E-01  0.12893977731E+00  0.20151805081E-01 0.  0.
         14    1    1    2    0    0 -0.19057818480E-01  0.13479223549E-01 -0.27496650902E-02  0.23504267076E-01  0.00000000000E+00 0.  1.
     999901    1    3    3    0    0  0.85127044793E-01 -0.71487397555E-01 -0.89387623820E-01  0.89148595561E+00  0.88000000000E+00 0.  1.
        -11    1    4    4    0    0 -0.40693856026E-01  0.47451429729E-01  0.67864041130E-01  0.92268181412E-01  0.51100000000E-03 0. -1.
         11    1    4    4    0    0 -0.25375370287E-01  0.10556744277E-01  0.24273247780E-01  0.36671595898E-01  0.51100000000E-03 0.  1.
</event>
<event>
 8    1  0.9952977E+004  0.1043930E+01  0.7957747E-01            NaN
         13   -1    0    0    0    0  0.00000000000E+00  0.00000000000E+00  0.74505805969E-08  0.10566000000E+00  0.10566000000E+00 0.  1.
     999900   -1    0    0    0    0 -0.00000000000E+00 -0.00000000000E+00 -0.74505805969E-08  0.93827000000E+00  0.93827000000E+00 0. -1.
     999902    2    1    2    0    0  0.83640061129E-02 -0.13863750269E-01  0.17074701602E-01  0.10203990501E+01  0.10201276958E+01 0.  0.
     999903    2    3    3    0    0 -0.31965182439E-01  0.78052067265E-01 -0.93624021900E-01  0.12780218230E+00  0.21308266761E-01 0.  0.
         14    1    1    2    0    0 -0.83640061129E-02  0.13863750269E-01 -0.17074701602E-01  0.23530949929E-01  0.00000000000E+00 0. -1.
     999901    1    3    3    0    0  0.40329188552E-01 -0.91915817533E-01  0.11069872350E+00  0.89259686777E+00  0.88000000000E+00 0. -1.
        -11    1    4    4    0    0 -0.63090209882E-02  0.16487207233E-01 -0.83321105256E-02  0.19527338144E-01  0.51100000000E-03 0. -1.
         11    1    4    4    0    0 -0.25656161451E-01  0.61564860032E-01 -0.85291911374E-01  0.10827484416E+00  0.51100000000E-03 0.  1.
</event>
<event>
 8    1  0.9952977E+004  0.1043930E+01  0.7957747E-01            NaN
         13   -1    0    0    0    0  0.00000000000E+00  0.00000000000E+00  0.74505805969E-08  0.10566000000E+00  0.10566000000E+00 0.  1.
     999900   -1    0    0    0    0 -0.00000000000E+00 -0.00000000000E+00 -0.74505805969E-08  0.93827000000E+00  0.93827000000E+00 0.  1.
     999902    2    1    2    0    0 -0.31170976086E-02 -0.50260155968E-02  0.21776413412E-01  0.10213647765E+01  0.10211154770E+01 0.  0.
     999903    2    3    3    0    0 -0.10666818417E+00 -0.71580300418E-01  0.26705665965E-01  0.13278354899E+00  0.20406797048E-01 0.  0.
         14    1    1    2    0    0  0.31170976086E-02  0.50260155968E-02 -0.21776413412E-01  0.22565223495E-01  0.00000000000E+00 0. -1.
     999901    1    3    3    0    0  0.10355108656E+00  0.66554284822E-01 -0.49292525534E-02  0.88858122751E+00  0.88000000000E+00 0. -1.
        -11    1    4    4    0    0 -0.94540242434E-02 -0.30188172165E-03  0.98622429147E-03  0.95238367437E-02  0.51100000000E-03 0. -1.
         11    1    4    4    0    0 -0.97214159930E-01 -0.71278418697E-01  0.25719441674E-01  0.12325971225E+00  0.51100000000E-03 0.  1.
</event>
<event>
 8    1  0.9952977E+004  0.1043930E+01  0.7957747E-01            NaN
         13   -1    0    0    0    0  0.00000000000E+00  0.00000000000E+00  0.74505805969E-08  0.10566000000E+00  0.10566000000E+00 0.  1.
     999900   -1    0    0    0    0 -0.00000000000E+00 -0.00000000000E+00 -0.74505805969E-08  0.93827000000E+00  0.93827000000E+00 0. -1.
     999902    2    1    2    0    0  0.11593110171E-01 -0.16657441661E-01  0.11536553669E-01  0.10205855652E+01  0.10203185450E+01 0.  0.
     999903    2    3    3    0    0 -0.81664735126E-01 -0.25377716382E-01 -0.94787426839E-01  0.12925069112E+00  0.20197213077E-01 0.  0.
         14    1    1    2    0    0 -0.11593110171E-01  0.16657441661E-01 -0.11536553669E-01  0.23344434812E-01  0.00000000000E+00 0. -1.
     999901    1    3    3    0    0  0.93257845297E-01  0.87202747218E-02  0.10632398051E+00  0.89133487407E+00  0.88000000000E+00 0.  1.
        -11    1    4    4    0    0 -0.33442219632E-01 -0.14363384709E-01 -0.26939747957E-01  0.45284655405E-01  0.51100000000E-03 0.  1.
         11    1    4    4    0    0 -0.48222515494E-01 -0.11014331673E-01 -0.67847678882E-01  0.83966035714E-01  0.51100000000E-03 0. -1.
</event>
<event>
 8    1  0.9952977E+004  0.1043930E+01  0.7957747E-01            NaN
         13   -1    0    0    0    0  0.00000000000E+00  0.00000000000E+00  0.74505805969E-08  0.10566000000E+00  0.10566000000E+00 0.  1.
     999900   -1    0    0    0    0 -0.00000000000E+00 -0.00000000000E+00 -0.74505805969E-08  0.93827000000E+00  0.93827000000E+00 0. -1.
     999902    2    1    2    0    0  0.39931186465E-02  0.24211044539E-01  0.58887841013E-02  0.10186951540E+01  0.10183825506E+01 0.  0.
     999903    2    3    3    0    0  0.10496816273E+00 -0.67650037459E-01 -0.18344808396E-01  0.12784068502E+00  0.20294481914E-01 0.  0.
         14    1    1    2    0    0 -0.39931186465E-02 -0.24211044539E-01 -0.58887841013E-02  0.25234845995E-01  0.00000000000E+00 0. -1.
     999901    1    3    3    0    0 -0.10097504408E+00  0.91861081998E-01  0.24233592497E-01  0.89085446899E+00  0.88000000000E+00 0.  1.
        -11    1    4    4    0    0  0.17280534131E-01 -0.14138524930E-01 -0.10880498535E-01  0.24842727636E-01  0.51100000000E-03 0.  1.
         11    1    4    4    0    0  0.87687628595E-01 -0.53511512529E-01 -0.74643098604E-02  0.10299795738E+00  0.51100000000E-03 0. -1.
</event>
<event>
 8    1  0.9952977E+004  0.1043930E+01  0.7957747E-01            NaN
         13   -1    0    0    0    0  0.00000000000E+00  0.00000000000E+00  0.74505805969E-08  0.10566000000E+00  0.10566000000E+00 0.  1.
     999900   -1    0    0    0    0 -0.00000000000E+00 -0.00000000000E+00 -0.74505805969E-08  0.93827000000E+00  0.93827000000E+00 0. -1.
     999902    2    1    2    0    0 -0.15002276672E-01  0.18317041854E-01  0.52534351326E-03  0.10202475526E+01  0.10199726518E+01 0.  0.
     999903    2    3    3    0    0  0.11821088439E+00  0.49190768513E-01  0.35078010681E-02  0.12968153692E+00  0.20284266198E-01 0.  0.
         14    1    1    2    0    0  0.15002276672E-01 -0.18317041854E-01 -0.52534351326E-03  0.23682447370E-01  0.00000000000E+00 0. -1.
     999901    1    3    3    0    0 -0.13321316106E+00 -0.30873726659E-01 -0.29824575549E-02  0.89056601571E+00  0.88000000000E+00 0.  1.
        -11    1    4    4    0    0  0.85378608654E-01  0.44946244973E-01  0.12662922875E-02  0.96496302364E-01  0.51100000000E-03 0. -1.
         11    1    4    4    0    0  0.32832275737E-01  0.42445235404E-02  0.22415087806E-02  0.33185234559E-01  0.51100000000E-03 0.  1.
</event>
<event>
 8    1  0.9952977E+004  0.1043930E+01  0.7957747E-01            NaN
         13   -1    0    0    0    0  0.00000000000E+00  0.00000000000E+00  0.74505805969E-08  0.10566000000E+00  0.10566000000E+00 0.  1.
     999900   -1    0    0    0    0 -0.00000000000E+00 -0.00000000000E+00 -0.74505805969E-08  0.93827000000E+00  0.93827000000E+00 0. -1.
     999902    2    1    2    0    0  0.15256982272E-01 -0.13045136686E-01 -0.12121150578E-01  0.10204806207E+01  0.10202111663E+01 0.  0.
     999903    2    3    3    0    0  0.98715184438E-01  0.60962206075E-01  0.56289284046E-01  0.13080520467E+00  0.21918938420E-01 0.  0.
         14    1    1    2    0    0 -0.15256982272E-01  0.13045136686E-01  0.12121150578E-01  0.23449379321E-01  0.00000000000E+00 0. -1.
     999901    1    3    3    0    0 -0.83458202166E-01 -0.74007342761E-01 -0.68410434624E-01  0.88967541601E+00  0.88000000000E+00 0. -1.
        -11    1    4    4    0    0  0.71226434254E-01  0.54732283566E-01  0.44541560200E-01  0.10026484682E+00  0.51100000000E-03 0.  1.
         11    1    4    4    0    0  0.27488750184E-01  0.62299225090E-02  0.11747723845E-01  0.30540357851E-01  0.51100000000E-03 0. -1.
</event>
<event>
 8    1  0.9952977E+004  0.1043930E+01  0.7957747E-01            NaN
         13   -1    0    0    0    0  0.00000000000E+00  0.00000000000E+00  0.74505805969E-08  0.10566000000E+00  0.10566000000E+00 0.  1.
     999900   -1    0    0    0    0 -0.00000000000E+00 -0.00000000000E+00 -0.74505805969E-08  0.93827000000E+00  0.93827000000E+00 0. -1.
     999902    2    1    2    0    0  0.11637084552E-01  0.15365983097E-01 -0.17693288324E-02  0.10245737168E+01  0.10243908607E+01 0.  0.
     999903    2    3    3    0    0 -0.78008636860E-01  0.90008508079E-01 -0.60691503475E-01  0.13492227691E+00  0.18266999212E-01 0.  0.
         14    1    1    2    0    0 -0.11637084552E-01 -0.15365983097E-01  0.17693288324E-02  0.19356283164E-01  0.00000000000E+00 0.  1.
     999901    1    3    3    0    0  0.89645721412E-01 -0.74642524982E-01  0.58922174642E-01  0.88965143993E+00  0.88000000000E+00 0.  1.
        -11    1    4    4    0    0 -0.24890382017E-01  0.42150364176E-01 -0.26541648184E-01  0.55685765923E-01  0.51100000000E-03 0.  1.
         11    1    4    4    0    0 -0.53118254843E-01  0.47858143903E-01 -0.34149855291E-01  0.79236510983E-01  0.51100000000E-03 0. -1.
</event>
<event>
 8    1  0.9952977E+004  0.1043930E+01  0.7957747E-01            NaN
         13   -1    0    0    0    0  0.00000000000E+00  0.00000000000E+00  0.74505805969E-08  0.10566000000E+00  0.10566000000E+00 0.  1.
     999900   -1    0    0    0    0 -0.00000000000E+00 -0.00000000000E+00 -0.74505805969E-08  0.93827000000E+00  0.93827000000E+00 0. -1.
     999902    2    1    2    0    0  0.82153667965E-02  0.16162168273E-01 -0.10298988014E-01  0.10230786910E+01  0.10228661842E+01 0.  0.
     999903    2    3    3    0    0  0.11280305435E+00 -0.75446166964E-02 -0.71129876705E-01  0.13448373651E+00  0.15651380612E-01 0.  0.
         14    1    1    2    0    0 -0.82153667965E-02 -0.16162168273E-01  0.10298988014E-01  0.20851309048E-01  0.00000000000E+00 0.  1.
     999901    1    3    3    0    0 -0.10458768755E+00  0.23706784970E-01  0.60830888691E-01  0.88859495444E+00  0.88000000000E+00 0. -1.
        -11    1    4    4    0    0  0.91669595516E-01 -0.60122843436E-02 -0.50166889979E-01  0.10467301599E+00  0.51100000000E-03 0.  1.
         11    1    4    4    0    0  0.21133458829E-01 -0.15323323528E-02 -0.20962986726E-01  0.29810720521E-01  0.51100000000E-03 0. -1.
</event>
<event>
 8    1  0.9952977E+004  0.1043930E+01  0.7957747E-01            NaN
         13   -1    0    0    0    0  0.00000000000E+00  0.00000000000E+00  0.74505805969E-08  0.10566000000E+00  0.10566000000E+00 0. -1.
     999900   -1    0    0    0    0 -0.00000000000E+00 -0.00000000000E+00 -0.74505805969E-08  0.93827000000E+00  0.93827000000E+00 0.  1.
     999902    2    1    2    0    0  0.41706266917E-02 -0.34575941331E-02 -0.29844592858E-01  0.10135976937E+01  0.10131437390E+01 0.  0.
     999903    2    3    3    0    0  0.57192408563E-01 -0.10349575710E+00  0.31115339958E-01  0.12425239695E+00  0.22094126643E-01 0.  0.
         14    1    1    2    0    0 -0.41706266917E-02  0.34575941331E-02  0.29844592858E-01  0.30332306325E-01  0.00000000000E+00 0. -1.
     999901    1    3    3    0    0 -0.53021781871E-01  0.10003816296E+00 -0.60959932816E-01  0.88934529673E+00  0.88000000000E+00 0.  1.
        -11    1    4    4    0    0  0.40004930103E-01 -0.82151329582E-01  0.15419789695E-01  0.92667504660E-01  0.51100000000E-03 0. -1.
         11    1    4    4    0    0  0.17187478459E-01 -0.21344427515E-01  0.15695550263E-01  0.31584892287E-01  0.51100000000E-03 0.  1.
</event>
<event>
 8    1  0.9952977E+004  0.1043930E+01  0.7957747E-01            NaN
         13   -1    0    0    0    0  0.00000000000E+00  0.00000000000E+00  0.74505805969E-08  0.10566000000E+00  0.10566000000E+00 0.  1.
     999900   -1    0    0    0    0 -0.00000000000E+00 -0.00000000000E+00 -0.74505805969E-08  0.93827000000E+00  0.93827000000E+00 0.  1.
     999902    2    1    2    0    0  0.24738990788E-02  0.12116097882E-01 -0.20285254322E-01  0.10201726528E+01  0.10198959898E+01 0.  0.
     999903    2    3    3    0    0 -0.43860018491E-01  0.32313322262E-01 -0.11983075528E+00  0.13311906558E+00  0.19834910957E-01 0.  0.
         14    1    1    2    0    0 -0.24738990788E-02 -0.12116097882E-01  0.20285254322E-01  0.23757347231E-01  0.00000000000E+00 0.  1.
     999901    1    3    3    0    0  0.46333917570E-01 -0.20197224380E-01  0.99545500954E-01  0.88705358719E+00  0.88000000000E+00 0. -1.
        -11    1    4    4    0    0 -0.23994493334E-01  0.16253879727E-01 -0.40707618181E-01  0.49972948837E-01  0.51100000000E-03 0. -1.
         11    1    4    4    0    0 -0.19865525158E-01  0.16059442535E-01 -0.79123137095E-01  0.83146116740E-01  0.51100000000E-03 0.  1.
</event>
<event>
 8    1  0.9952977E+004  0.1043930E+01  0.7957747E-01            NaN
         13   -1    0    0    0    0  0.00000000000E+00  0.00000000000E+00  0.74505805969E-08  0.10566000000E+00  0.10566000000E+00 0. -1.
     999900   -1    0    0    0    0 -0.00000000000E+00 -0.00000000000E+00 -0.74505805969E-08  0.93827000000E+00  0.93827000000E+00 0. -1.
     999902    2    1    2    0    0  0.93583354921E-02  0.19137848594E-01  0.83815644515E-02  0.10210370685E+01  0.10207803921E+01 0.  0.
     999903    2    3    3    0    0 -0.63775693616E-01 -0.89780351156E-01  0.65678556030E-01  0.12946839152E+00  0.17903662499E-01 0.  0.
         14    1    1    2    0    0 -0.93583354921E-02 -0.19137848594E-01 -0.83815644515E-02  0.22892931543E-01  0.00000000000E+00 0.  1.
     999901    1    3    3    0    0  0.73134029108E-01  0.10891819975E+00 -0.57296991578E-01  0.89156867694E+00  0.88000000000E+00 0.  1.
        -11    1    4    4    0    0 -0.30759975108E-01 -0.48027411470E-01  0.24079487125E-01  0.61910347620E-01  0.51100000000E-03 0. -1.
         11    1    4    4    0    0 -0.33015718508E-01 -0.41752939686E-01  0.41599068904E-01  0.67558043901E-01  0.51100000000E-03 0.  1.
</event>
<event>
 8    1  0.9952977E+004  0.1043930E+01  0.7957747E-01            NaN
         13   -1    0    0    0    0  0.00000000000E+00  0.00000000000E+00  0.74505805969E-08  0.10566000000E+00  0.10566000000E+00 0. -1.
     999900   -1    0    0    0    0 -0.00000000000E+00 -0.00000000000E+00 -0.74505805969E-08  0.93827000000E+00  0.93827000000E+00 0. -1.
     999902    2    1    2    0    0  0.29812759086E-02 -0.23258538527E-01 -0.19213698279E-02  0.10204025845E+01  0.10201313127E+01 0.  0.
     999903    2    3    3    0    0 -0.68949685907E-01 -0.84689387297E-01  0.71742261795E-01  0.13227300884E+00  0.20563200937E-01 0.  0.
         14    1    1    2    0    0 -0.29812759086E-02  0.23258538527E-01  0.19213698279E-02  0.23527415550E-01  0.00000000000E+00 0.  1.
     999901    1    3    3    0    0  0.71930961816E-01  0.61430848770E-01 -0.73663631623E-01  0.88812957561E+00  0.88000000000E+00 0.  1.
        -11    1    4    4    0    0 -0.29068308922E-01 -0.34278226472E-01  0.41724978822E-01  0.61328609737E-01  0.51100000000E-03 0. -1.
         11    1    4    4    0    0 -0.39881376985E-01 -0.50411160826E-01  0.30017282973E-01  0.70944399103E-01  0.51100000000E-03 0.  1.
</event>
<event>
 8    1  0.9952977E+004  0.1043930E+01  0.7957747E-01            NaN
         13   -1    0    0    0    0  0.00000000000E+00  0.00000000000E+00  0.74505805969E-08  0.10566000000E+00  0.10566000000E+00 0.  1.
     999900   -1    0    0    0    0 -0.00000000000E+00 -0.00000000000E+00 -0.74505805969E-08  0.93827000000E+00  0.93827000000E+00 0. -1.
     999902    2    1    2    0    0 -0.30935047502E-02 -0.73837687042E-02 -0.22101171763E-01  0.10204235837E+01  0.10201528016E+01 0.  0.
     999903    2    3    3    0    0 -0.83055728111E-01  0.63041664420E-01  0.73117354480E-01  0.12889665396E+00  0.19892070032E-01 0.  0.
         14    1    1    2    0    0  0.30935047502E-02  0.73837687042E-02  0.22101171763E-01  0.23506416257E-01  0.00000000000E+00 0.  1.
     999901    1    3    3    0    0  0.79962223361E-01 -0.70425433124E-01 -0.95218526243E-01  0.89152692979E+00  0.88000000000E+00 0. -1.
        -11    1    4    4    0    0 -0.34894195314E-01  0.28088925749E-01  0.19736377676E-01  0.48952817499E-01  0.51100000000E-03 0. -1.
         11    1    4    4    0    0 -0.48161532797E-01  0.34952738671E-01  0.53380976804E-01  0.79943836457E-01  0.51100000000E-03 0.  1.
</event>
<event>
 8    1  0.9952977E+004  0.1043930E+01  0.7957747E-01            NaN
         13   -1    0    0    0    0  0.00000000000E+00  0.00000000000E+00  0.74505805969E-08  0.10566000000E+00  0.10566000000E+00 0. -1.
     999900   -1    0    0    0    0 -0.00000000000E+00 -0.00000000000E+00 -0.74505805969E-08  0.93827000000E+00  0.93827000000E+00 0.  1.
     999902    2    1    2    0    0 -0.19540116533E-01  0.82831110512E-02 -0.10903949271E-01  0.10200695266E+01  0.10197904279E+01 0.  0.
     999903    2    3    3    0    0 -0.75042005747E-01  0.55395950257E-01  0.90249435295E-01  0.13128828997E+00  0.19789911055E-01 0.  0.
         14    1    1    2    0    0  0.19540116533E-01 -0.82831110512E-02  0.10903949271E-01  0.23860473434E-01  0.00000000000E+00 0. -1.
     999901    1    3    3    0    0  0.55501889215E-01 -0.47112839205E-01 -0.10115338457E+00  0.88878123660E+00  0.88000000000E+00 0.  1.
        -11    1    4    4    0    0 -0.32810492337E-01  0.35876657824E-01  0.50392697389E-01  0.70023910596E-01  0.51100000000E-03 0. -1.
         11    1    4    4    0    0 -0.42231513411E-01  0.19519292433E-01  0.39856737905E-01  0.61264379369E-01  0.51100000000E-03 0.  1.
</event>
<event>
 8    1  0.9952977E+004  0.1043930E+01  0.7957747E-01            NaN
         13   -1    0    0    0    0  0.00000000000E+00  0.00000000000E+00  0.74505805969E-08  0.10566000000E+00  0.10566000000E+00 0. -1.
     999900   -1    0    0    0    0 -0.00000000000E+00 -0.00000000000E+00 -0.74505805969E-08  0.93827000000E+00  0.93827000000E+00 0.  1.
     999902    2    1    2    0    0 -0.15516662974E-01 -0.13097103213E-01  0.11289960828E-01  0.10206971750E+01  0.10204327312E+01 0.  0.
     999903    2    3    3    0    0 -0.20264307314E-01  0.11272471023E+00 -0.55979775835E-01  0.12919345299E+00  0.20969276253E-01 0.  0.
         14    1    1    2    0    0  0.15516662974E-01  0.13097103213E-01 -0.11289960828E-01  0.23232825010E-01  0.00000000000E+00 0.  1.
     999901    1    3    3    0    0  0.47476443401E-02 -0.12582181344E+00  0.67269736664E-01  0.89150372200E+00  0.88000000000E+00 0. -1.
        -11    1    4    4    0    0 -0.17986049438E-01  0.48267613679E-01 -0.19407709998E-01  0.55047078333E-01  0.51100000000E-03 0. -1.
         11    1    4    4    0    0 -0.22782578763E-02  0.64457096549E-01 -0.36572065838E-01  0.74146374660E-01  0.51100000000E-03 0.  1.
</event>
<event>
 8    1  0.9952977E+004  0.1043930E+01  0.7957747E-01            NaN
         13   -1    0    0    0    0  0.00000000000E+00  0.00000000000E+00  0.74505805969E-08  0.10566000000E+00  0.10566000000E+00 0.  1.
     999900   -1    0    0    0    0 -0.00000000000E+00 -0.00000000000E+00 -0.74505805969E-08  0.93827000000E+00  0.93827000000E+00 0. -1.
     999902    2    1    2    0    0  0.15742921401E-01  0.18077050526E-01 -0.16406027805E-02  0.10199027049E+01  0.10196196431E+01 0.  0.
     999903    2    3    3    0    0  0.75588513100E-01  0.42095833120E-01  0.97620927929E-01  0.13197745571E+00  0.20062920188E-01 0.  0.
         14    1    1    2    0    0 -0.15742921401E-01 -0.18077050526E-01  0.16406027805E-02  0.24027295050E-01  0.00000000000E+00 0. -1.
     999901    1    3    3    0    0 -0.59845591700E-01 -0.24018782594E-01 -0.99261530710E-01  0.88792524924E+00  0.88000000000E+00 0. -1.
        -11    1    4    4    0    0  0.44562132112E-01  0.13798555829E-01  0.47319131192E-01  0.66449567787E-01  0.51100000000E-03 0. -1.
         11    1    4    4    0    0  0.31026380989E-01  0.28297277291E-01  0.50301796737E-01  0.65527887920E-01  0.51100000000E-03 0.  1.
</event>
<event>
 8    1  0.9952977E+004  0.1043930E+01  0.7957747E-01            NaN
         13   -1    0    0    0    0  0.00000000000E+00  0.00000000000E+00  0.74505805969E-08  0.10566000000E+00  0.10566000000E+00 0.  1.
     999900   -1    0    0    0    0 -0.00000000000E+00 -0.00000000000E+00 -0.74505805969E-08  0.93827000000E+00  0.93827000000E+00 0. -1.
     999902    2    1    2    0    0 -0.71658678066E-03  0.21852198668E-01 -0.60559952471E-02  0.10212428415E+01  0.10209908100E+01 0.  0.
     999903    2    3    3    0    0  0.93422549732E-01 -0.52793372261E-01 -0.71893106159E-01  0.13064267111E+00  0.19595301724E-01 0.  0.
         14    1    1    2    0    0  0.71658678066E-03 -0.21852198668E-01  0.60559952471E-02  0.22687158519E-01  0.00000000000E+00 0.  1.
     999901    1    3    3    0    0 -0.94139136513E-01  0.74645570929E-01  0.65837110912E-01  0.89060017037E+00  0.88000000000E+00 0.  1.
        -11    1    4    4    0    0  0.69592794021E-01 -0.39993223201E-01 -0.63400160773E-01  0.10228614954E+00  0.51100000000E-03 0. -1.
         11    1    4    4    0    0  0.23829755711E-01 -0.12800149061E-01 -0.84929453859E-02  0.28356521570E-01  0.51100000000E-03 0.  1.
</event>
<event>
 8    1  0.9952977E+004  0.1043930E+01  0.7957747E-01            NaN
         13   -1    0    0    0    0  0.00000000000E+00  0.00000000000E+00  0.74505805969E-08  0.10566000000E+00  0.10566000000E+00 0.  1.
     999900   -1    0    0    0    0 -0.00000000000E+00 -0.00000000000E+00 -0.74505805969E-08  0.93827000000E+00  0.93827000000E+00 0. -1.
     999902    2    1    2    0    0  0.60961988656E-02 -0.16369144519E-01  0.15912202012E-01  0.10203014007E+01  0.10200277631E+01 0.  0.
     999903    2    3    3    0    0 -0.11950107954E+00  0.43647403871E-01 -0.17583038578E-01  0.12873054339E+00  0.87627438875E-02 0.  0.
         14    1    1    2    0    0 -0.60961988656E-02  0.16369144519E-01 -0.15912202012E-01  0.23628599319E-01  0.00000000000E+00 0. -1.
     999901    1    3    3    0    0  0.12559727841E+00 -0.60016548391E-01  0.33495240591E-01  0.89157085729E+00  0.88000000000E+00 0.  1.
        -11    1    4    4    0    0 -0.19251807374E-01  0.77822491725E-02 -0.60507409419E-02  0.21634881009E-01  0.51100000000E-03 0.  1.
         11    1    4    4    0    0 -0.10024927217E+00  0.35865154699E-01 -0.11532297636E-01  0.10709566238E+00  0.51100000000E-03 0. -1.
</event>
<event>
 8    1  0.9952977E+004  0.1043930E+01  0.7957747E-01            NaN
         13   -1    0    0    0    0  0.00000000000E+00  0.00000000000E+00  0.74505805969E-08  0.10566000000E+00  0.10566000000E+00 0. -1.
     999900   -1    0    0    0    0 -0.00000000000E+00 -0.00000000000E+00 -0.74505805969E-08  0.93827000000E+00  0.93827000000E+00 0. -1.
     999902    2    1    2    0    0  0.36837886707E-02  0.20569867817E-01 -0.16820053993E-01  0.10171045647E+01  0.10167507520E+01 0.  0.
     999903    2    3    3    0    0  0.11639493559E+00 -0.34221603367E-01  0.31328759870E-01  0.12692243942E+00  0.20221653340E-01 0.  0.
         14    1    1    2    0    0 -0.36837886707E-02 -0.20569867817E-01  0.16820053993E-01  0.26825435268E-01  0.00000000000E+00 0. -1.
     999901    1    3    3    0    0 -0.11271114692E+00  0.54791471184E-01 -0.48148813863E-01  0.89018212532E+00  0.88000000000E+00 0. -1.
        -11    1    4    4    0    0  0.82794928689E-01 -0.22809679660E-01  0.31377776368E-01  0.91433624415E-01  0.51100000000E-03 0.  1.
         11    1    4    4    0    0  0.33600006904E-01 -0.11411923707E-01 -0.49016497812E-04  0.35488815002E-01  0.51100000000E-03 0. -1.
</event>
<event>
 8    1  0.9952977E+004  0.1043930E+01  0.7957747E-01            NaN
         13   -1    0    0    0    0  0.00000000000E+00  0.00000000000E+00  0.74505805969E-08  0.10566000000E+00  0.10566000000E+00 0.  1.
     999900   -1    0    0    0    0 -0.00000000000E+00 -0.00000000000E+00 -0.74505805969E-08  0.93827000000E+00  0.93827000000E+00 0.  1.
     999902    2    1    2    0    0  0.10391988982E-01 -0.63187030047E-02  0.24150632790E-01  0.10168897983E+01  0.10165302206E+01 0.  0.
     999903    2    3    3    0    0 -0.34683002912E-01  0.92853300082E-01 -0.73317556102E-01  0.12483212702E+00  0.19569105122E-01 0.  0.
         14    1    1    2    0    0 -0.10391988982E-01  0.63187030047E-02 -0.24150632790E-01  0.27040201679E-01  0.00000000000E+00 0. -1.
     999901    1    3    3    0    0  0.45074991894E-01 -0.99172003087E-01  0.97468188891E-01  0.89205767131E+00  0.88000000000E+00 0. -1.
        -11    1    4    4    0    0 -0.27671115536E-01  0.60732375842E-01 -0.38981841123E-01  0.77291378360E-01  0.51100000000E-03 0. -1.
         11    1    4    4    0    0 -0.70118873754E-02  0.32120924240E-01 -0.34335714978E-01  0.47540748655E-01  0.51100000000E-03 0.  1.
</event>
<event>
 8    1  0.9952977E+004  0.1043930E+01  0.7957747E-01            NaN
         13   -1    0    0    0    0  0.00000000000E+00  0.00000000000E+00  0.74505805969E-08  0.10566000000E+00  0.10566000000E+00 0.  1.
     999900   -1    0    0    0    0 -0.00000000000E+00 -0.00000000000E+00 -0.74505805969E-08  0.93827000000E+00  0.93827000000E+00 0.  1.
     999902    2    1    2    0    0 -0.11692476942E-01 -0.16937049699E-01  0.12930509014E-01  0.10196241214E+01  0.10193343776E+01 0.  0.
     999903    2    3    3    0    0  0.70647738535E-01  0.56158521773E-01 -0.87771512678E-01  0.12706388771E+00  0.17219482974E-01 0.  0.
         14    1    1    2    0    0  0.11692476942E-01  0.16937049699E-01 -0.12930509014E-01  0.24305878567E-01  0.00000000000E+00 0.  1.
     999901    1    3    3    0    0 -0.82340215478E-01 -0.73095571472E-01  0.10070202169E+00  0.89256023372E+00  0.88000000000E+00 0. -1.
        -11    1    4    4    0    0  0.49775129738E-01  0.33590727873E-01 -0.48509705204E-01  0.77196846823E-01  0.51100000000E-03 0. -1.
         11    1    4    4    0    0  0.20872608797E-01  0.22567793900E-01 -0.39261807473E-01  0.49867040885E-01  0.51100000000E-03 0.  1.
</event>
<event>
 8    1  0.9952977E+004  0.1043930E+01  0.7957747E-01            NaN
         13   -1    0    0    0    0  0.00000000000E+00  0.00000000000E+00  0.74505805969E-08  0.10566000000E+00  0.10566000000E+00 0.  1.
     999900   -1    0    0    0    0 -0.00000000000E+00 -0.00000000000E+00 -0.74505805969E-08  0.93827000000E+00  0.93827000000E+00 0.  1.
     999902    2    1    2    0    0 -0.76570198901E-03 -0.82972849567E-02 -0.24380489854E-01  0.10181649166E+01  0.10178388664E+01 0.  0.
     999903    2    3    3    0    0 -0.11429055544E+00 -0.22692150659E-01  0.48184521684E-01  0.12779376623E+00  0.20790233089E-01 0.  0.
         14    1    1    2    0    0  0.76570198901E-03  0.82972849567E-02  0.24380489854E-01  0.25765083402E-01  0.00000000000E+00 0.  1.
     999901    1    3    3    0    0  0.11352485345E+00  0.14394865702E-01 -0.72565011538E-01  0.89037115037E+00  0.88000000000E+00 0.  1.
        -11    1    4    4    0    0 -0.89819223067E-01 -0.12341313227E-01  0.29635156835E-01  0.95385032820E-01  0.51100000000E-03 0.  1.
         11    1    4    4    0    0 -0.24471332376E-01 -0.10350837432E-01  0.18549364849E-01  0.32408733408E-01  0.51100000000E-03 0. -1.
</event>
<event>
 8    1  0.9952977E+004  0.1043930E+01  0.7957747E-01            NaN
         13   -1    0    0    0    0  0.00000000000E+00  0.00000000000E+00  0.74505805969E-08  0.10566000000E+00  0.10566000000E+00 0.  1.
     999900   -1    0    0    0    0 -0.00000000000E+00 -0.00000000000E+00 -0.74505805969E-08  0.93827000000E+00  0.93827000000E+00 0.  1.
     999902    2    1    2    0    0  0.15452393891E-01 -0.89531857959E-02 -0.15418132227E-01  0.10203364667E+01  0.10200636502E+01 0.  0.
     999903    2    3    3    0    0  0.98384024979E-01 -0.80824187242E-01  0.30235364296E-01  0.13234584848E+00  0.19730198689E-01 0.  0.
         14    1    1    2    0    0 -0.15452393891E-01  0.89531857959E-02  0.15418132227E-01  0.23593533314E-01  0.00000000000E+00 0.  1.
     999901    1    3    3    0    0 -0.82931631089E-01  0.71871001446E-01 -0.45653496523E-01  0.88799061821E+00  0.88000000000E+00 0. -1.
        -11    1    4    4    0    0  0.23394212083E-01 -0.11031545451E-01  0.11002215723E-01  0.28112168644E-01  0.51100000000E-03 0. -1.
         11    1    4    4    0    0  0.74989812896E-01 -0.69792641792E-01  0.19233148572E-01  0.10423367983E+00  0.51100000000E-03 0.  1.
</event>
<event>
 8    1  0.9952977E+004  0.1043930E+01  0.7957747E-01            NaN
         13   -1    0    0    0    0  0.00000000000E+00  0.00000000000E+00  0.74505805969E-08  0.10566000000E+00  0.10566000000E+00 0. -1.
     999900   -1    0    0    0    0 -0.00000000000E+00 -0.00000000000E+00 -0.74505805969E-08  0.93827000000E+00  0.93827000000E+00 0.  1.
     999902    2    1    2    0    0  0.14377582325E-01  0.19693140099E-01 -0.13753164008E-01  0.10159356406E+01  0.10155498715E+01 0.  0.
     999903    2    3    3    0    0 -0.10785131331E+00 -0.54397214546E-01 -0.21518292362E-01  0.12436983771E+00  0.20343472994E-01 0.  0.
         14    1    1    2    0    0 -0.14377582325E-01 -0.19693140099E-01  0.13753164008E-01  0.27994359444E-01  0.00000000000E+00 0.  1.
     999901    1    3    3    0    0  0.12222889564E+00  0.74090354645E-01  0.77651283543E-02  0.89156580284E+00  0.88000000000E+00 0. -1.
        -11    1    4    4    0    0 -0.44337561054E-01 -0.26852877599E-01  0.11340201395E-03  0.51837923729E-01  0.51100000000E-03 0. -1.
         11    1    4    4    0    0 -0.63513752257E-01 -0.27544336947E-01 -0.21631694376E-01  0.72531913984E-01  0.51100000000E-03 0.  1.
</event>
<event>
 8    1  0.9952977E+004  0.1043930E+01  0.7957747E-01            NaN
         13   -1    0    0    0    0  0.00000000000E+00  0.00000000000E+00  0.74505805969E-08  0.10566000000E+00  0.10566000000E+00 0. -1.
     999900   -1    0    0    0    0 -0.00000000000E+00 -0.00000000000E+00 -0.74505805969E-08  0.93827000000E+00  0.93827000000E+00 0.  1.
     999902    2    1    2    0    0  0.22583521983E-01  0.43407254405E-02 -0.35120794526E-03  0.10209304194E+01  0.10206713185E+01 0.  0.
     999903    2    3    3    0    0  0.52148100039E-01 -0.11800080635E+00  0.16983267429E-01  0.13180613181E+00  0.20995484623E-01 0.  0.
         14    1    1    2    0    0 -0.22583521983E-01 -0.43407254405E-02  0.35120794526E-03  0.22999580638E-01  0.00000000000E+00 0. -1.
     999901    1    3    3    0    0 -0.29564578057E-01  0.12234153179E+00 -0.17334475374E-01  0.88912428755E+00  0.88000000000E+00 0.  1.
        -11    1    4    4    0    0  0.95314619509E-02 -0.27793109871E-01 -0.45584296189E-02  0.29737957643E-01  0.51100000000E-03 0. -1.
         11    1    4    4    0    0  0.42616638088E-01 -0.90207696476E-01  0.21541697048E-01  0.10206817417E+00  0.51100000000E-03 0.  1.
</event>
<event>
 8    1  0.9952977E+004  0.1043930E+01  0.7957747E-01            NaN
         13   -1    0    0    0    0  0.00000000000E+00  0.00000000000E+00  0.74505805969E-08  0.10566000000E+00  0.10566000000E+00 0.  1.
     999900   -1    0    0    0    0 -0.00000000000E+00 -0.00000000000E+00 -0.74505805969E-08  0.93827000000E+00  0.93827000000E+00 0.  1.
     999902    2    1    2    0    0  0.14325336074E-02  0.16843384731E-01  0.16932782320E-01  0.10200036363E+01  0.10197229757E+01 0.  0.
     999903    2    3    3    0    0 -0.90075265433E-01 -0.88852771254E-01 -0.11382694304E-01  0.12851773016E+00  0.19464655986E-01 0.  0.
         14    1    1    2    0    0 -0.14325336074E-02 -0.16843384731E-01 -0.16932782320E-01  0.23926363678E-01  0.00000000000E+00 0.  1.
     999901    1    3    3    0    0  0.91507799040E-01  0.10569615599E+00  0.28315476624E-01  0.89148590617E+00  0.88000000000E+00 0.  1.
        -11    1    4    4    0    0 -0.30408946547E-01 -0.40528802611E-01 -0.10409489718E-01  0.51729164582E-01  0.51100000000E-03 0. -1.
         11    1    4    4    0    0 -0.59666318886E-01 -0.48323968644E-01 -0.97320458575E-03  0.76788565575E-01  0.51100000000E-03 0.  1.
</event>
<event>
 8    1  0.9952977E+004  0.1043930E+01  0.7957747E-01            NaN
         13   -1    0    0    0    0  0.00000000000E+00  0.00000000000E+00  0.74505805969E-08  0.10566000000E+00  0.10566000000E+00 0. -1.
     999900   -1    0    0    0    0 -0.00000000000E+00 -0.00000000000E+00 -0.74505805969E-08  0.93827000000E+00  0.93827000000E+00 0. -1.
     999902    2    1    2    0    0 -0.16590129468E-01 -0.17238377999E-01 -0.34960166487E-02  0.10197511621E+01  0.10194644753E+01 0.  0.
     999903    2    3    3    0    0  0.58582919766E-01 -0.85307259206E-01  0.76795718835E-01  0.13029564169E+00  0.19237589548E-01 0.  0.
         14    1    1    2    0    0  0.16590129468E-01  0.17238377999E-01  0.34960166487E-02  0.24178837941E-01  0.00000000000E+00 0.  1.
     999901    1    3    3    0    0 -0.75173049233E-01  0.68068881207E-01 -0.80291735483E-01  0.88945552036E+00  0.88000000000E+00 0. -1.
        -11    1    4    4    0    0  0.10167825988E-01 -0.72458592891E-02  0.40965392594E-02  0.13150282015E-01  0.51100000000E-03 0. -1.
         11    1    4    4    0    0  0.48415093778E-01 -0.78061399917E-01  0.72699179575E-01  0.11714535968E+00  0.51100000000E-03 0.  1.
</event>
<event>
 7    1  0.9952977E+004  0.1043930E+01  0.7957747E-01            NaN
         13   -1    0    0    0    0  0.00000000000E+00  0.00000000000E+00  0.74505805969E-08  0.10566000000E+00  0.10566000000E+00 0. -1.
     999900   -1    0    0    0    0 -0.00000000000E+00 -0.00000000000E+00 -0.74505805969E-08  0.93827000000E+00  0.93827000000E+00 0.  1.
     999903    2    1    2    0    0  0.30556145791E-02  0.95984871430E-01 -0.20875715971E-01  0.10054486238E+00  0.21237737875E-01 0.  0.
         14    1    1    2    0    0 -0.19950796451E-01  0.38312887714E-01  0.30678967300E-01  0.52982173215E-01  0.00000000000E+00 0. -1.
     999901    1    1    2    0    0  0.16895181872E-01 -0.13429775914E+00 -0.98032513289E-02  0.89040296440E+00  0.88000000000E+00 0. -1.
        -11    1    3    3    0    0  0.86665341218E-02  0.42563411389E-01 -0.17134661803E-01  0.46697008029E-01  0.51100000000E-03 0. -1.
         11    1    3    3    0    0 -0.56109195427E-02  0.53421460041E-01 -0.37410541676E-02  0.53847854352E-01  0.51100000000E-03 0.  1.
</event>
<event>
 8    1  0.9952977E+004  0.1043930E+01  0.7957747E-01            NaN
         13   -1    0    0    0    0  0.00000000000E+00  0.00000000000E+00  0.74505805969E-08  0.10566000000E+00  0.10566000000E+00 0. -1.
     999900   -1    0    0    0    0 -0.00000000000E+00 -0.00000000000E+00 -0.74505805969E-08  0.93827000000E+00  0.93827000000E+00 0. -1.
     999902    2    1    2    0    0 -0.21125255911E-01 -0.86820141451E-02  0.25077505060E-02  0.10209529980E+01  0.10206944115E+01 0.  0.
     999903    2    3    3    0    0 -0.60217713744E-03  0.10258524293E+00  0.78175533405E-01  0.13048839310E+00  0.19791716102E-01 0.  0.
         14    1    1    2    0    0  0.21125255911E-01  0.86820141451E-02 -0.25077505060E-02  0.22977001970E-01  0.00000000000E+00 0. -1.
     999901    1    3    3    0    0 -0.20523078773E-01 -0.11126725708E+00 -0.75667782899E-01  0.89046460493E+00  0.88000000000E+00 0. -1.
        -11    1    4    4    0    0 -0.76245139239E-02  0.54750237864E-01  0.33385075798E-01  0.64579765916E-01  0.51100000000E-03 0.  1.
         11    1    4    4    0    0  0.70223367865E-02  0.47835005070E-01  0.44790457607E-01  0.65908627187E-01  0.51100000000E-03 0. -1.
</event>
<event>
 8    1  0.9952977E+004  0.1043930E+01  0.7957747E-01            NaN
         13   -1    0    0    0    0  0.00000000000E+00  0.00000000000E+00  0.74505805969E-08  0.10566000000E+00  0.10566000000E+00 0.  1.
     999900   -1    0    0    0    0 -0.00000000000E+00 -0.00000000000E+00 -0.74505805969E-08  0.93827000000E+00  0.93827000000E+00 0.  1.
     999902    2    1    2    0    0 -0.15278793569E-01 -0.16867839546E-01 -0.44034198568E-02  0.10207490671E+01  0.10204858168E+01 0.  0.
     999903    2    3    3    0    0  0.93365837045E-01  0.30472568303E-01  0.80716871922E-01  0.12873436203E+00  0.20287079851E-01 0.  0.
         14    1    1    2    0    0  0.15278793569E-01  0.16867839546E-01  0.44034198568E-02  0.23180932904E-01  0.00000000000E+00 0.  1.
     999901    1    3    3    0    0 -0.10864463061E+00 -0.47340407849E-01 -0.85120291779E-01  0.89201470506E+00  0.88000000000E+00 0.  1.
        -11    1    4    4    0    0  0.19677981283E-01  0.10140113279E-01  0.28798764884E-01  0.36327328893E-01  0.51100000000E-03 0.  1.
         11    1    4    4    0    0  0.73687855762E-01  0.20332455024E-01  0.51918107038E-01  0.92407033139E-01  0.51100000000E-03 0. -1.
</event>
<event>
 8    1  0.9952977E+004  0.1043930E+01  0.7957747E-01            NaN
         13   -1    0    0    0    0  0.00000000000E+00  0.00000000000E+00  0.74505805969E-08  0.10566000000E+00  0.10566000000E+00 0.  1.
     999900   -1    0    0    0    0 -0.00000000000E+00 -0.00000000000E+00 -0.74505805969E-08  0.93827000000E+00  0.93827000000E+00 0.  1.
     999902    2    1    2    0    0  0.22881355079E-01  0.21407823172E-02 -0.76825329672E-02  0.10196986015E+01  0.10194106519E+01 0.  0.
     999903    2    3    3    0    0  0.81997234202E-01  0.99807093803E-01 -0.18974554687E-01  0.13225231847E+00  0.21110178208E-01 0.  0.
         14    1    1    2    0    0 -0.22881355079E-01 -0.21407823172E-02  0.76825329672E-02  0.24231398473E-01  0.00000000000E+00 0.  1.
     999901    1    3    3    0    0 -0.59115879124E-01 -0.97666311486E-01  0.11292021719E-01  0.88744628306E+00  0.88000000000E+00 0. -1.
        -11    1    4    4    0    0  0.34134993411E-01  0.47684490226E-01 -0.18468356997E-01  0.61484548583E-01  0.51100000000E-03 0.  1.
         11    1    4    4    0    0  0.47862240791E-01  0.52122603577E-01 -0.50619769017E-03  0.70767769883E-01  0.51100000000E-03 0. -1.
</event>
<event>
 8    1  0.9952977E+004  0.1043930E+01  0.7957747E-01            NaN
         13   -1    0    0    0    0  0.00000000000E+00  0.00000000000E+00  0.74505805969E-08  0.10566000000E+00  0.10566000000E+00 0. -1.
     999900   -1    0    0    0    0 -0.00000000000E+00 -0.00000000000E+00 -0.74505805969E-08  0.93827000000E+00  0.93827000000E+00 0. -1.
     999902    2    1    2    0    0 -0.11713788725E-01 -0.72142777705E-02  0.18010153728E-01  0.10212667194E+01  0.10210152241E+01 0.  0.
     999903    2    3    3    0    0  0.10782780165E+00 -0.68952153163E-01  0.10961832382E-01  0.13101313984E+00  0.25749695281E-01 0.  0.
         14    1    1    2    0    0  0.11713788725E-01  0.72142777705E-02 -0.18010153728E-01  0.22663280596E-01  0.00000000000E+00 0.  1.
     999901    1    3    3    0    0 -0.11954159038E+00  0.61737875392E-01  0.70483213466E-02  0.89025357956E+00  0.88000000000E+00 0.  1.
        -11    1    4    4    0    0  0.41572078928E-01 -0.32373975218E-01  0.16257708357E-01  0.55144231066E-01  0.51100000000E-03 0. -1.
         11    1    4    4    0    0  0.66255722726E-01 -0.36578177945E-01 -0.52958759756E-02  0.75868908777E-01  0.51100000000E-03 0.  1.
</event>
<event>
 8    1  0.9952977E+004  0.1043930E+01  0.7957747E-01            NaN
         13   -1    0    0    0    0  0.00000000000E+00  0.00000000000E+00  0.74505805969E-08  0.10566000000E+00  0.10566000000E+00 0.  1.
     999900   -1    0    0    0    0 -0.00000000000E+00 -0.00000000000E+00 -0.74505805969E-08  0.93827000000E+00  0.93827000000E+00 0.  1.
     999902    2    1    2    0    0  0.10786065973E-02 -0.16018089937E-01  0.17585909674E-01  0.10201180951E+01  0.10198401449E+01 0.  0.
     999903    2    3    3    0    0  0.60947549004E-01  0.16283727909E-01  0.11454743941E+00  0.13218271682E+00  0.19271513352E-01 0.  0.
         14    1    1    2    0    0 -0.10786065973E-02  0.16018089937E-01 -0.17585909674E-01  0.23811904932E-01  0.00000000000E+00 0. -1.
     999901    1    3    3    0    0 -0.59868942406E-01 -0.32301817845E-01 -0.96961529731E-01  0.88793537825E+00  0.88000000000E+00 0.  1.
        -11    1    4    4    0    0  0.46075634968E-01  0.20521722324E-01  0.89776884292E-01  0.10297696489E+00  0.51100000000E-03 0.  1.
         11    1    4    4    0    0  0.14871914036E-01 -0.42379944153E-02  0.24770555114E-01  0.29205751923E-01  0.51100000000E-03 0. -1.
</event>
<event>
 7    1  0.9952977E+004  0.1043930E+01  0.7957747E-01            NaN
         13   -1    0    0    0    0  0.00000000000E+00  0.00000000000E+00  0.74505805969E-08  0.10566000000E+00  0.10566000000E+00 0.  1.
     999900   -1    0    0    0    0 -0.00000000000E+00 -0.00000000000E+00 -0.74505805969E-08  0.93827000000E+00  0.93827000000E+00 0.  1.
     999902    2    1    2    0    0 -0.10292577847E-01 -0.20428009963E-01  0.68682492963E-02  0.10200466669E+01  0.10197670269E+01 0.  0.
         14    1    1    2    0    0  0.10292577847E-01  0.20428009963E-01 -0.68682492963E-02  0.23883333063E-01  0.00000000000E+00 0.  1.
     999901    1    3    3    0    0 -0.66478440888E-01 -0.13391945005E+00  0.18900461651E-01  0.89281074683E+00  0.88000000000E+00 0.  1.
        -11    1    3    3    0    0  0.42611231852E-01  0.84625914223E-01 -0.98139929278E-02  0.95256695388E-01  0.51100000000E-03 0.  1.
         11    1    3    3    0    0  0.13574631189E-01  0.28865525863E-01 -0.22182194270E-02  0.31979224720E-01  0.51100000000E-03 0. -1.
</event>
<event>
 8    1  0.9952977E+004  0.1043930E+01  0.7957747E-01            NaN
         13   -1    0    0    0    0  0.00000000000E+00  0.00000000000E+00  0.74505805969E-08  0.10566000000E+00  0.10566000000E+00 0. -1.
     999900   -1    0    0    0    0 -0.00000000000E+00 -0.00000000000E+00 -0.74505805969E-08  0.93827000000E+00  0.93827000000E+00 0.  1.
     999902    2    1    2    0    0  0.23983420210E-02  0.34815296305E-02  0.22927196570E-01  0.10206162822E+01  0.10203499724E+01 0.  0.
     999903    2    3    3    0    0 -0.50191146263E-01  0.11564160099E+00 -0.27773789353E-01  0.13049487150E+00  0.19115362139E-01 0.  0.
         14    1    1    2    0    0 -0.23983420210E-02 -0.34815296305E-02 -0.22927196570E-01  0.23313717756E-01  0.00000000000E+00 0.  1.
     999901    1    3    3    0    0  0.52589488284E-01 -0.11216007136E+00  0.50700985923E-01  0.89012141074E+00  0.88000000000E+00 0. -1.
        -11    1    4    4    0    0 -0.15181966763E-01  0.32098875249E-01 -0.16683034941E-01  0.39235375401E-01  0.51100000000E-03 0. -1.
         11    1    4    4    0    0 -0.35009179501E-01  0.83542725746E-01 -0.11090754413E-01  0.91259496102E-01  0.51100000000E-03 0.  1.
</event>
<event>
 8    1  0.9952977E+004  0.1043930E+01  0.7957747E-01            NaN
         13   -1    0    0    0    0  0.00000000000E+00  0.00000000000E+00  0.74505805969E-08  0.10566000000E+00  0.10566000000E+00 0.  1.
     999900   -1    0    0    0    0 -0.00000000000E+00 -0.00000000000E+00 -0.74505805969E-08  0.93827000000E+00  0.93827000000E+00 0. -1.
     999902    2    1    2    0    0  0.16676519348E-01 -0.93081699518E-02 -0.10767827671E-01  0.10220052551E+01  0.10217700559E+01 0.  0.
     999903    2    3    3    0    0  0.35087344383E-01 -0.11037277830E+00  0.62339347960E-01  0.13301837520E+00  0.19860058144E-01 0.  0.
         14    1    1    2    0    0 -0.16676519348E-01  0.93081699518E-02  0.10767827671E-01  0.21924744883E-01  0.00000000000E+00 0. -1.
     999901    1    3    3    0    0 -0.18410825035E-01  0.10106460835E+00 -0.73107175631E-01  0.88898687992E+00  0.88000000000E+00 0. -1.
        -11    1    4    4    0    0 -0.90949644543E-03 -0.19294000833E-01  0.13573182102E-01  0.23613090549E-01  0.51100000000E-03 0.  1.
         11    1    4    4    0    0  0.35996840829E-01 -0.91078777472E-01  0.48766165859E-01  0.10940528465E+00  0.51100000000E-03 0. -1.
</event>
<event>
 8    1  0.9952977E+004  0.1043930E+01  0.7957747E-01            NaN
         13   -1    0    0    0    0  0.00000000000E+00  0.00000000000E+00  0.74505805969E-08  0.10566000000E+00  0.10566000000E+00 0.  1.
     999900   -1    0    0    0    0 -0.00000000000E+00 -0.00000000000E+00 -0.74505805969E-08  0.93827000000E+00  0.93827000000E+00 0. -1.
     999902    2    1    2    0    0 -0.64033469075E-02 -0.85094263804E-03 -0.22805986431E-01  0.10202268362E+01  0.10199514486E+01 0.  0.
     999903    2    3    3    0    0  0.51495755341E-01  0.48683947749E-02  0.11496343394E+00  0.12760965623E+00  0.19801998220E-01 0.  0.
         14    1    1    2    0    0  0.64033469075E-02  0.85094263804E-03  0.22805986431E-01  0.23703163757E-01  0.00000000000E+00 0.  1.
     999901    1    3    3    0    0 -0.57899102248E-01 -0.57193374130E-02 -0.13776942038E+00  0.89261718001E+00  0.88000000000E+00 0. -1.
        -11    1    4    4    0    0  0.33223176077E-01  0.48896427144E-02  0.93872419995E-01  0.99699450306E-01  0.51100000000E-03 0.  1.
         11    1    4    4    0    0  0.18272579264E-01 -0.21247939514E-04  0.21091013949E-01  0.27910205925E-01  0.51100000000E-03 0. -1.
</event>
<event>
 8    1  0.9952977E+004  0.1043930E+01  0.7957747E-01            NaN
         13   -1    0    0    0    0  0.00000000000E+00  0.00000000000E+00  0.74505805969E-08  0.10566000000E+00  0.10566000000E+00 0.  1.
     999900   -1    0    0    0    0 -0.00000000000E+00 -0.00000000000E+00 -0.74505805969E-08  0.93827000000E+00  0.93827000000E+00 0. -1.
     999902    2    1    2    0    0  0.17071092814E-01 -0.76751420046E-02  0.10814873308E-01  0.10223130738E+01  0.10220845020E+01 0.  0.
     999903    2    3    3    0    0  0.76939763078E-01  0.26170659278E-01  0.10539999419E+00  0.13457654696E+00  0.19926305914E-01 0.  0.
         14    1    1    2    0    0 -0.17071092814E-01  0.76751420046E-02 -0.10814873308E-01  0.21616926223E-01  0.00000000000E+00 0. -1.
     999901    1    3    3    0    0 -0.59868670264E-01 -0.33845801283E-01 -0.94585120885E-01  0.88773652681E+00  0.88000000000E+00 0. -1.
        -11    1    4    4    0    0  0.31525347139E-01  0.21104978868E-01  0.45849779614E-01  0.59512444555E-01  0.51100000000E-03 0.  1.
         11    1    4    4    0    0  0.45414415940E-01  0.50656804101E-02  0.59550214579E-01  0.75064102410E-01  0.51100000000E-03 0. -1.
</event>
<event>
 7    1  0.9952977E+004  0.1043930E+01  0.7957747E-01            NaN
         13   -1    0    0    0    0  0.00000000000E+00  0.00000000000E+00  0.74505805969E-08  0.10566000000E+00  0.10566000000E+00 0.  1.
     999900   -1    0    0    0    0 -0.00000000000E+00 -0.00000000000E+00 -0.74505805969E-08  0.93827000000E+00  0.93827000000E+00 0. -1.
     999903    2    1    2    0    0  0.45823972167E-01 -0.70596482659E-01  0.35729736389E-01  0.94695389366E-01  0.24635399647E-01 0.  0.
         14    1    1    2    0    0 -0.39032415574E-01 -0.35111777655E-01  0.29965954755E-01  0.60451011903E-01  0.00000000000E+00 0.  1.
     999901    1    1    2    0    0 -0.67915565931E-02  0.10570826031E+00 -0.65695691144E-01  0.88878359873E+00  0.88000000000E+00 0. -1.
        -11    1    3    3    0    0  0.38470313307E-01 -0.42375242556E-01  0.15824807940E-01  0.59382757219E-01  0.51100000000E-03 0.  1.
         11    1    3    3    0    0  0.73536588601E-02 -0.28221240103E-01  0.19904928449E-01  0.35312632147E-01  0.51100000000E-03 0. -1.
</event>
<event>
 8    1  0.9952977E+004  0.1043930E+01  0.7957747E-01            NaN
         13   -1    0    0    0    0  0.00000000000E+00  0.00000000000E+00  0.74505805969E-08  0.10566000000E+00  0.10566000000E+00 0.  1.
     999900   -1    0    0    0    0 -0.00000000000E+00 -0.00000000000E+00 -0.74505805969E-08  0.93827000000E+00  0.93827000000E+00 0.  1.
     999902    2    1    2    0    0  0.80849786820E-03  0.13582653262E-01  0.19220851365E-01  0.10203804084E+01  0.10201086190E+01 0.  0.
     999903    2    3    3    0    0  0.93377319750E-01  0.73141088784E-01 -0.51386617515E-01  0.13071664679E+00  0.19424586868E-01 0.  0.
         14    1    1    2    0    0 -0.80849786820E-03 -0.13582653262E-01 -0.19220851365E-01  0.23549591623E-01  0.00000000000E+00 0. -1.
     999901    1    3    3    0    0 -0.92568821882E-01 -0.59558435522E-01  0.70607468880E-01  0.88966376159E+00  0.88000000000E+00 0.  1.
        -11    1    4    4    0    0  0.75746666302E-01  0.50559254205E-01 -0.43903663163E-01  0.10110187141E+00  0.51100000000E-03 0. -1.
         11    1    4    4    0    0  0.17630653448E-01  0.22581834579E-01 -0.74829543522E-02  0.29614775380E-01  0.51100000000E-03 0.  1.
</event>
<event>
 8    1  0.9952977E+004  0.1043930E+01  0.7957747E-01            NaN
         13   -1    0    0    0    0  0.00000000000E+00  0.00000000000E+00  0.74505805969E-08  0.10566000000E+00  0.10566000000E+00 0.  1.
     999900   -1    0    0    0    0 -0.00000000000E+00 -0.00000000000E+00 -0.74505805969E-08  0.93827000000E+00  0.93827000000E+00 0.  1.
     999902    2    1    2    0    0  0.14090474800E-01 -0.10236785421E-01  0.15762481140E-01  0.10204398091E+01  0.10201694050E+01 0.  0.
     999903    2    3    3    0    0  0.90079712790E-01 -0.27408872150E-01 -0.88726324240E-01  0.13084037381E+00  0.19525416191E-01 0.  0.
         14    1    1    2    0    0 -0.14090474800E-01  0.10236785421E-01 -0.15762481140E-01  0.23490190879E-01  0.00000000000E+00 0. -1.
     999901    1    3    3    0    0 -0.75989237990E-01  0.17172086729E-01  0.10448880538E+00  0.88959943531E+00  0.88000000000E+00 0. -1.
        -11    1    4    4    0    0  0.45350619878E-01 -0.37016581712E-02 -0.40362165826E-01  0.60825541902E-01  0.51100000000E-03 0.  1.
         11    1    4    4    0    0  0.44729092912E-01 -0.23707213978E-01 -0.48364158414E-01  0.70014831911E-01  0.51100000000E-03 0. -1.
</event>
<event>
 7    1  0.9952977E+004  0.1043930E+01  0.7957747E-01            NaN
         13   -1    0    0    0    0  0.00000000000E+00  0.00000000000E+00  0.74505805969E-08  0.10566000000E+00  0.10566000000E+00 0. -1.
     999900   -1    0    0    0    0 -0.00000000000E+00 -0.00000000000E+00 -0.74505805969E-08  0.93827000000E+00  0.93827000000E+00 0.  1.
     999903    2    1    2    0    0  0.69490920102E-01 -0.59489775474E-01 -0.41996823407E-01  0.10258997143E+00  0.19822908430E-01 0.  0.
         14    1    1    2    0    0 -0.17111510829E-01  0.47628113956E-02 -0.50235275304E-01  0.53282934042E-01  0.00000000000E+00 0.  1.
     999901    1    1    2    0    0 -0.52379409272E-01  0.54726964079E-01  0.92232098711E-01  0.88805709453E+00  0.88000000000E+00 0. -1.
        -11    1    3    3    0    0  0.25301091039E-01 -0.33171263094E-01 -0.23780797275E-01  0.48023591526E-01  0.51100000000E-03 0. -1.
         11    1    3    3    0    0  0.44189829063E-01 -0.26318512380E-01 -0.18216026132E-01  0.54566379901E-01  0.51100000000E-03 0.  1.
</event>
<event>
 8    1  0.9952977E+004  0.1043930E+01  0.7957747E-01            NaN
         13   -1    0    0    0    0  0.00000000000E+00  0.00000000000E+00  0.74505805969E-08  0.10566000000E+00  0.10566000000E+00 0. -1.
     999900   -1    0    0    0    0 -0.00000000000E+00 -0.00000000000E+00 -0.74505805969E-08  0.93827000000E+00  0.93827000000E+00 0.  1.
     999902    2    1    2    0    0 -0.54278321824E-02 -0.52568632572E-02 -0.22291342243E-01  0.10203927973E+01  0.10201212971E+01 0.  0.
     999903    2    3    3    0    0  0.11593254144E+00  0.40759990005E-01  0.33830798185E-01  0.12910407541E+00  0.20533105740E-01 0.  0.
         14    1    1    2    0    0  0.54278321824E-02  0.52568632572E-02  0.22291342243E-01  0.23537202733E-01  0.00000000000E+00 0. -1.
     999901    1    3    3    0    0 -0.12136037362E+00 -0.46016853262E-01 -0.56122140428E-01  0.89128872186E+00  0.88000000000E+00 0.  1.
        -11    1    4    4    0    0  0.11039491138E+00  0.38382278540E-01  0.26953777572E-01  0.11994583366E+00  0.51100000000E-03 0. -1.
         11    1    4    4    0    0  0.55376300534E-02  0.23777114650E-02  0.68770206127E-02  0.91582417487E-02  0.51100000000E-03 0.  1.
</event>
<event>
 8    1  0.9952977E+004  0.1043930E+01  0.7957747E-01            NaN
         13   -1    0    0    0    0  0.00000000000E+00  0.00000000000E+00  0.74505805969E-08  0.10566000000E+00  0.10566000000E+00 0.  1.
     999900   -1    0    0    0    0 -0.00000000000E+00 -0.00000000000E+00 -0.74505805969E-08  0.93827000000E+00  0.93827000000E+00 0.  1.
     999902    2    1    2    0    0 -0.11425138081E-01 -0.20681264336E-01 -0.37063495812E-02  0.10200137816E+01  0.10197333618E+01 0.  0.
     999903    2    3    3    0    0 -0.85117119650E-01  0.25279168294E-01 -0.94828406630E-01  0.13105590927E+00  0.17299255600E-01 0.  0.
         14    1    1    2    0    0  0.11425138081E-01  0.20681264336E-01  0.37063495812E-02  0.23916218387E-01  0.00000000000E+00 0.  1.
     999901    1    3    3    0    0  0.73691981569E-01 -0.45960432630E-01  0.91122057049E-01  0.88895787234E+00  0.88000000000E+00 0. -1.
        -11    1    4    4    0    0 -0.67691063058E-01  0.12681486751E-01 -0.69843297039E-01  0.98087957398E-01  0.51100000000E-03 0. -1.
         11    1    4    4    0    0 -0.17426056592E-01  0.12597681543E-01 -0.24985109591E-01  0.32967951875E-01  0.51100000000E-03 0.  1.
</event>
<event>
 8    1  0.9952977E+004  0.1043930E+01  0.7957747E-01            NaN
         13   -1    0    0    0    0  0.00000000000E+00  0.00000000000E+00  0.74505805969E-08  0.10566000000E+00  0.10566000000E+00 0. -1.
     999900   -1    0    0    0    0 -0.00000000000E+00 -0.00000000000E+00 -0.74505805969E-08  0.93827000000E+00  0.93827000000E+00 0. -1.
     999902    2    1    2    0    0 -0.65033290057E-02  0.19755427433E-01  0.77446856451E-02  0.10217365245E+01  0.10214954601E+01 0.  0.
     999903    2    3    3    0    0 -0.81258848379E-02 -0.12636980569E+00 -0.17947271421E-01  0.12931549539E+00  0.19105889227E-01 0.  0.
         14    1    1    2    0    0  0.65033290057E-02 -0.19755427433E-01 -0.77446856451E-02  0.22193475550E-01  0.00000000000E+00 0.  1.
     999901    1    3    3    0    0  0.16225558322E-02  0.14612523312E+00  0.25691957066E-01  0.89242102906E+00  0.88000000000E+00 0. -1.
        -11    1    4    4    0    0  0.22701705787E-02 -0.42907104146E-01 -0.13691444067E-01  0.45098669850E-01  0.51100000000E-03 0. -1.
         11    1    4    4    0    0 -0.10396055417E-01 -0.83462701544E-01 -0.42558273541E-02  0.84216825544E-01  0.51100000000E-03 0.  1.
</event>
<event>
 8    1  0.9952977E+004  0.1043930E+01  0.7957747E-01            NaN
         13   -1    0    0    0    0  0.00000000000E+00  0.00000000000E+00  0.74505805969E-08  0.10566000000E+00  0.10566000000E+00 0.  1.
     999900   -1    0    0    0    0 -0.00000000000E+00 -0.00000000000E+00 -0.74505805969E-08  0.93827000000E+00  0.93827000000E+00 0.  1.
     999902    2    1    2    0    0 -0.84462665602E-03  0.14242257928E-01 -0.18794989884E-01  0.10203332428E+01  0.10200603509E+01 0.  0.
     999903    2    3    3    0    0  0.22311720445E-01 -0.10922197263E+00  0.57372811107E-01  0.12815547659E+00  0.26550603573E-01 0.  0.
         14    1    1    2    0    0  0.84462665602E-03 -0.14242257928E-01  0.18794989884E-01  0.23596757189E-01  0.00000000000E+00 0.  1.
     999901    1    3    3    0    0 -0.23156347101E-01  0.12346423056E+00 -0.76167800991E-01  0.89217776623E+00  0.88000000000E+00 0. -1.
        -11    1    4    4    0    0  0.70127998897E-04 -0.60822222414E-01  0.24583828349E-01  0.65604675097E-01  0.51100000000E-03 0. -1.
         11    1    4    4    0    0  0.22241592446E-01 -0.48399750217E-01  0.32788982758E-01  0.62550801489E-01  0.51100000000E-03 0.  1.
</event>
<event>
 8    1  0.9952977E+004  0.1043930E+01  0.7957747E-01            NaN
         13   -1    0    0    0    0  0.00000000000E+00  0.00000000000E+00  0.74505805969E-08  0.10566000000E+00  0.10566000000E+00 0. -1.
     999900   -1    0    0    0    0 -0.00000000000E+00 -0.00000000000E+00 -0.74505805969E-08  0.93827000000E+00  0.93827000000E+00 0. -1.
     999902    2    1    2    0    0  0.23081327485E-01  0.25626072622E-02  0.56319024133E-02  0.10200337041E+01  0.10197537568E+01 0.  0.
     999903    2    3    3    0    0  0.85615060553E-01 -0.58991979136E-01  0.78461837032E-01  0.13267603421E+00  0.25232478829E-01 0.  0.
         14    1    1    2    0    0 -0.23081327485E-01 -0.25626072622E-02 -0.56319024133E-02  0.23896295931E-01  0.00000000000E+00 0.  1.
     999901    1    3    3    0    0 -0.62533733068E-01  0.61554586399E-01 -0.72829934619E-01  0.88735766986E+00  0.88000000000E+00 0. -1.
        -11    1    4    4    0    0  0.30631621515E-01 -0.23257949901E-01  0.14602915106E-01  0.41142857470E-01  0.51100000000E-03 0.  1.
         11    1    4    4    0    0  0.54983439037E-01 -0.35734029236E-01  0.63858921926E-01  0.91533176741E-01  0.51100000000E-03 0. -1.
</event>
<event>
 8    1  0.9952977E+004  0.1043930E+01  0.7957747E-01            NaN
         13   -1    0    0    0    0  0.00000000000E+00  0.00000000000E+00  0.74505805969E-08  0.10566000000E+00  0.10566000000E+00 0.  1.
     999900   -1    0    0    0    0 -0.00000000000E+00 -0.00000000000E+00 -0.74505805969E-08  0.93827000000E+00  0.93827000000E+00 0. -1.
     999902    2    1    2    0    0  0.17423284804E-01  0.56587983279E-02  0.16375543805E-01  0.10193586491E+01  0.10190624633E+01 0.  0.
     999903    2    3    3    0    0  0.91260278453E-01  0.40280609495E-01  0.85260422948E-01  0.13290746710E+00  0.21073423165E-01 0.  0.
         14    1    1    2    0    0 -0.17423284804E-01 -0.56587983279E-02 -0.16375543805E-01  0.24571350936E-01  0.00000000000E+00 0.  1.
     999901    1    3    3    0    0 -0.73836993648E-01 -0.34621811167E-01 -0.68884879143E-01  0.88645118197E+00  0.88000000000E+00 0. -1.
        -11    1    4    4    0    0  0.33361464460E-01  0.23298229879E-01  0.25743736968E-01  0.48153877730E-01  0.51100000000E-03 0.  1.
         11    1    4    4    0    0  0.57898813993E-01  0.16982379616E-01  0.59516685981E-01  0.84753589365E-01  0.51100000000E-03 0. -1.
</event>
<event>
 8    1  0.9952977E+004  0.1043930E+01  0.7957747E-01            NaN
         13   -1    0    0    0    0  0.00000000000E+00  0.00000000000E+00  0.74505805969E-08  0.10566000000E+00  0.10566000000E+00 0.  1.
     999900   -1    0    0    0    0 -0.00000000000E+00 -0.00000000000E+00 -0.74505805969E-08  0.93827000000E+00  0.93827000000E+00 0. -1.
     999902    2    1    2    0    0  0.17408364464E-02 -0.21250721778E-01  0.14725033576E-01  0.10180176419E+01  0.10176878052E+01 0.  0.
     999903    2    3    3    0    0  0.40492006829E-01 -0.22676627719E-01 -0.11694410808E+00  0.12737717053E+00  0.19879313258E-01 0.  0.
         14    1    1    2    0    0 -0.17408364464E-02  0.21250721778E-01 -0.14725033576E-01  0.25912358083E-01  0.00000000000E+00 0. -1.
     999901    1    3    3    0    0 -0.38751170382E-01  0.14259059408E-02  0.13166914165E+00  0.89064047139E+00  0.88000000000E+00 0.  1.
        -11    1    4    4    0    0  0.32247941699E-01 -0.13001909741E-01 -0.63067342237E-01  0.72018957078E-01  0.51100000000E-03 0. -1.
         11    1    4    4    0    0  0.82440651296E-02 -0.96747179782E-02 -0.53876765840E-01  0.55358213449E-01  0.51100000000E-03 0.  1.
</event>
<event>
 8    1  0.9952977E+004  0.1043930E+01  0.7957747E-01            NaN
         13   -1    0    0    0    0  0.00000000000E+00  0.00000000000E+00  0.74505805969E-08  0.10566000000E+00  0.10566000000E+00 0.  1.
     999900   -1    0    0    0    0 -0.00000000000E+00 -0.00000000000E+00 -0.74505805969E-08  0.93827000000E+00  0.93827000000E+00 0. -1.
     999902    2    1    2    0    0  0.21950408312E-01 -0.89712844731E-02 -0.49083319584E-02  0.10197143833E+01  0.10194268132E+01 0.  0.
     999903    2    3    3    0    0  0.20118998396E-01 -0.31935459150E-01 -0.12418836213E+00  0.13136848614E+00  0.20255424345E-01 0.  0.
         14    1    1    2    0    0 -0.21950408312E-01  0.89712844731E-02  0.49083319584E-02  0.24215616712E-01  0.00000000000E+00 0. -1.
     999901    1    3    3    0    0  0.18314099158E-02  0.22964174677E-01  0.11928003017E+00  0.88834589715E+00  0.88000000000E+00 0.  1.
        -11    1    4    4    0    0  0.21305573427E-01 -0.27460953377E-01 -0.83956592424E-01  0.90868046924E-01  0.51100000000E-03 0. -1.
         11    1    4    4    0    0 -0.11865750313E-02 -0.44745057734E-02 -0.40231769704E-01  0.40500439217E-01  0.51100000000E-03 0.  1.
</event>
<event>
 8    1  0.9952977E+004  0.1043930E+01  0.7957747E-01            NaN
         13   -1    0    0    0    0  0.00000000000E+00  0.00000000000E+00  0.74505805969E-08  0.10566000000E+00  0.10566000000E+00 0. -1.
     999900   -1    0    0    0    0 -0.00000000000E+00 -0.00000000000E+00 -0.74505805969E-08  0.93827000000E+00  0.93827000000E+00 0. -1.
     999902    2    1    2    0    0 -0.81975924326E-02 -0.21467187418E-01  0.97371364801E-02  0.10189729873E+01  0.10186673139E+01 0.  0.
     999903    2    3    3    0    0 -0.12368735156E+00 -0.94449135663E-02 -0.34038903724E-01  0.13026675841E+00  0.20567305396E-01 0.  0.
         14    1    1    2    0    0  0.81975924326E-02  0.21467187418E-01 -0.97371364801E-02  0.24957012725E-01  0.00000000000E+00 0. -1.
     999901    1    3    3    0    0  0.11548975913E+00 -0.12022273852E-01  0.43776040204E-01  0.88870622887E+00  0.88000000000E+00 0.  1.
        -11    1    4    4    0    0 -0.90803872525E-01 -0.10428923853E-01 -0.33537328670E-01  0.97360768555E-01  0.51100000000E-03 0.  1.
         11    1    4    4    0    0 -0.32883479034E-01  0.98401028668E-03 -0.50157505334E-03  0.32905989853E-01  0.51100000000E-03 0. -1.
</event>
<event>
 8    1  0.9952977E+004  0.1043930E+01  0.7957747E-01            NaN
         13   -1    0    0    0    0  0.00000000000E+00  0.00000000000E+00  0.74505805969E-08  0.10566000000E+00  0.10566000000E+00 0. -1.
     999900   -1    0    0    0    0 -0.00000000000E+00 -0.00000000000E+00 -0.74505805969E-08  0.93827000000E+00  0.93827000000E+00 0. -1.
     999902    2    1    2    0    0 -0.60855616689E-02 -0.70780930558E-02 -0.23379759756E-01  0.10187556752E+01  0.10184445882E+01 0.  0.
     999903    2    3    3    0    0 -0.42308522338E-01 -0.90476043060E-01 -0.83864623748E-01  0.13200557529E+00  0.20402729252E-01 0.  0.
         14    1    1    2    0    0  0.60855616689E-02  0.70780930558E-02  0.23379759756E-01  0.25174324785E-01  0.00000000000E+00 0. -1.
     999901    1    3    3    0    0  0.36222960669E-01  0.83397950005E-01  0.60484863992E-01  0.88675009992E+00  0.88000000000E+00 0. -1.
        -11    1    4    4    0    0 -0.32095372826E-01 -0.54464170866E-01 -0.42289818857E-01  0.76060165428E-01  0.51100000000E-03 0. -1.
         11    1    4    4    0    0 -0.10213149512E-01 -0.36011872194E-01 -0.41574804891E-01  0.55945409862E-01  0.51100000000E-03 0.  1.
</event>
<event>
 8    1  0.9952977E+004  0.1043930E+01  0.7957747E-01            NaN
         13   -1    0    0    0    0  0.00000000000E+00  0.00000000000E+00  0.74505805969E-08  0.10566000000E+00  0.10566000000E+00 0.  1.
     999900   -1    0    0    0    0 -0.00000000000E+00 -0.00000000000E+00 -0.74505805969E-08  0.93827000000E+00  0.93827000000E+00 0. -1.
     999902    2    1    2    0    0  0.88708237721E-02  0.13039831553E-02  0.21348392180E-01  0.10207751790E+01  0.10205125283E+01 0.  0.
     999903    2    3    3    0    0 -0.71701441975E-01  0.10631020125E+00  0.16995825001E-01  0.13086667771E+00  0.19856323798E-01 0.  0.
         14    1    1    2    0    0 -0.88708237721E-02 -0.13039831553E-02 -0.21348392180E-01  0.23154820991E-01  0.00000000000E+00 0. -1.
     999901    1    3    3    0    0  0.80572265748E-01 -0.10500621810E+00  0.43525671787E-02  0.88990850130E+00  0.88000000000E+00 0. -1.
        -11    1    4    4    0    0 -0.36832437411E-01  0.61458573392E-01  0.30773529848E-03  0.71652916975E-01  0.51100000000E-03 0. -1.
         11    1    4    4    0    0 -0.34869004564E-01  0.44851627862E-01  0.16688089703E-01  0.59213760733E-01  0.51100000000E-03 0.  1.
</event>
<event>
 8    1  0.9952977E+004  0.1043930E+01  0.7957747E-01            NaN
         13   -1    0    0    0    0  0.00000000000E+00  0.00000000000E+00  0.74505805969E-08  0.10566000000E+00  0.10566000000E+00 0. -1.
     999900   -1    0    0    0    0 -0.00000000000E+00 -0.00000000000E+00 -0.74505805969E-08  0.93827000000E+00  0.93827000000E+00 0. -1.
     999902    2    1    2    0    0  0.14808348607E-02 -0.17146468488E-01  0.15415348039E-01  0.10208252990E+01  0.10205637971E+01 0.  0.
     999903    2    3    3    0    0  0.10197832314E+00  0.77430114887E-01 -0.35469150953E-02  0.12986848596E+00  0.21406586754E-01 0.  0.
         14    1    1    2    0    0 -0.14808348607E-02  0.17146468488E-01 -0.15415348039E-01  0.23104701008E-01  0.00000000000E+00 0.  1.
     999901    1    3    3    0    0 -0.10049748828E+00 -0.94576583375E-01  0.18962263134E-01  0.89095681304E+00  0.88000000000E+00 0. -1.
        -11    1    4    4    0    0  0.35838917162E-01  0.40415311578E-01 -0.83976161576E-03  0.54025843019E-01  0.51100000000E-03 0. -1.
         11    1    4    4    0    0  0.66139405975E-01  0.37014803309E-01 -0.27071534795E-02  0.75842642937E-01  0.51100000000E-03 0.  1.
</event>
<event>
 8    1  0.9952977E+004  0.1043930E+01  0.7957747E-01            NaN
         13   -1    0    0    0    0  0.00000000000E+00  0.00000000000E+00  0.74505805969E-08  0.10566000000E+00  0.10566000000E+00 0.  1.
     999900   -1    0    0    0    0 -0.00000000000E+00 -0.00000000000E+00 -0.74505805969E-08  0.93827000000E+00  0.93827000000E+00 0.  1.
     999902    2    1    2    0    0  0.16711173580E-01  0.16660437351E-01 -0.29023236900E-02  0.10201548664E+01  0.10198777841E+01 0.  0.
     999903    2    3    3    0    0 -0.12022762024E+00 -0.64041093123E-02  0.39678208355E-01  0.12824830836E+00  0.19431291627E-01 0.  0.
         14    1    1    2    0    0 -0.16711173580E-01 -0.16660437351E-01  0.29023236900E-02  0.23775133605E-01  0.00000000000E+00 0.  1.
     999901    1    3    3    0    0  0.13693879382E+00  0.23064546663E-01 -0.42580532045E-01  0.89190655804E+00  0.88000000000E+00 0.  1.
        -11    1    4    4    0    0 -0.69769900014E-01  0.51937686392E-02  0.19027585039E-01  0.72506029364E-01  0.51100000000E-03 0. -1.
         11    1    4    4    0    0 -0.50457720221E-01 -0.11597877951E-01  0.20650623316E-01  0.55742278992E-01  0.51100000000E-03 0.  1.
</event>
<event>
 8    1  0.9952977E+004  0.1043930E+01  0.7957747E-01            NaN
         13   -1    0    0    0    0  0.00000000000E+00  0.00000000000E+00  0.74505805969E-08  0.10566000000E+00  0.10566000000E+00 0. -1.
     999900   -1    0    0    0    0 -0.00000000000E+00 -0.00000000000E+00 -0.74505805969E-08  0.93827000000E+00  0.93827000000E+00 0.  1.
     999902    2    1    2    0    0  0.16926912765E-01 -0.23000451884E-01  0.38937010347E-03  0.10153696644E+01  0.10149679121E+01 0.  0.
     999903    2    3    3    0    0 -0.72909941251E-01 -0.97924250115E-02  0.99513382719E-01  0.12516144030E+00  0.18727564628E-01 0.  0.
         14    1    1    2    0    0 -0.16926912765E-01  0.23000451884E-01 -0.38937010347E-03  0.28560335637E-01  0.00000000000E+00 0.  1.
     999901    1    3    3    0    0  0.89836854016E-01 -0.13208026872E-01 -0.99124012615E-01  0.89020822406E+00  0.88000000000E+00 0.  1.
        -11    1    4    4    0    0 -0.49115417892E-01 -0.40917500851E-02  0.79535944125E-01  0.93569729199E-01  0.51100000000E-03 0.  1.
         11    1    4    4    0    0 -0.23794523360E-01 -0.57006749263E-02  0.19977438594E-01  0.31591711101E-01  0.51100000000E-03 0. -1.
</event>
<event>
 8    1  0.9952977E+004  0.1043930E+01  0.7957747E-01            NaN
         13   -1    0    0    0    0  0.00000000000E+00  0.00000000000E+00  0.74505805969E-08  0.10566000000E+00  0.10566000000E+00 0. -1.
     999900   -1    0    0    0    0 -0.00000000000E+00 -0.00000000000E+00 -0.74505805969E-08  0.93827000000E+00  0.93827000000E+00 0. -1.
     999902    2    1    2    0    0  0.20743604582E-01 -0.16943590357E-02  0.12205957761E-01  0.10198021450E+01  0.10195166803E+01 0.  0.
     999903    2    3    3    0    0 -0.40331967817E-01 -0.12096774472E+00  0.48833359158E-02  0.12962801208E+00  0.22797185223E-01 0.  0.
         14    1    1    2    0    0 -0.20743604582E-01  0.16943590357E-02 -0.12205957761E-01  0.24127855033E-01  0.00000000000E+00 0.  1.
     999901    1    3    3    0    0  0.61075572399E-01  0.11927338569E+00  0.73226218451E-02  0.89017413289E+00  0.88000000000E+00 0.  1.
        -11    1    4    4    0    0 -0.10790514473E-01 -0.68185422046E-01  0.17583129742E-02  0.69058234612E-01  0.51100000000E-03 0. -1.
         11    1    4    4    0    0 -0.29541453343E-01 -0.52782322677E-01  0.31250229416E-02  0.60569777465E-01  0.51100000000E-03 0.  1.
</event>
<event>
 8    1  0.9952977E+004  0.1043930E+01  0.7957747E-01            NaN
         13   -1    0    0    0    0  0.00000000000E+00  0.00000000000E+00  0.74505805969E-08  0.10566000000E+00  0.10566000000E+00 0. -1.
     999900   -1    0    0    0    0 -0.00000000000E+00 -0.00000000000E+00 -0.74505805969E-08  0.93827000000E+00  0.93827000000E+00 0.  1.
     999902    2    1    2    0    0  0.19422993065E-01 -0.12442596138E-01 -0.82788122666E-02  0.10194226625E+01  0.10191280367E+01 0.  0.
     999903    2    3    3    0    0 -0.12470801346E+00 -0.16615799034E-01 -0.11988867573E-02  0.12765964017E+00  0.21618811273E-01 0.  0.
         14    1    1    2    0    0 -0.19422993065E-01  0.12442596138E-01  0.82788122666E-02  0.24507337489E-01  0.00000000000E+00 0. -1.
     999901    1    3    3    0    0  0.14413100653E+00  0.41732028962E-02 -0.70799255093E-02  0.89176302234E+00  0.88000000000E+00 0. -1.
        -11    1    4    4    0    0 -0.58518253317E-01  0.30167496215E-02  0.38942597822E-03  0.58599483984E-01  0.51100000000E-03 0.  1.
         11    1    4    4    0    0 -0.66189760143E-01 -0.19632548655E-01 -0.15883127355E-02  0.69060156189E-01  0.51100000000E-03 0. -1.
</event>
<event>
 8    1  0.9952977E+004  0.1043930E+01  0.7957747E-01            NaN
         13   -1    0    0    0    0  0.00000000000E+00  0.00000000000E+00  0.74505805969E-08  0.10566000000E+00  0.10566000000E+00 0. -1.
     999900   -1    0    0    0    0 -0.00000000000E+00 -0.00000000000E+00 -0.74505805969E-08  0.93827000000E+00  0.93827000000E+00 0. -1.
     999902    2    1    2    0    0 -0.21531089792E-01  0.64620368752E-02  0.84822931416E-02  0.10199030350E+01  0.10196199811E+01 0.  0.
     999903    2    3    3    0    0 -0.49095523296E-01 -0.70367767925E-01  0.97747562000E-01  0.13162891906E+00  0.20238411130E-01 0.  0.
         14    1    1    2    0    0  0.21531089792E-01 -0.64620368752E-02 -0.84822931416E-02  0.24026964959E-01  0.00000000000E+00 0. -1.
     999901    1    3    3    0    0  0.27564433503E-01  0.76829804800E-01 -0.89265268859E-01  0.88827411598E+00  0.88000000000E+00 0. -1.
        -11    1    4    4    0    0 -0.18447372475E-01 -0.36409766402E-01  0.33764621331E-01  0.52974403398E-01  0.51100000000E-03 0.  1.
         11    1    4    4    0    0 -0.30648150820E-01 -0.33958001522E-01  0.63982940669E-01  0.78654515660E-01  0.51100000000E-03 0. -1.
</event>
<event>
 8    1  0.9952977E+004  0.1043930E+01  0.7957747E-01            NaN
         13   -1    0    0    0    0  0.00000000000E+00  0.00000000000E+00  0.74505805969E-08  0.10566000000E+00  0.10566000000E+00 0.  1.
     999900   -1    0    0    0    0 -0.00000000000E+00 -0.00000000000E+00 -0.74505805969E-08  0.93827000000E+00  0.93827000000E+00 0. -1.
     999902    2    1    2    0    0 -0.75895651830E-02 -0.22487910570E-01  0.50116937050E-03  0.10201906067E+01  0.10199143666E+01 0.  0.
     999903    2    3    3    0    0  0.20964666834E-01  0.22609199606E-01  0.12471077290E+00  0.12986644155E+00  0.19021635127E-01 0.  0.
         14    1    1    2    0    0  0.75895651830E-02  0.22487910570E-01 -0.50116937050E-03  0.23739393257E-01  0.00000000000E+00 0.  1.
     999901    1    3    3    0    0 -0.28554232017E-01 -0.45097110176E-01 -0.12420960353E+00  0.89032416519E+00  0.88000000000E+00 0. -1.
        -11    1    4    4    0    0  0.10726715272E-01 -0.24044334532E-03  0.47346597182E-01  0.48549784956E-01  0.51100000000E-03 0.  1.
         11    1    4    4    0    0  0.10237951562E-01  0.22849642951E-01  0.77364175714E-01  0.81316656597E-01  0.51100000000E-03 0. -1.
</event>
<event>
 8    1  0.9952977E+004  0.1043930E+01  0.7957747E-01            NaN
         13   -1    0    0    0    0  0.00000000000E+00  0.00000000000E+00  0.74505805969E-08  0.10566000000E+00  0.10566000000E+00 0.  1.
     999900   -1    0    0    0    0 -0.00000000000E+00 -0.00000000000E+00 -0.74505805969E-08  0.93827000000E+00  0.93827000000E+00 0.  1.
     999902    2    1    2    0    0  0.97116360255E-02  0.12754595300E-01  0.18053984829E-01  0.10197858093E+01  0.10194999534E+01 0.  0.
     999903    2    3    3    0    0  0.12501128343E+00  0.25291460462E-01 -0.21507559400E-01  0.13129478659E+00  0.22544775856E-01 0.  0.
         14    1    1    2    0    0 -0.97116360255E-02 -0.12754595300E-01 -0.18053984829E-01  0.24144190684E-01  0.00000000000E+00 0. -1.
     999901    1    3    3    0    0 -0.11529964740E+00 -0.12536865162E-01  0.39561544229E-01  0.88849102272E+00  0.88000000000E+00 0. -1.
        -11    1    4    4    0    0  0.88765372525E-01  0.15688068121E-01 -0.25240093380E-01  0.93609456123E-01  0.51100000000E-03 0.  1.
         11    1    4    4    0    0  0.36245910903E-01  0.96033923406E-02  0.37325339807E-02  0.37685330469E-01  0.51100000000E-03 0. -1.
</event>
<event>
 8    1  0.9952977E+004  0.1043930E+01  0.7957747E-01            NaN
         13   -1    0    0    0    0  0.00000000000E+00  0.00000000000E+00  0.74505805969E-08  0.10566000000E+00  0.10566000000E+00 0. -1.
     999900   -1    0    0    0    0 -0.00000000000E+00 -0.00000000000E+00 -0.74505805969E-08  0.93827000000E+00  0.93827000000E+00 0.  1.
     999902    2    1    2    0    0  0.24569487996E-01 -0.25760869496E-02  0.39305598158E-02  0.10189150991E+01  0.10186079884E+01 0.  0.
     999903    2    3    3    0    0  0.41513541170E-02  0.10077223701E+00  0.79328288947E-01  0.12943064520E+00  0.16942166184E-01 0.  0.
         14    1    1    2    0    0 -0.24569487996E-01  0.25760869496E-02 -0.39305598158E-02  0.25014900856E-01  0.00000000000E+00 0. -1.
     999901    1    3    3    0    0  0.20418133879E-01 -0.10334832396E+00 -0.75397729131E-01  0.88948445395E+00  0.88000000000E+00 0.  1.
        -11    1    4    4    0    0  0.30056289451E-02  0.73720774351E-01  0.67043573671E-01  0.99693973077E-01  0.51100000000E-03 0. -1.
         11    1    4    4    0    0  0.11457251719E-02  0.27051462662E-01  0.12284715277E-01  0.29736672119E-01  0.51100000000E-03 0.  1.
</event>
<event>
 8    1  0.9952977E+004  0.1043930E+01  0.7957747E-01            NaN
         13   -1    0    0    0    0  0.00000000000E+00  0.00000000000E+00  0.74505805969E-08  0.10566000000E+00  0.10566000000E+00 0.  1.
     999900   -1    0    0    0    0 -0.00000000000E+00 -0.00000000000E+00 -0.74505805969E-08  0.93827000000E+00  0.93827000000E+00 0. -1.
     999902    2    1    2    0    0  0.20965163661E-01  0.89112860120E-02  0.11097332866E-01  0.10185903097E+01  0.10182750705E+01 0.  0.
     999903    2    3    3    0    0 -0.27772975734E-01 -0.12051893525E+00 -0.19824218019E-01  0.12725214119E+00  0.22448961746E-01 0.  0.
         14    1    1    2    0    0 -0.20965163661E-01 -0.89112860120E-02 -0.11097332866E-01  0.25339690259E-01  0.00000000000E+00 0. -1.
     999901    1    3    3    0    0  0.48738139395E-01  0.12943022126E+00  0.30921550885E-01  0.89133816855E+00  0.88000000000E+00 0.  1.
        -11    1    4    4    0    0 -0.76816928306E-02 -0.80511395317E-01 -0.14441111485E-01  0.82157775058E-01  0.51100000000E-03 0.  1.
         11    1    4    4    0    0 -0.20091282903E-01 -0.40007539929E-01 -0.53831065345E-02  0.45094366132E-01  0.51100000000E-03 0. -1.
</event>
<event>
 8    1  0.9952977E+004  0.1043930E+01  0.7957747E-01            NaN
         13   -1    0    0    0    0  0.00000000000E+00  0.00000000000E+00  0.74505805969E-08  0.10566000000E+00  0.10566000000E+00 0. -1.
     999900   -1    0    0    0    0 -0.00000000000E+00 -0.00000000000E+00 -0.74505805969E-08  0.93827000000E+00  0.93827000000E+00 0.  1.
     999902    2    1    2    0    0  0.22511294799E-01  0.24162152473E-02  0.35486356564E-02  0.10210129909E+01  0.10207557682E+01 0.  0.
     999903    2    3    3    0    0  0.52981976954E-01 -0.10974763273E+00  0.47532973826E-01  0.13228141544E+00  0.19681374406E-01 0.  0.
         14    1    1    2    0    0 -0.22511294799E-01 -0.24162152473E-02 -0.35486356564E-02  0.22917009069E-01  0.00000000000E+00 0.  1.
     999901    1    3    3    0    0 -0.30470682154E-01  0.11216384798E+00 -0.43984338170E-01  0.88873157549E+00  0.88000000000E+00 0. -1.
        -11    1    4    4    0    0  0.41583006236E-01 -0.64936140323E-01  0.27208174864E-01  0.81770377449E-01  0.51100000000E-03 0. -1.
         11    1    4    4    0    0  0.11398970718E-01 -0.44811492409E-01  0.20324798963E-01  0.50511037994E-01  0.51100000000E-03 0.  1.
</event>
<event>
 8    1  0.9952977E+004  0.1043930E+01  0.7957747E-01            NaN
         13   -1    0    0    0    0  0.00000000000E+00  0.00000000000E+00  0.74505805969E-08  0.10566000000E+00  0.10566000000E+00 0. -1.
     999900   -1    0    0    0    0 -0.00000000000E+00 -0.00000000000E+00 -0.74505805969E-08  0.93827000000E+00  0.93827000000E+00 0. -1.
     999902    2    1    2    0    0 -0.88642619798E-02  0.21758041304E-01 -0.38132526946E-02  0.10201281430E+01  0.10198504301E+01 0.  0.
     999903    2    3    3    0    0  0.11634349413E+00  0.55139767297E-01  0.11219527976E-02  0.13062509178E+00  0.22033003889E-01 0.  0.
         14    1    1    2    0    0  0.88642619798E-02 -0.21758041304E-01  0.38132526946E-02  0.23801857028E-01  0.00000000000E+00 0.  1.
     999901    1    3    3    0    0 -0.12520775611E+00 -0.33381725993E-01 -0.49352054922E-02  0.88950305119E+00  0.88000000000E+00 0. -1.
        -11    1    4    4    0    0  0.48126290825E-01  0.31678758648E-01 -0.69400160435E-02  0.58035407828E-01  0.51100000000E-03 0.  1.
         11    1    4    4    0    0  0.68217203309E-01  0.23461008650E-01  0.80619688411E-02  0.72589683956E-01  0.51100000000E-03 0. -1.
</event>
<event>
 8    1  0.9952977E+004  0.1043930E+01  0.7957747E-01            NaN
         13   -1    0    0    0    0  0.00000000000E+00  0.00000000000E+00  0.74505805969E-08  0.10566000000E+00  0.10566000000E+00 0. -1.
     999900   -1    0    0    0    0 -0.00000000000E+00 -0.00000000000E+00 -0.74505805969E-08  0.93827000000E+00  0.93827000000E+00 0. -1.
     999902    2    1    2    0    0 -0.15510559573E-01  0.85174662758E-02 -0.15101224750E-01  0.10206669031E+01  0.10204017617E+01 0.  0.
     999903    2    3    3    0    0  0.74510515807E-01 -0.72429385205E-01  0.72107756833E-01  0.12810788919E+00  0.20353620585E-01 0.  0.
         14    1    1    2    0    0  0.15510559573E-01 -0.85174662758E-02  0.15101224750E-01  0.23263096934E-01  0.00000000000E+00 0. -1.
     999901    1    3    3    0    0 -0.90021075380E-01  0.80946851481E-01 -0.87208981583E-01  0.89255901387E+00  0.88000000000E+00 0. -1.
        -11    1    4    4    0    0  0.35348367077E-02 -0.86071557380E-04  0.63812827767E-02  0.73133008785E-02  0.51100000000E-03 0. -1.
         11    1    4    4    0    0  0.70975679100E-01 -0.72343313648E-01  0.65726474056E-01  0.12079458831E+00  0.51100000000E-03 0.  1.
</event>
<event>
 8    1  0.9952977E+004  0.1043930E+01  0.7957747E-01            NaN
         13   -1    0    0    0    0  0.00000000000E+00  0.00000000000E+00  0.74505805969E-08  0.10566000000E+00  0.10566000000E+00 0.  1.
     999900   -1    0    0    0    0 -0.00000000000E+00 -0.00000000000E+00 -0.74505805969E-08  0.93827000000E+00  0.93827000000E+00 0.  1.
     999902    2    1    2    0    0 -0.67310782886E-02  0.14775434441E-02 -0.21229756642E-01  0.10216097599E+01  0.10213659033E+01 0.  0.
     999903    2    3    3    0    0  0.20699302432E-01 -0.12802253676E+00 -0.98795484455E-02  0.13163699418E+00  0.20309153588E-01 0.  0.
         14    1    1    2    0    0  0.67310782886E-02 -0.14775434441E-02  0.21229756642E-01  0.22320240066E-01  0.00000000000E+00 0.  1.
     999901    1    3    3    0    0 -0.27430380720E-01  0.12950008020E+00 -0.11350208196E-01  0.88997276575E+00  0.88000000000E+00 0.  1.
        -11    1    4    4    0    0  0.17682880314E-01 -0.54469543702E-01  0.63222472481E-03  0.57273696200E-01  0.51100000000E-03 0. -1.
         11    1    4    4    0    0  0.30164221175E-02 -0.73552993057E-01 -0.10511773170E-01  0.74363297979E-01  0.51100000000E-03 0.  1.
</event>
<event>
 8    1  0.9952977E+004  0.1043930E+01  0.7957747E-01            NaN
         13   -1    0    0    0    0  0.00000000000E+00  0.00000000000E+00  0.74505805969E-08  0.10566000000E+00  0.10566000000E+00 0.  1.
     999900   -1    0    0    0    0 -0.00000000000E+00 -0.00000000000E+00 -0.74505805969E-08  0.93827000000E+00  0.93827000000E+00 0. -1.
     999902    2    1    2    0    0  0.12569540732E-01  0.20280299215E-01 -0.10101836023E-02  0.10200489539E+01  0.10197693681E+01 0.  0.
     999903    2    3    3    0    0 -0.53222784894E-01 -0.92102299544E-02 -0.11638914900E+00  0.12959366191E+00  0.18182135078E-01 0.  0.
         14    1    1    2    0    0 -0.12569540732E-01 -0.20280299215E-01  0.10101836023E-02  0.23881046070E-01  0.00000000000E+00 0.  1.
     999901    1    3    3    0    0  0.65792325626E-01  0.29490529170E-01  0.11537896540E+00  0.89045529202E+00  0.88000000000E+00 0.  1.
        -11    1    4    4    0    0 -0.34459256515E-01 -0.13028362649E-01 -0.64489567582E-01  0.74272094630E-01  0.51100000000E-03 0.  1.
         11    1    4    4    0    0 -0.18763528380E-01  0.38181326944E-02 -0.51899581417E-01  0.55321567284E-01  0.51100000000E-03 0. -1.
</event>
<event>
 8    1  0.9952977E+004  0.1043930E+01  0.7957747E-01            NaN
         13   -1    0    0    0    0  0.00000000000E+00  0.00000000000E+00  0.74505805969E-08  0.10566000000E+00  0.10566000000E+00 0. -1.
     999900   -1    0    0    0    0 -0.00000000000E+00 -0.00000000000E+00 -0.74505805969E-08  0.93827000000E+00  0.93827000000E+00 0. -1.
     999902    2    1    2    0    0 -0.17629769459E-01 -0.37256670726E-02  0.14756566052E-01  0.10206395383E+01  0.10203737656E+01 0.  0.
     999903    2    3    3    0    0  0.50336747794E-01  0.69865356818E-01  0.96553755847E-01  0.13118697262E+00  0.21735633319E-01 0.  0.
         14    1    1    2    0    0  0.17629769459E-01  0.37256670726E-02 -0.14756566052E-01  0.23290461738E-01  0.00000000000E+00 0.  1.
     999901    1    3    3    0    0 -0.67966517253E-01 -0.73591023890E-01 -0.81797189795E-01  0.88945256564E+00  0.88000000000E+00 0. -1.
        -11    1    4    4    0    0  0.10451658567E-02  0.13202233560E-01  0.10076302558E-01  0.16648853921E-01  0.51100000000E-03 0. -1.
         11    1    4    4    0    0  0.49291581937E-01  0.56663123258E-01  0.86477453289E-01  0.11453811870E+00  0.51100000000E-03 0.  1.
</event>
<event>
 8    1  0.9952977E+004  0.1043930E+01  0.7957747E-01            NaN
         13   -1    0    0    0    0  0.00000000000E+00  0.00000000000E+00  0.74505805969E-08  0.10566000000E+00  0.10566000000E+00 0. -1.
     999900   -1    0    0    0    0 -0.00000000000E+00 -0.00000000000E+00 -0.74505805969E-08  0.93827000000E+00  0.93827000000E+00 0.  1.
     999902    2    1    2    0    0  0.17744460794E-01  0.10001386478E-01  0.12382283870E-01  0.10200927482E+01  0.10198141989E+01 0.  0.
     999903    2    3    3    0    0  0.10480721073E+00 -0.70704563588E-02 -0.76019530277E-01  0.13122478780E+00  0.20160187883E-01 0.  0.
         14    1    1    2    0    0 -0.17744460794E-01 -0.10001386478E-01 -0.12382283870E-01  0.23837251817E-01  0.00000000000E+00 0.  1.
     999901    1    3    3    0    0 -0.87062749940E-01  0.17071842836E-01  0.88401814147E-01  0.88886796038E+00  0.88000000000E+00 0.  1.
        -11    1    4    4    0    0  0.81796185999E-01  0.29679462822E-02 -0.58320288723E-01  0.10050344246E+00  0.51100000000E-03 0. -1.
         11    1    4    4    0    0  0.23011024735E-01 -0.10038402641E-01 -0.17699241554E-01  0.30721345341E-01  0.51100000000E-03 0.  1.
</event>
<event>
 8    1  0.9952977E+004  0.1043930E+01  0.7957747E-01            NaN
         13   -1    0    0    0    0  0.00000000000E+00  0.00000000000E+00  0.74505805969E-08  0.10566000000E+00  0.10566000000E+00 0.  1.
     999900   -1    0    0    0    0 -0.00000000000E+00 -0.00000000000E+00 -0.74505805969E-08  0.93827000000E+00  0.93827000000E+00 0. -1.
     999902    2    1    2    0    0  0.15160968581E-01 -0.11514497007E-01  0.20874036063E-01  0.10156782038E+01  0.10152852060E+01 0.  0.
     999903    2    3    3    0    0 -0.76166066340E-01  0.16715343787E-01  0.98224316509E-01  0.12712847689E+00  0.20807712599E-01 0.  0.
         14    1    1    2    0    0 -0.15160968581E-01  0.11514497007E-01 -0.20874036063E-01  0.28251796247E-01  0.00000000000E+00 0. -1.
     999901    1    3    3    0    0  0.91327034922E-01 -0.28229840793E-01 -0.77350280447E-01  0.88854972686E+00  0.88000000000E+00 0.  1.
        -11    1    4    4    0    0 -0.35929631737E-01  0.16812145786E-01  0.57672531004E-01  0.69999775972E-01  0.51100000000E-03 0.  1.
         11    1    4    4    0    0 -0.40236434603E-01 -0.96801999317E-04  0.40551785505E-01  0.57128700921E-01  0.51100000000E-03 0. -1.
</event>
<event>
 8    1  0.9952977E+004  0.1043930E+01  0.7957747E-01            NaN
         13   -1    0    0    0    0  0.00000000000E+00  0.00000000000E+00  0.74505805969E-08  0.10566000000E+00  0.10566000000E+00 0. -1.
     999900   -1    0    0    0    0 -0.00000000000E+00 -0.00000000000E+00 -0.74505805969E-08  0.93827000000E+00  0.93827000000E+00 0.  1.
     999902    2    1    2    0    0  0.16984252213E-01 -0.12053701136E-01 -0.25923239539E-02  0.10229424638E+01  0.10227271422E+01 0.  0.
     999903    2    3    3    0    0 -0.97369905821E-02 -0.14161437642E-01 -0.13067845616E+00  0.13326582326E+00  0.19686681892E-01 0.  0.
         14    1    1    2    0    0 -0.16984252213E-01  0.12053701136E-01  0.25923239539E-02  0.20987536249E-01  0.00000000000E+00 0. -1.
     999901    1    3    3    0    0  0.26721242795E-01  0.21077365059E-02  0.12808613220E+00  0.88967664049E+00  0.88000000000E+00 0. -1.
        -11    1    4    4    0    0 -0.35840210280E-02  0.48473536416E-02 -0.35458737841E-01  0.35971172546E-01  0.51100000000E-03 0. -1.
         11    1    4    4    0    0 -0.61529695542E-02 -0.19008791284E-01 -0.95219718317E-01  0.97294650715E-01  0.51100000000E-03 0.  1.
</event>
<event>
 8    1  0.9952977E+004  0.1043930E+01  0.7957747E-01            NaN
         13   -1    0    0    0    0  0.00000000000E+00  0.00000000000E+00  0.74505805969E-08  0.10566000000E+00  0.10566000000E+00 0.  1.
     999900   -1    0    0    0    0 -0.00000000000E+00 -0.00000000000E+00 -0.74505805969E-08  0.93827000000E+00  0.93827000000E+00 0. -1.
     999902    2    1    2    0    0 -0.11673410606E-01 -0.90109112535E-02 -0.17117241066E-01  0.10213365280E+01  0.10210865969E+01 0.  0.
     999903    2    3    3    0    0 -0.33692889696E-02  0.62002196451E-01  0.11135861001E+00  0.12913819564E+00  0.20501440809E-01 0.  0.
         14    1    1    2    0    0  0.11673410606E-01  0.90109112535E-02  0.17117241066E-01  0.22593472033E-01  0.00000000000E+00 0.  1.
     999901    1    3    3    0    0 -0.83041216361E-02 -0.71013107704E-01 -0.12847585108E+00  0.89219833233E+00  0.88000000000E+00 0. -1.
        -11    1    4    4    0    0 -0.78348935614E-02  0.43909956528E-01  0.62019710933E-01  0.76394865695E-01  0.51100000000E-03 0. -1.
         11    1    4    4    0    0  0.44656045918E-02  0.18092239923E-01  0.49338899081E-01  0.52743329942E-01  0.51100000000E-03 0.  1.
</event>
<event>
 8    1  0.9952977E+004  0.1043930E+01  0.7957747E-01            NaN
         13   -1    0    0    0    0  0.00000000000E+00  0.00000000000E+00  0.74505805969E-08  0.10566000000E+00  0.10566000000E+00 0.  1.
     999900   -1    0    0    0    0 -0.00000000000E+00 -0.00000000000E+00 -0.74505805969E-08  0.93827000000E+00  0.93827000000E+00 0. -1.
     999902    2    1    2    0    0  0.13097754203E-01 -0.18770326792E-01 -0.44079980315E-02  0.10206210579E+01  0.10203548584E+01 0.  0.
     999903    2    3    3    0    0  0.11633274793E+00  0.19197205395E-01 -0.56376590763E-01  0.13225191617E+00  0.20258539177E-01 0.  0.
         14    1    1    2    0    0 -0.13097754203E-01  0.18770326792E-01  0.44079980315E-02  0.23308942054E-01  0.00000000000E+00 0.  1.
     999901    1    3    3    0    0 -0.10323499372E+00 -0.37967532187E-01  0.51968592731E-01  0.88836914178E+00  0.88000000000E+00 0.  1.
        -11    1    4    4    0    0  0.25731806099E-01 -0.38138905661E-02 -0.14923939545E-01  0.29994277770E-01  0.51100000000E-03 0.  1.
         11    1    4    4    0    0  0.90600941826E-01  0.23011095961E-01 -0.41452651217E-01  0.10225763840E+00  0.51100000000E-03 0. -1.
</event>
<event>
 8    1  0.9952977E+004  0.1043930E+01  0.7957747E-01            NaN
         13   -1    0    0    0    0  0.00000000000E+00  0.00000000000E+00  0.74505805969E-08  0.10566000000E+00  0.10566000000E+00 0.  1.
     999900   -1    0    0    0    0 -0.00000000000E+00 -0.00000000000E+00 -0.74505805969E-08  0.93827000000E+00  0.93827000000E+00 0.  1.
     999902    2    1    2    0    0 -0.17767586389E-01 -0.13862188906E-02 -0.15470176563E-01  0.10203305277E+01  0.10200575723E+01 0.  0.
     999903    2    3    3    0    0  0.46962459282E-01  0.11816558148E+00 -0.17008947003E-01  0.12988963715E+00  0.20333133888E-01 0.  0.
         14    1    1    2    0    0  0.17767586389E-01  0.13862188906E-02  0.15470176563E-01  0.23599472278E-01  0.00000000000E+00 0.  1.
     999901    1    3    3    0    0 -0.64730045671E-01 -0.11955180037E+00  0.15387704401E-02  0.89044089057E+00  0.88000000000E+00 0. -1.
        -11    1    4    4    0    0  0.32646124675E-01  0.62770789144E-01 -0.16578709411E-01  0.72670875547E-01  0.51100000000E-03 0.  1.
         11    1    4    4    0    0  0.14316334607E-01  0.55394792334E-01 -0.43023759206E-03  0.57218761606E-01  0.51100000000E-03 0. -1.
</event>
<event>
 8    1  0.9952977E+004  0.1043930E+01  0.7957747E-01            NaN
         13   -1    0    0    0    0  0.00000000000E+00  0.00000000000E+00  0.74505805969E-08  0.10566000000E+00  0.10566000000E+00 0. -1.
     999900   -1    0    0    0    0 -0.00000000000E+00 -0.00000000000E+00 -0.74505805969E-08  0.93827000000E+00  0.93827000000E+00 0.  1.
     999902    2    1    2    0    0  0.91218506720E-02 -0.20982436240E-01 -0.85073439717E-02  0.10195200493E+01  0.10192277887E+01 0.  0.
     999903    2    3    3    0    0 -0.56721140592E-01 -0.14177322475E-01 -0.11496691010E+00  0.13063577773E+00  0.20737206754E-01 0.  0.
         14    1    1    2    0    0 -0.91218506720E-02  0.20982436240E-01  0.85073439717E-02  0.24409950670E-01  0.00000000000E+00 0. -1.
     999901    1    3    3    0    0  0.65842991264E-01 -0.68051137651E-02  0.10645956613E+00  0.88888427160E+00  0.88000000000E+00 0. -1.
        -11    1    4    4    0    0 -0.29188675775E-01 -0.16573733115E-01 -0.52343382623E-01  0.62183263409E-01  0.51100000000E-03 0.  1.
         11    1    4    4    0    0 -0.27532464818E-01  0.23964106399E-02 -0.62623527475E-01  0.68452514324E-01  0.51100000000E-03 0. -1.
</event>
<event>
 8    1  0.9952977E+004  0.1043930E+01  0.7957747E-01            NaN
         13   -1    0    0    0    0  0.00000000000E+00  0.00000000000E+00  0.74505805969E-08  0.10566000000E+00  0.10566000000E+00 0. -1.
     999900   -1    0    0    0    0 -0.00000000000E+00 -0.00000000000E+00 -0.74505805969E-08  0.93827000000E+00  0.93827000000E+00 0. -1.
     999902    2    1    2    0    0  0.13055115828E-01 -0.17432037302E-01 -0.91743619129E-02  0.10202977997E+01  0.10200240778E+01 0.  0.
     999903    2    3    3    0    0 -0.47617204618E-02  0.12600054809E+00  0.91619338856E-02  0.12831878317E+00  0.21976282224E-01 0.  0.
         14    1    1    2    0    0 -0.13055115828E-01  0.17432037302E-01  0.91743619129E-02  0.23632200285E-01  0.00000000000E+00 0. -1.
     999901    1    3    3    0    0  0.17816836290E-01 -0.14343258540E+00 -0.18336295798E-01  0.89197901654E+00  0.88000000000E+00 0. -1.
        -11    1    4    4    0    0  0.69392691315E-02  0.52745396914E-01  0.99719559199E-02  0.54128840534E-01  0.51100000000E-03 0.  1.
         11    1    4    4    0    0 -0.11700989593E-01  0.73255151181E-01 -0.81002203430E-03  0.74189942639E-01  0.51100000000E-03 0. -1.
</event>
<event>
 8    1  0.9952977E+004  0.1043930E+01  0.7957747E-01            NaN
         13   -1    0    0    0    0  0.00000000000E+00  0.00000000000E+00  0.74505805969E-08  0.10566000000E+00  0.10566000000E+00 0.  1.
     999900   -1    0    0    0    0 -0.00000000000E+00 -0.00000000000E+00 -0.74505805969E-08  0.93827000000E+00  0.93827000000E+00 0.  1.
     999902    2    1    2    0    0  0.52098093231E-02 -0.15362535577E-01 -0.16596911467E-01  0.10207220901E+01  0.10204582197E+01 0.  0.
     999903    2    3    3    0    0  0.63560657950E-01  0.66525314878E-02  0.11076860680E+00  0.12936836683E+00  0.19551896796E-01 0.  0.
         14    1    1    2    0    0 -0.52098093231E-02  0.15362535577E-01  0.16596911467E-01  0.23207909918E-01  0.00000000000E+00 0.  1.
     999901    1    3    3    0    0 -0.58350848627E-01 -0.22015067064E-01 -0.12736551827E+00  0.89135372325E+00  0.88000000000E+00 0.  1.
        -11    1    4    4    0    0  0.42384163114E-01 -0.29774834453E-03  0.55980211804E-01  0.70217883559E-01  0.51100000000E-03 0.  1.
         11    1    4    4    0    0  0.21176494836E-01  0.69502798323E-02  0.54788395000E-01  0.59150483269E-01  0.51100000000E-03 0. -1.
</event>
<event>
 8    1  0.9952977E+004  0.1043930E+01  0.7957747E-01            NaN
         13   -1    0    0    0    0  0.00000000000E+00  0.00000000000E+00  0.74505805969E-08  0.10566000000E+00  0.10566000000E+00 0.  1.
     999900   -1    0    0    0    0 -0.00000000000E+00 -0.00000000000E+00 -0.74505805969E-08  0.93827000000E+00  0.93827000000E+00 0.  1.
     999902    2    1    2    0    0  0.25559896486E-02 -0.20610547395E-01 -0.38591651535E-02  0.10228060585E+01  0.10225878996E+01 0.  0.
     999903    2    3    3    0    0  0.56198334156E-01 -0.58684200162E-01  0.10469837463E+00  0.13369872891E+00  0.17649712513E-01 0.  0.
         14    1    1    2    0    0 -0.25559896486E-02  0.20610547395E-01  0.38591651535E-02  0.21123941457E-01  0.00000000000E+00 0.  1.
     999901    1    3    3    0    0 -0.53642344507E-01  0.38073652767E-01 -0.10855753978E+00  0.88910732963E+00  0.88000000000E+00 0.  1.
        -11    1    4    4    0    0  0.14537872587E-01 -0.27458107432E-01  0.38231077439E-01  0.49266355723E-01  0.51100000000E-03 0.  1.
         11    1    4    4    0    0  0.41660461569E-01 -0.31226092730E-01  0.66467297192E-01  0.84432373189E-01  0.51100000000E-03 0. -1.
</event>
<event>
 8    1  0.9952977E+004  0.1043930E+01  0.7957747E-01            NaN
         13   -1    0    0    0    0  0.00000000000E+00  0.00000000000E+00  0.74505805969E-08  0.10566000000E+00  0.10566000000E+00 0. -1.
     999900   -1    0    0    0    0 -0.00000000000E+00 -0.00000000000E+00 -0.74505805969E-08  0.93827000000E+00  0.93827000000E+00 0. -1.
     999902    2    1    2    0    0 -0.16829813188E-01 -0.15818067162E-01  0.42917448109E-02  0.10204380240E+01  0.10201675784E+01 0.  0.
     999903    2    3    3    0    0 -0.85184740521E-01  0.96993568750E-01  0.99282095882E-02  0.13058936780E+00  0.17053481766E-01 0.  0.
         14    1    1    2    0    0  0.16829813188E-01  0.15818067162E-01 -0.42917448109E-02  0.23491975953E-01  0.00000000000E+00 0.  1.
     999901    1    3    3    0    0  0.68354927333E-01 -0.11281163591E+00 -0.56364647773E-02  0.88984865625E+00  0.88000000000E+00 0. -1.
        -11    1    4    4    0    0 -0.31918850861E-01  0.45282603204E-01 -0.17778670237E-02  0.55432383364E-01  0.51100000000E-03 0.  1.
         11    1    4    4    0    0 -0.53265889660E-01  0.51710965546E-01  0.11706076612E-01  0.75156984436E-01  0.51100000000E-03 0. -1.
</event>
<event>
 8    1  0.9952977E+004  0.1043930E+01  0.7957747E-01            NaN
         13   -1    0    0    0    0  0.00000000000E+00  0.00000000000E+00  0.74505805969E-08  0.10566000000E+00  0.10566000000E+00 0.  1.
     999900   -1    0    0    0    0 -0.00000000000E+00 -0.00000000000E+00 -0.74505805969E-08  0.93827000000E+00  0.93827000000E+00 0. -1.
     999902    2    1    2    0    0  0.13446495111E-01  0.19055117559E-01 -0.76920306378E-02  0.10193724539E+01  0.10190766049E+01 0.  0.
     999903    2    3    3    0    0 -0.12695928843E-02 -0.59412365858E-02  0.12684614243E+00  0.12867502996E+00  0.20746308787E-01 0.  0.
         14    1    1    2    0    0 -0.13446495111E-01 -0.19055117559E-01  0.76920306378E-02  0.24557546117E-01  0.00000000000E+00 0.  1.
     999901    1    3    3    0    0  0.14716087995E-01  0.24996354144E-01 -0.13453817307E+00  0.89069742392E+00  0.88000000000E+00 0. -1.
        -11    1    4    4    0    0 -0.35223368046E-02 -0.12420670511E-01  0.10445472484E+00  0.10525079845E+00  0.51100000000E-03 0. -1.
         11    1    4    4    0    0  0.22527439203E-02  0.64794339250E-02  0.22391417592E-01  0.23424231513E-01  0.51100000000E-03 0.  1.
</event>
<event>
 8    1  0.9952977E+004  0.1043930E+01  0.7957747E-01            NaN
         13   -1    0    0    0    0  0.00000000000E+00  0.00000000000E+00  0.74505805969E-08  0.10566000000E+00  0.10566000000E+00 0. -1.
     999900   -1    0    0    0    0 -0.00000000000E+00 -0.00000000000E+00 -0.74505805969E-08  0.93827000000E+00  0.93827000000E+00 0. -1.
     999902    2    1    2    0    0 -0.19680695974E-01  0.13925200598E-01 -0.45879259580E-02  0.10193884012E+01  0.10190929410E+01 0.  0.
     999903    2    3    3    0    0  0.46531012340E-01  0.11466847420E+00  0.35770049937E-01  0.13025288641E+00  0.19295695388E-01 0.  0.
         14    1    1    2    0    0  0.19680695974E-01 -0.13925200598E-01  0.45879259580E-02  0.24541598772E-01  0.00000000000E+00 0. -1.
     999901    1    3    3    0    0 -0.66211708314E-01 -0.10074327360E+00 -0.40357975895E-01  0.88913551482E+00  0.88000000000E+00 0.  1.
        -11    1    4    4    0    0  0.71838948338E-02  0.13256404407E-01 -0.17440250910E-02  0.15186946609E-01  0.51100000000E-03 0. -1.
         11    1    4    4    0    0  0.39347117507E-01  0.10141206979E+00  0.37514075028E-01  0.11506593980E+00  0.51100000000E-03 0.  1.
</event>
<event>
 8    1  0.9952977E+004  0.1043930E+01  0.7957747E-01            NaN
         13   -1    0    0    0    0  0.00000000000E+00  0.00000000000E+00  0.74505805969E-08  0.10566000000E+00  0.10566000000E+00 0. -1.
     999900   -1    0    0    0    0 -0.00000000000E+00 -0.00000000000E+00 -0.74505805969E-08  0.93827000000E+00  0.93827000000E+00 0. -1.
     999902    2    1    2    0    0  0.50342164992E-02 -0.63526000018E-02  0.23986478233E-01  0.10186110348E+01  0.10182963175E+01 0.  0.
     999903    2    3    3    0    0 -0.30647849348E-02  0.12089871249E+00 -0.34927413819E-01  0.12747168706E+00  0.20080218520E-01 0.  0.
         14    1    1    2    0    0 -0.50342164992E-02  0.63526000018E-02 -0.23986478233E-01  0.25318965234E-01  0.00000000000E+00 0.  1.
     999901    1    3    3    0    0  0.80990014340E-02 -0.12725131250E+00  0.58913892051E-01  0.89113934771E+00  0.88000000000E+00 0.  1.
        -11    1    4    4    0    0 -0.81524319690E-02  0.48667181014E-01 -0.21485549621E-01  0.53822361695E-01  0.51100000000E-03 0.  1.
         11    1    4    4    0    0  0.50876470342E-02  0.72231531481E-01 -0.13441864198E-01  0.73649325363E-01  0.51100000000E-03 0. -1.
</event>
<event>
 8    1  0.9952977E+004  0.1043930E+01  0.7957747E-01            NaN
         13   -1    0    0    0    0  0.00000000000E+00  0.00000000000E+00  0.74505805969E-08  0.10566000000E+00  0.10566000000E+00 0. -1.
     999900   -1    0    0    0    0 -0.00000000000E+00 -0.00000000000E+00 -0.74505805969E-08  0.93827000000E+00  0.93827000000E+00 0.  1.
     999902    2    1    2    0    0 -0.14101209552E-01  0.15910201301E-01 -0.10528391174E-01  0.10202060535E+01  0.10199301770E+01 0.  0.
     999903    2    3    3    0    0 -0.11433332913E+00 -0.33281460652E-01  0.51324905931E-01  0.13099734474E+00  0.18608938348E-01 0.  0.
         14    1    1    2    0    0  0.14101209552E-01 -0.15910201301E-01  0.10528391174E-01  0.23723946489E-01  0.00000000000E+00 0. -1.
     999901    1    3    3    0    0  0.10023211958E+00  0.49191661953E-01 -0.61853297105E-01  0.88920870878E+00  0.88000000000E+00 0.  1.
        -11    1    4    4    0    0 -0.92728456118E-01 -0.27539712591E-01  0.33392743480E-01  0.10233444572E+00  0.51100000000E-03 0.  1.
         11    1    4    4    0    0 -0.21604873010E-01 -0.57417480606E-02  0.17932162451E-01  0.28662899011E-01  0.51100000000E-03 0. -1.
</event>
<event>
 8    1  0.9952977E+004  0.1043930E+01  0.7957747E-01            NaN
         13   -1    0    0    0    0  0.00000000000E+00  0.00000000000E+00  0.74505805969E-08  0.10566000000E+00  0.10566000000E+00 0. -1.
     999900   -1    0    0    0    0 -0.00000000000E+00 -0.00000000000E+00 -0.74505805969E-08  0.93827000000E+00  0.93827000000E+00 0.  1.
     999902    2    1    2    0    0 -0.64970250003E-02 -0.21276121936E-01  0.64992672289E-02  0.10207540389E+01  0.10204909028E+01 0.  0.
     999903    2    3    3    0    0  0.61857003900E-01  0.10035709867E+00 -0.46299051092E-01  0.12819895598E+00  0.19837691365E-01 0.  0.
         14    1    1    2    0    0  0.64970250003E-02  0.21276121936E-01 -0.64992672289E-02  0.23175961102E-01  0.00000000000E+00 0.  1.
     999901    1    3    3    0    0 -0.68354028900E-01 -0.12163322060E+00  0.52798318321E-01  0.89255508292E+00  0.88000000000E+00 0. -1.
        -11    1    4    4    0    0  0.22058751742E-01  0.21856686986E-01 -0.17182955393E-01  0.35493920204E-01  0.51100000000E-03 0. -1.
         11    1    4    4    0    0  0.39798252158E-01  0.78500411681E-01 -0.29116095699E-01  0.92705035778E-01  0.51100000000E-03 0.  1.
</event>
<event>
 8    1  0.9952977E+004  0.1043930E+01  0.7957747E-01            NaN
         13   -1    0    0    0    0  0.00000000000E+00  0.00000000000E+00  0.74505805969E-08  0.10566000000E+00  0.10566000000E+00 0.  1.
     999900   -1    0    0    0    0 -0.00000000000E+00 -0.00000000000E+00 -0.74505805969E-08  0.93827000000E+00  0.93827000000E+00 0.  1.
     999902    2    1    2    0    0  0.19530766146E-01 -0.43867950119E-02 -0.12699286122E-01  0.10202241639E+01  0.10199487134E+01 0.  0.
     999903    2    3    3    0    0  0.10919933752E+00  0.45350334897E-01 -0.53945463453E-01  0.13331070594E+00  0.29672935511E-01 0.  0.
         14    1    1    2    0    0 -0.19530766146E-01  0.43867950119E-02  0.12699286122E-01  0.23705836090E-01  0.00000000000E+00 0.  1.
     999901    1    3    3    0    0 -0.89668571371E-01 -0.49737129909E-01  0.41246177331E-01  0.88691345797E+00  0.88000000000E+00 0.  1.
        -11    1    4    4    0    0  0.61408487841E-01  0.24462184625E-01 -0.46039385052E-01  0.80556110584E-01  0.51100000000E-03 0.  1.
         11    1    4    4    0    0  0.47790849676E-01  0.20888150272E-01 -0.79060784014E-02  0.52754595356E-01  0.51100000000E-03 0. -1.
</event>
<event>
 8    1  0.9952977E+004  0.1043930E+01  0.7957747E-01            NaN
         13   -1    0    0    0    0  0.00000000000E+00  0.00000000000E+00  0.74505805969E-08  0.10566000000E+00  0.10566000000E+00 0.  1.
     999900   -1    0    0    0    0 -0.00000000000E+00 -0.00000000000E+00 -0.74505805969E-08  0.93827000000E+00  0.93827000000E+00 0. -1.
     999902    2    1    2    0    0 -0.25031295851E-02 -0.20109227351E-01 -0.13144338965E-01  0.10197759045E+01  0.10194898112E+01 0.  0.
     999903    2    3    3    0    0 -0.11534508631E+00  0.52834267901E-01 -0.21380966815E-02  0.12950897933E+00  0.25924032660E-01 0.  0.
         14    1    1    2    0    0  0.25031295851E-02  0.20109227351E-01  0.13144338965E-01  0.24154095495E-01  0.00000000000E+00 0. -1.
     999901    1    3    3    0    0  0.11284195672E+00 -0.72943495252E-01 -0.11006242284E-01  0.89026692518E+00  0.88000000000E+00 0. -1.
        -11    1    4    4    0    0 -0.36602904449E-01  0.19342833676E-01  0.11235261467E-01  0.42900000582E-01  0.51100000000E-03 0.  1.
         11    1    4    4    0    0 -0.78742181857E-01  0.33491434225E-01 -0.13373358149E-01  0.86608978744E-01  0.51100000000E-03 0. -1.
</event>
<event>
 8    1  0.9952977E+004  0.1043930E+01  0.7957747E-01            NaN
         13   -1    0    0    0    0  0.00000000000E+00  0.00000000000E+00  0.74505805969E-08  0.10566000000E+00  0.10566000000E+00 0.  1.
     999900   -1    0    0    0    0 -0.00000000000E+00 -0.00000000000E+00 -0.74505805969E-08  0.93827000000E+00  0.93827000000E+00 0. -1.
     999902    2    1    2    0    0 -0.21056222745E-01 -0.65738565812E-02  0.66326955707E-02  0.10208958350E+01  0.10206359455E+01 0.  0.
     999903    2    3    3    0    0 -0.19514808403E-01 -0.12709913127E+00  0.25496007598E-01  0.13247896082E+00  0.19120976372E-01 0.  0.
         14    1    1    2    0    0  0.21056222745E-01  0.65738565812E-02 -0.66326955707E-02  0.23034164999E-01  0.00000000000E+00 0. -1.
     999901    1    3    3    0    0 -0.15414143418E-02  0.12052527469E+00 -0.18863312027E-01  0.88841687419E+00  0.88000000000E+00 0. -1.
        -11    1    4    4    0    0 -0.22987176669E-01 -0.10412870239E+00  0.18660676569E-01  0.10825746590E+00  0.51100000000E-03 0. -1.
         11    1    4    4    0    0  0.34723682657E-02 -0.22970428883E-01  0.68353310285E-02  0.24221494910E-01  0.51100000000E-03 0.  1.
</event>
<event>
 8    1  0.9952977E+004  0.1043930E+01  0.7957747E-01            NaN
         13   -1    0    0    0    0  0.00000000000E+00  0.00000000000E+00  0.74505805969E-08  0.10566000000E+00  0.10566000000E+00 0. -1.
     999900   -1    0    0    0    0 -0.00000000000E+00 -0.00000000000E+00 -0.74505805969E-08  0.93827000000E+00  0.93827000000E+00 0. -1.
     999902    2    1    2    0    0  0.19743512141E-01  0.13195240288E-01 -0.43744153476E-02  0.10197834444E+01  0.10194975318E+01 0.  0.
     999903    2    3    3    0    0 -0.51927672774E-01 -0.11487709490E+00  0.62545106019E-02  0.12756583873E+00  0.18457902844E-01 0.  0.
         14    1    1    2    0    0 -0.19743512141E-01 -0.13195240288E-01  0.43744153476E-02  0.24146555604E-01  0.00000000000E+00 0.  1.
     999901    1    3    3    0    0  0.71671184915E-01  0.12807233518E+00 -0.10628925949E-01  0.89221760566E+00  0.88000000000E+00 0. -1.
        -11    1    4    4    0    0 -0.22152475486E-01 -0.39471022428E-01 -0.56738898845E-02  0.45619600273E-01  0.51100000000E-03 0. -1.
         11    1    4    4    0    0 -0.29775197288E-01 -0.75406072468E-01  0.11928400486E-01  0.81946238461E-01  0.51100000000E-03 0.  1.
</event>
<event>
 8    1  0.9952977E+004  0.1043930E+01  0.7957747E-01            NaN
         13   -1    0    0    0    0  0.00000000000E+00  0.00000000000E+00  0.74505805969E-08  0.10566000000E+00  0.10566000000E+00 0. -1.
     999900   -1    0    0    0    0 -0.00000000000E+00 -0.00000000000E+00 -0.74505805969E-08  0.93827000000E+00  0.93827000000E+00 0.  1.
     999902    2    1    2    0    0 -0.12595571157E-01  0.18121386463E-01 -0.93596339468E-02  0.10199584375E+01  0.10196767029E+01 0.  0.
     999903    2    3    3    0    0  0.90235730425E-01 -0.77639491185E-01 -0.43033608492E-01  0.12817463029E+00  0.20161020653E-01 0.  0.
         14    1    1    2    0    0  0.12595571157E-01 -0.18121386463E-01  0.93596339468E-02  0.23971562480E-01  0.00000000000E+00 0. -1.
     999901    1    3    3    0    0 -0.10283130158E+00  0.95760877648E-01  0.33673974545E-01  0.89178380723E+00  0.88000000000E+00 0. -1.
        -11    1    4    4    0    0  0.36594440462E-01 -0.20378314627E-01 -0.10162959068E-01  0.43104241529E-01  0.51100000000E-03 0. -1.
         11    1    4    4    0    0  0.53641289963E-01 -0.57261176558E-01 -0.32870649424E-01  0.85070388763E-01  0.51100000000E-03 0.  1.
</event>
<event>
 8    1  0.9952977E+004  0.1043930E+01  0.7957747E-01            NaN
         13   -1    0    0    0    0  0.00000000000E+00  0.00000000000E+00  0.74505805969E-08  0.10566000000E+00  0.10566000000E+00 0.  1.
     999900   -1    0    0    0    0 -0.00000000000E+00 -0.00000000000E+00 -0.74505805969E-08  0.93827000000E+00  0.93827000000E+00 0. -1.
     999902    2    1    2    0    0 -0.69384492874E-02  0.85778286793E-02  0.15082393112E-01  0.10252431114E+01  0.10250727963E+01 0.  0.
     999903    2    3    3    0    0  0.30302230245E-01  0.10408364123E+00 -0.78005027888E-01  0.13441568907E+00  0.15204063992E-01 0.  0.
         14    1    1    2    0    0  0.69384492874E-02 -0.85778286793E-02 -0.15082393112E-01  0.18686888595E-01  0.00000000000E+00 0. -1.
     999901    1    3    3    0    0 -0.37240679533E-01 -0.95505812550E-01  0.93087421000E-01  0.89082742234E+00  0.88000000000E+00 0.  1.
        -11    1    4    4    0    0  0.13163871528E-01  0.69975175956E-01 -0.48222696132E-01  0.85997106387E-01  0.51100000000E-03 0.  1.
         11    1    4    4    0    0  0.17138358717E-01  0.34108465274E-01 -0.29782331756E-01  0.48418582679E-01  0.51100000000E-03 0. -1.
</event>
<event>
 8    1  0.9952977E+004  0.1043930E+01  0.7957747E-01            NaN
         13   -1    0    0    0    0  0.00000000000E+00  0.00000000000E+00  0.74505805969E-08  0.10566000000E+00  0.10566000000E+00 0.  1.
     999900   -1    0    0    0    0 -0.00000000000E+00 -0.00000000000E+00 -0.74505805969E-08  0.93827000000E+00  0.93827000000E+00 0.  1.
     999902    2    1    2    0    0  0.60586725773E-02 -0.23503929385E-01  0.54393523377E-02  0.10190557409E+01  0.10187521163E+01 0.  0.
     999903    2    3    3    0    0 -0.11340330393E+00  0.50657334177E-01 -0.20797404755E-01  0.12750685038E+00  0.19974734023E-01 0.  0.
         14    1    1    2    0    0 -0.60586725773E-02  0.23503929385E-01 -0.54393523377E-02  0.24874259060E-01  0.00000000000E+00 0. -1.
     999901    1    3    3    0    0  0.11946197651E+00 -0.74161263562E-01  0.26236757093E-01  0.89154889056E+00  0.88000000000E+00 0.  1.
        -11    1    4    4    0    0 -0.40187308767E-01  0.27810768787E-01 -0.11822215688E-01  0.50284038732E-01  0.51100000000E-03 0.  1.
         11    1    4    4    0    0 -0.73215995166E-01  0.22846565390E-01 -0.89751890672E-02  0.77222811643E-01  0.51100000000E-03 0. -1.
</event>
<event>
 8    1  0.9952977E+004  0.1043930E+01  0.7957747E-01            NaN
         13   -1    0    0    0    0  0.00000000000E+00  0.00000000000E+00  0.74505805969E-08  0.10566000000E+00  0.10566000000E+00 0. -1.
     999900   -1    0    0    0    0 -0.00000000000E+00 -0.00000000000E+00 -0.74505805969E-08  0.93827000000E+00  0.93827000000E+00 0. -1.
     999902    2    1    2    0    0 -0.17824382869E-01  0.23598296118E-01  0.23602532595E-01  0.10060926144E+01  0.10053808637E+01 0.  0.
     999903    2    3    3    0    0 -0.11808264639E+00  0.81663123837E-02  0.29054459496E-02  0.12002363575E+00  0.19673115810E-01 0.  0.
         14    1    1    2    0    0  0.17824382869E-01 -0.23598296118E-01 -0.23602532595E-01  0.37837385602E-01  0.00000000000E+00 0.  1.
     999901    1    3    3    0    0  0.10025826352E+00  0.15431983734E-01  0.20697086645E-01  0.88606897865E+00  0.88000000000E+00 0.  1.
        -11    1    4    4    0    0 -0.17337536112E-01 -0.43992689970E-02 -0.37342382195E-02  0.18279753341E-01  0.51100000000E-03 0.  1.
         11    1    4    4    0    0 -0.10074511028E+00  0.12565581381E-01  0.66396841691E-02  0.10174388241E+00  0.51100000000E-03 0. -1.
</event>
<event>
 8    1  0.9952977E+004  0.1043930E+01  0.7957747E-01            NaN
         13   -1    0    0    0    0  0.00000000000E+00  0.00000000000E+00  0.74505805969E-08  0.10566000000E+00  0.10566000000E+00 0.  1.
     999900   -1    0    0    0    0 -0.00000000000E+00 -0.00000000000E+00 -0.74505805969E-08  0.93827000000E+00  0.93827000000E+00 0.  1.
     999902    2    1    2    0    0 -0.35198253232E-02  0.21446244224E-01 -0.86985296199E-02  0.10205207074E+01  0.10202521842E+01 0.  0.
     999903    2    3    3    0    0  0.68463410695E-02 -0.64644124476E-01  0.10880749072E+00  0.12848557705E+00  0.21065095714E-01 0.  0.
         14    1    1    2    0    0  0.35198253232E-02 -0.21446244224E-01  0.86985296199E-02  0.23409292582E-01  0.00000000000E+00 0.  1.
     999901    1    3    3    0    0 -0.10366166393E-01  0.86090368701E-01 -0.11750602034E+00  0.89203513037E+00  0.88000000000E+00 0.  1.
        -11    1    4    4    0    0  0.59913145282E-02 -0.65830649092E-01  0.10825204964E+00  0.12683981071E+00  0.51100000000E-03 0. -1.
         11    1    4    4    0    0  0.85502654128E-03  0.11865246150E-02  0.55544108652E-03  0.16457663409E-02  0.51100000000E-03 0.  1.
</event>
<event>
 7    1  0.9952977E+004  0.1043930E+01  0.7957747E-01            NaN
         13   -1    0    0    0    0  0.00000000000E+00  0.00000000000E+00  0.74505805969E-08  0.10566000000E+00  0.10566000000E+00 0.  1.
     999900   -1    0    0    0    0 -0.00000000000E+00 -0.00000000000E+00 -0.74505805969E-08  0.93827000000E+00  0.93827000000E+00 0.  1.
     999902    2    1    2    0    0 -0.83368566183E-02  0.13863382337E-01 -0.16458846104E-01  0.10208520849E+01  0.10205911959E+01 0.  0.
         14    1    1    2    0    0  0.83368566183E-02 -0.13863382337E-01  0.16458846104E-01  0.23077915053E-01  0.00000000000E+00 0. -1.
     999901    1    3    3    0    0 -0.88594219019E-01 -0.52872719063E-01 -0.85887518150E-01  0.89018038949E+00  0.88000000000E+00 0.  1.
        -11    1    3    3    0    0  0.80286151104E-01  0.51674517960E-01  0.62241047527E-01  0.11397513318E+00  0.51100000000E-03 0.  1.
         11    1    3    3    0    0 -0.28788703454E-04  0.15061583440E-01  0.71876245177E-02  0.16696562272E-01  0.51100000000E-03 0. -1.
</event>
<event>
 8    1  0.9952977E+004  0.1043930E+01  0.7957747E-01            NaN
         13   -1    0    0    0    0  0.00000000000E+00  0.00000000000E+00  0.74505805969E-08  0.10566000000E+00  0.10566000000E+00 0. -1.
     999900   -1    0    0    0    0 -0.00000000000E+00 -0.00000000000E+00 -0.74505805969E-08  0.93827000000E+00  0.93827000000E+00 0.  1.
     999902    2    1    2    0    0  0.80241598359E-02 -0.11744421518E-04 -0.23120613640E-01  0.10194565439E+01  0.10191627421E+01 0.  0.
     999903    2    3    3    0    0  0.56679385203E-01  0.43551519367E-01  0.10342645684E+00  0.12800870472E+00  0.24081299061E-01 0.  0.
         14    1    1    2    0    0 -0.80241598359E-02  0.11744421518E-04  0.23120613640E-01  0.24473456112E-01  0.00000000000E+00 0. -1.
     999901    1    3    3    0    0 -0.48655225367E-01 -0.43563263788E-01 -0.12654707048E+00  0.89144783917E+00  0.88000000000E+00 0.  1.
        -11    1    4    4    0    0  0.30888275860E-01  0.18308463596E-01  0.32528307233E-01  0.48452423234E-01  0.51100000000E-03 0.  1.
         11    1    4    4    0    0  0.25791109343E-01  0.25243055771E-01  0.70898149604E-01  0.79556281487E-01  0.51100000000E-03 0. -1.
</event>
<event>
 8    1  0.9952977E+004  0.1043930E+01  0.7957747E-01            NaN
         13   -1    0    0    0    0  0.00000000000E+00  0.00000000000E+00  0.74505805969E-08  0.10566000000E+00  0.10566000000E+00 0. -1.
     999900   -1    0    0    0    0 -0.00000000000E+00 -0.00000000000E+00 -0.74505805969E-08  0.93827000000E+00  0.93827000000E+00 0. -1.
     999902    2    1    2    0    0  0.89439462795E-02  0.19599846503E-01 -0.66666246105E-02  0.10213780147E+01  0.10211290109E+01 0.  0.
     999903    2    3    3    0    0 -0.60225902132E-01 -0.10509297285E+00  0.38939800453E-01  0.12873434942E+00  0.19609498510E-01 0.  0.
         14    1    1    2    0    0 -0.89439462795E-02 -0.19599846503E-01  0.66666246105E-02  0.22551985316E-01  0.00000000000E+00 0. -1.
     999901    1    3    3    0    0  0.69169848412E-01  0.12469281935E+00 -0.45606425064E-01  0.89264366526E+00  0.88000000000E+00 0. -1.
        -11    1    4    4    0    0 -0.38127098587E-01 -0.61343829852E-01  0.13392785941E-01  0.73459981921E-01  0.51100000000E-03 0.  1.
         11    1    4    4    0    0 -0.22098803545E-01 -0.43749142996E-01  0.25547014513E-01  0.55274367500E-01  0.51100000000E-03 0. -1.
</event>
<event>
 8    1  0.1002431E+005  0.1043930E+01  0.7957747E-01            NaN
         13   -1    0    0    0    0  0.00000000000E+00  0.00000000000E+00  0.74505805969E-08  0.10566000000E+00  0.10566000000E+00 0. -1.
     999900   -1    0    0    0    0 -0.00000000000E+00 -0.00000000000E+00 -0.74505805969E-08  0.93827000000E+00  0.93827000000E+00 0.  1.
     999902    2    1    2    0    0 -0.15366836965E-01  0.15503744194E-01  0.97171933408E-02  0.10200358666E+01  0.10197559706E+01 0.  0.
     999903    2    3    3    0    0 -0.24631746338E-02  0.57508178539E-01  0.11762607235E+00  0.13235619290E+00  0.19209661000E-01 0.  0.
         14    1    1    2    0    0  0.15366836965E-01 -0.15503744194E-01 -0.97171933408E-02  0.23894133354E-01  0.00000000000E+00 0.  1.
     999901    1    3    3    0    0 -0.12903662331E-01 -0.42004434345E-01 -0.10790887901E+00  0.88767967374E+00  0.88000000000E+00 0.  1.
        -11    1    4    4    0    0  0.57658724184E-02  0.28493056508E-01  0.72125818578E-01  0.77765637530E-01  0.51100000000E-03 0. -1.
         11    1    4    4    0    0 -0.82290470522E-02  0.29015122030E-01  0.45500253770E-01  0.54590555374E-01  0.51100000000E-03 0.  1.
</event>
<event>
 8    1  0.9952977E+004  0.1043930E+01  0.7957747E-01            NaN
         13   -1    0    0    0    0  0.00000000000E+00  0.00000000000E+00  0.74505805969E-08  0.10566000000E+00  0.10566000000E+00 0.  1.
     999900   -1    0    0    0    0 -0.00000000000E+00 -0.00000000000E+00 -0.74505805969E-08  0.93827000000E+00  0.93827000000E+00 0. -1.
     999902    2    1    2    0    0 -0.12283304582E-01  0.17761358088E-01 -0.10793239933E-01  0.10197879321E+01  0.10195021271E+01 0.  0.
     999903    2    3    3    0    0 -0.97519319067E-01  0.81580445653E-01 -0.33767353062E-01  0.13307159419E+00  0.20060616722E-01 0.  0.
         14    1    1    2    0    0  0.12283304582E-01 -0.17761358088E-01  0.10793239933E-01  0.24142067865E-01  0.00000000000E+00 0.  1.
     999901    1    3    3    0    0  0.85236014485E-01 -0.63819087566E-01  0.22974113130E-01  0.88671633794E+00  0.88000000000E+00 0. -1.
        -11    1    4    4    0    0 -0.35145934278E-01  0.19030922123E-01 -0.56440696282E-02  0.40367429149E-01  0.51100000000E-03 0. -1.
         11    1    4    4    0    0 -0.62373384789E-01  0.62549523531E-01 -0.28123283434E-01  0.92704165042E-01  0.51100000000E-03 0.  1.
</event>
<event>
 8    1  0.9952977E+004  0.1043930E+01  0.7957747E-01            NaN
         13   -1    0    0    0    0  0.00000000000E+00  0.00000000000E+00  0.74505805969E-08  0.10566000000E+00  0.10566000000E+00 0.  1.
     999900   -1    0    0    0    0 -0.00000000000E+00 -0.00000000000E+00 -0.74505805969E-08  0.93827000000E+00  0.93827000000E+00 0. -1.
     999902    2    1    2    0    0 -0.12481145163E-01 -0.28110226485E-02 -0.20557758625E-01  0.10197163205E+01  0.10194287970E+01 0.  0.
     999903    2    3    3    0    0  0.47094793751E-01 -0.34173711533E-01 -0.11671037286E+00  0.13192229265E+00  0.19910248780E-01 0.  0.
         14    1    1    2    0    0  0.12481145163E-01  0.28110226485E-02  0.20557758625E-01  0.24213679452E-01  0.00000000000E+00 0.  1.
     999901    1    3    3    0    0 -0.59575938914E-01  0.31362688884E-01  0.96152614233E-01  0.88779402790E+00  0.88000000000E+00 0.  1.
        -11    1    4    4    0    0  0.56060617240E-02 -0.14542173998E-01 -0.30248266365E-01  0.34031184107E-01  0.51100000000E-03 0. -1.
         11    1    4    4    0    0  0.41488732027E-01 -0.19631537535E-01 -0.86462106492E-01  0.97891108541E-01  0.51100000000E-03 0.  1.
</event>
<event>
 8    1  0.9952977E+004  0.1043930E+01  0.7957747E-01            NaN
         13   -1    0    0    0    0  0.00000000000E+00  0.00000000000E+00  0.74505805969E-08  0.10566000000E+00  0.10566000000E+00 0. -1.
     999900   -1    0    0    0    0 -0.00000000000E+00 -0.00000000000E+00 -0.74505805969E-08  0.93827000000E+00  0.93827000000E+00 0.  1.
     999902    2    1    2    0    0 -0.10471189087E-01 -0.20287014149E-01  0.78021024362E-02  0.10198036338E+01  0.10195182048E+01 0.  0.
     999903    2    3    3    0    0  0.63206720720E-01 -0.96580380020E-01 -0.57164836450E-01  0.13105742974E+00  0.24194462476E-01 0.  0.
         14    1    1    2    0    0  0.10471189087E-01  0.20287014149E-01 -0.78021024362E-02  0.24126366208E-01  0.00000000000E+00 0. -1.
     999901    1    3    3    0    0 -0.73677909807E-01  0.76293365871E-01  0.64966938886E-01  0.88874620405E+00  0.88000000000E+00 0. -1.
        -11    1    4    4    0    0  0.31323633677E-01 -0.63198577207E-01 -0.25185547697E-01  0.74898618956E-01  0.51100000000E-03 0.  1.
         11    1    4    4    0    0  0.31883087043E-01 -0.33381802813E-01 -0.31979288753E-01  0.56158810783E-01  0.51100000000E-03 0. -1.
</event>
<event>
 8    1  0.9952977E+004  0.1043930E+01  0.7957747E-01            NaN
         13   -1    0    0    0    0  0.00000000000E+00  0.00000000000E+00  0.74505805969E-08  0.10566000000E+00  0.10566000000E+00 0. -1.
     999900   -1    0    0    0    0 -0.00000000000E+00 -0.00000000000E+00 -0.74505805969E-08  0.93827000000E+00  0.93827000000E+00 0.  1.
     999902    2    1    2    0    0  0.17311674052E-01  0.73345062264E-02  0.14227949625E-01  0.10203519681E+01  0.10200795141E+01 0.  0.
     999903    2    3    3    0    0  0.78026047272E-01 -0.10200495911E+00  0.20084649750E-01  0.13148996823E+00  0.19827830268E-01 0.  0.
         14    1    1    2    0    0 -0.17311674052E-01 -0.73345062264E-02 -0.14227949625E-01  0.23578031949E-01  0.00000000000E+00 0.  1.
     999901    1    3    3    0    0 -0.60714373220E-01  0.10933946533E+00 -0.58567001245E-02  0.88886199982E+00  0.88000000000E+00 0.  1.
        -11    1    4    4    0    0  0.40887112144E-01 -0.66984656489E-01  0.17312407612E-01  0.80365917669E-01  0.51100000000E-03 0.  1.
         11    1    4    4    0    0  0.37138935127E-01 -0.35020302619E-01  0.27722421379E-02  0.51124050557E-01  0.51100000000E-03 0. -1.
</event>
<event>
 8    1  0.9952977E+004  0.1043930E+01  0.7957747E-01            NaN
         13   -1    0    0    0    0  0.00000000000E+00  0.00000000000E+00  0.74505805969E-08  0.10566000000E+00  0.10566000000E+00 0.  1.
     999900   -1    0    0    0    0 -0.00000000000E+00 -0.00000000000E+00 -0.74505805969E-08  0.93827000000E+00  0.93827000000E+00 0. -1.
     999902    2    1    2    0    0 -0.11437560666E-01  0.21390909873E-01 -0.12355156361E-02  0.10196418276E+01  0.10193525108E+01 0.  0.
     999903    2    3    3    0    0  0.11422819554E-02  0.82335507472E-01  0.10174481235E+00  0.13145409725E+00  0.12154515323E-01 0.  0.
         14    1    1    2    0    0  0.11437560666E-01 -0.21390909873E-01  0.12355156361E-02  0.24288172390E-01  0.00000000000E+00 0.  1.
     999901    1    3    3    0    0 -0.12579842621E-01 -0.60944597599E-01 -0.10298032799E+00  0.88818773036E+00  0.88000000000E+00 0. -1.
        -11    1    4    4    0    0  0.60844902173E-02  0.30237055858E-01  0.40022557971E-01  0.50530850337E-01  0.51100000000E-03 0. -1.
         11    1    4    4    0    0 -0.49422082619E-02  0.52098451614E-01  0.61722254383E-01  0.80923246909E-01  0.51100000000E-03 0.  1.
</event>
<event>
 8    1  0.9952977E+004  0.1043930E+01  0.7957747E-01            NaN
         13   -1    0    0    0    0  0.00000000000E+00  0.00000000000E+00  0.74505805969E-08  0.10566000000E+00  0.10566000000E+00 0.  1.
     999900   -1    0    0    0    0 -0.00000000000E+00 -0.00000000000E+00 -0.74505805969E-08  0.93827000000E+00  0.93827000000E+00 0. -1.
     999902    2    1    2    0    0 -0.89657196552E-03 -0.12601947560E-01 -0.19940073721E-01  0.10203245035E+01  0.10200514071E+01 0.  0.
     999903    2    3    3    0    0  0.11413766694E+00 -0.25518280521E-01 -0.57723430351E-01  0.13193985158E+00  0.19938414416E-01 0.  0.
         14    1    1    2    0    0  0.89657196552E-03  0.12601947560E-01  0.19940073721E-01  0.23605496470E-01  0.00000000000E+00 0.  1.
     999901    1    3    3    0    0 -0.11503423890E+00  0.12916332961E-01  0.37783356630E-01  0.88838465195E+00  0.88000000000E+00 0.  1.
        -11    1    4    4    0    0  0.53018283040E-01 -0.67252734348E-02 -0.16813809430E-01  0.56027965765E-01  0.51100000000E-03 0. -1.
         11    1    4    4    0    0  0.61119383898E-01 -0.18793007086E-01 -0.40909620922E-01  0.75911885817E-01  0.51100000000E-03 0.  1.
</event>
<event>
 7    1  0.9952977E+004  0.1043930E+01  0.7957747E-01            NaN
         13   -1    0    0    0    0  0.00000000000E+00  0.00000000000E+00  0.74505805969E-08  0.10566000000E+00  0.10566000000E+00 0. -1.
     999900   -1    0    0    0    0 -0.00000000000E+00 -0.00000000000E+00 -0.74505805969E-08  0.93827000000E+00  0.93827000000E+00 0. -1.
     999903    2    1    2    0    0 -0.64434476779E-01 -0.82126298545E-01 -0.97206299737E-02  0.10656378475E+00  0.19100231993E-01 0.  0.
         14    1    1    2    0    0 -0.21117461173E-01  0.31864849628E-01  0.34428275606E-01  0.51445329909E-01  0.00000000000E+00 0. -1.
     999901    1    1    2    0    0  0.85551937952E-01  0.50261448917E-01 -0.24707645632E-01  0.88592088534E+00  0.88000000000E+00 0.  1.
        -11    1    3    3    0    0 -0.42325669568E-01 -0.51560763347E-01 -0.15258012426E-01  0.68432760324E-01  0.51100000000E-03 0. -1.
         11    1    3    3    0    0 -0.22108807211E-01 -0.30565535198E-01  0.55373824519E-02  0.38131024424E-01  0.51100000000E-03 0.  1.
</event>
<event>
 8    1  0.9952977E+004  0.1043930E+01  0.7957747E-01            NaN
         13   -1    0    0    0    0  0.00000000000E+00  0.00000000000E+00  0.74505805969E-08  0.10566000000E+00  0.10566000000E+00 0. -1.
     999900   -1    0    0    0    0 -0.00000000000E+00 -0.00000000000E+00 -0.74505805969E-08  0.93827000000E+00  0.93827000000E+00 0. -1.
     999902    2    1    2    0    0 -0.16643189707E-01 -0.15266529736E-01 -0.59826834225E-02  0.10205664559E+01  0.10202989933E+01 0.  0.
     999903    2    3    3    0    0 -0.48758836339E-01 -0.89430043235E-01  0.82363442121E-01  0.13245797184E+00  0.19652504967E-01 0.  0.
         14    1    1    2    0    0  0.16643189707E-01  0.15266529736E-01  0.59826834225E-02  0.23363544139E-01  0.00000000000E+00 0.  1.
     999901    1    3    3    0    0  0.32115646632E-01  0.74163513499E-01 -0.88346125544E-01  0.88810848402E+00  0.88000000000E+00 0. -1.
        -11    1    4    4    0    0 -0.58883273068E-02 -0.24944198573E-01  0.14263572577E-01  0.29335917654E-01  0.51100000000E-03 0.  1.
         11    1    4    4    0    0 -0.42870509033E-01 -0.64485844662E-01  0.68099869544E-01  0.10312205419E+00  0.51100000000E-03 0. -1.
</event>
<event>
 8    1  0.9952977E+004  0.1043930E+01  0.7957747E-01            NaN
         13   -1    0    0    0    0  0.00000000000E+00  0.00000000000E+00  0.74505805969E-08  0.10566000000E+00  0.10566000000E+00 0.  1.
     999900   -1    0    0    0    0 -0.00000000000E+00 -0.00000000000E+00 -0.74505805969E-08  0.93827000000E+00  0.93827000000E+00 0.  1.
     999902    2    1    2    0    0 -0.38963338104E-03 -0.21373665442E-01 -0.56353162152E-02  0.10218224860E+01  0.10215833058E+01 0.  0.
     999903    2    3    3    0    0  0.65253126263E-01  0.22025749087E-01  0.10922707254E+00  0.13087588293E+00  0.21326960571E-01 0.  0.
         14    1    1    2    0    0  0.38963338104E-03  0.21373665442E-01  0.56353162152E-02  0.22107514049E-01  0.00000000000E+00 0. -1.
     999901    1    3    3    0    0 -0.65642759645E-01 -0.43399414530E-01 -0.11486238876E+00  0.89094660302E+00  0.88000000000E+00 0.  1.
        -11    1    4    4    0    0  0.59125365253E-01  0.21814130587E-01  0.10728020159E+00  0.12442253768E+00  0.51100000000E-03 0. -1.
         11    1    4    4    0    0  0.61277610109E-02  0.21161850013E-03  0.19468709528E-02  0.64533452490E-02  0.51100000000E-03 0.  1.
</event>
<event>
 8    1  0.9952977E+004  0.1043930E+01  0.7957747E-01            NaN
         13   -1    0    0    0    0  0.00000000000E+00  0.00000000000E+00  0.74505805969E-08  0.10566000000E+00  0.10566000000E+00 0.  1.
     999900   -1    0    0    0    0 -0.00000000000E+00 -0.00000000000E+00 -0.74505805969E-08  0.93827000000E+00  0.93827000000E+00 0. -1.
     999902    2    1    2    0    0 -0.96304713387E-02  0.16979722312E-01  0.12242758654E-01  0.10208878194E+01  0.10206277469E+01 0.  0.
     999903    2    3    3    0    0  0.42590501779E-01  0.11631140457E+00  0.43760256399E-01  0.13320140753E+00  0.22030915813E-01 0.  0.
         14    1    1    2    0    0  0.96304713387E-02 -0.16979722312E-01 -0.12242758654E-01  0.23042180614E-01  0.00000000000E+00 0. -1.
     999901    1    3    3    0    0 -0.52220973117E-01 -0.99331682261E-01 -0.31517497745E-01  0.88768641186E+00  0.88000000000E+00 0. -1.
        -11    1    4    4    0    0  0.26655152482E-01  0.57412257094E-01  0.12058061696E-01  0.64438516366E-01  0.51100000000E-03 0. -1.
         11    1    4    4    0    0  0.15935349296E-01  0.58899147479E-01  0.31702194703E-01  0.68762891161E-01  0.51100000000E-03 0.  1.
</event>
<event>
 8    1  0.9952977E+004  0.1043930E+01  0.7957747E-01            NaN
         13   -1    0    0    0    0  0.00000000000E+00  0.00000000000E+00  0.74505805969E-08  0.10566000000E+00  0.10566000000E+00 0.  1.
     999900   -1    0    0    0    0 -0.00000000000E+00 -0.00000000000E+00 -0.74505805969E-08  0.93827000000E+00  0.93827000000E+00 0.  1.
     999902    2    1    2    0    0  0.16324300807E-01 -0.14328002612E-01  0.68575437301E-02  0.10211528105E+01  0.10208987521E+01 0.  0.
     999903    2    3    3    0    0  0.87197117558E-01  0.93448763599E-02 -0.96694032185E-01  0.13193613823E+00  0.19150579293E-01 0.  0.
         14    1    1    2    0    0 -0.16324300807E-01  0.14328002612E-01 -0.68575437301E-02  0.22777189504E-01  0.00000000000E+00 0.  1.
     999901    1    3    3    0    0 -0.70872816752E-01 -0.23672878972E-01  0.10355157592E+00  0.88921667226E+00  0.88000000000E+00 0. -1.
        -11    1    4    4    0    0  0.67366784095E-01  0.66875864633E-03 -0.80042770453E-01  0.10462235450E+00  0.51100000000E-03 0.  1.
         11    1    4    4    0    0  0.19830333463E-01  0.86761177136E-02 -0.16651261733E-01  0.27313783739E-01  0.51100000000E-03 0. -1.
</event>
<event>
 8    1  0.9952977E+004  0.1043930E+01  0.7957747E-01            NaN
         13   -1    0    0    0    0  0.00000000000E+00  0.00000000000E+00  0.74505805969E-08  0.10566000000E+00  0.10566000000E+00 0.  1.
     999900   -1    0    0    0    0 -0.00000000000E+00 -0.00000000000E+00 -0.74505805969E-08  0.93827000000E+00  0.93827000000E+00 0.  1.
     999902    2    1    2    0    0  0.39720603591E-02 -0.15717673009E-01 -0.17575912117E-01  0.10200190152E+01  0.10197387195E+01 0.  0.
     999903    2    3    3    0    0  0.92794553385E-02  0.71929954743E-01 -0.10712330590E+00  0.13112700215E+00  0.21421049108E-01 0.  0.
         14    1    1    2    0    0 -0.39720603591E-02  0.15717673009E-01  0.17575912117E-01  0.23910984820E-01  0.00000000000E+00 0.  1.
     999901    1    3    3    0    0 -0.53073949794E-02 -0.87647627751E-01  0.89547393787E-01  0.88889201303E+00  0.88000000000E+00 0.  1.
        -11    1    4    4    0    0  0.56702039523E-02  0.46587908423E-02 -0.17686588637E-01  0.19155471375E-01  0.51100000000E-03 0. -1.
         11    1    4    4    0    0  0.36092513862E-02  0.67271163901E-01 -0.89436717266E-01  0.11197153078E+00  0.51100000000E-03 0.  1.
</event>
<event>
 8    1  0.9952977E+004  0.1043930E+01  0.7957747E-01            NaN
         13   -1    0    0    0    0  0.00000000000E+00  0.00000000000E+00  0.74505805969E-08  0.10566000000E+00  0.10566000000E+00 0.  1.
     999900   -1    0    0    0    0 -0.00000000000E+00 -0.00000000000E+00 -0.74505805969E-08  0.93827000000E+00  0.93827000000E+00 0.  1.
     999902    2    1    2    0    0  0.16334383307E-02 -0.77917841515E-02 -0.17744714326E-01  0.10244812235E+01  0.10242965988E+01 0.  0.
     999903    2    3    3    0    0 -0.29357493266E-01  0.12506404072E+00  0.27092988902E-01  0.13284142645E+00  0.20246921761E-01 0.  0.
         14    1    1    2    0    0 -0.16334383307E-02  0.77917841515E-02  0.17744714326E-01  0.19448776505E-01  0.00000000000E+00 0.  1.
     999901    1    3    3    0    0  0.30990931596E-01 -0.13285582487E+00 -0.44837703227E-01  0.89163979705E+00  0.88000000000E+00 0. -1.
        -11    1    4    4    0    0 -0.16350024127E-01  0.49629082567E-01  0.20043543101E-01  0.55967614443E-01  0.51100000000E-03 0.  1.
         11    1    4    4    0    0 -0.13007469139E-01  0.75434958156E-01  0.70494458013E-02  0.76873812007E-01  0.51100000000E-03 0. -1.
</event>
<event>
 8    1  0.9952977E+004  0.1043930E+01  0.7957747E-01            NaN
         13   -1    0    0    0    0  0.00000000000E+00  0.00000000000E+00  0.74505805969E-08  0.10566000000E+00  0.10566000000E+00 0.  1.
     999900   -1    0    0    0    0 -0.00000000000E+00 -0.00000000000E+00 -0.74505805969E-08  0.93827000000E+00  0.93827000000E+00 0. -1.
     999902    2    1    2    0    0  0.98642694131E-02  0.49712035372E-02  0.21966061171E-01  0.10193429197E+01  0.10190463500E+01 0.  0.
     999903    2    3    3    0    0  0.11966537183E+00  0.37622611521E-01  0.35219139189E-01  0.13181937598E+00  0.20017442536E-01 0.  0.
         14    1    1    2    0    0 -0.98642694131E-02 -0.49712035372E-02 -0.21966061171E-01  0.24587080328E-01  0.00000000000E+00 0. -1.
     999901    1    3    3    0    0 -0.10980110241E+00 -0.32651407984E-01 -0.13253078017E-01  0.88752354369E+00  0.88000000000E+00 0. -1.
        -11    1    4    4    0    0  0.40729400904E-01  0.52820841866E-02  0.17742123450E-01  0.44741798990E-01  0.51100000000E-03 0. -1.
         11    1    4    4    0    0  0.78935970924E-01  0.32340527334E-01  0.17477015739E-01  0.87077576988E-01  0.51100000000E-03 0.  1.
</event>
<event>
 8    1  0.9952977E+004  0.1043930E+01  0.7957747E-01            NaN
         13   -1    0    0    0    0  0.00000000000E+00  0.00000000000E+00  0.74505805969E-08  0.10566000000E+00  0.10566000000E+00 0.  1.
     999900   -1    0    0    0    0 -0.00000000000E+00 -0.00000000000E+00 -0.74505805969E-08  0.93827000000E+00  0.93827000000E+00 0.  1.
     999902    2    1    2    0    0 -0.63136339768E-02 -0.20269247185E-01  0.11487942483E-01  0.10197912930E+01  0.10195055684E+01 0.  0.
     999903    2    3    3    0    0  0.89896405522E-01  0.23900913944E-01  0.88689687930E-01  0.13009050935E+00  0.20126163716E-01 0.  0.
         14    1    1    2    0    0  0.63136339768E-02  0.20269247185E-01 -0.11487942483E-01  0.24138707048E-01  0.00000000000E+00 0.  1.
     999901    1    3    3    0    0 -0.96210039499E-01 -0.44170161129E-01 -0.77201745447E-01  0.88970078360E+00  0.88000000000E+00 0. -1.
        -11    1    4    4    0    0  0.96582478355E-02  0.18056385312E-02  0.19572741870E-01  0.21906515630E-01  0.51100000000E-03 0. -1.
         11    1    4    4    0    0  0.80238157686E-01  0.22095275413E-01  0.69116946060E-01  0.10818399372E+00  0.51100000000E-03 0.  1.
</event>
<event>
 8    1  0.9952977E+004  0.1043930E+01  0.7957747E-01            NaN
         13   -1    0    0    0    0  0.00000000000E+00  0.00000000000E+00  0.74505805969E-08  0.10566000000E+00  0.10566000000E+00 0.  1.
     999900   -1    0    0    0    0 -0.00000000000E+00 -0.00000000000E+00 -0.74505805969E-08  0.93827000000E+00  0.93827000000E+00 0.  1.
     999902    2    1    2    0    0  0.81528107303E-02 -0.47584915443E-02 -0.22679310743E-01  0.10193645222E+01  0.10190684797E+01 0.  0.
     999903    2    3    3    0    0 -0.36266366787E-01  0.82716812973E-01  0.87181106354E-01  0.12712335329E+00  0.20061932537E-01 0.  0.
         14    1    1    2    0    0 -0.81528107303E-02  0.47584915443E-02  0.22679310743E-01  0.24565477817E-01  0.00000000000E+00 0.  1.
     999901    1    3    3    0    0  0.44419177517E-01 -0.87475304517E-01 -0.10986041710E+00  0.89224116890E+00  0.88000000000E+00 0.  1.
        -11    1    4    4    0    0 -0.13119200567E-01  0.27335952556E-01  0.16969617062E-01  0.34750492801E-01  0.51100000000E-03 0. -1.
         11    1    4    4    0    0 -0.23147166220E-01  0.55380860417E-01  0.70211489292E-01  0.92372860484E-01  0.51100000000E-03 0.  1.
</event>
<event>
 8    1  0.9952977E+004  0.1043930E+01  0.7957747E-01            NaN
         13   -1    0    0    0    0  0.00000000000E+00  0.00000000000E+00  0.74505805969E-08  0.10566000000E+00  0.10566000000E+00 0.  1.
     999900   -1    0    0    0    0 -0.00000000000E+00 -0.00000000000E+00 -0.74505805969E-08  0.93827000000E+00  0.93827000000E+00 0. -1.
     999902    2    1    2    0    0 -0.16109199543E-01 -0.13620973384E-01  0.16562128624E-01  0.10171094607E+01  0.10167557788E+01 0.  0.
     999903    2    3    3    0    0  0.79716060455E-01  0.48014641399E-01 -0.80327331366E-01  0.12449028267E+00  0.19628913151E-01 0.  0.
         14    1    1    2    0    0  0.16109199543E-01  0.13620973384E-01 -0.16562128624E-01  0.26820539338E-01  0.00000000000E+00 0. -1.
     999901    1    3    3    0    0 -0.95825259998E-01 -0.61635614783E-01  0.96889459990E-01  0.89261917799E+00  0.88000000000E+00 0.  1.
        -11    1    4    4    0    0  0.55840645966E-01  0.31366649458E-01 -0.42962500055E-01  0.77123809372E-01  0.51100000000E-03 0. -1.
         11    1    4    4    0    0  0.23875414490E-01  0.16647991941E-01 -0.37364831310E-01  0.47366473297E-01  0.51100000000E-03 0.  1.
</event>
<event>
 8    1  0.9952977E+004  0.1043930E+01  0.7957747E-01            NaN
         13   -1    0    0    0    0  0.00000000000E+00  0.00000000000E+00  0.74505805969E-08  0.10566000000E+00  0.10566000000E+00 0.  1.
     999900   -1    0    0    0    0 -0.00000000000E+00 -0.00000000000E+00 -0.74505805969E-08  0.93827000000E+00  0.93827000000E+00 0.  1.
     999902    2    1    2    0    0 -0.22105258050E-01  0.90922801044E-02  0.13443951682E-02  0.10199900879E+01  0.10197091056E+01 0.  0.
     999903    2    3    3    0    0 -0.76865310472E-01 -0.94114445526E-01  0.45147743088E-01  0.13118807127E+00  0.20154069719E-01 0.  0.
         14    1    1    2    0    0  0.22105258050E-01 -0.90922801044E-02 -0.13443951682E-02  0.23939912057E-01  0.00000000000E+00 0. -1.
     999901    1    3    3    0    0  0.54760052422E-01  0.10320672563E+00 -0.43803347920E-01  0.88880201668E+00  0.88000000000E+00 0. -1.
        -11    1    4    4    0    0 -0.55929438041E-01 -0.58244207382E-01  0.22258425566E-01  0.83762690757E-01  0.51100000000E-03 0.  1.
         11    1    4    4    0    0 -0.20935872432E-01 -0.35870238144E-01  0.22889317522E-01  0.47425380511E-01  0.51100000000E-03 0. -1.
</event>
<event>
 8    1  0.9952977E+004  0.1043930E+01  0.7957747E-01            NaN
         13   -1    0    0    0    0  0.00000000000E+00  0.00000000000E+00  0.74505805969E-08  0.10566000000E+00  0.10566000000E+00 0.  1.
     999900   -1    0    0    0    0 -0.00000000000E+00 -0.00000000000E+00 -0.74505805969E-08  0.93827000000E+00  0.93827000000E+00 0. -1.
     999902    2    1    2    0    0 -0.15395903302E-01 -0.16656117513E-01  0.13057951279E-01  0.10177580650E+01  0.10174215000E+01 0.  0.
     999903    2    3    3    0    0  0.20336734762E-01 -0.21784199993E-01  0.12486712309E+00  0.12994929645E+00  0.20171441876E-01 0.  0.
         14    1    1    2    0    0  0.15395903302E-01  0.16656117513E-01 -0.13057951279E-01  0.26171934982E-01  0.00000000000E+00 0. -1.
     999901    1    3    3    0    0 -0.35732638064E-01  0.51280824799E-02 -0.11180917181E+00  0.88780876857E+00  0.88000000000E+00 0. -1.
        -11    1    4    4    0    0  0.17079505497E-01 -0.13764651853E-01  0.50269307551E-01  0.54849243854E-01  0.51100000000E-03 0. -1.
         11    1    4    4    0    0  0.32572292641E-02 -0.80195481408E-02  0.74597815540E-01  0.75100052591E-01  0.51100000000E-03 0.  1.
</event>
<event>
 8    1  0.9952977E+004  0.1043930E+01  0.7957747E-01            NaN
         13   -1    0    0    0    0  0.00000000000E+00  0.00000000000E+00  0.74505805969E-08  0.10566000000E+00  0.10566000000E+00 0.  1.
     999900   -1    0    0    0    0 -0.00000000000E+00 -0.00000000000E+00 -0.74505805969E-08  0.93827000000E+00  0.93827000000E+00 0.  1.
     999902    2    1    2    0    0 -0.18095739899E-01 -0.12656935695E-01  0.80622587339E-02  0.10204214092E+01  0.10201505764E+01 0.  0.
     999903    2    3    3    0    0 -0.10066789656E+00 -0.53100148257E-01  0.68243065341E-01  0.13358684520E+00  0.15319206885E-01 0.  0.
         14    1    1    2    0    0  0.18095739899E-01  0.12656935695E-01 -0.80622587339E-02  0.23508590761E-01  0.00000000000E+00 0. -1.
     999901    1    3    3    0    0  0.82572156659E-01  0.40443212562E-01 -0.60180806608E-01  0.88683456404E+00  0.88000000000E+00 0.  1.
        -11    1    4    4    0    0 -0.25261577327E-01 -0.20270851599E-01  0.22911443291E-01  0.39676820289E-01  0.51100000000E-03 0.  1.
         11    1    4    4    0    0 -0.75406319232E-01 -0.32829296659E-01  0.45331622051E-01  0.93910024907E-01  0.51100000000E-03 0. -1.
</event>
<event>
 8    1  0.9952977E+004  0.1043930E+01  0.7957747E-01            NaN
         13   -1    0    0    0    0  0.00000000000E+00  0.00000000000E+00  0.74505805969E-08  0.10566000000E+00  0.10566000000E+00 0.  1.
     999900   -1    0    0    0    0 -0.00000000000E+00 -0.00000000000E+00 -0.74505805969E-08  0.93827000000E+00  0.93827000000E+00 0. -1.
     999902    2    1    2    0    0  0.24085089810E-02 -0.18970351045E-01 -0.13581557229E-01  0.10204750681E+01  0.10202054846E+01 0.  0.
     999903    2    3    3    0    0  0.89660215333E-01  0.77278588439E-01 -0.50527559945E-01  0.13017077981E+00  0.19505464794E-01 0.  0.
         14    1    1    2    0    0 -0.24085089810E-02  0.18970351045E-01  0.13581557229E-01  0.23454931913E-01  0.00000000000E+00 0.  1.
     999901    1    3    3    0    0 -0.87251706352E-01 -0.96248939484E-01  0.36946002716E-01  0.89030428828E+00  0.88000000000E+00 0.  1.
        -11    1    4    4    0    0  0.55441446609E-01  0.55398983894E-01 -0.25321451261E-01  0.82366488535E-01  0.51100000000E-03 0. -1.
         11    1    4    4    0    0  0.34218768723E-01  0.21879604545E-01 -0.25206108684E-01  0.47804291272E-01  0.51100000000E-03 0.  1.
</event>
<event>
 8    1  0.9952977E+004  0.1043930E+01  0.7957747E-01            NaN
         13   -1    0    0    0    0  0.00000000000E+00  0.00000000000E+00  0.74505805969E-08  0.10566000000E+00  0.10566000000E+00 0.  1.
     999900   -1    0    0    0    0 -0.00000000000E+00 -0.00000000000E+00 -0.74505805969E-08  0.93827000000E+00  0.93827000000E+00 0. -1.
     999902    2    1    2    0    0  0.26639720953E-02  0.88079843515E-02  0.57718313243E-02  0.10330676166E+01  0.10330105078E+01 0.  0.
     999903    2    3    3    0    0 -0.10496275427E+00  0.41403390495E-03 -0.92213879001E-01  0.14107256616E+00  0.19512002303E-01 0.  0.
         14    1    1    2    0    0 -0.26639720953E-02 -0.88079843515E-02 -0.57718313243E-02  0.10862383371E-01  0.00000000000E+00 0.  1.
     999901    1    3    3    0    0  0.10762672637E+00  0.83939504466E-02  0.97985710326E-01  0.89199505047E+00  0.88000000000E+00 0.  1.
        -11    1    4    4    0    0 -0.22162104841E-01  0.25177824916E-02 -0.30459664526E-01  0.37756461748E-01  0.51100000000E-03 0. -1.
         11    1    4    4    0    0 -0.82800649432E-01 -0.21037485866E-02 -0.61754214475E-01  0.10331610441E+00  0.51100000000E-03 0.  1.
</event>
<event>
 8    1  0.9952977E+004  0.1043930E+01  0.7957747E-01            NaN
         13   -1    0    0    0    0  0.00000000000E+00  0.00000000000E+00  0.74505805969E-08  0.10566000000E+00  0.10566000000E+00 0.  1.
     999900   -1    0    0    0    0 -0.00000000000E+00 -0.00000000000E+00 -0.74505805969E-08  0.93827000000E+00  0.93827000000E+00 0. -1.
     999902    2    1    2    0    0 -0.15547442787E-01 -0.16530664847E-01  0.47669227542E-02  0.10207414379E+01  0.10204780124E+01 0.  0.
     999903    2    3    3    0    0  0.84975504032E-01  0.87341356488E-01  0.36046847966E-01  0.12840030734E+00  0.18382460065E-01 0.  0.
         14    1    1    2    0    0  0.15547442787E-01  0.16530664847E-01 -0.47669227542E-02  0.23188562052E-01  0.00000000000E+00 0.  1.
     999901    1    3    3    0    0 -0.10052294682E+00 -0.10387202134E+00 -0.31279925212E-01  0.89234113061E+00  0.88000000000E+00 0. -1.
        -11    1    4    4    0    0  0.42164773828E-01  0.45763469079E-01  0.27787875827E-01  0.68151231963E-01  0.51100000000E-03 0. -1.
         11    1    4    4    0    0  0.42810730203E-01  0.41577887409E-01  0.82589721396E-02  0.60249075377E-01  0.51100000000E-03 0.  1.
</event>
<event>
 8    1  0.9952977E+004  0.1043930E+01  0.7957747E-01            NaN
         13   -1    0    0    0    0  0.00000000000E+00  0.00000000000E+00  0.74505805969E-08  0.10566000000E+00  0.10566000000E+00 0. -1.
     999900   -1    0    0    0    0 -0.00000000000E+00 -0.00000000000E+00 -0.74505805969E-08  0.93827000000E+00  0.93827000000E+00 0. -1.
     999902    2    1    2    0    0  0.20548861570E-01 -0.62185426339E-02 -0.57597358167E-02  0.10217016276E+01  0.10214597962E+01 0.  0.
     999903    2    3    3    0    0 -0.84912579136E-04  0.11720599044E+00  0.54807327680E-01  0.13078763779E+00  0.19086949108E-01 0.  0.
         14    1    1    2    0    0 -0.20548861570E-01  0.62185426339E-02  0.57597358167E-02  0.22228372432E-01  0.00000000000E+00 0.  1.
     999901    1    3    3    0    0  0.20633774149E-01 -0.12342453307E+00 -0.60567063497E-01  0.89091398978E+00  0.88000000000E+00 0. -1.
        -11    1    4    4    0    0  0.85083197575E-02  0.70163361474E-01  0.36803920833E-01  0.79687379855E-01  0.51100000000E-03 0.  1.
         11    1    4    4    0    0 -0.85932323367E-02  0.47042628966E-01  0.18003406848E-01  0.51100257936E-01  0.51100000000E-03 0. -1.
</event>
<event>
 7    1  0.9952977E+004  0.1043930E+01  0.7957747E-01            NaN
         13   -1    0    0    0    0  0.00000000000E+00  0.00000000000E+00  0.74505805969E-08  0.10566000000E+00  0.10566000000E+00 0.  1.
     999900   -1    0    0    0    0 -0.00000000000E+00 -0.00000000000E+00 -0.74505805969E-08  0.93827000000E+00  0.93827000000E+00 0. -1.
     999902    2    1    2    0    0  0.86557340144E-03  0.18779479150E-01 -0.15140207400E-01  0.10197919816E+01  0.10195062735E+01 0.  0.
         14    1    1    2    0    0 -0.86557340144E-03 -0.18779479150E-01  0.15140207400E-01  0.24138018447E-01  0.00000000000E+00 0.  1.
     999901    1    3    3    0    0 -0.98803982190E-01  0.51604602038E-01 -0.80760556696E-01  0.89070058345E+00  0.88000000000E+00 0. -1.
        -11    1    3    3    0    0  0.43286744454E-01 -0.29298777650E-01  0.44923957301E-01  0.68924478075E-01  0.51100000000E-03 0. -1.
         11    1    3    3    0    0  0.56382811138E-01 -0.35263452383E-02  0.20696391995E-01  0.60166920024E-01  0.51100000000E-03 0.  1.
</event>
<event>
 7    1  0.9952977E+004  0.1043930E+01  0.7957747E-01            NaN
         13   -1    0    0    0    0  0.00000000000E+00  0.00000000000E+00  0.74505805969E-08  0.10566000000E+00  0.10566000000E+00 0. -1.
     999900   -1    0    0    0    0 -0.00000000000E+00 -0.00000000000E+00 -0.74505805969E-08  0.93827000000E+00  0.93827000000E+00 0.  1.
     999903    2    1    2    0    0 -0.25788416305E-01 -0.92546558497E-01  0.49463617732E-01  0.10987653631E+00  0.19907180818E-01 0.  0.
         14    1    1    2    0    0 -0.29245199500E-01 -0.30222311910E-01  0.38623635160E-02  0.42232542937E-01  0.00000000000E+00 0.  1.
     999901    1    1    2    0    0  0.55033615805E-01  0.12276887041E+00 -0.53325981248E-01  0.89182092075E+00  0.88000000000E+00 0. -1.
        -11    1    3    3    0    0 -0.12151273013E-01 -0.42529002034E-01  0.11758891986E-01  0.45770100629E-01  0.51100000000E-03 0.  1.
         11    1    3    3    0    0 -0.13637143292E-01 -0.50017556463E-01  0.37704725746E-01  0.64106435686E-01  0.51100000000E-03 0. -1.
</event>
<event>
 8    1  0.9952977E+004  0.1043930E+01  0.7957747E-01            NaN
         13   -1    0    0    0    0  0.00000000000E+00  0.00000000000E+00  0.74505805969E-08  0.10566000000E+00  0.10566000000E+00 0.  1.
     999900   -1    0    0    0    0 -0.00000000000E+00 -0.00000000000E+00 -0.74505805969E-08  0.93827000000E+00  0.93827000000E+00 0. -1.
     999902    2    1    2    0    0  0.48823411289E-02  0.21935478206E-01  0.52832901790E-02  0.10208450349E+01  0.10205839846E+01 0.  0.
     999903    2    3    3    0    0 -0.82009829571E-01  0.10212738867E+00  0.10945773569E-01  0.13291876793E+00  0.19798314277E-01 0.  0.
         14    1    1    2    0    0 -0.48823411289E-02 -0.21935478206E-01 -0.52832901790E-02  0.23084965110E-01  0.00000000000E+00 0. -1.
     999901    1    3    3    0    0  0.86892170700E-01 -0.80191910459E-01 -0.56624833904E-02  0.88792626696E+00  0.88000000000E+00 0. -1.
        -11    1    4    4    0    0 -0.36079327597E-01  0.60074768694E-01  0.85363336428E-02  0.70596216800E-01  0.51100000000E-03 0. -1.
         11    1    4    4    0    0 -0.45930501974E-01  0.42052619971E-01  0.24094399266E-02  0.62322551134E-01  0.51100000000E-03 0.  1.
</event>
<event>
 8    1  0.9952977E+004  0.1043930E+01  0.7957747E-01            NaN
         13   -1    0    0    0    0  0.00000000000E+00  0.00000000000E+00  0.74505805969E-08  0.10566000000E+00  0.10566000000E+00 0. -1.
     999900   -1    0    0    0    0 -0.00000000000E+00 -0.00000000000E+00 -0.74505805969E-08  0.93827000000E+00  0.93827000000E+00 0. -1.
     999902    2    1    2    0    0 -0.11398046382E-01 -0.27740617967E-02 -0.20914874942E-01  0.10199499484E+01  0.10196680119E+01 0.  0.
     999903    2    3    3    0    0 -0.35661726509E-01 -0.10551841422E+00 -0.68317624541E-01  0.13237338901E+00  0.21201929633E-01 0.  0.
         14    1    1    2    0    0  0.11398046382E-01  0.27740617967E-02  0.20914874942E-01  0.23980051585E-01  0.00000000000E+00 0. -1.
     999901    1    3    3    0    0  0.24263680127E-01  0.10274435242E+00  0.47402749600E-01  0.88757655940E+00  0.88000000000E+00 0.  1.
        -11    1    4    4    0    0 -0.35622481539E-01 -0.10064610188E+00 -0.59344747373E-01  0.12215015013E+00  0.51100000000E-03 0.  1.
         11    1    4    4    0    0 -0.39244970055E-04 -0.48723123371E-02 -0.89728771683E-02  0.10223238888E-01  0.51100000000E-03 0. -1.
</event>
<event>
 8    1  0.9952977E+004  0.1043930E+01  0.7957747E-01            NaN
         13   -1    0    0    0    0  0.00000000000E+00  0.00000000000E+00  0.74505805969E-08  0.10566000000E+00  0.10566000000E+00 0. -1.
     999900   -1    0    0    0    0 -0.00000000000E+00 -0.00000000000E+00 -0.74505805969E-08  0.93827000000E+00  0.93827000000E+00 0.  1.
     999902    2    1    2    0    0 -0.65615060607E-02 -0.10636083846E-01 -0.19603327109E-01  0.10206819877E+01  0.10204171941E+01 0.  0.
     999903    2    3    3    0    0 -0.10485076305E+00  0.75965161544E-01 -0.18242429447E-02  0.13080747433E+00  0.18516997514E-01 0.  0.
         14    1    1    2    0    0  0.65615060607E-02  0.10636083846E-01  0.19603327109E-01  0.23248012283E-01  0.00000000000E+00 0. -1.
     999901    1    3    3    0    0  0.98289256993E-01 -0.86601245390E-01 -0.17779084164E-01  0.88987451339E+00  0.88000000000E+00 0.  1.
        -11    1    4    4    0    0 -0.47812543119E-01  0.23820427808E-01 -0.31494166483E-02  0.53512914392E-01  0.51100000000E-03 0.  1.
         11    1    4    4    0    0 -0.57038219934E-01  0.52144733735E-01  0.13251737036E-02  0.77294559937E-01  0.51100000000E-03 0. -1.
</event>
<event>
 8    1  0.9952977E+004  0.1043930E+01  0.7957747E-01            NaN
         13   -1    0    0    0    0  0.00000000000E+00  0.00000000000E+00  0.74505805969E-08  0.10566000000E+00  0.10566000000E+00 0.  1.
     999900   -1    0    0    0    0 -0.00000000000E+00 -0.00000000000E+00 -0.74505805969E-08  0.93827000000E+00  0.93827000000E+00 0. -1.
     999902    2    1    2    0    0  0.18830655806E-01  0.14562849383E-01  0.61307542098E-03  0.10201172714E+01  0.10198393018E+01 0.  0.
     999903    2    3    3    0    0 -0.62458220704E-01  0.27171478870E-01  0.10852723432E+00  0.12971717896E+00  0.20225413003E-01 0.  0.
         14    1    1    2    0    0 -0.18830655806E-01 -0.14562849383E-01 -0.61307542098E-03  0.23812728565E-01  0.00000000000E+00 0. -1.
     999901    1    3    3    0    0  0.81288876510E-01 -0.12608629487E-01 -0.10791415890E+00  0.89040009247E+00  0.88000000000E+00 0. -1.
        -11    1    4    4    0    0 -0.56565506085E-01  0.18612073474E-01  0.83020631906E-01  0.10217021191E+00  0.51100000000E-03 0.  1.
         11    1    4    4    0    0 -0.58927146192E-02  0.85594053960E-02  0.25506602415E-01  0.27546967058E-01  0.51100000000E-03 0. -1.
</event>
<event>
 8    1  0.9952977E+004  0.1043930E+01  0.7957747E-01            NaN
         13   -1    0    0    0    0  0.00000000000E+00  0.00000000000E+00  0.74505805969E-08  0.10566000000E+00  0.10566000000E+00 0.  1.
     999900   -1    0    0    0    0 -0.00000000000E+00 -0.00000000000E+00 -0.74505805969E-08  0.93827000000E+00  0.93827000000E+00 0.  1.
     999902    2    1    2    0    0 -0.84132742801E-02  0.20187645442E-01  0.97907279410E-02  0.10199678931E+01  0.10196863834E+01 0.  0.
     999903    2    3    3    0    0 -0.53247207877E-01  0.50647698664E-02 -0.11653838717E+00  0.12968825823E+00  0.19414726335E-01 0.  0.
         14    1    1    2    0    0  0.84132742801E-02 -0.20187645442E-01 -0.97907279410E-02  0.23962106882E-01  0.00000000000E+00 0. -1.
     999901    1    3    3    0    0  0.44833933596E-01  0.15122875576E-01  0.12632911511E+00  0.89027963489E+00  0.88000000000E+00 0. -1.
        -11    1    4    4    0    0 -0.86426946716E-02  0.50706073706E-03 -0.40459919892E-01  0.41378974376E-01  0.51100000000E-03 0.  1.
         11    1    4    4    0    0 -0.44604513205E-01  0.45577091294E-02 -0.76078467278E-01  0.88309283856E-01  0.51100000000E-03 0. -1.
</event>
<event>
 8    1  0.9952977E+004  0.1043930E+01  0.7957747E-01            NaN
         13   -1    0    0    0    0  0.00000000000E+00  0.00000000000E+00  0.74505805969E-08  0.10566000000E+00  0.10566000000E+00 0. -1.
     999900   -1    0    0    0    0 -0.00000000000E+00 -0.00000000000E+00 -0.74505805969E-08  0.93827000000E+00  0.93827000000E+00 0.  1.
     999902    2    1    2    0    0  0.22651827691E-01 -0.32425799008E-02 -0.61583507005E-02  0.10202330613E+01  0.10199578199E+01 0.  0.
     999903    2    3    3    0    0 -0.88876941740E-01 -0.21730593541E-01 -0.88923707228E-01  0.12914912734E+00  0.20018539309E-01 0.  0.
         14    1    1    2    0    0 -0.22651827691E-01  0.32425799008E-02  0.61583507005E-02  0.23696938737E-01  0.00000000000E+00 0.  1.
     999901    1    3    3    0    0  0.11152876943E+00  0.18488013640E-01  0.82765356528E-01  0.89108393393E+00  0.88000000000E+00 0. -1.
        -11    1    4    4    0    0 -0.56169547176E-01 -0.42692173690E-02 -0.49006763106E-01  0.74667048944E-01  0.51100000000E-03 0.  1.
         11    1    4    4    0    0 -0.32707394564E-01 -0.17461376172E-01 -0.39916944123E-01  0.54482078393E-01  0.51100000000E-03 0. -1.
</event>
<event>
 8    1  0.1121219E+005  0.1043930E+01  0.7957747E-01            NaN
         13   -1    0    0    0    0  0.00000000000E+00  0.00000000000E+00  0.74505805969E-08  0.10566000000E+00  0.10566000000E+00 0.  1.
     999900   -1    0    0    0    0 -0.00000000000E+00 -0.00000000000E+00 -0.74505805969E-08  0.93827000000E+00  0.93827000000E+00 0.  1.
     999902    2    1    2    0    0 -0.22943616932E-01 -0.93474385010E-03  0.11675155927E-01  0.10181697094E+01  0.10178437820E+01 0.  0.
     999903    2    3    3    0    0 -0.82647592827E-01 -0.62689827680E-01  0.78092664004E-01  0.13149640968E+00  0.20789480364E-01 0.  0.
         14    1    1    2    0    0  0.22943616932E-01  0.93474385010E-03 -0.11675155927E-01  0.25760290563E-01  0.00000000000E+00 0. -1.
     999901    1    3    3    0    0  0.59703975895E-01  0.61755083830E-01 -0.66417508077E-01  0.88667329975E+00  0.88000000000E+00 0. -1.
        -11    1    4    4    0    0 -0.57634142064E-01 -0.31306317463E-01  0.50768508806E-01  0.82942645556E-01  0.51100000000E-03 0. -1.
         11    1    4    4    0    0 -0.25013450763E-01 -0.31383510217E-01  0.27324155198E-01  0.48553764127E-01  0.51100000000E-03 0.  1.
</event>
<event>
 8    1  0.9952977E+004  0.1043930E+01  0.7957747E-01            NaN
         13   -1    0    0    0    0  0.00000000000E+00  0.00000000000E+00  0.74505805969E-08  0.10566000000E+00  0.10566000000E+00 0. -1.
     999900   -1    0    0    0    0 -0.00000000000E+00 -0.00000000000E+00 -0.74505805969E-08  0.93827000000E+00  0.93827000000E+00 0. -1.
     999902    2    1    2    0    0 -0.49644577236E-02  0.94222816578E-02 -0.20668352029E-01  0.10206790644E+01  0.10204142034E+01 0.  0.
     999903    2    3    3    0    0  0.22631886605E-01 -0.12272224130E+00 -0.31626794446E-01  0.13031744085E+00  0.20234388117E-01 0.  0.
         14    1    1    2    0    0  0.49644577236E-02 -0.94222816578E-02  0.20668352029E-01  0.23250935631E-01  0.00000000000E+00 0. -1.
     999901    1    3    3    0    0 -0.27596344329E-01  0.13214452296E+00  0.10958442417E-01  0.89036162352E+00  0.88000000000E+00 0.  1.
        -11    1    4    4    0    0  0.17329237905E-01 -0.11686456280E+00 -0.31968401124E-01  0.12239227229E+00  0.51100000000E-03 0.  1.
         11    1    4    4    0    0  0.53026487005E-02 -0.58576785049E-02  0.34160667765E-03  0.79251685679E-02  0.51100000000E-03 0. -1.
</event>
<event>
 8    1  0.1019680E+005  0.1043930E+01  0.7957747E-01            NaN
         13   -1    0    0    0    0  0.00000000000E+00  0.00000000000E+00  0.74505805969E-08  0.10566000000E+00  0.10566000000E+00 0.  1.
     999900   -1    0    0    0    0 -0.00000000000E+00 -0.00000000000E+00 -0.74505805969E-08  0.93827000000E+00  0.93827000000E+00 0.  1.
     999902    2    1    2    0    0 -0.69840743033E-02  0.20428940038E-01 -0.97251068946E-02  0.10202509673E+01  0.10199761466E+01 0.  0.
     999903    2    3    3    0    0 -0.97990661741E-01 -0.78406890187E-01  0.24517227555E-01  0.12939561555E+00  0.19807086090E-01 0.  0.
         14    1    1    2    0    0  0.69840743033E-02 -0.20428940038E-01  0.97251068946E-02  0.23679032688E-01  0.00000000000E+00 0. -1.
     999901    1    3    3    0    0  0.91006587438E-01  0.98835830225E-01 -0.34242334450E-01  0.89085535176E+00  0.88000000000E+00 0.  1.
        -11    1    4    4    0    0 -0.32610776084E-01 -0.35743646175E-01  0.15485277456E-01  0.50804782231E-01  0.51100000000E-03 0.  1.
         11    1    4    4    0    0 -0.65379885658E-01 -0.42663244012E-01  0.90319500996E-02  0.78590833319E-01  0.51100000000E-03 0. -1.
</event>
<event>
 8    1  0.9952977E+004  0.1043930E+01  0.7957747E-01            NaN
         13   -1    0    0    0    0  0.00000000000E+00  0.00000000000E+00  0.74505805969E-08  0.10566000000E+00  0.10566000000E+00 0.  1.
     999900   -1    0    0    0    0 -0.00000000000E+00 -0.00000000000E+00 -0.74505805969E-08  0.93827000000E+00  0.93827000000E+00 0.  1.
     999902    2    1    2    0    0 -0.47697844088E-02 -0.13154845739E-01 -0.19003147017E-01  0.10203308389E+01  0.10200578907E+01 0.  0.
     999903    2    3    3    0    0  0.77011365493E-01 -0.37524119261E-01 -0.99061902576E-01  0.13258570522E+00  0.20661528136E-01 0.  0.
         14    1    1    2    0    0  0.47697844088E-02  0.13154845739E-01  0.19003147017E-01  0.23599161135E-01  0.00000000000E+00 0.  1.
     999901    1    3    3    0    0 -0.81781149902E-01  0.24369273522E-01  0.80058755558E-01  0.88774513365E+00  0.88000000000E+00 0.  1.
        -11    1    4    4    0    0  0.46306158258E-01 -0.12229331026E-01 -0.47470597228E-01  0.67435417639E-01  0.51100000000E-03 0.  1.
         11    1    4    4    0    0  0.30705207235E-01 -0.25294788235E-01 -0.51591305347E-01  0.65150287579E-01  0.51100000000E-03 0. -1.
</event>
<event>
 8    1  0.9952977E+004  0.1043930E+01  0.7957747E-01            NaN
         13   -1    0    0    0    0  0.00000000000E+00  0.00000000000E+00  0.74505805969E-08  0.10566000000E+00  0.10566000000E+00 0. -1.
     999900   -1    0    0    0    0 -0.00000000000E+00 -0.00000000000E+00 -0.74505805969E-08  0.93827000000E+00  0.93827000000E+00 0. -1.
     999902    2    1    2    0    0 -0.12364924151E-01  0.12224782979E-01 -0.16022347007E-01  0.10202857138E+01  0.10200117085E+01 0.  0.
     999903    2    3    3    0    0  0.95860333949E-01 -0.69209164232E-01 -0.50236390595E-01  0.12926674930E+00  0.14390465462E-01 0.  0.
         14    1    1    2    0    0  0.12364924151E-01 -0.12224782979E-01  0.16022347007E-01  0.23644286239E-01  0.00000000000E+00 0.  1.
     999901    1    3    3    0    0 -0.10822525810E+00  0.81433947211E-01  0.34214043588E-01  0.89101896446E+00  0.88000000000E+00 0.  1.
        -11    1    4    4    0    0  0.59445748324E-01 -0.34181061810E-01 -0.28548725013E-01  0.74279423807E-01  0.51100000000E-03 0. -1.
         11    1    4    4    0    0  0.36414585625E-01 -0.35028102422E-01 -0.21687665582E-01  0.54987325493E-01  0.51100000000E-03 0.  1.
</event>
<event>
 8    1  0.9952977E+004  0.1043930E+01  0.7957747E-01            NaN
         13   -1    0    0    0    0  0.00000000000E+00  0.00000000000E+00  0.74505805969E-08  0.10566000000E+00  0.10566000000E+00 0.  1.
     999900   -1    0    0    0    0 -0.00000000000E+00 -0.00000000000E+00 -0.74505805969E-08  0.93827000000E+00  0.93827000000E+00 0. -1.
     999902    2    1    2    0    0 -0.46862339436E-02  0.16709262515E-01  0.48766078448E-02  0.10259038649E+01  0.10257454843E+01 0.  0.
     999903    2    3    3    0    0 -0.35095848196E-01  0.13156585968E+00 -0.84280533798E-02  0.13781952400E+00  0.19542136980E-01 0.  0.
         14    1    1    2    0    0  0.46862339436E-02 -0.16709262515E-01 -0.48766078448E-02  0.18026135095E-01  0.00000000000E+00 0. -1.
     999901    1    3    3    0    0  0.30409614253E-01 -0.11485659716E+00  0.13304661225E-01  0.88808434091E+00  0.88000000000E+00 0.  1.
        -11    1    4    4    0    0 -0.21111806582E-01  0.98839602534E-01  0.70917246562E-03  0.10107294125E+00  0.51100000000E-03 0. -1.
         11    1    4    4    0    0 -0.13984041615E-01  0.32726257146E-01 -0.91372258454E-02  0.36746582750E-01  0.51100000000E-03 0.  1.
</event>
<event>
 8    1  0.9952977E+004  0.1043930E+01  0.7957747E-01            NaN
         13   -1    0    0    0    0  0.00000000000E+00  0.00000000000E+00  0.74505805969E-08  0.10566000000E+00  0.10566000000E+00 0.  1.
     999900   -1    0    0    0    0 -0.00000000000E+00 -0.00000000000E+00 -0.74505805969E-08  0.93827000000E+00  0.93827000000E+00 0. -1.
     999902    2    1    2    0    0  0.12370144160E-01  0.12305119017E-01  0.10103127453E-01  0.10237679167E+01  0.10235693614E+01 0.  0.
     999903    2    3    3    0    0 -0.72506187379E-02 -0.12842496867E+00  0.25518859783E-01  0.13223688706E+00  0.17024630589E-01 0.  0.
         14    1    1    2    0    0 -0.12370144160E-01 -0.12305119017E-01 -0.10103127453E-01  0.20162083347E-01  0.00000000000E+00 0.  1.
     999901    1    3    3    0    0  0.19620762898E-01  0.14073008768E+00 -0.15415732330E-01  0.89153102959E+00  0.88000000000E+00 0. -1.
        -11    1    4    4    0    0  0.46728358356E-02 -0.15502069219E-01  0.30862867491E-02  0.16490477001E-01  0.51100000000E-03 0. -1.
         11    1    4    4    0    0 -0.11923454573E-01 -0.11292289945E+00  0.22432573034E-01  0.11574641006E+00  0.51100000000E-03 0.  1.
</event>
<event>
 8    1  0.9952977E+004  0.1043930E+01  0.7957747E-01            NaN
         13   -1    0    0    0    0  0.00000000000E+00  0.00000000000E+00  0.74505805969E-08  0.10566000000E+00  0.10566000000E+00 0.  1.
     999900   -1    0    0    0    0 -0.00000000000E+00 -0.00000000000E+00 -0.74505805969E-08  0.93827000000E+00  0.93827000000E+00 0. -1.
     999902    2    1    2    0    0 -0.49638660431E-02  0.12987430824E-01 -0.19182002826E-01  0.10202390195E+01  0.10199639181E+01 0.  0.
     999903    2    3    3    0    0  0.12294256996E+00  0.15957717096E-01 -0.36291752980E-01  0.13082256892E+00  0.20686443921E-01 0.  0.
         14    1    1    2    0    0  0.49638660431E-02 -0.12987430824E-01  0.19182002826E-01  0.23690980519E-01  0.00000000000E+00 0.  1.
     999901    1    3    3    0    0 -0.12790643600E+00 -0.29702862721E-02  0.17109750154E-01  0.88941645056E+00  0.88000000000E+00 0. -1.
        -11    1    4    4    0    0  0.24073598680E-01 -0.26195038335E-02 -0.13283801524E-01  0.27624634978E-01  0.51100000000E-03 0. -1.
         11    1    4    4    0    0  0.98868971280E-01  0.18577220930E-01 -0.23007951456E-01  0.10319793395E+00  0.51100000000E-03 0.  1.
</event>
<event>
 8    1  0.9952977E+004  0.1043930E+01  0.7957747E-01            NaN
         13   -1    0    0    0    0  0.00000000000E+00  0.00000000000E+00  0.74505805969E-08  0.10566000000E+00  0.10566000000E+00 0. -1.
     999900   -1    0    0    0    0 -0.00000000000E+00 -0.00000000000E+00 -0.74505805969E-08  0.93827000000E+00  0.93827000000E+00 0. -1.
     999902    2    1    2    0    0 -0.11940397881E-01 -0.17072230089E-01 -0.10400854900E-01  0.10206445555E+01  0.10203788986E+01 0.  0.
     999903    2    3    3    0    0 -0.80664851181E-01  0.85752585296E-01 -0.53788621097E-01  0.13093758613E+00  0.19776541661E-01 0.  0.
         14    1    1    2    0    0  0.11940397881E-01  0.17072230089E-01  0.10400854900E-01  0.23285444475E-01  0.00000000000E+00 0. -1.
     999901    1    3    3    0    0  0.68724453300E-01 -0.10282481539E+00  0.43387766197E-01  0.88970696940E+00  0.88000000000E+00 0.  1.
        -11    1    4    4    0    0 -0.12598685241E-01  0.24230614424E-01 -0.84244752030E-02  0.28584654075E-01  0.51100000000E-03 0.  1.
         11    1    4    4    0    0 -0.68066165940E-01  0.61521970872E-01 -0.45364145894E-01  0.10235293205E+00  0.51100000000E-03 0. -1.
</event>
<event>
 8    1  0.9952977E+004  0.1043930E+01  0.7957747E-01            NaN
         13   -1    0    0    0    0  0.00000000000E+00  0.00000000000E+00  0.74505805969E-08  0.10566000000E+00  0.10566000000E+00 0. -1.
     999900   -1    0    0    0    0 -0.00000000000E+00 -0.00000000000E+00 -0.74505805969E-08  0.93827000000E+00  0.93827000000E+00 0.  1.
     999902    2    1    2    0    0 -0.10482643870E-01  0.88278778942E-02 -0.19821161276E-01  0.10198323718E+01  0.10195476305E+01 0.  0.
     999903    2    3    3    0    0  0.42761409147E-01  0.71185598531E-01 -0.10080226868E+00  0.13231822867E+00  0.21238849195E-01 0.  0.
         14    1    1    2    0    0  0.10482643870E-01 -0.88278778942E-02  0.19821161276E-01  0.24097628202E-01  0.00000000000E+00 0. -1.
     999901    1    3    3    0    0 -0.53244053017E-01 -0.62357720637E-01  0.80981107406E-01  0.88751414313E+00  0.88000000000E+00 0. -1.
        -11    1    4    4    0    0  0.22478929792E-01  0.31964485657E-01 -0.31742470102E-01  0.50347553635E-01  0.51100000000E-03 0.  1.
         11    1    4    4    0    0  0.20282479355E-01  0.39221112874E-01 -0.69059798580E-01  0.81970675030E-01  0.51100000000E-03 0. -1.
</event>
<event>
 8    1  0.9952977E+004  0.1043930E+01  0.7957747E-01            NaN
         13   -1    0    0    0    0  0.00000000000E+00  0.00000000000E+00  0.74505805969E-08  0.10566000000E+00  0.10566000000E+00 0.  1.
     999900   -1    0    0    0    0 -0.00000000000E+00 -0.00000000000E+00 -0.74505805969E-08  0.93827000000E+00  0.93827000000E+00 0.  1.
     999902    2    1    2    0    0  0.39943779341E-02  0.24069433580E-01  0.52462177516E-03  0.10195257398E+01  0.10192336171E+01 0.  0.
     999903    2    3    3    0    0 -0.12199540301E+00  0.32747796060E-01  0.24041510645E-01  0.13019915022E+00  0.20457956402E-01 0.  0.
         14    1    1    2    0    0 -0.39943779341E-02 -0.24069433580E-01 -0.52462177516E-03  0.24404260200E-01  0.00000000000E+00 0.  1.
     999901    1    3    3    0    0  0.12598978095E+00 -0.86783624799E-02 -0.23516888870E-01  0.88932658958E+00  0.88000000000E+00 0.  1.
        -11    1    4    4    0    0 -0.47579338645E-01  0.13821971655E-01 -0.60899887939E-03  0.49552723104E-01  0.51100000000E-03 0.  1.
         11    1    4    4    0    0 -0.74416064366E-01  0.18925824405E-01  0.24650509525E-01  0.80646427113E-01  0.51100000000E-03 0. -1.
</event>
<event>
 8    1  0.9952977E+004  0.1043930E+01  0.7957747E-01            NaN
         13   -1    0    0    0    0  0.00000000000E+00  0.00000000000E+00  0.74505805969E-08  0.10566000000E+00  0.10566000000E+00 0. -1.
     999900   -1    0    0    0    0 -0.00000000000E+00 -0.00000000000E+00 -0.74505805969E-08  0.93827000000E+00  0.93827000000E+00 0. -1.
     999902    2    1    2    0    0 -0.36120910433E-02  0.20425242882E-01 -0.38612141673E-02  0.10228314995E+01  0.10226138712E+01 0.  0.
     999903    2    3    3    0    0 -0.12350300714E+00  0.25520324118E-01 -0.40462963889E-01  0.13393359777E+00  0.19916763015E-01 0.  0.
         14    1    1    2    0    0  0.36120910433E-02 -0.20425242882E-01  0.38612141673E-02  0.21098500500E-01  0.00000000000E+00 0.  1.
     999901    1    3    3    0    0  0.11989091610E+00 -0.50950812365E-02  0.36601749722E-01  0.88889790173E+00  0.88000000000E+00 0. -1.
        -11    1    4    4    0    0 -0.37026199486E-01 -0.13522954193E-02 -0.13673864920E-01  0.39496884106E-01  0.51100000000E-03 0.  1.
         11    1    4    4    0    0 -0.86476807656E-01  0.26872619538E-01 -0.26789098969E-01  0.94436713665E-01  0.51100000000E-03 0. -1.
</event>
<event>
 7    1  0.9952977E+004  0.1043930E+01  0.7957747E-01            NaN
         13   -1    0    0    0    0  0.00000000000E+00  0.00000000000E+00  0.74505805969E-08  0.10566000000E+00  0.10566000000E+00 0. -1.
     999900   -1    0    0    0    0 -0.00000000000E+00 -0.00000000000E+00 -0.74505805969E-08  0.93827000000E+00  0.93827000000E+00 0.  1.
     999902    2    1    2    0    0 -0.20773697192E-01 -0.10429706697E-01 -0.54235687954E-02  0.10200607651E+01  0.10197814590E+01 0.  0.
         14    1    1    2    0    0  0.20773697192E-01  0.10429706697E-01  0.54235687954E-02  0.23869234912E-01  0.00000000000E+00 0. -1.
     999901    1    3    3    0    0  0.31824368663E-01  0.11101410689E-01  0.10589643821E+00  0.88698933894E+00  0.88000000000E+00 0. -1.
        -11    1    3    3    0    0 -0.27369963164E-01  0.11172476393E-01 -0.62359624080E-01  0.69013933004E-01  0.51100000000E-03 0.  1.
         11    1    3    3    0    0 -0.25228102690E-01 -0.32703593779E-01 -0.48960382923E-01  0.64057493148E-01  0.51100000000E-03 0. -1.
</event>
<event>
 8    1  0.1026685E+005  0.1043930E+01  0.7957747E-01            NaN
         13   -1    0    0    0    0  0.00000000000E+00  0.00000000000E+00  0.74505805969E-08  0.10566000000E+00  0.10566000000E+00 0.  1.
     999900   -1    0    0    0    0 -0.00000000000E+00 -0.00000000000E+00 -0.74505805969E-08  0.93827000000E+00  0.93827000000E+00 0.  1.
     999902    2    1    2    0    0 -0.14116001603E-01 -0.82456870629E-03 -0.18987878322E-01  0.10202555214E+01  0.10199808076E+01 0.  0.
     999903    2    3    3    0    0  0.18865039308E-01  0.73206124460E-01 -0.10656759042E+00  0.13220231432E+00  0.20143838204E-01 0.  0.
         14    1    1    2    0    0  0.14116001603E-01  0.82456870629E-03  0.18987878322E-01  0.23674478621E-01  0.00000000000E+00 0.  1.
     999901    1    3    3    0    0 -0.32981040911E-01 -0.74030693167E-01  0.87579712099E-01  0.88805320706E+00  0.88000000000E+00 0. -1.
        -11    1    4    4    0    0  0.20200889998E-01  0.38519827252E-01 -0.57729917657E-01  0.72283176203E-01  0.51100000000E-03 0.  1.
         11    1    4    4    0    0 -0.13358506900E-02  0.34686297208E-01 -0.48837672764E-01  0.59919138121E-01  0.51100000000E-03 0. -1.
</event>
<event>
 8    1  0.9952977E+004  0.1043930E+01  0.7957747E-01            NaN
         13   -1    0    0    0    0  0.00000000000E+00  0.00000000000E+00  0.74505805969E-08  0.10566000000E+00  0.10566000000E+00 0.  1.
     999900   -1    0    0    0    0 -0.00000000000E+00 -0.00000000000E+00 -0.74505805969E-08  0.93827000000E+00  0.93827000000E+00 0. -1.
     999902    2    1    2    0    0  0.22157693085E-01 -0.12820756407E-02 -0.86493584383E-02  0.10201094525E+01  0.10198312981E+01 0.  0.
     999903    2    3    3    0    0 -0.12384707145E+00  0.12055401616E-01  0.18896207371E-01  0.12755467114E+00  0.20729150088E-01 0.  0.
         14    1    1    2    0    0 -0.22157693085E-01  0.12820756407E-02  0.86493584383E-02  0.23820547478E-01  0.00000000000E+00 0.  1.
     999901    1    3    3    0    0  0.14600476453E+00 -0.13337477257E-01 -0.27545565809E-01  0.89255478138E+00  0.88000000000E+00 0.  1.
        -11    1    4    4    0    0 -0.96357274656E-01  0.15923719979E-01  0.20303829664E-01  0.99753675908E-01  0.51100000000E-03 0. -1.
         11    1    4    4    0    0 -0.27489796791E-01 -0.38683183630E-02 -0.14076222929E-02  0.27800995235E-01  0.51100000000E-03 0.  1.
</event>
<event>
 8    1  0.9952977E+004  0.1043930E+01  0.7957747E-01            NaN
         13   -1    0    0    0    0  0.00000000000E+00  0.00000000000E+00  0.74505805969E-08  0.10566000000E+00  0.10566000000E+00 0. -1.
     999900   -1    0    0    0    0 -0.00000000000E+00 -0.00000000000E+00 -0.74505805969E-08  0.93827000000E+00  0.93827000000E+00 0. -1.
     999902    2    1    2    0    0  0.29677290283E-02 -0.21452129621E-01  0.92751494799E-02  0.10203709321E+01  0.10200989214E+01 0.  0.
     999903    2    3    3    0    0 -0.99682330787E-01 -0.83540335858E-01 -0.11629352601E-01  0.13198532985E+00  0.19217977727E-01 0.  0.
         14    1    1    2    0    0 -0.29677290283E-02  0.21452129621E-01 -0.92751494799E-02  0.23559067866E-01  0.00000000000E+00 0.  1.
     999901    1    3    3    0    0  0.10265005982E+00  0.62088206238E-01  0.20904502080E-01  0.88838560228E+00  0.88000000000E+00 0. -1.
        -11    1    4    4    0    0 -0.46427652831E-01 -0.27948235157E-01 -0.47097625655E-03  0.54195144943E-01  0.51100000000E-03 0. -1.
         11    1    4    4    0    0 -0.53254677956E-01 -0.55592100701E-01 -0.11158376344E-01  0.77790184909E-01  0.51100000000E-03 0.  1.
</event>
<event>
 8    1  0.9952977E+004  0.1043930E+01  0.7957747E-01            NaN
         13   -1    0    0    0    0  0.00000000000E+00  0.00000000000E+00  0.74505805969E-08  0.10566000000E+00  0.10566000000E+00 0. -1.
     999900   -1    0    0    0    0 -0.00000000000E+00 -0.00000000000E+00 -0.74505805969E-08  0.93827000000E+00  0.93827000000E+00 0. -1.
     999902    2    1    2    0    0 -0.96047181127E-02 -0.20689698441E-01  0.73131295210E-02  0.10199759587E+01  0.10196946407E+01 0.  0.
     999903    2    3    3    0    0  0.69740801065E-01 -0.11145723419E-01  0.10820778052E+00  0.13061296785E+00  0.19047758964E-01 0.  0.
         14    1    1    2    0    0  0.96047181127E-02  0.20689698441E-01 -0.73131295210E-02  0.23954041308E-01  0.00000000000E+00 0.  1.
     999901    1    3    3    0    0 -0.79345519178E-01 -0.95439750215E-02 -0.10089465100E+00  0.88936299084E+00  0.88000000000E+00 0. -1.
        -11    1    4    4    0    0  0.75145860425E-02 -0.11034308028E-02  0.25571251883E-01  0.26680266243E-01  0.51100000000E-03 0. -1.
         11    1    4    4    0    0  0.62226215023E-01 -0.10042292616E-01  0.82636528642E-01  0.10393270161E+00  0.51100000000E-03 0.  1.
</event>
<event>
 8    1  0.9952977E+004  0.1043930E+01  0.7957747E-01            NaN
         13   -1    0    0    0    0  0.00000000000E+00  0.00000000000E+00  0.74505805969E-08  0.10566000000E+00  0.10566000000E+00 0.  1.
     999900   -1    0    0    0    0 -0.00000000000E+00 -0.00000000000E+00 -0.74505805969E-08  0.93827000000E+00  0.93827000000E+00 0. -1.
     999902    2    1    2    0    0 -0.55452974996E-02  0.23283263062E-01  0.37417147805E-02  0.10197047839E+01  0.10194169830E+01 0.  0.
     999903    2    3    3    0    0  0.51805570430E-01  0.23771875182E-01 -0.11500746696E+00  0.12987854869E+00  0.19819202193E-01 0.  0.
         14    1    1    2    0    0  0.55452974996E-02 -0.23283263062E-01 -0.37417147805E-02  0.24225216050E-01  0.00000000000E+00 0.  1.
     999901    1    3    3    0    0 -0.57350867930E-01 -0.48861211962E-03  0.11874918174E+00  0.88982623526E+00  0.88000000000E+00 0.  1.
        -11    1    4    4    0    0  0.19018094645E-01  0.18935326953E-01 -0.58560494985E-01  0.64419152623E-01  0.51100000000E-03 0.  1.
         11    1    4    4    0    0  0.32787475785E-01  0.48365482288E-02 -0.56446971976E-01  0.65459396066E-01  0.51100000000E-03 0. -1.
</event>
<event>
 8    1  0.9952977E+004  0.1043930E+01  0.7957747E-01            NaN
         13   -1    0    0    0    0  0.00000000000E+00  0.00000000000E+00  0.74505805969E-08  0.10566000000E+00  0.10566000000E+00 0. -1.
     999900   -1    0    0    0    0 -0.00000000000E+00 -0.00000000000E+00 -0.74505805969E-08  0.93827000000E+00  0.93827000000E+00 0.  1.
     999902    2    1    2    0    0  0.89198694392E-02 -0.17586114594E-01  0.14336496660E-01  0.10195502823E+01  0.10192587540E+01 0.  0.
     999903    2    3    3    0    0  0.12471316404E+00  0.23970919812E-03 -0.32849605149E-01  0.13053263612E+00  0.20155440629E-01 0.  0.
         14    1    1    2    0    0 -0.89198694392E-02  0.17586114594E-01 -0.14336496660E-01  0.24379717673E-01  0.00000000000E+00 0.  1.
     999901    1    3    3    0    0 -0.11579329460E+00 -0.17825823792E-01  0.47186101809E-01  0.88901764621E+00  0.88000000000E+00 0. -1.
        -11    1    4    4    0    0  0.84504586953E-01  0.61710079575E-02 -0.14612404801E-01  0.85981916997E-01  0.51100000000E-03 0.  1.
         11    1    4    4    0    0  0.40208577090E-01 -0.59312987594E-02 -0.18237200348E-01  0.44550719120E-01  0.51100000000E-03 0. -1.
</event>
<event>
 8    1  0.9952977E+004  0.1043930E+01  0.7957747E-01            NaN
         13   -1    0    0    0    0  0.00000000000E+00  0.00000000000E+00  0.74505805969E-08  0.10566000000E+00  0.10566000000E+00 0.  1.
     999900   -1    0    0    0    0 -0.00000000000E+00 -0.00000000000E+00 -0.74505805969E-08  0.93827000000E+00  0.93827000000E+00 0.  1.
     999902    2    1    2    0    0  0.49719516444E-02 -0.84349513591E-02  0.19983117625E-01  0.10216770519E+01  0.10214346796E+01 0.  0.
     999903    2    3    3    0    0 -0.79612649921E-01 -0.75418290330E-01  0.73760575394E-01  0.13345785743E+00  0.18554909956E-01 0.  0.
         14    1    1    2    0    0 -0.49719516444E-02  0.84349513591E-02 -0.19983117625E-01  0.22252948066E-01  0.00000000000E+00 0. -1.
     999901    1    3    3    0    0  0.84584601566E-01  0.66983338971E-01 -0.53777457769E-01  0.88821919450E+00  0.88000000000E+00 0.  1.
        -11    1    4    4    0    0 -0.38542310999E-01 -0.48895782083E-01  0.39001601658E-01  0.73468995471E-01  0.51100000000E-03 0. -1.
         11    1    4    4    0    0 -0.41070338922E-01 -0.26522508247E-01  0.34758973737E-01  0.59988861959E-01  0.51100000000E-03 0.  1.
</event>
<event>
 8    1  0.9952977E+004  0.1043930E+01  0.7957747E-01            NaN
         13   -1    0    0    0    0  0.00000000000E+00  0.00000000000E+00  0.74505805969E-08  0.10566000000E+00  0.10566000000E+00 0.  1.
     999900   -1    0    0    0    0 -0.00000000000E+00 -0.00000000000E+00 -0.74505805969E-08  0.93827000000E+00  0.93827000000E+00 0.  1.
     999902    2    1    2    0    0  0.14866365352E-01  0.10368081149E-01  0.15208551197E-01  0.10202697812E+01  0.10199954022E+01 0.  0.
     999903    2    3    3    0    0 -0.78989931007E-01  0.19220089555E-01 -0.97046662435E-01  0.12814389577E+00  0.19848987127E-01 0.  0.
         14    1    1    2    0    0 -0.14866365352E-01 -0.10368081149E-01 -0.15208551197E-01  0.23660218828E-01  0.00000000000E+00 0. -1.
     999901    1    3    3    0    0  0.93856296359E-01 -0.88520084066E-02  0.11225521363E+00  0.89212588540E+00  0.88000000000E+00 0.  1.
        -11    1    4    4    0    0 -0.27370882037E-01  0.15692100048E-01 -0.30901963959E-01  0.44165593904E-01  0.51100000000E-03 0.  1.
         11    1    4    4    0    0 -0.51619048970E-01  0.35279895075E-02 -0.66144698476E-01  0.83978301864E-01  0.51100000000E-03 0. -1.
</event>
<event>
 8    1  0.9952977E+004  0.1043930E+01  0.7957747E-01            NaN
         13   -1    0    0    0    0  0.00000000000E+00  0.00000000000E+00  0.74505805969E-08  0.10566000000E+00  0.10566000000E+00 0. -1.
     999900   -1    0    0    0    0 -0.00000000000E+00 -0.00000000000E+00 -0.74505805969E-08  0.93827000000E+00  0.93827000000E+00 0. -1.
     999902    2    1    2    0    0 -0.12234922104E-01 -0.21303519719E-01 -0.12876080969E-02  0.10193293657E+01  0.10190324650E+01 0.  0.
     999903    2    3    3    0    0  0.95401832274E-01 -0.79677995562E-01  0.33159282015E-01  0.13018379917E+00  0.19954723835E-01 0.  0.
         14    1    1    2    0    0  0.12234922104E-01  0.21303519719E-01  0.12876080969E-02  0.24600634259E-01  0.00000000000E+00 0.  1.
     999901    1    3    3    0    0 -0.10763675438E+00  0.58374475843E-01 -0.34446890112E-01  0.88914556658E+00  0.88000000000E+00 0. -1.
        -11    1    4    4    0    0  0.74087806714E-01 -0.67446438923E-01  0.19525342806E-01  0.10207607633E+00  0.51100000000E-03 0.  1.
         11    1    4    4    0    0  0.21314025560E-01 -0.12231556640E-01  0.13633939210E-01  0.28107722832E-01  0.51100000000E-03 0. -1.
</event>
<event>
 8    1  0.9952977E+004  0.1043930E+01  0.7957747E-01            NaN
         13   -1    0    0    0    0  0.00000000000E+00  0.00000000000E+00  0.74505805969E-08  0.10566000000E+00  0.10566000000E+00 0.  1.
     999900   -1    0    0    0    0 -0.00000000000E+00 -0.00000000000E+00 -0.74505805969E-08  0.93827000000E+00  0.93827000000E+00 0. -1.
     999902    2    1    2    0    0 -0.47652847153E-02 -0.10347221869E-01 -0.21062884646E-01  0.10199838511E+01  0.10197027206E+01 0.  0.
     999903    2    3    3    0    0  0.63088526833E-01  0.28509049746E-01 -0.11039669152E+00  0.13201173516E+00  0.21136238714E-01 0.  0.
         14    1    1    2    0    0  0.47652847153E-02  0.10347221869E-01  0.21062884646E-01  0.23946148927E-01  0.00000000000E+00 0.  1.
     999901    1    3    3    0    0 -0.67853811548E-01 -0.38856271615E-01  0.89333806872E-01  0.88797211591E+00  0.88000000000E+00 0.  1.
        -11    1    4    4    0    0  0.60209066066E-01  0.26375936333E-01 -0.90877342468E-01  0.11215959232E+00  0.51100000000E-03 0. -1.
         11    1    4    4    0    0  0.28794607670E-02  0.21331134122E-02 -0.19519349050E-01  0.19852142844E-01  0.51100000000E-03 0.  1.
</event>
<event>
 8    1  0.9952977E+004  0.1043930E+01  0.7957747E-01            NaN
         13   -1    0    0    0    0  0.00000000000E+00  0.00000000000E+00  0.74505805969E-08  0.10566000000E+00  0.10566000000E+00 0. -1.
     999900   -1    0    0    0    0 -0.00000000000E+00 -0.00000000000E+00 -0.74505805969E-08  0.93827000000E+00  0.93827000000E+00 0.  1.
     999902    2    1    2    0    0 -0.20704478102E-01 -0.34711300824E-02 -0.10269511251E-01  0.10205593556E+01  0.10202917285E+01 0.  0.
     999903    2    3    3    0    0  0.12282623693E+00  0.29075105913E-01  0.85801474045E-02  0.12813813598E+00  0.20349857459E-01 0.  0.
         14    1    1    2    0    0  0.20704478102E-01  0.34711300824E-02  0.10269511251E-01  0.23370644383E-01  0.00000000000E+00 0. -1.
     999901    1    3    3    0    0 -0.14353071504E+00 -0.32546235995E-01 -0.18849658656E-01  0.89242121964E+00  0.88000000000E+00 0. -1.
        -11    1    4    4    0    0  0.10679557745E+00  0.31889669242E-01  0.57037045959E-02  0.11160214933E+00  0.51100000000E-03 0.  1.
         11    1    4    4    0    0  0.16030659485E-01 -0.28145633285E-02  0.28764428086E-02  0.16535986650E-01  0.51100000000E-03 0. -1.
</event>
<event>
 8    1  0.9952977E+004  0.1043930E+01  0.7957747E-01            NaN
         13   -1    0    0    0    0  0.00000000000E+00  0.00000000000E+00  0.74505805969E-08  0.10566000000E+00  0.10566000000E+00 0.  1.
     999900   -1    0    0    0    0 -0.00000000000E+00 -0.00000000000E+00 -0.74505805969E-08  0.93827000000E+00  0.93827000000E+00 0. -1.
     999902    2    1    2    0    0  0.23394439246E-01  0.42791435045E-02  0.46266965793E-02  0.10197015626E+01  0.10194136842E+01 0.  0.
     999903    2    3    3    0    0 -0.96263706588E-02 -0.11035923987E+00 -0.63263480658E-01  0.12906055245E+00  0.19558358214E-01 0.  0.
         14    1    1    2    0    0 -0.23394439246E-01 -0.42791435045E-02 -0.46266965793E-02  0.24228437383E-01  0.00000000000E+00 0. -1.
     999901    1    3    3    0    0  0.33020809905E-01  0.11463838338E+00  0.67890177237E-01  0.89064101017E+00  0.88000000000E+00 0.  1.
        -11    1    4    4    0    0  0.21971748453E-02 -0.74886794796E-01 -0.45571680582E-01  0.87692068080E-01  0.51100000000E-03 0.  1.
         11    1    4    4    0    0 -0.11823545504E-01 -0.35472445076E-01 -0.17691800076E-01  0.41368484367E-01  0.51100000000E-03 0. -1.
</event>
<event>
 8    1  0.9952977E+004  0.1043930E+01  0.7957747E-01            NaN
         13   -1    0    0    0    0  0.00000000000E+00  0.00000000000E+00  0.74505805969E-08  0.10566000000E+00  0.10566000000E+00 0.  1.
     999900   -1    0    0    0    0 -0.00000000000E+00 -0.00000000000E+00 -0.74505805969E-08  0.93827000000E+00  0.93827000000E+00 0.  1.
     999902    2    1    2    0    0 -0.20063497356E-01 -0.10176863250E-01 -0.76693084542E-02  0.10201617278E+01  0.10198848073E+01 0.  0.
     999903    2    3    3    0    0 -0.55799479746E-01  0.11712445478E+00 -0.12075069974E-02  0.13026036197E+00  0.11601033580E-01 0.  0.
         14    1    1    2    0    0  0.20063497356E-01  0.10176863250E-01  0.76693084542E-02  0.23768272212E-01  0.00000000000E+00 0. -1.
     999901    1    3    3    0    0  0.35735982391E-01 -0.12730131803E+00 -0.64618014568E-02  0.88990136582E+00  0.88000000000E+00 0.  1.
        -11    1    4    4    0    0 -0.19697150844E-01  0.49053378187E-01 -0.50996074199E-02  0.53108179971E-01  0.51100000000E-03 0. -1.
         11    1    4    4    0    0 -0.36102328903E-01  0.68071076591E-01  0.38921004225E-02  0.77152181998E-01  0.51100000000E-03 0.  1.
</event>
<event>
 8    1  0.9952977E+004  0.1043930E+01  0.7957747E-01            NaN
         13   -1    0    0    0    0  0.00000000000E+00  0.00000000000E+00  0.74505805969E-08  0.10566000000E+00  0.10566000000E+00 0. -1.
     999900   -1    0    0    0    0 -0.00000000000E+00 -0.00000000000E+00 -0.74505805969E-08  0.93827000000E+00  0.93827000000E+00 0. -1.
     999902    2    1    2    0    0  0.83478959380E-02 -0.22434942183E-01  0.58789634022E-02  0.10192809390E+01  0.10189828538E+01 0.  0.
     999903    2    3    3    0    0  0.58235843506E-01  0.21141225341E-01  0.11286587031E+00  0.13032993476E+00  0.20219355491E-01 0.  0.
         14    1    1    2    0    0 -0.83478959380E-02  0.22434942183E-01 -0.58789634022E-02  0.24649060997E-01  0.00000000000E+00 0.  1.
     999901    1    3    3    0    0 -0.49887947568E-01 -0.43576167523E-01 -0.10698690691E+00  0.88895100424E+00  0.88000000000E+00 0. -1.
        -11    1    4    4    0    0  0.48270289013E-01  0.25123201685E-01  0.94975419405E-01  0.10946135152E+00  0.51100000000E-03 0. -1.
         11    1    4    4    0    0  0.99655544926E-02 -0.39819763449E-02  0.17890450908E-01  0.20868583244E-01  0.51100000000E-03 0.  1.
</event>
<event>
 8    1  0.9952977E+004  0.1043930E+01  0.7957747E-01            NaN
         13   -1    0    0    0    0  0.00000000000E+00  0.00000000000E+00  0.74505805969E-08  0.10566000000E+00  0.10566000000E+00 0. -1.
     999900   -1    0    0    0    0 -0.00000000000E+00 -0.00000000000E+00 -0.74505805969E-08  0.93827000000E+00  0.93827000000E+00 0.  1.
     999902    2    1    2    0    0 -0.23674842119E-02  0.16500560832E-02 -0.23959896611E-01  0.10197969457E+01  0.10195113565E+01 0.  0.
     999903    2    3    3    0    0 -0.10219760979E+00  0.75707048963E-01 -0.25505875188E-01  0.13106026799E+00  0.18717250556E-01 0.  0.
         14    1    1    2    0    0  0.23674842119E-02 -0.16500560832E-02  0.23959896611E-01  0.24133054348E-01  0.00000000000E+00 0. -1.
     999901    1    3    3    0    0  0.99830125575E-01 -0.74056992880E-01  0.15459785767E-02  0.88873667766E+00  0.88000000000E+00 0. -1.
        -11    1    4    4    0    0 -0.68823415214E-01  0.45353789538E-01 -0.85650178510E-02  0.82868868455E-01  0.51100000000E-03 0. -1.
         11    1    4    4    0    0 -0.33374194572E-01  0.30353259426E-01 -0.16940857337E-01  0.48191399538E-01  0.51100000000E-03 0.  1.
</event>
<event>
 8    1  0.9952977E+004  0.1043930E+01  0.7957747E-01            NaN
         13   -1    0    0    0    0  0.00000000000E+00  0.00000000000E+00  0.74505805969E-08  0.10566000000E+00  0.10566000000E+00 0.  1.
     999900   -1    0    0    0    0 -0.00000000000E+00 -0.00000000000E+00 -0.74505805969E-08  0.93827000000E+00  0.93827000000E+00 0. -1.
     999902    2    1    2    0    0  0.40095458288E-03  0.22579287268E-01  0.82478971457E-02  0.10198881035E+01  0.10196046935E+01 0.  0.
     999903    2    3    3    0    0 -0.49569063022E-01  0.35575779240E-01 -0.11308843744E+00  0.13006316707E+00  0.20117272909E-01 0.  0.
         14    1    1    2    0    0 -0.40095458288E-03 -0.22579287268E-01 -0.82478971457E-02  0.24041896461E-01  0.00000000000E+00 0. -1.
     999901    1    3    3    0    0  0.49970017605E-01 -0.12996491972E-01  0.12133633459E+00  0.88982493646E+00  0.88000000000E+00 0.  1.
        -11    1    4    4    0    0 -0.11462783236E-01  0.16372576788E-01 -0.23670703460E-01  0.30984189411E-01  0.51100000000E-03 0. -1.
         11    1    4    4    0    0 -0.38106279786E-01  0.19203202452E-01 -0.89417733981E-01  0.99078977664E-01  0.51100000000E-03 0.  1.
</event>
<event>
 8    1  0.9952977E+004  0.1043930E+01  0.7957747E-01            NaN
         13   -1    0    0    0    0  0.00000000000E+00  0.00000000000E+00  0.74505805969E-08  0.10566000000E+00  0.10566000000E+00 0. -1.
     999900   -1    0    0    0    0 -0.00000000000E+00 -0.00000000000E+00 -0.74505805969E-08  0.93827000000E+00  0.93827000000E+00 0.  1.
     999902    2    1    2    0    0  0.18421129339E-01  0.22305959257E-02 -0.13083405446E-01  0.10212256158E+01  0.10209731971E+01 0.  0.
     999903    2    3    3    0    0  0.10898425610E+00 -0.62551752465E-01  0.38333329596E-01  0.13272006531E+00  0.18838305737E-01 0.  0.
         14    1    1    2    0    0 -0.18421129339E-01 -0.22305959257E-02  0.13083405446E-01  0.22704384210E-01  0.00000000000E+00 0.  1.
     999901    1    3    3    0    0 -0.90563126763E-01  0.64782348391E-01 -0.51416735042E-01  0.88850555048E+00  0.88000000000E+00 0.  1.
        -11    1    4    4    0    0  0.99643726547E-01 -0.50719829114E-01  0.35961784393E-01  0.11745162563E+00  0.51100000000E-03 0.  1.
         11    1    4    4    0    0  0.93405295558E-02 -0.11831923351E-01  0.23715452032E-02  0.15268439679E-01  0.51100000000E-03 0. -1.
</event>
<event>
 8    1  0.9952977E+004  0.1043930E+01  0.7957747E-01            NaN
         13   -1    0    0    0    0  0.00000000000E+00  0.00000000000E+00  0.74505805969E-08  0.10566000000E+00  0.10566000000E+00 0. -1.
     999900   -1    0    0    0    0 -0.00000000000E+00 -0.00000000000E+00 -0.74505805969E-08  0.93827000000E+00  0.93827000000E+00 0. -1.
     999902    2    1    2    0    0 -0.82548008039E-02  0.18820351626E-01 -0.10627004805E-01  0.10207938680E+01  0.10205316460E+01 0.  0.
     999903    2    3    3    0    0  0.69192850579E-01 -0.87152294732E-01 -0.63093429333E-01  0.12951329145E+00  0.20242005539E-01 0.  0.
         14    1    1    2    0    0  0.82548008039E-02 -0.18820351626E-01  0.10627004805E-01  0.23136131975E-01  0.00000000000E+00 0. -1.
     999901    1    3    3    0    0 -0.77447651383E-01  0.10597264636E+00  0.52466424529E-01  0.89128057658E+00  0.88000000000E+00 0.  1.
        -11    1    4    4    0    0  0.64634030799E-01 -0.70353571710E-01 -0.50861791614E-01  0.10823292455E+00  0.51100000000E-03 0. -1.
         11    1    4    4    0    0  0.45588197802E-02 -0.16798723022E-01 -0.12231637720E-01  0.21280366897E-01  0.51100000000E-03 0.  1.
</event>
<event>
 8    1  0.9952977E+004  0.1043930E+01  0.7957747E-01            NaN
         13   -1    0    0    0    0  0.00000000000E+00  0.00000000000E+00  0.74505805969E-08  0.10566000000E+00  0.10566000000E+00 0. -1.
     999900   -1    0    0    0    0 -0.00000000000E+00 -0.00000000000E+00 -0.74505805969E-08  0.93827000000E+00  0.93827000000E+00 0. -1.
     999902    2    1    2    0    0 -0.16844273816E-01  0.16074669273E-01 -0.42455331716E-02  0.10202625307E+01  0.10199879815E+01 0.  0.
     999903    2    3    3    0    0  0.50114000928E-01 -0.10481124240E+00 -0.50558451539E-01  0.12827503042E+00  0.20037883697E-01 0.  0.
         14    1    1    2    0    0  0.16844273816E-01 -0.16074669273E-01  0.42455331716E-02  0.23667469331E-01  0.00000000000E+00 0.  1.
     999901    1    3    3    0    0 -0.66958274744E-01  0.12088591168E+00  0.46312918368E-01  0.89198750025E+00  0.88000000000E+00 0.  1.
        -11    1    4    4    0    0  0.18517332913E-01 -0.37134072174E-01 -0.78457073287E-02  0.42233247317E-01  0.51100000000E-03 0.  1.
         11    1    4    4    0    0  0.31596668015E-01 -0.67677170230E-01 -0.42712744211E-01  0.86041783100E-01  0.51100000000E-03 0. -1.
</event>
<event>
 8    1  0.9952977E+004  0.1043930E+01  0.7957747E-01            NaN
         13   -1    0    0    0    0  0.00000000000E+00  0.00000000000E+00  0.74505805969E-08  0.10566000000E+00  0.10566000000E+00 0.  1.
     999900   -1    0    0    0    0 -0.00000000000E+00 -0.00000000000E+00 -0.74505805969E-08  0.93827000000E+00  0.93827000000E+00 0. -1.
     999902    2    1    2    0    0 -0.98192448535E-02  0.13247765482E-01  0.15251066690E-01  0.10214685687E+01  0.10212215827E+01 0.  0.
     999903    2    3    3    0    0  0.11614288681E+00 -0.23014446787E-01  0.52380719658E-01  0.13098554374E+00  0.19865496758E-01 0.  0.
         14    1    1    2    0    0  0.98192448535E-02 -0.13247765482E-01 -0.15251066690E-01  0.22461431275E-01  0.00000000000E+00 0.  1.
     999901    1    3    3    0    0 -0.12596213166E+00  0.36262212269E-01 -0.37129652968E-01  0.89048302498E+00  0.88000000000E+00 0.  1.
        -11    1    4    4    0    0  0.14617999561E-01 -0.29261448330E-03  0.13539985111E-01  0.19933987363E-01  0.51100000000E-03 0. -1.
         11    1    4    4    0    0  0.10152488724E+00 -0.22721832304E-01  0.38840734547E-01  0.11105155638E+00  0.51100000000E-03 0.  1.
</event>
<event>
 8    1  0.9952977E+004  0.1043930E+01  0.7957747E-01            NaN
         13   -1    0    0    0    0  0.00000000000E+00  0.00000000000E+00  0.74505805969E-08  0.10566000000E+00  0.10566000000E+00 0. -1.
     999900   -1    0    0    0    0 -0.00000000000E+00 -0.00000000000E+00 -0.74505805969E-08  0.93827000000E+00  0.93827000000E+00 0. -1.
     999902    2    1    2    0    0  0.19975445625E-01 -0.11313548232E-01 -0.71374104340E-02  0.10198892548E+01  0.10196058722E+01 0.  0.
     999903    2    3    3    0    0  0.74455240231E-01 -0.94217220266E-01 -0.53749526810E-01  0.13308952756E+00  0.20083409118E-01 0.  0.
         14    1    1    2    0    0 -0.19975445625E-01  0.11313548232E-01  0.71374104340E-02  0.24040745189E-01  0.00000000000E+00 0.  1.
     999901    1    3    3    0    0 -0.54479794605E-01  0.82903672034E-01  0.46612116376E-01  0.88679972725E+00  0.88000000000E+00 0.  1.
        -11    1    4    4    0    0  0.40336154369E-01 -0.43420710960E-01 -0.36121737241E-01  0.69407524894E-01  0.51100000000E-03 0. -1.
         11    1    4    4    0    0  0.34119085862E-01 -0.50796509306E-01 -0.17627789569E-01  0.63682002668E-01  0.51100000000E-03 0.  1.
</event>
<event>
 8    1  0.9952977E+004  0.1043930E+01  0.7957747E-01            NaN
         13   -1    0    0    0    0  0.00000000000E+00  0.00000000000E+00  0.74505805969E-08  0.10566000000E+00  0.10566000000E+00 0. -1.
     999900   -1    0    0    0    0 -0.00000000000E+00 -0.00000000000E+00 -0.74505805969E-08  0.93827000000E+00  0.93827000000E+00 0. -1.
     999902    2    1    2    0    0  0.20260764442E-01 -0.10687980541E-01 -0.35650665806E-02  0.10207472218E+01  0.10204839292E+01 0.  0.
     999903    2    3    3    0    0  0.35782275128E-01 -0.92836033114E-01 -0.85572788775E-01  0.13298909805E+00  0.21552210209E-01 0.  0.
         14    1    1    2    0    0 -0.20260764442E-01  0.10687980541E-01  0.35650665806E-02  0.23182778168E-01  0.00000000000E+00 0. -1.
     999901    1    3    3    0    0 -0.15521510685E-01  0.82148052573E-01  0.82007722194E-01  0.88775812378E+00  0.88000000000E+00 0.  1.
        -11    1    4    4    0    0  0.42500470257E-02 -0.37799292418E-01 -0.26983161253E-01  0.46639055728E-01  0.51100000000E-03 0. -1.
         11    1    4    4    0    0  0.31532228102E-01 -0.55036740695E-01 -0.58589627522E-01  0.86350042325E-01  0.51100000000E-03 0.  1.
</event>
<event>
 8    1  0.9952977E+004  0.1043930E+01  0.7957747E-01            NaN
         13   -1    0    0    0    0  0.00000000000E+00  0.00000000000E+00  0.74505805969E-08  0.10566000000E+00  0.10566000000E+00 0. -1.
     999900   -1    0    0    0    0 -0.00000000000E+00 -0.00000000000E+00 -0.74505805969E-08  0.93827000000E+00  0.93827000000E+00 0. -1.
     999902    2    1    2    0    0 -0.42657616269E-02 -0.18078702297E-01 -0.14750370847E-01  0.10202106063E+01  0.10199348369E+01 0.  0.
     999903    2    3    3    0    0 -0.10694358337E+00  0.69929752083E-01 -0.92660682798E-02  0.12986331408E+00  0.21249001722E-01 0.  0.
         14    1    1    2    0    0  0.42657616269E-02  0.18078702297E-01  0.14750370847E-01  0.23719393734E-01  0.00000000000E+00 0. -1.
     999901    1    3    3    0    0  0.10267782174E+00 -0.88008454380E-01 -0.54843025674E-02  0.89034729218E+00  0.88000000000E+00 0. -1.
        -11    1    4    4    0    0 -0.32899750124E-01  0.21680329619E-01 -0.12751612482E-01  0.41416119960E-01  0.51100000000E-03 0.  1.
         11    1    4    4    0    0 -0.74043833241E-01  0.48249422464E-01  0.34855442021E-02  0.88447194125E-01  0.51100000000E-03 0. -1.
</event>
<event>
 8    1  0.9952977E+004  0.1043930E+01  0.7957747E-01            NaN
         13   -1    0    0    0    0  0.00000000000E+00  0.00000000000E+00  0.74505805969E-08  0.10566000000E+00  0.10566000000E+00 0.  1.
     999900   -1    0    0    0    0 -0.00000000000E+00 -0.00000000000E+00 -0.74505805969E-08  0.93827000000E+00  0.93827000000E+00 0. -1.
     999902    2    1    2    0    0  0.15475326575E-01  0.45865149724E-02 -0.15894281240E-01  0.10212771850E+01  0.10210259245E+01 0.  0.
     999903    2    3    3    0    0 -0.68038582742E-01 -0.63316455782E-01  0.86702042731E-01  0.12880231577E+00  0.20846343049E-01 0.  0.
         14    1    1    2    0    0 -0.15475326575E-01 -0.45865149724E-02  0.15894281240E-01  0.22652815020E-01  0.00000000000E+00 0.  1.
     999901    1    3    3    0    0  0.83513909317E-01  0.67902970754E-01 -0.10259632397E+00  0.89247486921E+00  0.88000000000E+00 0. -1.
        -11    1    4    4    0    0 -0.66783063722E-01 -0.58568677129E-01  0.75571594852E-01  0.11662587453E+00  0.51100000000E-03 0.  1.
         11    1    4    4    0    0 -0.12555190206E-02 -0.47477786528E-02  0.11130447879E-01  0.12176441234E-01  0.51100000000E-03 0. -1.
</event>
<event>
 8    1  0.9952977E+004  0.1043930E+01  0.7957747E-01            NaN
         13   -1    0    0    0    0  0.00000000000E+00  0.00000000000E+00  0.74505805969E-08  0.10566000000E+00  0.10566000000E+00 0. -1.
     999900   -1    0    0    0    0 -0.00000000000E+00 -0.00000000000E+00 -0.74505805969E-08  0.93827000000E+00  0.93827000000E+00 0. -1.
     999902    2    1    2    0    0  0.19861203170E-01 -0.14316754439E-01  0.16138769479E-01  0.10146060042E+01  0.10141821567E+01 0.  0.
     999903    2    3    3    0    0  0.39146453029E-01 -0.75050222859E-01  0.94966470925E-01  0.12878757949E+00  0.20065624721E-01 0.  0.
         14    1    1    2    0    0 -0.19861203170E-01  0.14316754439E-01 -0.16138769479E-01  0.29323995794E-01  0.00000000000E+00 0.  1.
     999901    1    3    3    0    0 -0.19285249859E-01  0.60733468420E-01 -0.78827701446E-01  0.88581842471E+00  0.88000000000E+00 0. -1.
        -11    1    4    4    0    0  0.98019272993E-02 -0.10209977871E-01  0.75119527002E-02  0.16031593224E-01  0.51100000000E-03 0. -1.
         11    1    4    4    0    0  0.29344525729E-01 -0.64840244987E-01  0.87454518225E-01  0.11275598627E+00  0.51100000000E-03 0.  1.
</event>
<event>
 8    1  0.9952977E+004  0.1043930E+01  0.7957747E-01            NaN
         13   -1    0    0    0    0  0.00000000000E+00  0.00000000000E+00  0.74505805969E-08  0.10566000000E+00  0.10566000000E+00 0. -1.
     999900   -1    0    0    0    0 -0.00000000000E+00 -0.00000000000E+00 -0.74505805969E-08  0.93827000000E+00  0.93827000000E+00 0. -1.
     999902    2    1    2    0    0 -0.20790511399E-02  0.21202421652E-01 -0.10418180169E-01  0.10202149496E+01  0.10199392824E+01 0.  0.
     999903    2    3    3    0    0 -0.82261042192E-01  0.98211916237E-01  0.26434077796E-01  0.13245501422E+00  0.20811313500E-01 0.  0.
         14    1    1    2    0    0  0.20790511399E-02 -0.21202421652E-01  0.10418180169E-01  0.23715050402E-01  0.00000000000E+00 0.  1.
     999901    1    3    3    0    0  0.80181991052E-01 -0.77009494585E-01 -0.36852257965E-01  0.88775993538E+00  0.88000000000E+00 0.  1.
        -11    1    4    4    0    0 -0.71886621555E-01  0.92925731450E-01  0.27769483647E-01  0.12072399624E+00  0.51100000000E-03 0. -1.
         11    1    4    4    0    0 -0.10374420638E-01  0.52861847869E-02 -0.13354058507E-02  0.11731017984E-01  0.51100000000E-03 0.  1.
</event>
<event>
 8    1  0.9952977E+004  0.1043930E+01  0.7957747E-01            NaN
         13   -1    0    0    0    0  0.00000000000E+00  0.00000000000E+00  0.74505805969E-08  0.10566000000E+00  0.10566000000E+00 0. -1.
     999900   -1    0    0    0    0 -0.00000000000E+00 -0.00000000000E+00 -0.74505805969E-08  0.93827000000E+00  0.93827000000E+00 0.  1.
     999902    2    1    2    0    0 -0.13939112117E-01  0.25135247449E-02  0.17572413710E-01  0.10213599673E+01  0.10211105603E+01 0.  0.
     999903    2    3    3    0    0  0.10912327737E-03  0.23813127089E-01 -0.12557174062E+00  0.12942876203E+00  0.20407485633E-01 0.  0.
         14    1    1    2    0    0  0.13939112117E-01 -0.25135247449E-02 -0.17572413710E-01  0.22570032717E-01  0.00000000000E+00 0.  1.
     999901    1    3    3    0    0 -0.14048235394E-01 -0.21299602344E-01  0.14314415433E+00  0.89193120525E+00  0.88000000000E+00 0. -1.
        -11    1    4    4    0    0  0.19786482731E-02  0.15945254578E-01 -0.11495225181E+00  0.11607087279E+00  0.51100000000E-03 0. -1.
         11    1    4    4    0    0 -0.18695249958E-02  0.78678725108E-02 -0.10619488812E-01  0.13357889249E-01  0.51100000000E-03 0.  1.
</event>
<event>
 8    1  0.9952977E+004  0.1043930E+01  0.7957747E-01            NaN
         13   -1    0    0    0    0  0.00000000000E+00  0.00000000000E+00  0.74505805969E-08  0.10566000000E+00  0.10566000000E+00 0. -1.
     999900   -1    0    0    0    0 -0.00000000000E+00 -0.00000000000E+00 -0.74505805969E-08  0.93827000000E+00  0.93827000000E+00 0.  1.
     999902    2    1    2    0    0  0.15392120879E-01 -0.12470120698E-02  0.17379894668E-01  0.10206806309E+01  0.10204158060E+01 0.  0.
     999903    2    3    3    0    0 -0.93906622443E-01 -0.83743927865E-01 -0.22107169701E-01  0.12921488022E+00  0.19397399959E-01 0.  0.
         14    1    1    2    0    0 -0.15392120879E-01  0.12470120698E-02 -0.17379894668E-01  0.23249369086E-01  0.00000000000E+00 0.  1.
     999901    1    3    3    0    0  0.10929874332E+00  0.82496915795E-01  0.39487064369E-01  0.89146575069E+00  0.88000000000E+00 0.  1.
        -11    1    4    4    0    0 -0.63302416593E-01 -0.48812097665E-01 -0.64320971098E-02  0.80196320484E-01  0.51100000000E-03 0. -1.
         11    1    4    4    0    0 -0.30604205850E-01 -0.34931830201E-01 -0.15675072591E-01  0.49018559736E-01  0.51100000000E-03 0.  1.
</event>
<event>
 8    1  0.9952977E+004  0.1043930E+01  0.7957747E-01            NaN
         13   -1    0    0    0    0  0.00000000000E+00  0.00000000000E+00  0.74505805969E-08  0.10566000000E+00  0.10566000000E+00 0.  1.
     999900   -1    0    0    0    0 -0.00000000000E+00 -0.00000000000E+00 -0.74505805969E-08  0.93827000000E+00  0.93827000000E+00 0.  1.
     999902    2    1    2    0    0 -0.18755205218E-01  0.12887385845E-01 -0.39203515831E-02  0.10208386251E+01  0.10205774282E+01 0.  0.
     999903    2    3    3    0    0  0.73515148445E-01  0.10406339986E+00  0.22290707441E-01  0.13094317998E+00  0.20385595450E-01 0.  0.
         14    1    1    2    0    0  0.18755205218E-01 -0.12887385845E-01  0.39203515831E-02  0.23091374867E-01  0.00000000000E+00 0.  1.
     999901    1    3    3    0    0 -0.92270353663E-01 -0.91176014018E-01 -0.26211059024E-01  0.88989544516E+00  0.88000000000E+00 0.  1.
        -11    1    4    4    0    0  0.19073696861E-01  0.18476951725E-01 -0.20127874589E-02  0.26636743258E-01  0.51100000000E-03 0.  1.
         11    1    4    4    0    0  0.54441451584E-01  0.85586448138E-01  0.24303494900E-01  0.10430643672E+00  0.51100000000E-03 0. -1.
</event>
<event>
 8    1  0.9952977E+004  0.1043930E+01  0.7957747E-01            NaN
         13   -1    0    0    0    0  0.00000000000E+00  0.00000000000E+00  0.74505805969E-08  0.10566000000E+00  0.10566000000E+00 0. -1.
     999900   -1    0    0    0    0 -0.00000000000E+00 -0.00000000000E+00 -0.74505805969E-08  0.93827000000E+00  0.93827000000E+00 0.  1.
     999902    2    1    2    0    0 -0.14444076889E-01 -0.19393773967E-01  0.56887897047E-02  0.10190882578E+01  0.10187854362E+01 0.  0.
     999903    2    3    3    0    0  0.20767957946E-01  0.10023741370E+00 -0.72346801807E-01  0.12687692524E+00  0.19617523905E-01 0.  0.
         14    1    1    2    0    0  0.14444076889E-01  0.19393773967E-01 -0.56887897047E-02  0.24841742172E-01  0.00000000000E+00 0. -1.
     999901    1    3    3    0    0 -0.35212034834E-01 -0.11963118766E+00  0.78035591512E-01  0.89221133259E+00  0.88000000000E+00 0. -1.
        -11    1    4    4    0    0  0.10177546750E-01  0.36632663467E-01 -0.38253428702E-01  0.53936262561E-01  0.51100000000E-03 0. -1.
         11    1    4    4    0    0  0.10590411196E-01  0.63604750229E-01 -0.34093373105E-01  0.72940662677E-01  0.51100000000E-03 0.  1.
</event>
<event>
 8    1  0.9952977E+004  0.1043930E+01  0.7957747E-01            NaN
         13   -1    0    0    0    0  0.00000000000E+00  0.00000000000E+00  0.74505805969E-08  0.10566000000E+00  0.10566000000E+00 0.  1.
     999900   -1    0    0    0    0 -0.00000000000E+00 -0.00000000000E+00 -0.74505805969E-08  0.93827000000E+00  0.93827000000E+00 0.  1.
     999902    2    1    2    0    0 -0.74919841914E-02 -0.21981591591E-01  0.86492238998E-02  0.10191483683E+01  0.10188470284E+01 0.  0.
     999903    2    3    3    0    0  0.55884705541E-01  0.11143242493E+00 -0.98747837305E-02  0.12664680333E+00  0.20040354306E-01 0.  0.
         14    1    1    2    0    0  0.74919841914E-02  0.21981591591E-01 -0.86492238998E-02  0.24781631708E-01  0.00000000000E+00 0. -1.
     999901    1    3    3    0    0 -0.63376689732E-01 -0.13341401652E+00  0.18524007630E-01  0.89250156496E+00  0.88000000000E+00 0.  1.
        -11    1    4    4    0    0  0.28492836620E-01  0.68951120416E-01 -0.14071922878E-01  0.75923506767E-01  0.51100000000E-03 0.  1.
         11    1    4    4    0    0  0.27391868920E-01  0.42481304512E-01  0.41971391473E-02  0.50723296561E-01  0.51100000000E-03 0. -1.
</event>
<event>
 8    1  0.9952977E+004  0.1043930E+01  0.7957747E-01            NaN
         13   -1    0    0    0    0  0.00000000000E+00  0.00000000000E+00  0.74505805969E-08  0.10566000000E+00  0.10566000000E+00 0. -1.
     999900   -1    0    0    0    0 -0.00000000000E+00 -0.00000000000E+00 -0.74505805969E-08  0.93827000000E+00  0.93827000000E+00 0. -1.
     999902    2    1    2    0    0 -0.11932323450E-01  0.10687708005E-01  0.12662250589E-01  0.10235108904E+01  0.10233071889E+01 0.  0.
     999903    2    3    3    0    0 -0.13250770218E+00  0.11024218129E-01  0.15352869779E-01  0.13528469479E+00  0.19657403520E-01 0.  0.
         14    1    1    2    0    0  0.11932323450E-01 -0.10687708005E-01 -0.12662250589E-01  0.20419109562E-01  0.00000000000E+00 0.  1.
     999901    1    3    3    0    0  0.12057537873E+00 -0.33651012409E-03 -0.26906191895E-02  0.88822619564E+00  0.88000000000E+00 0.  1.
        -11    1    4    4    0    0 -0.31933941156E-01  0.65142113595E-02  0.11397859390E-01  0.34530911762E-01  0.51100000000E-03 0. -1.
         11    1    4    4    0    0 -0.10057376102E+00  0.45100067697E-02  0.39550103886E-02  0.10075378303E+00  0.51100000000E-03 0.  1.
</event>
<event>
 8    1  0.9952977E+004  0.1043930E+01  0.7957747E-01            NaN
         13   -1    0    0    0    0  0.00000000000E+00  0.00000000000E+00  0.74505805969E-08  0.10566000000E+00  0.10566000000E+00 0. -1.
     999900   -1    0    0    0    0 -0.00000000000E+00 -0.00000000000E+00 -0.74505805969E-08  0.93827000000E+00  0.93827000000E+00 0.  1.
     999902    2    1    2    0    0  0.16949645797E-01 -0.13414239674E-01  0.99107806146E-02  0.10201506835E+01  0.10198735026E+01 0.  0.
     999903    2    3    3    0    0  0.63766380597E-01  0.29767783433E-01 -0.10762323394E+00  0.13005476829E+00  0.19473316250E-01 0.  0.
         14    1    1    2    0    0 -0.16949645797E-01  0.13414239674E-01 -0.99107806146E-02  0.23779316455E-01  0.00000000000E+00 0.  1.
     999901    1    3    3    0    0 -0.46816734800E-01 -0.43182023107E-01  0.11753401456E+00  0.89009591526E+00  0.88000000000E+00 0. -1.
        -11    1    4    4    0    0  0.92037557589E-02  0.12803908916E-01 -0.26157054291E-01  0.30546715270E-01  0.51100000000E-03 0.  1.
         11    1    4    4    0    0  0.54562624838E-01  0.16963874517E-01 -0.81466179651E-01  0.99508053020E-01  0.51100000000E-03 0. -1.
</event>
<event>
 8    1  0.9952977E+004  0.1043930E+01  0.7957747E-01            NaN
         13   -1    0    0    0    0  0.00000000000E+00  0.00000000000E+00  0.74505805969E-08  0.10566000000E+00  0.10566000000E+00 0.  1.
     999900   -1    0    0    0    0 -0.00000000000E+00 -0.00000000000E+00 -0.74505805969E-08  0.93827000000E+00  0.93827000000E+00 0. -1.
     999902    2    1    2    0    0  0.14360378710E-02  0.59265692473E-02 -0.22225577154E-01  0.10208830326E+01  0.10206228508E+01 0.  0.
     999903    2    3    3    0    0 -0.61391533825E-01 -0.11241695371E+00 -0.16148110258E-01  0.13072044698E+00  0.20508093184E-01 0.  0.
         14    1    1    2    0    0 -0.14360378710E-02 -0.59265692473E-02  0.22225577154E-01  0.23046967428E-01  0.00000000000E+00 0.  1.
     999901    1    3    3    0    0  0.62827571696E-01  0.11834352296E+00 -0.60774668956E-02  0.89016258560E+00  0.88000000000E+00 0.  1.
        -11    1    4    4    0    0 -0.36056961145E-01 -0.82379744647E-01 -0.16463241949E-01  0.91421147617E-01  0.51100000000E-03 0. -1.
         11    1    4    4    0    0 -0.25334572680E-01 -0.30037209063E-01  0.31513169064E-03  0.39299299360E-01  0.51100000000E-03 0.  1.
</event>
<event>
 8    1  0.9952977E+004  0.1043930E+01  0.7957747E-01            NaN
         13   -1    0    0    0    0  0.00000000000E+00  0.00000000000E+00  0.74505805969E-08  0.10566000000E+00  0.10566000000E+00 0. -1.
     999900   -1    0    0    0    0 -0.00000000000E+00 -0.00000000000E+00 -0.74505805969E-08  0.93827000000E+00  0.93827000000E+00 0.  1.
     999902    2    1    2    0    0 -0.21569157583E-01 -0.73307739457E-02 -0.42267801341E-02  0.10207603113E+01  0.10204973192E+01 0.  0.
     999903    2    3    3    0    0  0.10018933922E+00 -0.38665691127E-01  0.68329342365E-01  0.12886827773E+00  0.20129446420E-01 0.  0.
         14    1    1    2    0    0  0.21569157583E-01  0.73307739457E-02  0.42267801341E-02  0.23169688729E-01  0.00000000000E+00 0. -1.
     999901    1    3    3    0    0 -0.12175849681E+00  0.31334917181E-01 -0.72556122499E-01  0.89189203354E+00  0.88000000000E+00 0.  1.
        -11    1    4    4    0    0  0.13239858040E-01 -0.10520370839E-01  0.48744746352E-02  0.17606637030E-01  0.51100000000E-03 0.  1.
         11    1    4    4    0    0  0.86949481183E-01 -0.28145320287E-01  0.63454867730E-01  0.11126164070E+00  0.51100000000E-03 0. -1.
</event>
<event>
 8    1  0.9952977E+004  0.1043930E+01  0.7957747E-01            NaN
         13   -1    0    0    0    0  0.00000000000E+00  0.00000000000E+00  0.74505805969E-08  0.10566000000E+00  0.10566000000E+00 0.  1.
     999900   -1    0    0    0    0 -0.00000000000E+00 -0.00000000000E+00 -0.74505805969E-08  0.93827000000E+00  0.93827000000E+00 0.  1.
     999902    2    1    2    0    0  0.14969297914E-02 -0.35670228187E-01  0.10684332698E-01  0.10066639170E+01  0.10059738967E+01 0.  0.
     999903    2    3    3    0    0  0.40663697456E-01 -0.11178275649E+00 -0.18267419935E-01  0.12203667536E+00  0.20256617768E-01 0.  0.
         14    1    1    2    0    0 -0.14969297914E-02  0.35670228187E-01 -0.10684332698E-01  0.37266083010E-01  0.00000000000E+00 0.  1.
     999901    1    3    3    0    0 -0.39166767664E-01  0.76112528300E-01  0.28951752633E-01  0.88462724163E+00  0.88000000000E+00 0. -1.
        -11    1    4    4    0    0  0.28565166520E-01 -0.49664880482E-01 -0.10879342927E-01  0.58319724923E-01  0.51100000000E-03 0.  1.
         11    1    4    4    0    0  0.12098530936E-01 -0.62117876005E-01 -0.73880770084E-02  0.63716950438E-01  0.51100000000E-03 0. -1.
</event>
<event>
 8    1  0.9952977E+004  0.1043930E+01  0.7957747E-01            NaN
         13   -1    0    0    0    0  0.00000000000E+00  0.00000000000E+00  0.74505805969E-08  0.10566000000E+00  0.10566000000E+00 0.  1.
     999900   -1    0    0    0    0 -0.00000000000E+00 -0.00000000000E+00 -0.74505805969E-08  0.93827000000E+00  0.93827000000E+00 0.  1.
     999902    2    1    2    0    0  0.16550812935E-02  0.55525837700E-02  0.22667324647E-01  0.10205338873E+01  0.10202656699E+01 0.  0.
     999903    2    3    3    0    0  0.32672283453E-01  0.11193666096E+00 -0.54372892268E-01  0.13024470190E+00  0.20247883496E-01 0.  0.
         14    1    1    2    0    0 -0.16550812935E-02 -0.55525837700E-02 -0.22667324647E-01  0.23396112653E-01  0.00000000000E+00 0. -1.
     999901    1    3    3    0    0 -0.31017202159E-01 -0.10638407719E+00  0.77040216915E-01  0.89028918545E+00  0.88000000000E+00 0. -1.
        -11    1    4    4    0    0  0.25490174555E-01  0.10446444947E+00 -0.46197759448E-01  0.11703445775E+00  0.51100000000E-03 0. -1.
         11    1    4    4    0    0  0.71821088979E-02  0.74722114840E-02 -0.81751328198E-02  0.13210244142E-01  0.51100000000E-03 0.  1.
</event>
<event>
 8    1  0.9952977E+004  0.1043930E+01  0.7957747E-01            NaN
         13   -1    0    0    0    0  0.00000000000E+00  0.00000000000E+00  0.74505805969E-08  0.10566000000E+00  0.10566000000E+00 0. -1.
     999900   -1    0    0    0    0 -0.00000000000E+00 -0.00000000000E+00 -0.74505805969E-08  0.93827000000E+00  0.93827000000E+00 0. -1.
     999902    2    1    2    0    0 -0.14832400016E-01  0.12564635055E-02 -0.18762120111E-01  0.10199801369E+01  0.10196989182E+01 0.  0.
     999903    2    3    3    0    0 -0.35638447234E-01 -0.12111019276E+00  0.25137791705E-01  0.13018595149E+00  0.19460104869E-01 0.  0.
         14    1    1    2    0    0  0.14832400016E-01 -0.12564635055E-02  0.18762120111E-01  0.23949863086E-01  0.00000000000E+00 0. -1.
     999901    1    3    3    0    0  0.20806047218E-01  0.12236665626E+00 -0.43899911815E-01  0.88979418543E+00  0.88000000000E+00 0. -1.
        -11    1    4    4    0    0 -0.28122686598E-01 -0.92649519539E-01  0.10757152521E-01  0.97420718657E-01  0.51100000000E-03 0. -1.
         11    1    4    4    0    0 -0.75157606362E-02 -0.28460673218E-01  0.14380639184E-01  0.32765232828E-01  0.51100000000E-03 0.  1.
</event>
<event>
 8    1  0.9952977E+004  0.1043930E+01  0.7957747E-01            NaN
         13   -1    0    0    0    0  0.00000000000E+00  0.00000000000E+00  0.74505805969E-08  0.10566000000E+00  0.10566000000E+00 0.  1.
     999900   -1    0    0    0    0 -0.00000000000E+00 -0.00000000000E+00 -0.74505805969E-08  0.93827000000E+00  0.93827000000E+00 0. -1.
     999902    2    1    2    0    0 -0.24434167334E-01 -0.13469246215E-02  0.15252112826E-02  0.10194112519E+01  0.10191163484E+01 0.  0.
     999903    2    3    3    0    0  0.72270422233E-01  0.96731740325E-01 -0.35077686940E-01  0.12794561917E+00  0.23655735646E-01 0.  0.
         14    1    1    2    0    0  0.24434167334E-01  0.13469246215E-02 -0.15252112826E-02  0.24518748106E-01  0.00000000000E+00 0. -1.
     999901    1    3    3    0    0 -0.96704589567E-01 -0.98078664947E-01  0.36602898223E-01  0.89146563272E+00  0.88000000000E+00 0.  1.
        -11    1    4    4    0    0  0.28583713839E-01  0.32206118107E-01 -0.14899020058E-02  0.43089948588E-01  0.51100000000E-03 0. -1.
         11    1    4    4    0    0  0.43686708393E-01  0.64525622218E-01 -0.33587784934E-01  0.84855670586E-01  0.51100000000E-03 0.  1.
</event>
<event>
 8    1  0.9952977E+004  0.1043930E+01  0.7957747E-01            NaN
         13   -1    0    0    0    0  0.00000000000E+00  0.00000000000E+00  0.74505805969E-08  0.10566000000E+00  0.10566000000E+00 0. -1.
     999900   -1    0    0    0    0 -0.00000000000E+00 -0.00000000000E+00 -0.74505805969E-08  0.93827000000E+00  0.93827000000E+00 0.  1.
     999902    2    1    2    0    0  0.47082090690E-02 -0.19410387913E-01  0.11420318989E-01  0.10209223040E+01  0.10206630182E+01 0.  0.
     999903    2    3    3    0    0  0.59521285813E-02 -0.12649551463E+00 -0.36114865420E-01  0.13315636326E+00  0.19743113100E-01 0.  0.
         14    1    1    2    0    0 -0.47082090690E-02  0.19410387913E-01 -0.11420318989E-01  0.23007696047E-01  0.00000000000E+00 0. -1.
     999901    1    3    3    0    0 -0.12439195123E-02  0.10708512672E+00  0.47535184410E-01  0.88776594069E+00  0.88000000000E+00 0. -1.
        -11    1    4    4    0    0  0.21737959876E-02 -0.98205980905E-01 -0.19566335681E-01  0.10016108370E+00  0.51100000000E-03 0. -1.
         11    1    4    4    0    0  0.37783325937E-02 -0.28289533729E-01 -0.16548529740E-01  0.32995279561E-01  0.51100000000E-03 0.  1.
</event>
<event>
 8    1  0.9952977E+004  0.1043930E+01  0.7957747E-01            NaN
         13   -1    0    0    0    0  0.00000000000E+00  0.00000000000E+00  0.74505805969E-08  0.10566000000E+00  0.10566000000E+00 0. -1.
     999900   -1    0    0    0    0 -0.00000000000E+00 -0.00000000000E+00 -0.74505805969E-08  0.93827000000E+00  0.93827000000E+00 0.  1.
     999902    2    1    2    0    0 -0.20602624655E-01  0.96629756796E-02  0.35369908686E-02  0.10209006373E+01  0.10206408574E+01 0.  0.
     999903    2    3    3    0    0  0.15843200825E-01 -0.12007183555E+00 -0.41273413486E-01  0.12951553996E+00  0.20063093621E-01 0.  0.
         14    1    1    2    0    0  0.20602624655E-01 -0.96629756796E-02 -0.35369908686E-02  0.23029362694E-01  0.00000000000E+00 0.  1.
     999901    1    3    3    0    0 -0.36445825480E-01  0.12973481123E+00  0.44810404354E-01  0.89138509735E+00  0.88000000000E+00 0. -1.
        -11    1    4    4    0    0 -0.37473732440E-02 -0.33664052919E-01 -0.15406272189E-01  0.37214588657E-01  0.51100000000E-03 0.  1.
         11    1    4    4    0    0  0.19590574069E-01 -0.86407782627E-01 -0.25867141297E-01  0.92300951299E-01  0.51100000000E-03 0. -1.
</event>
<event>
 8    1  0.9952977E+004  0.1043930E+01  0.7957747E-01            NaN
         13   -1    0    0    0    0  0.00000000000E+00  0.00000000000E+00  0.74505805969E-08  0.10566000000E+00  0.10566000000E+00 0.  1.
     999900   -1    0    0    0    0 -0.00000000000E+00 -0.00000000000E+00 -0.74505805969E-08  0.93827000000E+00  0.93827000000E+00 0.  1.
     999902    2    1    2    0    0  0.11658207713E-01  0.53195336406E-02  0.19750395413E-01  0.10203866493E+01  0.10201150056E+01 0.  0.
     999903    2    3    3    0    0  0.13071873000E+00 -0.93740286476E-02 -0.67460690982E-03  0.13201257857E+00  0.15862125339E-01 0.  0.
         14    1    1    2    0    0 -0.11658207713E-01 -0.53195336406E-02 -0.19750395413E-01  0.23543350743E-01  0.00000000000E+00 0. -1.
     999901    1    3    3    0    0 -0.11906052229E+00  0.14693562288E-01  0.20425002323E-01  0.88837407068E+00  0.88000000000E+00 0. -1.
        -11    1    4    4    0    0  0.52248135785E-01 -0.64553708141E-02  0.70031124812E-02  0.53111620299E-01  0.51100000000E-03 0. -1.
         11    1    4    4    0    0  0.78470594220E-01 -0.29186578335E-02 -0.76777193910E-02  0.78900958275E-01  0.51100000000E-03 0.  1.
</event>
<event>
 8    1  0.9952977E+004  0.1043930E+01  0.7957747E-01            NaN
         13   -1    0    0    0    0  0.00000000000E+00  0.00000000000E+00  0.74505805969E-08  0.10566000000E+00  0.10566000000E+00 0.  1.
     999900   -1    0    0    0    0 -0.00000000000E+00 -0.00000000000E+00 -0.74505805969E-08  0.93827000000E+00  0.93827000000E+00 0.  1.
     999902    2    1    2    0    0  0.13939753967E-01  0.14380163157E-01 -0.94392604180E-02  0.10217894158E+01  0.10215495116E+01 0.  0.
     999903    2    3    3    0    0  0.12380579529E+00  0.35283220824E-01  0.30615355523E-01  0.13380751442E+00  0.19858758855E-01 0.  0.
         14    1    1    2    0    0 -0.13939753967E-01 -0.14380163157E-01  0.94392604180E-02  0.22140584236E-01  0.00000000000E+00 0. -1.
     999901    1    3    3    0    0 -0.10986604132E+00 -0.20903057667E-01 -0.40054615941E-01  0.88798190134E+00  0.88000000000E+00 0.  1.
        -11    1    4    4    0    0  0.69628771258E-01  0.30007710445E-01  0.17573454575E-01  0.77831329808E-01  0.51100000000E-03 0.  1.
         11    1    4    4    0    0  0.54177024029E-01  0.52755103789E-02  0.13041900948E-01  0.55976184612E-01  0.51100000000E-03 0. -1.
</event>
<event>
 8    1  0.9952977E+004  0.1043930E+01  0.7957747E-01            NaN
         13   -1    0    0    0    0  0.00000000000E+00  0.00000000000E+00  0.74505805969E-08  0.10566000000E+00  0.10566000000E+00 0.  1.
     999900   -1    0    0    0    0 -0.00000000000E+00 -0.00000000000E+00 -0.74505805969E-08  0.93827000000E+00  0.93827000000E+00 0. -1.
     999902    2    1    2    0    0  0.20698966322E-01  0.30643819010E-02  0.11870154222E-01  0.10198730217E+01  0.10195892517E+01 0.  0.
     999903    2    3    3    0    0 -0.72695415750E-01  0.10432233621E+00  0.11243651856E-01  0.12915641334E+00  0.19677044922E-01 0.  0.
         14    1    1    2    0    0 -0.20698966322E-01 -0.30643819010E-02 -0.11870154222E-01  0.24056978291E-01  0.00000000000E+00 0. -1.
     999901    1    3    3    0    0  0.93394382072E-01 -0.10125795431E+00  0.62650236584E-03  0.89071660837E+00  0.88000000000E+00 0.  1.
        -11    1    4    4    0    0 -0.45289723070E-01  0.56846154637E-01  0.14969626509E-01  0.74209131187E-01  0.51100000000E-03 0. -1.
         11    1    4    4    0    0 -0.27405692681E-01  0.47476181575E-01 -0.37259746532E-02  0.54947282156E-01  0.51100000000E-03 0.  1.
</event>
<event>
 8    1  0.9952977E+004  0.1043930E+01  0.7957747E-01            NaN
         13   -1    0    0    0    0  0.00000000000E+00  0.00000000000E+00  0.74505805969E-08  0.10566000000E+00  0.10566000000E+00 0.  1.
     999900   -1    0    0    0    0 -0.00000000000E+00 -0.00000000000E+00 -0.74505805969E-08  0.93827000000E+00  0.93827000000E+00 0. -1.
     999902    2    1    2    0    0  0.46281316237E-03  0.22345908158E-01  0.30959352603E-02  0.10213658997E+01  0.10211166253E+01 0.  0.
     999903    2    3    3    0    0 -0.12047418982E+00 -0.21414880893E-01  0.42774053993E-01  0.13113271763E+00  0.19837903163E-01 0.  0.
         14    1    1    2    0    0 -0.46281316237E-03 -0.22345908158E-01 -0.30959352603E-02  0.22564100305E-01  0.00000000000E+00 0.  1.
     999901    1    3    3    0    0  0.12093700298E+00  0.43760789052E-01 -0.39678118732E-01  0.89023318207E+00  0.88000000000E+00 0.  1.
        -11    1    4    4    0    0 -0.59522159316E-01 -0.18806246300E-01  0.27662516260E-01  0.68279120354E-01  0.51100000000E-03 0. -1.
         11    1    4    4    0    0 -0.60952030500E-01 -0.26086345931E-02  0.15111537733E-01  0.62853597273E-01  0.51100000000E-03 0.  1.
</event>
<event>
 8    1  0.9952977E+004  0.1043930E+01  0.7957747E-01            NaN
         13   -1    0    0    0    0  0.00000000000E+00  0.00000000000E+00  0.74505805969E-08  0.10566000000E+00  0.10566000000E+00 0.  1.
     999900   -1    0    0    0    0 -0.00000000000E+00 -0.00000000000E+00 -0.74505805969E-08  0.93827000000E+00  0.93827000000E+00 0.  1.
     999902    2    1    2    0    0  0.15073694914E-01  0.15481973549E-01  0.88378698116E-02  0.10205844281E+01  0.10203173816E+01 0.  0.
     999903    2    3    3    0    0 -0.10022774167E-01  0.32598693907E-01 -0.12310881097E+00  0.13022902636E+00  0.25311837586E-01 0.  0.
         14    1    1    2    0    0 -0.15073694914E-01 -0.15481973549E-01 -0.88378698116E-02  0.23345571875E-01  0.00000000000E+00 0. -1.
     999901    1    3    3    0    0  0.25096469081E-01 -0.17116720358E-01  0.13194668078E+00  0.89035540176E+00  0.88000000000E+00 0. -1.
        -11    1    4    4    0    0 -0.15770977549E-01  0.20651517944E-01 -0.54891360300E-01  0.60733281509E-01  0.51100000000E-03 0.  1.
         11    1    4    4    0    0  0.57482033821E-02  0.11947175963E-01 -0.68217450673E-01  0.69495744855E-01  0.51100000000E-03 0. -1.
</event>
<event>
 8    1  0.9952977E+004  0.1043930E+01  0.7957747E-01            NaN
         13   -1    0    0    0    0  0.00000000000E+00  0.00000000000E+00  0.74505805969E-08  0.10566000000E+00  0.10566000000E+00 0.  1.
     999900   -1    0    0    0    0 -0.00000000000E+00 -0.00000000000E+00 -0.74505805969E-08  0.93827000000E+00  0.93827000000E+00 0. -1.
     999902    2    1    2    0    0  0.70834532005E-02 -0.16603681185E-01 -0.15418140760E-01  0.10201902316E+01  0.10199139827E+01 0.  0.
     999903    2    3    3    0    0  0.72379854524E-01 -0.10925071323E+00 -0.90200626782E-02  0.13289770490E+00  0.20146383161E-01 0.  0.
         14    1    1    2    0    0 -0.70834532005E-02  0.16603681185E-01  0.15418140760E-01  0.23739768378E-01  0.00000000000E+00 0. -1.
     999901    1    3    3    0    0 -0.65296401323E-01  0.92647032048E-01 -0.63980780817E-02  0.88729252672E+00  0.88000000000E+00 0.  1.
        -11    1    4    4    0    0  0.50808846534E-01 -0.73509469157E-01  0.31307275605E-02  0.89416125604E-01  0.51100000000E-03 0. -1.
         11    1    4    4    0    0  0.21571007989E-01 -0.35741244076E-01 -0.12150790239E-01  0.43481579297E-01  0.51100000000E-03 0.  1.
</event>
<event>
 8    1  0.9952977E+004  0.1043930E+01  0.7957747E-01            NaN
         13   -1    0    0    0    0  0.00000000000E+00  0.00000000000E+00  0.74505805969E-08  0.10566000000E+00  0.10566000000E+00 0. -1.
     999900   -1    0    0    0    0 -0.00000000000E+00 -0.00000000000E+00 -0.74505805969E-08  0.93827000000E+00  0.93827000000E+00 0. -1.
     999902    2    1    2    0    0  0.15779590455E-01 -0.59509627750E-02 -0.16601781859E-01  0.10202650767E+01  0.10199905873E+01 0.  0.
     999903    2    3    3    0    0  0.55996848532E-01  0.11629080516E+00  0.39658715436E-02  0.13066769248E+00  0.19977970651E-01 0.  0.
         14    1    1    2    0    0 -0.15779590455E-01  0.59509627750E-02  0.16601781859E-01  0.23664923278E-01  0.00000000000E+00 0. -1.
     999901    1    3    3    0    0 -0.40217258077E-01 -0.12224176794E+00 -0.20567653403E-01  0.88959738424E+00  0.88000000000E+00 0.  1.
        -11    1    4    4    0    0  0.24704678380E-01  0.40448140318E-01  0.98481311967E-02  0.48410949155E-01  0.51100000000E-03 0. -1.
         11    1    4    4    0    0  0.31292170152E-01  0.75842664844E-01 -0.58822596531E-02  0.82256743329E-01  0.51100000000E-03 0.  1.
</event>
<event>
 8    1  0.9952977E+004  0.1043930E+01  0.7957747E-01            NaN
         13   -1    0    0    0    0  0.00000000000E+00  0.00000000000E+00  0.74505805969E-08  0.10566000000E+00  0.10566000000E+00 0. -1.
     999900   -1    0    0    0    0 -0.00000000000E+00 -0.00000000000E+00 -0.74505805969E-08  0.93827000000E+00  0.93827000000E+00 0.  1.
     999902    2    1    2    0    0 -0.13001056455E-01 -0.16701536159E-02  0.20602803542E-01  0.10195109010E+01  0.10192184186E+01 0.  0.
     999903    2    3    3    0    0  0.32044261521E-01  0.25045152714E-01  0.12384218017E+00  0.13192926693E+00  0.20355626018E-01 0.  0.
         14    1    1    2    0    0  0.13001056455E-01  0.16701536159E-02 -0.20602803542E-01  0.24419098997E-01  0.00000000000E+00 0.  1.
     999901    1    3    3    0    0 -0.45045317975E-01 -0.26715306330E-01 -0.10323937663E+00  0.88758163408E+00  0.88000000000E+00 0.  1.
        -11    1    4    4    0    0  0.21139096382E-01  0.11655494416E-01  0.97366396983E-01  0.10031544412E+00  0.51100000000E-03 0. -1.
         11    1    4    4    0    0  0.10905165138E-01  0.13389658298E-01  0.26475783190E-01  0.31613822809E-01  0.51100000000E-03 0.  1.
</event>
<event>
 8    1  0.9952977E+004  0.1043930E+01  0.7957747E-01            NaN
         13   -1    0    0    0    0  0.00000000000E+00  0.00000000000E+00  0.74505805969E-08  0.10566000000E+00  0.10566000000E+00 0.  1.
     999900   -1    0    0    0    0 -0.00000000000E+00 -0.00000000000E+00 -0.74505805969E-08  0.93827000000E+00  0.93827000000E+00 0.  1.
     999902    2    1    2    0    0  0.11278849617E-01 -0.19537765897E-01  0.58694948056E-02  0.10206193219E+01  0.10203530823E+01 0.  0.
     999903    2    3    3    0    0  0.42169362142E-01 -0.74489085353E-01  0.10078335715E+00  0.13327355357E+00  0.16663614992E-01 0.  0.
         14    1    1    2    0    0 -0.11278849617E-01  0.19537765897E-01 -0.58694948056E-02  0.23310678115E-01  0.00000000000E+00 0. -1.
     999901    1    3    3    0    0 -0.30890512525E-01  0.54951319456E-01 -0.94913862340E-01  0.88734576831E+00  0.88000000000E+00 0.  1.
        -11    1    4    4    0    0  0.15577835509E-01 -0.25431026504E-01  0.47679381140E-01  0.56240470972E-01  0.51100000000E-03 0.  1.
         11    1    4    4    0    0  0.26591526632E-01 -0.49058058849E-01  0.53103976005E-01  0.77033082602E-01  0.51100000000E-03 0. -1.
</event>
<event>
 8    1  0.9952977E+004  0.1043930E+01  0.7957747E-01            NaN
         13   -1    0    0    0    0  0.00000000000E+00  0.00000000000E+00  0.74505805969E-08  0.10566000000E+00  0.10566000000E+00 0. -1.
     999900   -1    0    0    0    0 -0.00000000000E+00 -0.00000000000E+00 -0.74505805969E-08  0.93827000000E+00  0.93827000000E+00 0. -1.
     999902    2    1    2    0    0  0.20296705060E-01  0.11253731893E-01 -0.20877346531E-02  0.10206284689E+01  0.10203624405E+01 0.  0.
     999903    2    3    3    0    0 -0.31778110392E-01  0.10793334277E+00 -0.65504403787E-01  0.13153881787E+00  0.18766430372E-01 0.  0.
         14    1    1    2    0    0 -0.20296705060E-01 -0.11253731893E-01  0.20877346531E-02  0.23301531147E-01  0.00000000000E+00 0.  1.
     999901    1    3    3    0    0  0.52074815452E-01 -0.96679610879E-01  0.63416669134E-01  0.88908965098E+00  0.88000000000E+00 0.  1.
        -11    1    4    4    0    0 -0.16122751025E-01  0.34922727561E-01 -0.14500556762E-01  0.41110427732E-01  0.51100000000E-03 0.  1.
         11    1    4    4    0    0 -0.15655359367E-01  0.73010615211E-01 -0.51003847026E-01  0.90428390137E-01  0.51100000000E-03 0. -1.
</event>
<event>
 8    1  0.9952977E+004  0.1043930E+01  0.7957747E-01            NaN
         13   -1    0    0    0    0  0.00000000000E+00  0.00000000000E+00  0.74505805969E-08  0.10566000000E+00  0.10566000000E+00 0.  1.
     999900   -1    0    0    0    0 -0.00000000000E+00 -0.00000000000E+00 -0.74505805969E-08  0.93827000000E+00  0.93827000000E+00 0. -1.
     999902    2    1    2    0    0  0.95110925848E-02  0.13827747415E-01  0.19197809346E-01  0.10184305223E+01  0.10181112441E+01 0.  0.
     999903    2    3    3    0    0 -0.11345028521E+00 -0.38665082094E-01 -0.35756721049E-01  0.12663738595E+00  0.19812335376E-01 0.  0.
         14    1    1    2    0    0 -0.95110925848E-02 -0.13827747415E-01 -0.19197809346E-01  0.25499477729E-01  0.00000000000E+00 0.  1.
     999901    1    3    3    0    0  0.12296137779E+00  0.52492829509E-01  0.54954530395E-01  0.89179313632E+00  0.88000000000E+00 0.  1.
        -11    1    4    4    0    0 -0.27242552312E-01 -0.12876125587E-01 -0.93572876425E-03  0.30151085816E-01  0.51100000000E-03 0. -1.
         11    1    4    4    0    0 -0.86207732896E-01 -0.25788956507E-01 -0.34820992285E-01  0.96486300134E-01  0.51100000000E-03 0.  1.
</event>
<event>
 8    1  0.9952977E+004  0.1043930E+01  0.7957747E-01            NaN
         13   -1    0    0    0    0  0.00000000000E+00  0.00000000000E+00  0.74505805969E-08  0.10566000000E+00  0.10566000000E+00 0.  1.
     999900   -1    0    0    0    0 -0.00000000000E+00 -0.00000000000E+00 -0.74505805969E-08  0.93827000000E+00  0.93827000000E+00 0.  1.
     999902    2    1    2    0    0 -0.59971896553E-02  0.22356514523E-01 -0.11135294120E-02  0.10207563086E+01  0.10204932247E+01 0.  0.
     999903    2    3    3    0    0 -0.10665496355E-01  0.13137681020E+00  0.13183616893E-01  0.13390140144E+00  0.19548874209E-01 0.  0.
         14    1    1    2    0    0  0.59971896553E-02 -0.22356514523E-01  0.11135294120E-02  0.23173691400E-01  0.00000000000E+00 0. -1.
     999901    1    3    3    0    0  0.46683066999E-02 -0.10902029568E+00 -0.14297146305E-01  0.88685490716E+00  0.88000000000E+00 0. -1.
        -11    1    4    4    0    0 -0.36320821915E-02  0.59473717401E-01  0.15662549639E-01  0.61610808019E-01  0.51100000000E-03 0. -1.
         11    1    4    4    0    0 -0.70334141637E-02  0.71903092799E-01 -0.24789327462E-02  0.72290593423E-01  0.51100000000E-03 0.  1.
</event>
<event>
 8    1  0.9952977E+004  0.1043930E+01  0.7957747E-01            NaN
         13   -1    0    0    0    0  0.00000000000E+00  0.00000000000E+00  0.74505805969E-08  0.10566000000E+00  0.10566000000E+00 0. -1.
     999900   -1    0    0    0    0 -0.00000000000E+00 -0.00000000000E+00 -0.74505805969E-08  0.93827000000E+00  0.93827000000E+00 0.  1.
     999902    2    1    2    0    0 -0.92179214435E-02 -0.30266927831E-02 -0.20332609475E-01  0.10214012195E+01  0.10211527335E+01 0.  0.
     999903    2    3    3    0    0 -0.70758136568E-01  0.75041944466E-01  0.77638970638E-01  0.13040158942E+00  0.18405364507E-01 0.  0.
         14    1    1    2    0    0  0.92179214435E-02  0.30266927831E-02  0.20332609475E-01  0.22528780549E-01  0.00000000000E+00 0. -1.
     999901    1    3    3    0    0  0.61540215125E-01 -0.78068637249E-01 -0.97971580113E-01  0.89099963003E+00  0.88000000000E+00 0.  1.
        -11    1    4    4    0    0 -0.10226589166E-01  0.11144943410E-01  0.40327096456E-02  0.15662591027E-01  0.51100000000E-03 0. -1.
         11    1    4    4    0    0 -0.60531547403E-01  0.63897001055E-01  0.73606260993E-01  0.11473899840E+00  0.51100000000E-03 0.  1.
</event>
<event>
 8    1  0.9952977E+004  0.1043930E+01  0.7957747E-01            NaN
         13   -1    0    0    0    0  0.00000000000E+00  0.00000000000E+00  0.74505805969E-08  0.10566000000E+00  0.10566000000E+00 0. -1.
     999900   -1    0    0    0    0 -0.00000000000E+00 -0.00000000000E+00 -0.74505805969E-08  0.93827000000E+00  0.93827000000E+00 0. -1.
     999902    2    1    2    0    0 -0.46132290819E-02 -0.21928345582E-01 -0.31283135613E-02  0.10213043383E+01  0.10210536866E+01 0.  0.
     999903    2    3    3    0    0 -0.53151080226E-01  0.89085299226E-01 -0.75930892224E-01  0.13002426570E+00  0.19482849083E-01 0.  0.
         14    1    1    2    0    0  0.46132290819E-02  0.21928345582E-01  0.31283135613E-02  0.22625661720E-01  0.00000000000E+00 0. -1.
     999901    1    3    3    0    0  0.48537851144E-01 -0.11101364481E+00  0.72802578663E-01  0.89128007258E+00  0.88000000000E+00 0.  1.
        -11    1    4    4    0    0 -0.18783677830E-01  0.29314098242E-01 -0.37151274093E-01  0.50917788604E-01  0.51100000000E-03 0.  1.
         11    1    4    4    0    0 -0.34367402396E-01  0.59771200984E-01 -0.38779618131E-01  0.79106477092E-01  0.51100000000E-03 0. -1.
</event>
<event>
 8    1  0.9952977E+004  0.1043930E+01  0.7957747E-01            NaN
         13   -1    0    0    0    0  0.00000000000E+00  0.00000000000E+00  0.74505805969E-08  0.10566000000E+00  0.10566000000E+00 0.  1.
     999900   -1    0    0    0    0 -0.00000000000E+00 -0.00000000000E+00 -0.74505805969E-08  0.93827000000E+00  0.93827000000E+00 0.  1.
     999902    2    1    2    0    0 -0.17034875674E-01 -0.16473150712E-01  0.12827412970E-02  0.10201982258E+01  0.10199221650E+01 0.  0.
     999903    2    3    3    0    0  0.60370017007E-01 -0.38334091154E-01  0.10701060359E+00  0.13022755265E+00  0.19847032280E-01 0.  0.
         14    1    1    2    0    0  0.17034875674E-01  0.16473150712E-01 -0.12827412970E-02  0.23731774245E-01  0.00000000000E+00 0.  1.
     999901    1    3    3    0    0 -0.77404892681E-01  0.21860940441E-01 -0.10572786229E+00  0.88997067311E+00  0.88000000000E+00 0.  1.
        -11    1    4    4    0    0  0.31179170909E-01 -0.91341639407E-02  0.40247331537E-01  0.51726999395E-01  0.51100000000E-03 0. -1.
         11    1    4    4    0    0  0.29190846098E-01 -0.29199927213E-01  0.66763272049E-01  0.78500553252E-01  0.51100000000E-03 0.  1.
</event>
<event>
 8    1  0.9952977E+004  0.1043930E+01  0.7957747E-01            NaN
         13   -1    0    0    0    0  0.00000000000E+00  0.00000000000E+00  0.74505805969E-08  0.10566000000E+00  0.10566000000E+00 0.  1.
     999900   -1    0    0    0    0 -0.00000000000E+00 -0.00000000000E+00 -0.74505805969E-08  0.93827000000E+00  0.93827000000E+00 0. -1.
     999902    2    1    2    0    0 -0.61760078567E-02  0.14942542984E-01  0.17046299422E-01  0.10204353413E+01  0.10201648331E+01 0.  0.
     999903    2    3    3    0    0 -0.71547951010E-01 -0.91027067362E-01 -0.53015924906E-01  0.12891317973E+00  0.20071953801E-01 0.  0.
         14    1    1    2    0    0  0.61760078567E-02 -0.14942542984E-01 -0.17046299422E-01  0.23494658709E-01  0.00000000000E+00 0. -1.
     999901    1    3    3    0    0  0.65371943153E-01  0.10596961035E+00  0.70062224328E-01  0.89152216156E+00  0.88000000000E+00 0.  1.
        -11    1    4    4    0    0 -0.43227673129E-01 -0.66696950883E-01 -0.29469643423E-01  0.84769310400E-01  0.51100000000E-03 0. -1.
         11    1    4    4    0    0 -0.28320277881E-01 -0.24330116479E-01 -0.23546281483E-01  0.44143869335E-01  0.51100000000E-03 0.  1.
</event>
<event>
 8    1  0.9952977E+004  0.1043930E+01  0.7957747E-01            NaN
         13   -1    0    0    0    0  0.00000000000E+00  0.00000000000E+00  0.74505805969E-08  0.10566000000E+00  0.10566000000E+00 0. -1.
     999900   -1    0    0    0    0 -0.00000000000E+00 -0.00000000000E+00 -0.74505805969E-08  0.93827000000E+00  0.93827000000E+00 0.  1.
     999902    2    1    2    0    0 -0.15589207380E-01  0.18795068282E-01  0.57150557882E-02  0.10188513270E+01  0.10185426288E+01 0.  0.
     999903    2    3    3    0    0  0.29178067947E-02  0.31532251483E-01  0.12428689538E+00  0.13061485701E+00  0.24702470118E-01 0.  0.
         14    1    1    2    0    0  0.15589207380E-01 -0.18795068282E-01 -0.57150557882E-02  0.25078673034E-01  0.00000000000E+00 0.  1.
     999901    1    3    3    0    0 -0.18507014175E-01 -0.12737183201E-01 -0.11857183959E+00  0.88823646995E+00  0.88000000000E+00 0.  1.
        -11    1    4    4    0    0 -0.10079142830E-01  0.66893230170E-02  0.35997076129E-01  0.37978767403E-01  0.51100000000E-03 0.  1.
         11    1    4    4    0    0  0.12996949625E-01  0.24842928466E-01  0.88289819250E-01  0.92636089611E-01  0.51100000000E-03 0. -1.
</event>
<event>
 8    1  0.9952977E+004  0.1043930E+01  0.7957747E-01            NaN
         13   -1    0    0    0    0  0.00000000000E+00  0.00000000000E+00  0.74505805969E-08  0.10566000000E+00  0.10566000000E+00 0.  1.
     999900   -1    0    0    0    0 -0.00000000000E+00 -0.00000000000E+00 -0.74505805969E-08  0.93827000000E+00  0.93827000000E+00 0.  1.
     999902    2    1    2    0    0  0.30082259079E-02  0.88577132043E-02  0.20975105271E-01  0.10209634254E+01  0.10207050762E+01 0.  0.
     999903    2    3    3    0    0 -0.11964707640E+00 -0.36885125111E-01 -0.27760185023E-01  0.12994610856E+00  0.20962535942E-01 0.  0.
         14    1    1    2    0    0 -0.30082259079E-02 -0.88577132043E-02 -0.20975105271E-01  0.22966574569E-01  0.00000000000E+00 0. -1.
     999901    1    3    3    0    0  0.12265530230E+00  0.45742838315E-01  0.48735290294E-01  0.89101731687E+00  0.88000000000E+00 0. -1.
        -11    1    4    4    0    0 -0.16931775390E-01 -0.12191389728E-01 -0.65310830094E-03  0.20880677020E-01  0.51100000000E-03 0. -1.
         11    1    4    4    0    0 -0.10271530101E+00 -0.24693735383E-01 -0.27107076722E-01  0.10906543154E+00  0.51100000000E-03 0.  1.
</event>
<event>
 8    1  0.9952977E+004  0.1043930E+01  0.7957747E-01            NaN
         13   -1    0    0    0    0  0.00000000000E+00  0.00000000000E+00  0.74505805969E-08  0.10566000000E+00  0.10566000000E+00 0. -1.
     999900   -1    0    0    0    0 -0.00000000000E+00 -0.00000000000E+00 -0.74505805969E-08  0.93827000000E+00  0.93827000000E+00 0.  1.
     999902    2    1    2    0    0 -0.25389783382E-02  0.17712691889E-01  0.14784762328E-01  0.10207184714E+01  0.10204545177E+01 0.  0.
     999903    2    3    3    0    0 -0.88404284331E-01  0.64673586134E-01 -0.69393679731E-01  0.13130057943E+00  0.20648707982E-01 0.  0.
         14    1    1    2    0    0  0.25389783382E-02 -0.17712691889E-01 -0.14784762328E-01  0.23211528646E-01  0.00000000000E+00 0.  1.
     999901    1    3    3    0    0  0.85865305993E-01 -0.46960894245E-01  0.84178442059E-01  0.88941789192E+00  0.88000000000E+00 0. -1.
        -11    1    4    4    0    0 -0.26286644612E-01  0.26676188082E-01 -0.14731703242E-01  0.40247868228E-01  0.51100000000E-03 0.  1.
         11    1    4    4    0    0 -0.62117639720E-01  0.37997398053E-01 -0.54661976489E-01  0.91052711205E-01  0.51100000000E-03 0. -1.
</event>
<event>
 8    1  0.9952977E+004  0.1043930E+01  0.7957747E-01            NaN
         13   -1    0    0    0    0  0.00000000000E+00  0.00000000000E+00  0.74505805969E-08  0.10566000000E+00  0.10566000000E+00 0. -1.
     999900   -1    0    0    0    0 -0.00000000000E+00 -0.00000000000E+00 -0.74505805969E-08  0.93827000000E+00  0.93827000000E+00 0.  1.
     999902    2    1    2    0    0  0.24656655858E-02 -0.17901703491E-01 -0.39585725636E-02  0.10254307894E+01  0.10252639090E+01 0.  0.
     999903    2    3    3    0    0  0.70600876073E-01 -0.81921799742E-01  0.79484727898E-01  0.13655297780E+00  0.25164037863E-01 0.  0.
         14    1    1    2    0    0 -0.24656655858E-02  0.17901703491E-01  0.39585725636E-02  0.18499210562E-01  0.00000000000E+00 0. -1.
     999901    1    3    3    0    0 -0.68135210487E-01  0.64020096250E-01 -0.83443300462E-01  0.88887781164E+00  0.88000000000E+00 0.  1.
        -11    1    4    4    0    0  0.40009856861E-01 -0.32534479474E-01  0.26767426513E-01  0.58103676680E-01  0.51100000000E-03 0.  1.
         11    1    4    4    0    0  0.30591019212E-01 -0.49387320268E-01  0.52717301385E-01  0.78449301119E-01  0.51100000000E-03 0. -1.
</event>
<event>
 8    1  0.9952977E+004  0.1043930E+01  0.7957747E-01            NaN
         13   -1    0    0    0    0  0.00000000000E+00  0.00000000000E+00  0.74505805969E-08  0.10566000000E+00  0.10566000000E+00 0. -1.
     999900   -1    0    0    0    0 -0.00000000000E+00 -0.00000000000E+00 -0.74505805969E-08  0.93827000000E+00  0.93827000000E+00 0.  1.
     999902    2    1    2    0    0  0.17649689785E-01 -0.84996050377E-02  0.12497886019E-01  0.10206931330E+01  0.10204285961E+01 0.  0.
     999903    2    3    3    0    0 -0.49267494572E-01  0.90846591942E-01  0.76787045722E-01  0.13025466092E+00  0.19739225214E-01 0.  0.
         14    1    1    2    0    0 -0.17649689785E-01  0.84996050377E-02 -0.12497886019E-01  0.23236867048E-01  0.00000000000E+00 0.  1.
     999901    1    3    3    0    0  0.66917184357E-01 -0.99346196979E-01 -0.64289159704E-01  0.89043847203E+00  0.88000000000E+00 0.  1.
        -11    1    4    4    0    0 -0.39299633997E-01  0.52458492031E-01  0.47536633334E-01  0.80971274216E-01  0.51100000000E-03 0.  1.
         11    1    4    4    0    0 -0.99678605750E-02  0.38388099911E-01  0.29250412389E-01  0.49283386705E-01  0.51100000000E-03 0. -1.
</event>
<event>
 8    1  0.9952977E+004  0.1043930E+01  0.7957747E-01            NaN
         13   -1    0    0    0    0  0.00000000000E+00  0.00000000000E+00  0.74505805969E-08  0.10566000000E+00  0.10566000000E+00 0.  1.
     999900   -1    0    0    0    0 -0.00000000000E+00 -0.00000000000E+00 -0.74505805969E-08  0.93827000000E+00  0.93827000000E+00 0. -1.
     999902    2    1    2    0    0 -0.89847715234E-02  0.14435509271E-01  0.16673083936E-01  0.10201161012E+01  0.10198381039E+01 0.  0.
     999903    2    3    3    0    0 -0.63785656764E-01 -0.10630036868E+00 -0.29465003357E-01  0.12898815735E+00  0.20034468386E-01 0.  0.
         14    1    1    2    0    0  0.89847715234E-02 -0.14435509271E-01 -0.16673083936E-01  0.23813898782E-01  0.00000000000E+00 0. -1.
     999901    1    3    3    0    0  0.54800885241E-01  0.12073587795E+00  0.46138087293E-01  0.89112794387E+00  0.88000000000E+00 0.  1.
        -11    1    4    4    0    0 -0.19169150628E-01 -0.21380004455E-01 -0.13520640947E-01  0.31743184763E-01  0.51100000000E-03 0.  1.
         11    1    4    4    0    0 -0.44616506137E-01 -0.84920364222E-01 -0.15944362410E-01  0.97244972585E-01  0.51100000000E-03 0. -1.
</event>
<event>
 8    1  0.9952977E+004  0.1043930E+01  0.7957747E-01            NaN
         13   -1    0    0    0    0  0.00000000000E+00  0.00000000000E+00  0.74505805969E-08  0.10566000000E+00  0.10566000000E+00 0.  1.
     999900   -1    0    0    0    0 -0.00000000000E+00 -0.00000000000E+00 -0.74505805969E-08  0.93827000000E+00  0.93827000000E+00 0. -1.
     999902    2    1    2    0    0 -0.11944886411E-01 -0.15387053228E-01 -0.12452102201E-01  0.10208108182E+01  0.10205489846E+01 0.  0.
     999903    2    3    3    0    0 -0.90326985263E-01  0.34203259737E-02 -0.95819797440E-01  0.13320299739E+00  0.19772254193E-01 0.  0.
         14    1    1    2    0    0  0.11944886411E-01  0.15387053228E-01  0.12452102201E-01  0.23119181811E-01  0.00000000000E+00 0. -1.
     999901    1    3    3    0    0  0.78382098852E-01 -0.18807379201E-01  0.83367695239E-01  0.88760782080E+00  0.88000000000E+00 0.  1.
        -11    1    4    4    0    0 -0.58694575262E-01  0.58320589828E-03 -0.74934132147E-01  0.95188122031E-01  0.51100000000E-03 0.  1.
         11    1    4    4    0    0 -0.31632410001E-01  0.28371200755E-02 -0.20885665293E-01  0.38014875359E-01  0.51100000000E-03 0. -1.
</event>
<event>
 8    1  0.9952977E+004  0.1043930E+01  0.7957747E-01            NaN
         13   -1    0    0    0    0  0.00000000000E+00  0.00000000000E+00  0.74505805969E-08  0.10566000000E+00  0.10566000000E+00 0. -1.
     999900   -1    0    0    0    0 -0.00000000000E+00 -0.00000000000E+00 -0.74505805969E-08  0.93827000000E+00  0.93827000000E+00 0. -1.
     999902    2    1    2    0    0 -0.19718666847E-01  0.47830938344E-02  0.12509675673E-01  0.10200931421E+01  0.10198146022E+01 0.  0.
     999903    2    3    3    0    0  0.69612787232E-01  0.10674503282E+00 -0.10475031875E-01  0.12941663379E+00  0.19962380344E-01 0.  0.
         14    1    1    2    0    0  0.19718666847E-01 -0.47830938344E-02 -0.12509675673E-01  0.23836857895E-01  0.00000000000E+00 0.  1.
     999901    1    3    3    0    0 -0.89331454079E-01 -0.10196193899E+00  0.22984707548E-01  0.89067650832E+00  0.88000000000E+00 0.  1.
        -11    1    4    4    0    0  0.62395447098E-01  0.92265998416E-01 -0.25958950222E-02  0.11141456850E+00  0.51100000000E-03 0. -1.
         11    1    4    4    0    0  0.72173401338E-02  0.14479034408E-01 -0.78791368525E-02  0.18002065285E-01  0.51100000000E-03 0.  1.
</event>
<event>
 7    1  0.1181554E+005  0.1043930E+01  0.7957747E-01            NaN
         13   -1    0    0    0    0  0.00000000000E+00  0.00000000000E+00  0.74505805969E-08  0.10566000000E+00  0.10566000000E+00 0. -1.
     999900   -1    0    0    0    0 -0.00000000000E+00 -0.00000000000E+00 -0.74505805969E-08  0.93827000000E+00  0.93827000000E+00 0.  1.
     999903    2    1    2    0    0 -0.84407139635E-01  0.35601857581E-01  0.14308410181E-01  0.95587649043E-01  0.23242430231E-01 0.  0.
         14    1    1    2    0    0  0.40829851814E-01  0.47768867618E-01 -0.76397491051E-02  0.63303295957E-01  0.00000000000E+00 0. -1.
     999901    1    1    2    0    0  0.43577287821E-01 -0.83370725199E-01 -0.66686610762E-02  0.88503905500E+00  0.88000000000E+00 0. -1.
        -11    1    3    3    0    0 -0.45868817949E-01  0.31621973773E-01  0.99525727139E-02  0.56596930217E-01  0.51100000000E-03 0. -1.
         11    1    3    3    0    0 -0.38538321687E-01  0.39798838073E-02  0.43558374674E-02  0.38990718826E-01  0.51100000000E-03 0.  1.
</event>
<event>
 8    1  0.9952977E+004  0.1043930E+01  0.7957747E-01            NaN
         13   -1    0    0    0    0  0.00000000000E+00  0.00000000000E+00  0.74505805969E-08  0.10566000000E+00  0.10566000000E+00 0.  1.
     999900   -1    0    0    0    0 -0.00000000000E+00 -0.00000000000E+00 -0.74505805969E-08  0.93827000000E+00  0.93827000000E+00 0. -1.
     999902    2    1    2    0    0 -0.19168537348E-02 -0.17564677570E-01 -0.14713797801E-01  0.10209367820E+01  0.10206778262E+01 0.  0.
     999903    2    3    3    0    0 -0.98877340834E-01 -0.48533891481E-01 -0.72138364520E-01  0.13321046772E+00  0.20219246344E-01 0.  0.
         14    1    1    2    0    0  0.19168537348E-02  0.17564677570E-01  0.14713797801E-01  0.22993217959E-01  0.00000000000E+00 0.  1.
     999901    1    3    3    0    0  0.96960487099E-01  0.30969213910E-01  0.57424566719E-01  0.88772631432E+00  0.88000000000E+00 0.  1.
        -11    1    4    4    0    0 -0.36719536019E-01 -0.93415661847E-02 -0.31252983370E-01  0.49118217342E-01  0.51100000000E-03 0.  1.
         11    1    4    4    0    0 -0.62157804815E-01 -0.39192325296E-01 -0.40885381150E-01  0.84092250382E-01  0.51100000000E-03 0. -1.
</event>
<event>
 8    1  0.9952977E+004  0.1043930E+01  0.7957747E-01            NaN
         13   -1    0    0    0    0  0.00000000000E+00  0.00000000000E+00  0.74505805969E-08  0.10566000000E+00  0.10566000000E+00 0. -1.
     999900   -1    0    0    0    0 -0.00000000000E+00 -0.00000000000E+00 -0.74505805969E-08  0.93827000000E+00  0.93827000000E+00 0.  1.
     999902    2    1    2    0    0 -0.19892606719E-01  0.41168163475E-02 -0.13356822984E-01  0.10196180955E+01  0.10193282062E+01 0.  0.
     999903    2    3    3    0    0 -0.42947128934E-01  0.31234154375E-01  0.11623734196E+00  0.12941502397E+00  0.20423037980E-01 0.  0.
         14    1    1    2    0    0  0.19892606719E-01 -0.41168163475E-02  0.13356822984E-01  0.24311904474E-01  0.00000000000E+00 0. -1.
     999901    1    3    3    0    0  0.23054522215E-01 -0.27117338028E-01 -0.12959416495E+00  0.89020307155E+00  0.88000000000E+00 0.  1.
        -11    1    4    4    0    0 -0.18915007725E-01  0.11245018312E-01  0.26854229101E-01  0.34722308329E-01  0.51100000000E-03 0. -1.
         11    1    4    4    0    0 -0.24032121209E-01  0.19989136063E-01  0.89383112860E-01  0.94692715643E-01  0.51100000000E-03 0.  1.
</event>
<event>
 8    1  0.9952977E+004  0.1043930E+01  0.7957747E-01            NaN
         13   -1    0    0    0    0  0.00000000000E+00  0.00000000000E+00  0.74505805969E-08  0.10566000000E+00  0.10566000000E+00 0. -1.
     999900   -1    0    0    0    0 -0.00000000000E+00 -0.00000000000E+00 -0.74505805969E-08  0.93827000000E+00  0.93827000000E+00 0. -1.
     999902    2    1    2    0    0 -0.16022283466E-02  0.12114068130E-01 -0.19727598664E-01  0.10207244849E+01  0.10204606696E+01 0.  0.
     999903    2    3    3    0    0 -0.86832898295E-01  0.78187862422E-01 -0.60554252912E-01  0.13320162373E+00  0.20556287650E-01 0.  0.
         14    1    1    2    0    0  0.16022283466E-02 -0.12114068130E-01  0.19727598664E-01  0.23205515107E-01  0.00000000000E+00 0. -1.
     999901    1    3    3    0    0  0.85230669948E-01 -0.66073794291E-01  0.40826654249E-01  0.88752286116E+00  0.88000000000E+00 0. -1.
        -11    1    4    4    0    0 -0.70342037732E-02  0.47911191047E-02 -0.11198665125E-01  0.14075015686E-01  0.51100000000E-03 0. -1.
         11    1    4    4    0    0 -0.79798694521E-01  0.73396743317E-01 -0.49355587788E-01  0.11912660804E+00  0.51100000000E-03 0.  1.
</event>
<event>
 8    1  0.9952977E+004  0.1043930E+01  0.7957747E-01            NaN
         13   -1    0    0    0    0  0.00000000000E+00  0.00000000000E+00  0.74505805969E-08  0.10566000000E+00  0.10566000000E+00 0.  1.
     999900   -1    0    0    0    0 -0.00000000000E+00 -0.00000000000E+00 -0.74505805969E-08  0.93827000000E+00  0.93827000000E+00 0. -1.
     999902    2    1    2    0    0  0.44243768178E-02  0.20089407742E-01  0.11366601097E-01  0.10204276802E+01  0.10201569936E+01 0.  0.
     999903    2    3    3    0    0 -0.95471420272E-01 -0.74308864597E-01 -0.38079571018E-01  0.12838781116E+00  0.19919258976E-01 0.  0.
         14    1    1    2    0    0 -0.44243768178E-02 -0.20089407742E-01 -0.11366601097E-01  0.23502319761E-01  0.00000000000E+00 0. -1.
     999901    1    3    3    0    0  0.99895797090E-01  0.94398272339E-01  0.49446172115E-01  0.89203986908E+00  0.88000000000E+00 0.  1.
        -11    1    4    4    0    0 -0.26291835554E-01 -0.17356212995E-01 -0.18925537562E-01  0.36755079095E-01  0.51100000000E-03 0. -1.
         11    1    4    4    0    0 -0.69179584718E-01 -0.56952651602E-01 -0.19154033456E-01  0.91632732061E-01  0.51100000000E-03 0.  1.
</event>
<event>
 8    1  0.9952977E+004  0.1043930E+01  0.7957747E-01            NaN
         13   -1    0    0    0    0  0.00000000000E+00  0.00000000000E+00  0.74505805969E-08  0.10566000000E+00  0.10566000000E+00 0.  1.
     999900   -1    0    0    0    0 -0.00000000000E+00 -0.00000000000E+00 -0.74505805969E-08  0.93827000000E+00  0.93827000000E+00 0.  1.
     999902    2    1    2    0    0 -0.16943018064E-01  0.16309575738E-01 -0.28282055436E-03  0.10204108991E+01  0.10201398212E+01 0.  0.
     999903    2    3    3    0    0  0.97484927282E-01 -0.10153850491E-01 -0.81205144475E-01  0.12892759012E+00  0.20533783801E-01 0.  0.
         14    1    1    2    0    0  0.16943018064E-01 -0.16309575738E-01  0.28282055436E-03  0.23519100946E-01  0.00000000000E+00 0. -1.
     999901    1    3    3    0    0 -0.11442794535E+00  0.26463426228E-01  0.80922323921E-01  0.89148330894E+00  0.88000000000E+00 0. -1.
        -11    1    4    4    0    0  0.23777730099E-01 -0.11021539093E-01 -0.17682948564E-01  0.31619654703E-01  0.51100000000E-03 0. -1.
         11    1    4    4    0    0  0.73707197183E-01  0.86768860227E-03 -0.63522195912E-01  0.97307935414E-01  0.51100000000E-03 0.  1.
</event>
<event>
 8    1  0.9952977E+004  0.1043930E+01  0.7957747E-01            NaN
         13   -1    0    0    0    0  0.00000000000E+00  0.00000000000E+00  0.74505805969E-08  0.10566000000E+00  0.10566000000E+00 0. -1.
     999900   -1    0    0    0    0 -0.00000000000E+00 -0.00000000000E+00 -0.74505805969E-08  0.93827000000E+00  0.93827000000E+00 0.  1.
     999902    2    1    2    0    0  0.16979290400E-01  0.13737554340E-01 -0.13658087747E-02  0.10220466242E+01  0.10218123213E+01 0.  0.
     999903    2    3    3    0    0  0.13594691593E-01  0.84917278851E-01 -0.10026518640E+00  0.13364407156E+00  0.20294589708E-01 0.  0.
         14    1    1    2    0    0 -0.16979290400E-01 -0.13737554340E-01  0.13658087747E-02  0.21883375775E-01  0.00000000000E+00 0. -1.
     999901    1    3    3    0    0  0.33845988069E-02 -0.71179724511E-01  0.98899377627E-01  0.88840255267E+00  0.88000000000E+00 0. -1.
        -11    1    4    4    0    0  0.18468343372E-02  0.28039872228E-01 -0.19682577477E-01  0.34311954312E-01  0.51100000000E-03 0. -1.
         11    1    4    4    0    0  0.11747857255E-01  0.56877406623E-01 -0.80582608925E-01  0.99332117245E-01  0.51100000000E-03 0.  1.
</event>
<event>
 8    1  0.9952977E+004  0.1043930E+01  0.7957747E-01            NaN
         13   -1    0    0    0    0  0.00000000000E+00  0.00000000000E+00  0.74505805969E-08  0.10566000000E+00  0.10566000000E+00 0.  1.
     999900   -1    0    0    0    0 -0.00000000000E+00 -0.00000000000E+00 -0.74505805969E-08  0.93827000000E+00  0.93827000000E+00 0. -1.
     999902    2    1    2    0    0  0.17114408728E-01  0.38204725522E-02  0.16413401636E-01  0.10199112833E+01  0.10196284260E+01 0.  0.
     999903    2    3    3    0    0 -0.95565819273E-01 -0.75991109509E-01 -0.32025862881E-01  0.12782771957E+00  0.20169170987E-01 0.  0.
         14    1    1    2    0    0 -0.17114408728E-01 -0.38204725522E-02 -0.16413401636E-01  0.24018716658E-01  0.00000000000E+00 0. -1.
     999901    1    3    3    0    0  0.11268022800E+00  0.79811582062E-01  0.48439264517E-01  0.89208356378E+00  0.88000000000E+00 0.  1.
        -11    1    4    4    0    0 -0.68683312617E-01 -0.51604554067E-01 -0.31563197577E-01  0.91525537392E-01  0.51100000000E-03 0.  1.
         11    1    4    4    0    0 -0.26882506656E-01 -0.24386555442E-01 -0.46266530470E-03  0.36302182174E-01  0.51100000000E-03 0. -1.
</event>
<event>
 8    1  0.9952977E+004  0.1043930E+01  0.7957747E-01            NaN
         13   -1    0    0    0    0  0.00000000000E+00  0.00000000000E+00  0.74505805969E-08  0.10566000000E+00  0.10566000000E+00 0.  1.
     999900   -1    0    0    0    0 -0.00000000000E+00 -0.00000000000E+00 -0.74505805969E-08  0.93827000000E+00  0.93827000000E+00 0.  1.
     999902    2    1    2    0    0  0.11305602166E-02  0.17549942536E-01 -0.16027529348E-01  0.10201358758E+01  0.10198583454E+01 0.  0.
     999903    2    3    3    0    0  0.63765871345E-01 -0.19882350168E-01 -0.11204514024E+00  0.13191082530E+00  0.19620351270E-01 0.  0.
         14    1    1    2    0    0 -0.11305602166E-02 -0.17549942536E-01  0.16027529348E-01  0.23794124199E-01  0.00000000000E+00 0. -1.
     999901    1    3    3    0    0 -0.62635311128E-01  0.37432292704E-01  0.96017610889E-01  0.88822505050E+00  0.88000000000E+00 0. -1.
        -11    1    4    4    0    0  0.48949860976E-01 -0.90822089919E-02 -0.68694822488E-01  0.84839938516E-01  0.51100000000E-03 0.  1.
         11    1    4    4    0    0  0.14816010369E-01 -0.10800141176E-01 -0.43350317748E-01  0.47070886783E-01  0.51100000000E-03 0. -1.
</event>
<event>
 8    1  0.9952977E+004  0.1043930E+01  0.7957747E-01            NaN
         13   -1    0    0    0    0  0.00000000000E+00  0.00000000000E+00  0.74505805969E-08  0.10566000000E+00  0.10566000000E+00 0. -1.
     999900   -1    0    0    0    0 -0.00000000000E+00 -0.00000000000E+00 -0.74505805969E-08  0.93827000000E+00  0.93827000000E+00 0. -1.
     999902    2    1    2    0    0  0.16837169503E-01 -0.52841685694E-02 -0.12840800670E-01  0.10221057274E+01  0.10218727020E+01 0.  0.
     999903    2    3    3    0    0  0.12617217043E+00 -0.19498633257E-01 -0.38467174851E-01  0.13485553464E+00  0.20166268658E-01 0.  0.
         14    1    1    2    0    0 -0.16837169503E-01  0.52841685694E-02  0.12840800670E-01  0.21824272638E-01  0.00000000000E+00 0. -1.
     999901    1    3    3    0    0 -0.10933500093E+00  0.14214464688E-01  0.25626374181E-01  0.88725019272E+00  0.88000000000E+00 0. -1.
        -11    1    4    4    0    0  0.91615766898E-01 -0.19777051793E-01 -0.20664040004E-01  0.95978352727E-01  0.51100000000E-03 0. -1.
         11    1    4    4    0    0  0.34556403532E-01  0.27841853594E-03 -0.17803134848E-01  0.38877181911E-01  0.51100000000E-03 0.  1.
</event>
<event>
 8    1  0.9952977E+004  0.1043930E+01  0.7957747E-01            NaN
         13   -1    0    0    0    0  0.00000000000E+00  0.00000000000E+00  0.74505805969E-08  0.10566000000E+00  0.10566000000E+00 0. -1.
     999900   -1    0    0    0    0 -0.00000000000E+00 -0.00000000000E+00 -0.74505805969E-08  0.93827000000E+00  0.93827000000E+00 0. -1.
     999902    2    1    2    0    0  0.14160536712E-02 -0.98767159297E-02 -0.22361166245E-01  0.10194437491E+01  0.10191496363E+01 0.  0.
     999903    2    3    3    0    0 -0.16789090724E-03 -0.12781220881E+00 -0.24183792941E-01  0.13157291882E+00  0.19763304793E-01 0.  0.
         14    1    1    2    0    0 -0.14160536712E-02  0.98767159297E-02  0.22361166245E-01  0.24486250865E-01  0.00000000000E+00 0.  1.
     999901    1    3    3    0    0  0.15839445784E-02  0.11793549288E+00  0.18226266960E-02  0.88787083032E+00  0.88000000000E+00 0. -1.
        -11    1    4    4    0    0  0.40469071902E-03 -0.53399231158E-01 -0.20044071319E-01  0.57040928979E-01  0.51100000000E-03 0. -1.
         11    1    4    4    0    0 -0.57258162626E-03 -0.74412977654E-01 -0.41397216228E-02  0.74531989838E-01  0.51100000000E-03 0.  1.
</event>
<event>
 8    1  0.9952977E+004  0.1043930E+01  0.7957747E-01            NaN
         13   -1    0    0    0    0  0.00000000000E+00  0.00000000000E+00  0.74505805969E-08  0.10566000000E+00  0.10566000000E+00 0. -1.
     999900   -1    0    0    0    0 -0.00000000000E+00 -0.00000000000E+00 -0.74505805969E-08  0.93827000000E+00  0.93827000000E+00 0.  1.
     999902    2    1    2    0    0  0.21028314364E-02  0.11327588156E-01  0.36427609971E-02  0.10318467115E+01  0.10317759593E+01 0.  0.
     999903    2    3    3    0    0  0.66754599594E-01 -0.72158138789E-01  0.98141554465E-01  0.14051078172E+00  0.21178798534E-01 0.  0.
         14    1    1    2    0    0 -0.21028314364E-02 -0.11327588156E-01 -0.36427609971E-02  0.12083288508E-01  0.00000000000E+00 0.  1.
     999901    1    3    3    0    0 -0.64651768158E-01  0.83485726945E-01 -0.94498793468E-01  0.89133592977E+00  0.88000000000E+00 0. -1.
        -11    1    4    4    0    0  0.12511513950E-01 -0.71738270348E-02  0.67248376710E-02  0.15921254295E-01  0.51100000000E-03 0. -1.
         11    1    4    4    0    0  0.54243085644E-01 -0.64984311754E-01  0.91416716794E-01  0.12458952743E+00  0.51100000000E-03 0.  1.
</event>
<event>
 8    1  0.9952977E+004  0.1043930E+01  0.7957747E-01            NaN
         13   -1    0    0    0    0  0.00000000000E+00  0.00000000000E+00  0.74505805969E-08  0.10566000000E+00  0.10566000000E+00 0.  1.
     999900   -1    0    0    0    0 -0.00000000000E+00 -0.00000000000E+00 -0.74505805969E-08  0.93827000000E+00  0.93827000000E+00 0.  1.
     999902    2    1    2    0    0 -0.89480346358E-02  0.73719472447E-02  0.21024150978E-01  0.10199210880E+01  0.10196384643E+01 0.  0.
     999903    2    3    3    0    0  0.61104863640E-01 -0.76899796651E-01  0.84053986387E-01  0.13088683923E+00  0.20467265821E-01 0.  0.
         14    1    1    2    0    0  0.89480346358E-02 -0.73719472447E-02 -0.21024150978E-01  0.24008911978E-01  0.00000000000E+00 0. -1.
     999901    1    3    3    0    0 -0.70052898276E-01  0.84271743896E-01 -0.63029835409E-01  0.88903424879E+00  0.88000000000E+00 0.  1.
        -11    1    4    4    0    0  0.14924399117E-01 -0.28452172982E-01  0.37348461118E-01  0.49268981167E-01  0.51100000000E-03 0.  1.
         11    1    4    4    0    0  0.46180464524E-01 -0.48447623670E-01  0.46705525269E-01  0.81617858061E-01  0.51100000000E-03 0. -1.
</event>
<event>
 8    1  0.9952977E+004  0.1043930E+01  0.7957747E-01            NaN
         13   -1    0    0    0    0  0.00000000000E+00  0.00000000000E+00  0.74505805969E-08  0.10566000000E+00  0.10566000000E+00 0. -1.
     999900   -1    0    0    0    0 -0.00000000000E+00 -0.00000000000E+00 -0.74505805969E-08  0.93827000000E+00  0.93827000000E+00 0.  1.
     999902    2    1    2    0    0  0.14747470738E-01 -0.17786695922E-01 -0.69836944448E-02  0.10197923441E+01  0.10195066447E+01 0.  0.
     999903    2    3    3    0    0 -0.83741492567E-01 -0.31156370026E-01  0.90173979873E-01  0.12888357336E+00  0.22277160162E-01 0.  0.
         14    1    1    2    0    0 -0.14747470738E-01  0.17786695922E-01  0.69836944448E-02  0.24137655915E-01  0.00000000000E+00 0. -1.
     999901    1    3    3    0    0  0.98488963305E-01  0.13369674105E-01 -0.97157674318E-01  0.89090877073E+00  0.88000000000E+00 0.  1.
        -11    1    4    4    0    0 -0.36019172097E-01 -0.23781965593E-01  0.35090244570E-01  0.55628670944E-01  0.51100000000E-03 0.  1.
         11    1    4    4    0    0 -0.47722320470E-01 -0.73744044334E-02  0.55083735304E-01  0.73254902415E-01  0.51100000000E-03 0. -1.
</event>
<event>
 8    1  0.9952977E+004  0.1043930E+01  0.7957747E-01            NaN
         13   -1    0    0    0    0  0.00000000000E+00  0.00000000000E+00  0.74505805969E-08  0.10566000000E+00  0.10566000000E+00 0.  1.
     999900   -1    0    0    0    0 -0.00000000000E+00 -0.00000000000E+00 -0.74505805969E-08  0.93827000000E+00  0.93827000000E+00 0.  1.
     999902    2    1    2    0    0 -0.13960576573E-01 -0.20315980506E-01  0.22431437445E-02  0.10191778596E+01  0.10188772453E+01 0.  0.
     999903    2    3    3    0    0  0.41137586419E-01 -0.82366126548E-01 -0.90404252841E-01  0.13043179444E+00  0.19053720100E-01 0.  0.
         14    1    1    2    0    0  0.13960576573E-01  0.20315980506E-01 -0.22431437445E-02  0.24752140433E-01  0.00000000000E+00 0. -1.
     999901    1    3    3    0    0 -0.55098162992E-01  0.62050146043E-01  0.92647396585E-01  0.88874606513E+00  0.88000000000E+00 0. -1.
        -11    1    4    4    0    0  0.28043782017E-01 -0.35261334656E-01 -0.40864247412E-01  0.60827323376E-01  0.51100000000E-03 0.  1.
         11    1    4    4    0    0  0.13093804402E-01 -0.47104791892E-01 -0.49540005428E-01  0.69604471061E-01  0.51100000000E-03 0. -1.
</event>
<event>
 8    1  0.9952977E+004  0.1043930E+01  0.7957747E-01            NaN
         13   -1    0    0    0    0  0.00000000000E+00  0.00000000000E+00  0.74505805969E-08  0.10566000000E+00  0.10566000000E+00 0. -1.
     999900   -1    0    0    0    0 -0.00000000000E+00 -0.00000000000E+00 -0.74505805969E-08  0.93827000000E+00  0.93827000000E+00 0.  1.
     999902    2    1    2    0    0  0.11706309369E-02 -0.85754282670E-02  0.13184806601E-01  0.10281582699E+01  0.10280372952E+01 0.  0.
     999903    2    3    3    0    0  0.70133025276E-01 -0.10059405967E+00  0.63563661367E-01  0.13924811164E+00  0.17660449459E-01 0.  0.
         14    1    1    2    0    0 -0.11706309369E-02  0.85754282670E-02 -0.13184806601E-01  0.15771730148E-01  0.00000000000E+00 0.  1.
     999901    1    3    3    0    0 -0.68962394340E-01  0.92018631401E-01 -0.50378854766E-01  0.88891015821E+00  0.88000000000E+00 0.  1.
        -11    1    4    4    0    0  0.69910684669E-01 -0.94374088391E-01  0.58518235705E-01  0.13121972954E+00  0.51100000000E-03 0. -1.
         11    1    4    4    0    0  0.22234060706E-03 -0.62199712769E-02  0.50454256616E-02  0.80283820997E-02  0.51100000000E-03 0.  1.
</event>
<event>
 8    1  0.9952977E+004  0.1043930E+01  0.7957747E-01            NaN
         13   -1    0    0    0    0  0.00000000000E+00  0.00000000000E+00  0.74505805969E-08  0.10566000000E+00  0.10566000000E+00 0.  1.
     999900   -1    0    0    0    0 -0.00000000000E+00 -0.00000000000E+00 -0.74505805969E-08  0.93827000000E+00  0.93827000000E+00 0.  1.
     999902    2    1    2    0    0  0.18348997054E-01  0.13024804007E-01  0.79144173305E-02  0.10200769244E+01  0.10197980009E+01 0.  0.
     999903    2    3    3    0    0  0.18048107162E-01  0.92771838996E-01 -0.88714063059E-01  0.13120306198E+00  0.20290643325E-01 0.  0.
         14    1    1    2    0    0 -0.18348997054E-01 -0.13024804007E-01 -0.79144173305E-02  0.23853075567E-01  0.00000000000E+00 0. -1.
     999901    1    3    3    0    0  0.30088989191E-03 -0.79747034989E-01  0.96628480389E-01  0.88887386245E+00  0.88000000000E+00 0. -1.
        -11    1    4    4    0    0  0.55762192380E-02  0.47319315529E-01 -0.57462793041E-01  0.74648814781E-01  0.51100000000E-03 0. -1.
         11    1    4    4    0    0  0.12471887924E-01  0.45452523467E-01 -0.31251270018E-01  0.56554247203E-01  0.51100000000E-03 0.  1.
</event>
<event>
 8    1  0.9952977E+004  0.1043930E+01  0.7957747E-01            NaN
         13   -1    0    0    0    0  0.00000000000E+00  0.00000000000E+00  0.74505805969E-08  0.10566000000E+00  0.10566000000E+00 0.  1.
     999900   -1    0    0    0    0 -0.00000000000E+00 -0.00000000000E+00 -0.74505805969E-08  0.93827000000E+00  0.93827000000E+00 0.  1.
     999902    2    1    2    0    0  0.17283220621E-02  0.23136491653E-01  0.55415112839E-02  0.10200764323E+01  0.10197974971E+01 0.  0.
     999903    2    3    3    0    0 -0.21253187249E-01 -0.10039029268E+00 -0.73465875749E-01  0.12764762093E+00  0.19151276609E-01 0.  0.
         14    1    1    2    0    0 -0.17283220621E-02 -0.23136491653E-01 -0.55415112839E-02  0.23853567667E-01  0.00000000000E+00 0.  1.
     999901    1    3    3    0    0  0.22981509311E-01  0.12352678434E+00  0.79007387033E-01  0.89242881140E+00  0.88000000000E+00 0. -1.
        -11    1    4    4    0    0  0.16806427188E-02 -0.35799725202E-01 -0.24932858450E-01  0.43661807521E-01  0.51100000000E-03 0.  1.
         11    1    4    4    0    0 -0.22933829968E-01 -0.64590567481E-01 -0.48533017300E-01  0.83985813407E-01  0.51100000000E-03 0. -1.
</event>
<event>
 8    1  0.9952977E+004  0.1043930E+01  0.7957747E-01            NaN
         13   -1    0    0    0    0  0.00000000000E+00  0.00000000000E+00  0.74505805969E-08  0.10566000000E+00  0.10566000000E+00 0.  1.
     999900   -1    0    0    0    0 -0.00000000000E+00 -0.00000000000E+00 -0.74505805969E-08  0.93827000000E+00  0.93827000000E+00 0.  1.
     999902    2    1    2    0    0 -0.27532834983E-03 -0.19884701627E-01 -0.11070394386E-01  0.10211697101E+01  0.10209160328E+01 0.  0.
     999903    2    3    3    0    0  0.40845919378E-01  0.10741781337E-01 -0.12398096068E+00  0.13247531130E+00  0.19865912919E-01 0.  0.
         14    1    1    2    0    0  0.27532834983E-03  0.19884701627E-01  0.11070394386E-01  0.22760289900E-01  0.00000000000E+00 0.  1.
     999901    1    3    3    0    0 -0.41121247728E-01 -0.30626482963E-01  0.11291056630E+00  0.88869439880E+00  0.88000000000E+00 0. -1.
        -11    1    4    4    0    0  0.35416403628E-01  0.19941431582E-02 -0.83944529286E-01  0.91133107985E-01  0.51100000000E-03 0. -1.
         11    1    4    4    0    0  0.54295157498E-02  0.87476381785E-02 -0.40036431398E-01  0.41342203317E-01  0.51100000000E-03 0.  1.
</event>
<event>
 8    1  0.9952977E+004  0.1043930E+01  0.7957747E-01            NaN
         13   -1    0    0    0    0  0.00000000000E+00  0.00000000000E+00  0.74505805969E-08  0.10566000000E+00  0.10566000000E+00 0. -1.
     999900   -1    0    0    0    0 -0.00000000000E+00 -0.00000000000E+00 -0.74505805969E-08  0.93827000000E+00  0.93827000000E+00 0. -1.
     999902    2    1    2    0    0  0.11479041943E-01  0.13433710955E-01  0.15743262954E-01  0.10202639204E+01  0.10199894039E+01 0.  0.
     999903    2    3    3    0    0 -0.36429409534E-01  0.41332606845E-01  0.11590571937E+00  0.13284852401E+00  0.34338146185E-01 0.  0.
         14    1    1    2    0    0 -0.11479041943E-01 -0.13433710955E-01 -0.15743262954E-01  0.23666079574E-01  0.00000000000E+00 0.  1.
     999901    1    3    3    0    0  0.47908451476E-01 -0.27898895889E-01 -0.10016245641E+00  0.88741539641E+00  0.88000000000E+00 0. -1.
        -11    1    4    4    0    0 -0.30351935669E-01  0.22165221061E-01  0.42499044836E-01  0.56735940607E-01  0.51100000000E-03 0.  1.
         11    1    4    4    0    0 -0.60774738643E-02  0.19167385783E-01  0.73406674530E-01  0.76112583407E-01  0.51100000000E-03 0. -1.
</event>
<event>
 8    1  0.9952977E+004  0.1043930E+01  0.7957747E-01            NaN
         13   -1    0    0    0    0  0.00000000000E+00  0.00000000000E+00  0.74505805969E-08  0.10566000000E+00  0.10566000000E+00 0. -1.
     999900   -1    0    0    0    0 -0.00000000000E+00 -0.00000000000E+00 -0.74505805969E-08  0.93827000000E+00  0.93827000000E+00 0. -1.
     999902    2    1    2    0    0  0.16446469316E-02  0.90498111927E-02  0.22052923809E-01  0.10200357456E+01  0.10197558467E+01 0.  0.
     999903    2    3    3    0    0  0.51822250042E-01  0.33801097095E-01  0.11633331089E+00  0.13323294371E+00  0.19736217993E-01 0.  0.
         14    1    1    2    0    0 -0.16446469316E-02 -0.90498111927E-02 -0.22052923809E-01  0.23894254428E-01  0.00000000000E+00 0.  1.
     999901    1    3    3    0    0 -0.50177603110E-01 -0.24751285902E-01 -0.94280387086E-01  0.88680280187E+00  0.88000000000E+00 0. -1.
        -11    1    4    4    0    0  0.22179873429E-01  0.63874550289E-02  0.56649127751E-01  0.61172961045E-01  0.51100000000E-03 0.  1.
         11    1    4    4    0    0  0.29642376613E-01  0.27413642066E-01  0.59684183144E-01  0.72059982661E-01  0.51100000000E-03 0. -1.
</event>
<event>
 8    1  0.9952977E+004  0.1043930E+01  0.7957747E-01            NaN
         13   -1    0    0    0    0  0.00000000000E+00  0.00000000000E+00  0.74505805969E-08  0.10566000000E+00  0.10566000000E+00 0.  1.
     999900   -1    0    0    0    0 -0.00000000000E+00 -0.00000000000E+00 -0.74505805969E-08  0.93827000000E+00  0.93827000000E+00 0.  1.
     999902    2    1    2    0    0  0.20804570030E-01 -0.59170610397E-02  0.65538732392E-02  0.10213292257E+01  0.10210791312E+01 0.  0.
     999903    2    3    3    0    0  0.88824358134E-01 -0.92071673648E-02 -0.96053261201E-01  0.13275410763E+00  0.20564181894E-01 0.  0.
         14    1    1    2    0    0 -0.20804570030E-01  0.59170610397E-02 -0.65538732392E-02  0.22600774321E-01  0.00000000000E+00 0. -1.
     999901    1    3    3    0    0 -0.68019788104E-01  0.32901063251E-02  0.10260713444E+00  0.88857511805E+00  0.88000000000E+00 0. -1.
        -11    1    4    4    0    0  0.56611026473E-01  0.38132016400E-02 -0.55887256767E-01  0.79642924450E-01  0.51100000000E-03 0. -1.
         11    1    4    4    0    0  0.32213331661E-01 -0.13020369005E-01 -0.40166004435E-01  0.53111183182E-01  0.51100000000E-03 0.  1.
</event>
<event>
 8    1  0.9952977E+004  0.1043930E+01  0.7957747E-01            NaN
         13   -1    0    0    0    0  0.00000000000E+00  0.00000000000E+00  0.74505805969E-08  0.10566000000E+00  0.10566000000E+00 0.  1.
     999900   -1    0    0    0    0 -0.00000000000E+00 -0.00000000000E+00 -0.74505805969E-08  0.93827000000E+00  0.93827000000E+00 0.  1.
     999902    2    1    2    0    0  0.23377778844E-01 -0.46786375512E-02 -0.72784213349E-02  0.10190023926E+01  0.10186974480E+01 0.  0.
     999903    2    3    3    0    0  0.37646162532E-01  0.14711689528E-02  0.12197065584E+00  0.12942567819E+00  0.21325275984E-01 0.  0.
         14    1    1    2    0    0 -0.23377778844E-01  0.46786375512E-02  0.72784213349E-02  0.24927607389E-01  0.00000000000E+00 0.  1.
     999901    1    3    3    0    0 -0.14268383689E-01 -0.61498065040E-02 -0.12924907718E+00  0.88957671442E+00  0.88000000000E+00 0.  1.
        -11    1    4    4    0    0  0.29399445242E-01 -0.48530271330E-02  0.64914367468E-01  0.71428394057E-01  0.51100000000E-03 0.  1.
         11    1    4    4    0    0  0.82467172907E-02  0.63241960858E-02  0.57056288376E-01  0.57997284130E-01  0.51100000000E-03 0. -1.
</event>
<event>
 8    1  0.9952977E+004  0.1043930E+01  0.7957747E-01            NaN
         13   -1    0    0    0    0  0.00000000000E+00  0.00000000000E+00  0.74505805969E-08  0.10566000000E+00  0.10566000000E+00 0. -1.
     999900   -1    0    0    0    0 -0.00000000000E+00 -0.00000000000E+00 -0.74505805969E-08  0.93827000000E+00  0.93827000000E+00 0. -1.
     999902    2    1    2    0    0 -0.20392431589E-01  0.86286577577E-02  0.84337242175E-02  0.10202354288E+01  0.10199602431E+01 0.  0.
     999903    2    3    3    0    0  0.92963552847E-01 -0.62570878876E-01 -0.57751288032E-01  0.12765523123E+00  0.20082573284E-01 0.  0.
         14    1    1    2    0    0  0.20392431589E-01 -0.86286577577E-02 -0.84337242175E-02  0.23694571213E-01  0.00000000000E+00 0.  1.
     999901    1    3    3    0    0 -0.11335598444E+00  0.71199536634E-01  0.66185012249E-01  0.89258019756E+00  0.88000000000E+00 0.  1.
        -11    1    4    4    0    0  0.70752617172E-01 -0.54455449474E-01 -0.51964924258E-01  0.10330509807E+00  0.51100000000E-03 0. -1.
         11    1    4    4    0    0  0.22210935675E-01 -0.81154294023E-02 -0.57863637740E-02  0.24350133155E-01  0.51100000000E-03 0.  1.
</event>
<event>
 8    1  0.9952977E+004  0.1043930E+01  0.7957747E-01            NaN
         13   -1    0    0    0    0  0.00000000000E+00  0.00000000000E+00  0.74505805969E-08  0.10566000000E+00  0.10566000000E+00 0. -1.
     999900   -1    0    0    0    0 -0.00000000000E+00 -0.00000000000E+00 -0.74505805969E-08  0.93827000000E+00  0.93827000000E+00 0.  1.
     999902    2    1    2    0    0  0.10006482665E-01 -0.23479139727E-02 -0.20807670688E-01  0.10207222092E+01  0.10204583415E+01 0.  0.
     999903    2    3    3    0    0  0.11898439720E+00 -0.30734790303E-01 -0.47075453506E-01  0.13315700199E+00  0.20316858629E-01 0.  0.
         14    1    1    2    0    0 -0.10006482665E-01  0.23479139727E-02  0.20807670688E-01  0.23207790821E-01  0.00000000000E+00 0. -1.
     999901    1    3    3    0    0 -0.10897791453E+00  0.28386876330E-01  0.26267782819E-01  0.88756520719E+00  0.88000000000E+00 0. -1.
        -11    1    4    4    0    0  0.52738941543E-01 -0.71258150332E-02 -0.28707273273E-01  0.60469346406E-01  0.51100000000E-03 0.  1.
         11    1    4    4    0    0  0.66245455652E-01 -0.23608975270E-01 -0.18368180233E-01  0.72687655582E-01  0.51100000000E-03 0. -1.
</event>
<event>
 8    1  0.9952977E+004  0.1043930E+01  0.7957747E-01            NaN
         13   -1    0    0    0    0  0.00000000000E+00  0.00000000000E+00  0.74505805969E-08  0.10566000000E+00  0.10566000000E+00 0.  1.
     999900   -1    0    0    0    0 -0.00000000000E+00 -0.00000000000E+00 -0.74505805969E-08  0.93827000000E+00  0.93827000000E+00 0. -1.
     999902    2    1    2    0    0  0.21863249117E-01 -0.59238544494E-03 -0.64471402745E-02  0.10211282851E+01  0.10208736731E+01 0.  0.
     999903    2    3    3    0    0  0.23439095990E-01  0.12712101482E+00 -0.16867505473E-01  0.13184667626E+00  0.19745624091E-01 0.  0.
         14    1    1    2    0    0 -0.21863249117E-01  0.59238544494E-03  0.64471402745E-02  0.22801714852E-01  0.00000000000E+00 0.  1.
     999901    1    3    3    0    0 -0.15758468734E-02 -0.12771340026E+00  0.10420365198E-01  0.88928160889E+00  0.88000000000E+00 0. -1.
        -11    1    4    4    0    0  0.13159634450E-01  0.27017941095E-01 -0.19955529782E-02  0.30122889512E-01  0.51100000000E-03 0. -1.
         11    1    4    4    0    0  0.10279461540E-01  0.10010307372E+00 -0.14871952495E-01  0.10172378675E+00  0.51100000000E-03 0.  1.
</event>
<event>
 8    1  0.9952977E+004  0.1043930E+01  0.7957747E-01            NaN
         13   -1    0    0    0    0  0.00000000000E+00  0.00000000000E+00  0.74505805969E-08  0.10566000000E+00  0.10566000000E+00 0.  1.
     999900   -1    0    0    0    0 -0.00000000000E+00 -0.00000000000E+00 -0.74505805969E-08  0.93827000000E+00  0.93827000000E+00 0.  1.
     999902    2    1    2    0    0  0.14815062575E-01 -0.10211595863E-01 -0.14853888703E-01  0.10205976024E+01  0.10203308607E+01 0.  0.
     999903    2    3    3    0    0 -0.17128261250E-01 -0.38614102836E-01  0.12052024697E+00  0.12922044598E+00  0.19707040821E-01 0.  0.
         14    1    1    2    0    0 -0.14815062575E-01  0.10211595863E-01  0.14853888703E-01  0.23332397622E-01  0.00000000000E+00 0.  1.
     999901    1    3    3    0    0  0.31943323825E-01  0.28402506973E-01 -0.13537413567E+00  0.89137715640E+00  0.88000000000E+00 0.  1.
        -11    1    4    4    0    0 -0.11681417786E-01 -0.78638632926E-02  0.24679892273E-01  0.28419255286E-01  0.51100000000E-03 0. -1.
         11    1    4    4    0    0 -0.54468434644E-02 -0.30750239543E-01  0.95840354698E-01  0.10080119069E+00  0.51100000000E-03 0.  1.
</event>
<event>
 8    1  0.9952977E+004  0.1043930E+01  0.7957747E-01            NaN
         13   -1    0    0    0    0  0.00000000000E+00  0.00000000000E+00  0.74505805969E-08  0.10566000000E+00  0.10566000000E+00 0.  1.
     999900   -1    0    0    0    0 -0.00000000000E+00 -0.00000000000E+00 -0.74505805969E-08  0.93827000000E+00  0.93827000000E+00 0. -1.
     999902    2    1    2    0    0  0.32723200637E-02  0.21870800817E-01  0.10843939990E-01  0.10193001189E+01  0.10190025031E+01 0.  0.
     999903    2    3    3    0    0  0.35103109155E-01 -0.11979166737E+00 -0.14106889329E-01  0.12705351742E+00  0.19008422276E-01 0.  0.
         14    1    1    2    0    0 -0.32723200637E-02 -0.21870800817E-01 -0.10843939990E-01  0.24629881069E-01  0.00000000000E+00 0. -1.
     999901    1    3    3    0    0 -0.31830789091E-01  0.14166246819E+00  0.24950829320E-01  0.89224660151E+00  0.88000000000E+00 0. -1.
        -11    1    4    4    0    0  0.70312737122E-02 -0.57582269368E-01 -0.59781229925E-02  0.58319427561E-01  0.51100000000E-03 0. -1.
         11    1    4    4    0    0  0.28071835443E-01 -0.62209398005E-01 -0.81287663369E-02  0.68734089856E-01  0.51100000000E-03 0.  1.
</event>
<event>
 8    1  0.9952977E+004  0.1043930E+01  0.7957747E-01            NaN
         13   -1    0    0    0    0  0.00000000000E+00  0.00000000000E+00  0.74505805969E-08  0.10566000000E+00  0.10566000000E+00 0. -1.
     999900   -1    0    0    0    0 -0.00000000000E+00 -0.00000000000E+00 -0.74505805969E-08  0.93827000000E+00  0.93827000000E+00 0.  1.
     999902    2    1    2    0    0  0.18762832759E-01  0.13580644661E-01 -0.48273969801E-02  0.10202702966E+01  0.10199959297E+01 0.  0.
     999903    2    3    3    0    0 -0.11071005170E+00  0.50277236679E-01  0.37611417520E-01  0.12902907189E+00  0.21198268544E-01 0.  0.
         14    1    1    2    0    0 -0.18762832759E-01 -0.13580644661E-01  0.48273969801E-02  0.23659703383E-01  0.00000000000E+00 0. -1.
     999901    1    3    3    0    0  0.12947288446E+00 -0.36696592018E-01 -0.42438814500E-01  0.89124122473E+00  0.88000000000E+00 0.  1.
        -11    1    4    4    0    0 -0.82705309085E-01  0.30394993659E-01  0.19698544783E-01  0.90290185391E-01  0.51100000000E-03 0. -1.
         11    1    4    4    0    0 -0.28004742616E-01  0.19882243020E-01  0.17912872738E-01  0.38738886499E-01  0.51100000000E-03 0.  1.
</event>
<event>
 8    1  0.9952977E+004  0.1043930E+01  0.7957747E-01            NaN
         13   -1    0    0    0    0  0.00000000000E+00  0.00000000000E+00  0.74505805969E-08  0.10566000000E+00  0.10566000000E+00 0.  1.
     999900   -1    0    0    0    0 -0.00000000000E+00 -0.00000000000E+00 -0.74505805969E-08  0.93827000000E+00  0.93827000000E+00 0. -1.
     999902    2    1    2    0    0  0.12436288933E-01  0.23065933272E-02  0.17799926308E-01  0.10220938137E+01  0.10218605311E+01 0.  0.
     999903    2    3    3    0    0 -0.15825969718E-02  0.12835657556E+00 -0.22056411608E-01  0.13210861448E+00  0.22097185878E-01 0.  0.
         14    1    1    2    0    0 -0.12436288933E-01 -0.23065933272E-02 -0.17799926308E-01  0.21836186292E-01  0.00000000000E+00 0. -1.
     999901    1    3    3    0    0  0.14018885904E-01 -0.12604998223E+00  0.39856337916E-01  0.88998519923E+00  0.88000000000E+00 0.  1.
        -11    1    4    4    0    0  0.44171901311E-02  0.27135123936E-01  0.29945425089E-02  0.27659626273E-01  0.51100000000E-03 0.  1.
         11    1    4    4    0    0 -0.59997871029E-02  0.10122145162E+00 -0.25050954117E-01  0.10444898820E+00  0.51100000000E-03 0. -1.
</event>
<event>
 8    1  0.9952977E+004  0.1043930E+01  0.7957747E-01            NaN
         13   -1    0    0    0    0  0.00000000000E+00  0.00000000000E+00  0.74505805969E-08  0.10566000000E+00  0.10566000000E+00 0. -1.
     999900   -1    0    0    0    0 -0.00000000000E+00 -0.00000000000E+00 -0.74505805969E-08  0.93827000000E+00  0.93827000000E+00 0.  1.
     999902    2    1    2    0    0 -0.78253733771E-02  0.81774904263E-02 -0.20607912448E-01  0.10204184311E+01  0.10201475288E+01 0.  0.
     999903    2    3    3    0    0  0.11501003324E-02 -0.41489049128E-02  0.12646324465E+00  0.12808305443E+00  0.19843901912E-01 0.  0.
         14    1    1    2    0    0  0.78253733771E-02 -0.81774904263E-02  0.20607912448E-01  0.23511568932E-01  0.00000000000E+00 0. -1.
     999901    1    3    3    0    0 -0.89754737095E-02  0.12326395339E-01 -0.14707115709E+00  0.89233537664E+00  0.88000000000E+00 0.  1.
        -11    1    4    4    0    0  0.63076240021E-03  0.77225918712E-02  0.35086588723E-01  0.35935582862E-01  0.51100000000E-03 0. -1.
         11    1    4    4    0    0  0.51933793218E-03 -0.11871496784E-01  0.91376655923E-01  0.92147471569E-01  0.51100000000E-03 0.  1.
</event>
<event>
 8    1  0.9952977E+004  0.1043930E+01  0.7957747E-01            NaN
         13   -1    0    0    0    0  0.00000000000E+00  0.00000000000E+00  0.74505805969E-08  0.10566000000E+00  0.10566000000E+00 0.  1.
     999900   -1    0    0    0    0 -0.00000000000E+00 -0.00000000000E+00 -0.74505805969E-08  0.93827000000E+00  0.93827000000E+00 0. -1.
     999902    2    1    2    0    0  0.14859736368E-01  0.14579354170E-01 -0.10372366753E-01  0.10206715537E+01  0.10204065196E+01 0.  0.
     999903    2    3    3    0    0 -0.74714638192E-01 -0.82726787577E-01 -0.62642206850E-01  0.12925459738E+00  0.18886670494E-01 0.  0.
         14    1    1    2    0    0 -0.14859736368E-01 -0.14579354170E-01  0.10372366753E-01  0.23258446315E-01  0.00000000000E+00 0.  1.
     999901    1    3    3    0    0  0.89574374560E-01  0.97306141747E-01  0.52269840097E-01  0.89141695630E+00  0.88000000000E+00 0. -1.
        -11    1    4    4    0    0 -0.39255566550E-01 -0.40514424931E-01 -0.21132344440E-01  0.60243300334E-01  0.51100000000E-03 0. -1.
         11    1    4    4    0    0 -0.35459071642E-01 -0.42212362646E-01 -0.41509862411E-01  0.69011297048E-01  0.51100000000E-03 0.  1.
</event>
<event>
 8    1  0.9952977E+004  0.1043930E+01  0.7957747E-01            NaN
         13   -1    0    0    0    0  0.00000000000E+00  0.00000000000E+00  0.74505805969E-08  0.10566000000E+00  0.10566000000E+00 0.  1.
     999900   -1    0    0    0    0 -0.00000000000E+00 -0.00000000000E+00 -0.74505805969E-08  0.93827000000E+00  0.93827000000E+00 0.  1.
     999902    2    1    2    0    0 -0.87061955375E-02 -0.21019511053E-01  0.73527989934E-02  0.10200201414E+01  0.10197398725E+01 0.  0.
     999903    2    3    3    0    0 -0.76006775171E-01  0.10085244511E+00 -0.14559264413E-01  0.12880620510E+00  0.20756221588E-01 0.  0.
         14    1    1    2    0    0  0.87061955375E-02  0.21019511053E-01 -0.73527989934E-02  0.23909858609E-01  0.00000000000E+00 0. -1.
     999901    1    3    3    0    0  0.67300579634E-01 -0.12187195617E+00  0.21912063407E-01  0.89121393629E+00  0.88000000000E+00 0.  1.
        -11    1    4    4    0    0 -0.61751203201E-01  0.69641805131E-01 -0.51329354725E-02  0.93219098184E-01  0.51100000000E-03 0. -1.
         11    1    4    4    0    0 -0.14255571970E-01  0.31210639982E-01 -0.94263289407E-02  0.35587106915E-01  0.51100000000E-03 0.  1.
</event>
<event>
 8    1  0.9952977E+004  0.1043930E+01  0.7957747E-01            NaN
         13   -1    0    0    0    0  0.00000000000E+00  0.00000000000E+00  0.74505805969E-08  0.10566000000E+00  0.10566000000E+00 0. -1.
     999900   -1    0    0    0    0 -0.00000000000E+00 -0.00000000000E+00 -0.74505805969E-08  0.93827000000E+00  0.93827000000E+00 0. -1.
     999902    2    1    2    0    0  0.14574775221E-01 -0.12156207910E-01  0.14141720245E-01  0.10202617572E+01  0.10199871899E+01 0.  0.
     999903    2    3    3    0    0 -0.15477322111E-01  0.11410800153E+00  0.56257048206E-01  0.12974534528E+00  0.20219189753E-01 0.  0.
         14    1    1    2    0    0 -0.14574775221E-01  0.12156207910E-01 -0.14141720245E-01  0.23668242753E-01  0.00000000000E+00 0.  1.
     999901    1    3    3    0    0  0.30052097332E-01 -0.12626420944E+00 -0.42115327961E-01  0.89051641197E+00  0.88000000000E+00 0. -1.
        -11    1    4    4    0    0  0.25896272541E-02  0.13717029334E-01  0.17137492177E-02  0.14073418933E-01  0.51100000000E-03 0. -1.
         11    1    4    4    0    0 -0.18066949365E-01  0.10039097220E+00  0.54543298989E-01  0.11567192634E+00  0.51100000000E-03 0.  1.
</event>
<event>
 8    1  0.9952977E+004  0.1043930E+01  0.7957747E-01            NaN
         13   -1    0    0    0    0  0.00000000000E+00  0.00000000000E+00  0.74505805969E-08  0.10566000000E+00  0.10566000000E+00 0.  1.
     999900   -1    0    0    0    0 -0.00000000000E+00 -0.00000000000E+00 -0.74505805969E-08  0.93827000000E+00  0.93827000000E+00 0. -1.
     999902    2    1    2    0    0  0.99323015148E-02  0.33497412457E-02  0.20226663943E-01  0.10211486630E+01  0.10208945111E+01 0.  0.
     999903    2    3    3    0    0 -0.45940638397E-01 -0.97382976558E-01 -0.68543104138E-01  0.12921316224E+00  0.20097208538E-01 0.  0.
         14    1    1    2    0    0 -0.99323015148E-02 -0.33497412457E-02 -0.20226663943E-01  0.22781336968E-01  0.00000000000E+00 0. -1.
     999901    1    3    3    0    0  0.55872939912E-01  0.10073271780E+00  0.88769768081E-01  0.89193550079E+00  0.88000000000E+00 0.  1.
        -11    1    4    4    0    0 -0.19144447341E-01 -0.20934072971E-01 -0.20803968112E-01  0.35182545180E-01  0.51100000000E-03 0.  1.
         11    1    4    4    0    0 -0.26796191056E-01 -0.76448903587E-01 -0.47739136026E-01  0.94030617058E-01  0.51100000000E-03 0. -1.
</event>
<event>
 8    1  0.9952977E+004  0.1043930E+01  0.7957747E-01            NaN
         13   -1    0    0    0    0  0.00000000000E+00  0.00000000000E+00  0.74505805969E-08  0.10566000000E+00  0.10566000000E+00 0.  1.
     999900   -1    0    0    0    0 -0.00000000000E+00 -0.00000000000E+00 -0.74505805969E-08  0.93827000000E+00  0.93827000000E+00 0.  1.
     999902    2    1    2    0    0  0.10840098970E-02  0.18934515784E-01 -0.13550015178E-01  0.10206213347E+01  0.10203551416E+01 0.  0.
     999903    2    3    3    0    0 -0.45402002808E-01  0.11922022137E+00 -0.34010735414E-01  0.13347038185E+00  0.19565522381E-01 0.  0.
         14    1    1    2    0    0 -0.10840098970E-02 -0.18934515784E-01  0.13550015178E-01  0.23308665272E-01  0.00000000000E+00 0.  1.
     999901    1    3    3    0    0  0.46486012705E-01 -0.10028570558E+00  0.20460720236E-01  0.88715095288E+00  0.88000000000E+00 0. -1.
        -11    1    4    4    0    0 -0.23063349094E-01  0.72918772581E-01 -0.29082171901E-01  0.81823586511E-01  0.51100000000E-03 0.  1.
         11    1    4    4    0    0 -0.22338653714E-01  0.46301448785E-01 -0.49285635131E-02  0.51646795338E-01  0.51100000000E-03 0. -1.
</event>
<event>
 8    1  0.9952977E+004  0.1043930E+01  0.7957747E-01            NaN
         13   -1    0    0    0    0  0.00000000000E+00  0.00000000000E+00  0.74505805969E-08  0.10566000000E+00  0.10566000000E+00 0. -1.
     999900   -1    0    0    0    0 -0.00000000000E+00 -0.00000000000E+00 -0.74505805969E-08  0.93827000000E+00  0.93827000000E+00 0.  1.
     999902    2    1    2    0    0 -0.22417959256E-01  0.49955277417E-02 -0.60645271026E-02  0.10201750282E+01  0.10198984212E+01 0.  0.
     999903    2    3    3    0    0 -0.65429673701E-01  0.19994271701E-01 -0.11195467339E+00  0.13265731406E+00  0.19578073916E-01 0.  0.
         14    1    1    2    0    0  0.22417959256E-01 -0.49955277417E-02  0.60645271026E-02  0.23754971766E-01  0.00000000000E+00 0.  1.
     999901    1    3    3    0    0  0.43011714445E-01 -0.14998743959E-01  0.10589014628E+00  0.88751771418E+00  0.88000000000E+00 0. -1.
        -11    1    4    4    0    0 -0.38498973451E-02  0.25039107461E-02 -0.20555946318E-01  0.21068918544E-01  0.51100000000E-03 0.  1.
         11    1    4    4    0    0 -0.61579776356E-01  0.17490360955E-01 -0.91398727068E-01  0.11158839551E+00  0.51100000000E-03 0. -1.
</event>
<event>
 8    1  0.9952977E+004  0.1043930E+01  0.7957747E-01            NaN
         13   -1    0    0    0    0  0.00000000000E+00  0.00000000000E+00  0.74505805969E-08  0.10566000000E+00  0.10566000000E+00 0. -1.
     999900   -1    0    0    0    0 -0.00000000000E+00 -0.00000000000E+00 -0.74505805969E-08  0.93827000000E+00  0.93827000000E+00 0.  1.
     999902    2    1    2    0    0 -0.67115062264E-02  0.12777252901E-01  0.26084134634E-01  0.10141191867E+01  0.10136809362E+01 0.  0.
     999903    2    3    3    0    0 -0.10602263822E+00 -0.49058963629E-01 -0.37080970252E-01  0.12413253005E+00  0.19654641534E-01 0.  0.
         14    1    1    2    0    0  0.67115062264E-02 -0.12777252901E-01 -0.26084134634E-01  0.29810813258E-01  0.00000000000E+00 0.  1.
     999901    1    3    3    0    0  0.99311131996E-01  0.61836216530E-01  0.63165104886E-01  0.88998665669E+00  0.88000000000E+00 0.  1.
        -11    1    4    4    0    0 -0.57618645877E-01 -0.25591943710E-01 -0.97674114468E-02  0.63800622120E-01  0.51100000000E-03 0. -1.
         11    1    4    4    0    0 -0.48403992346E-01 -0.23467019919E-01 -0.27313558806E-01  0.60331907931E-01  0.51100000000E-03 0.  1.
</event>
<event>
 8    1  0.9952977E+004  0.1043930E+01  0.7957747E-01            NaN
         13   -1    0    0    0    0  0.00000000000E+00  0.00000000000E+00  0.74505805969E-08  0.10566000000E+00  0.10566000000E+00 0. -1.
     999900   -1    0    0    0    0 -0.00000000000E+00 -0.00000000000E+00 -0.74505805969E-08  0.93827000000E+00  0.93827000000E+00 0.  1.
     999902    2    1    2    0    0 -0.20195155898E-01  0.33893106800E-02 -0.13411716784E-01  0.10194513175E+01  0.10191573887E+01 0.  0.
     999903    2    3    3    0    0  0.57839299991E-01 -0.32329762364E-01  0.10663648700E+00  0.12716392004E+00  0.20216924608E-01 0.  0.
         14    1    1    2    0    0  0.20195155898E-01 -0.33893106800E-02  0.13411716784E-01  0.24478682475E-01  0.00000000000E+00 0.  1.
     999901    1    3    3    0    0 -0.78034455889E-01  0.35719073044E-01 -0.12004820379E+00  0.89228739749E+00  0.88000000000E+00 0.  1.
        -11    1    4    4    0    0  0.16895997688E-01 -0.11010087262E-01  0.17176923837E-01  0.26495369273E-01  0.51100000000E-03 0.  1.
         11    1    4    4    0    0  0.40943302303E-01 -0.21319675102E-01  0.89459563166E-01  0.10066855076E+00  0.51100000000E-03 0. -1.
</event>
<event>
 8    1  0.9952977E+004  0.1043930E+01  0.7957747E-01            NaN
         13   -1    0    0    0    0  0.00000000000E+00  0.00000000000E+00  0.74505805969E-08  0.10566000000E+00  0.10566000000E+00 0.  1.
     999900   -1    0    0    0    0 -0.00000000000E+00 -0.00000000000E+00 -0.74505805969E-08  0.93827000000E+00  0.93827000000E+00 0.  1.
     999902    2    1    2    0    0  0.16690757764E-01 -0.11884523795E-01 -0.13624124421E-01  0.10193243082E+01  0.10190272839E+01 0.  0.
     999903    2    3    3    0    0  0.14138862262E-01 -0.52810473638E-01  0.11511063976E+00  0.12901307893E+00  0.20126142108E-01 0.  0.
         14    1    1    2    0    0 -0.16690757764E-01  0.11884523795E-01  0.13624124421E-01  0.24605691757E-01  0.00000000000E+00 0.  1.
     999901    1    3    3    0    0  0.25518955028E-02  0.40925949843E-01 -0.12873476418E+00  0.89031122932E+00  0.88000000000E+00 0.  1.
        -11    1    4    4    0    0  0.15237342711E-01 -0.50410139844E-01  0.94134396822E-01  0.10786521496E+00  0.51100000000E-03 0. -1.
         11    1    4    4    0    0 -0.10984804495E-02 -0.24003337948E-02  0.20976242937E-01  0.21147863968E-01  0.51100000000E-03 0.  1.
</event>
<event>
 8    1  0.9952977E+004  0.1043930E+01  0.7957747E-01            NaN
         13   -1    0    0    0    0  0.00000000000E+00  0.00000000000E+00  0.74505805969E-08  0.10566000000E+00  0.10566000000E+00 0.  1.
     999900   -1    0    0    0    0 -0.00000000000E+00 -0.00000000000E+00 -0.74505805969E-08  0.93827000000E+00  0.93827000000E+00 0. -1.
     999902    2    1    2    0    0  0.31118987603E-02  0.14635915296E-01 -0.17957738157E-01  0.10205553494E+01  0.10202876295E+01 0.  0.
     999903    2    3    3    0    0  0.28603084427E-02 -0.11640217726E+00  0.50008552510E-01  0.12826029638E+00  0.19804041704E-01 0.  0.
         14    1    1    2    0    0 -0.31118987603E-02 -0.14635915296E-01  0.17957738157E-01  0.23374650589E-01  0.00000000000E+00 0.  1.
     999901    1    3    3    0    0  0.25159031756E-03  0.13103809256E+00 -0.67966290667E-01  0.89229505303E+00  0.88000000000E+00 0. -1.
        -11    1    4    4    0    0 -0.19311988197E-02 -0.91798869290E-01  0.46568639272E-01  0.10295465612E+00  0.51100000000E-03 0. -1.
         11    1    4    4    0    0  0.47915072624E-02 -0.24603307969E-01  0.34399132378E-02  0.25305640260E-01  0.51100000000E-03 0.  1.
</event>
<event>
 8    1  0.9952977E+004  0.1043930E+01  0.7957747E-01            NaN
         13   -1    0    0    0    0  0.00000000000E+00  0.00000000000E+00  0.74505805969E-08  0.10566000000E+00  0.10566000000E+00 0.  1.
     999900   -1    0    0    0    0 -0.00000000000E+00 -0.00000000000E+00 -0.74505805969E-08  0.93827000000E+00  0.93827000000E+00 0. -1.
     999902    2    1    2    0    0  0.19665835689E-01 -0.89978394092E-02 -0.85282200034E-02  0.10206827046E+01  0.10204179275E+01 0.  0.
     999903    2    3    3    0    0 -0.42191936610E-01 -0.19702997350E-01 -0.12118579911E+00  0.13128250528E+00  0.19512320936E-01 0.  0.
         14    1    1    2    0    0 -0.19665835689E-01  0.89978394092E-02  0.85282200034E-02  0.23247295409E-01  0.00000000000E+00 0.  1.
     999901    1    3    3    0    0  0.61857772299E-01  0.10705157941E-01  0.11265757911E+00  0.88940019931E+00  0.88000000000E+00 0.  1.
        -11    1    4    4    0    0 -0.31509266229E-01 -0.77693208749E-02 -0.62204722567E-01  0.70163272698E-01  0.51100000000E-03 0. -1.
         11    1    4    4    0    0 -0.10682670381E-01 -0.11933676475E-01 -0.58981076542E-01  0.61119232584E-01  0.51100000000E-03 0.  1.
</event>
<event>
 7    1  0.9952977E+004  0.1043930E+01  0.7957747E-01            NaN
         13   -1    0    0    0    0  0.00000000000E+00  0.00000000000E+00  0.74505805969E-08  0.10566000000E+00  0.10566000000E+00 0.  1.
     999900   -1    0    0    0    0 -0.00000000000E+00 -0.00000000000E+00 -0.74505805969E-08  0.93827000000E+00  0.93827000000E+00 0.  1.
     999902    2    1    2    0    0 -0.55997873471E-03  0.66694933610E-02  0.22562387424E-01  0.10203958324E+01  0.10201244031E+01 0.  0.
         14    1    1    2    0    0  0.55997873471E-03 -0.66694933610E-02 -0.22562387424E-01  0.23534167590E-01  0.00000000000E+00 0. -1.
     999901    1    3    3    0    0  0.10428347338E+00  0.63019281956E-01  0.14065482725E-01  0.88850678699E+00  0.88000000000E+00 0.  1.
        -11    1    3    3    0    0 -0.22703396406E-01 -0.29211154048E-01  0.23860946151E-01  0.44026601066E-01  0.51100000000E-03 0.  1.
         11    1    3    3    0    0 -0.82140055713E-01 -0.27138634548E-01 -0.15364041452E-01  0.87862444357E-01  0.51100000000E-03 0. -1.
</event>
<event>
 8    1  0.1195926E+005  0.1043930E+01  0.7957747E-01            NaN
         13   -1    0    0    0    0  0.00000000000E+00  0.00000000000E+00  0.74505805969E-08  0.10566000000E+00  0.10566000000E+00 0.  1.
     999900   -1    0    0    0    0 -0.00000000000E+00 -0.00000000000E+00 -0.74505805969E-08  0.93827000000E+00  0.93827000000E+00 0.  1.
     999902    2    1    2    0    0 -0.71213947375E-02 -0.94759920164E-02 -0.23782048107E-01  0.10173575613E+01  0.10170104783E+01 0.  0.
     999903    2    3    3    0    0 -0.12293625211E+00  0.21495626040E-01  0.19294494198E-01  0.12818496228E+00  0.21993704238E-01 0.  0.
         14    1    1    2    0    0  0.71213947375E-02  0.94759920164E-02  0.23782048107E-01  0.26572438727E-01  0.00000000000E+00 0.  1.
     999901    1    3    3    0    0  0.11581485737E+00 -0.30971618056E-01 -0.43076542305E-01  0.88917259900E+00  0.88000000000E+00 0.  1.
        -11    1    4    4    0    0 -0.67303833708E-01  0.19759565448E-01  0.18385264235E-01  0.72515691547E-01  0.51100000000E-03 0.  1.
         11    1    4    4    0    0 -0.55632418399E-01  0.17360605926E-02  0.90922996257E-03  0.55669270728E-01  0.51100000000E-03 0. -1.
</event>
<event>
 8    1  0.9952977E+004  0.1043930E+01  0.7957747E-01            NaN
         13   -1    0    0    0    0  0.00000000000E+00  0.00000000000E+00  0.74505805969E-08  0.10566000000E+00  0.10566000000E+00 0. -1.
     999900   -1    0    0    0    0 -0.00000000000E+00 -0.00000000000E+00 -0.74505805969E-08  0.93827000000E+00  0.93827000000E+00 0. -1.
     999902    2    1    2    0    0  0.15562694955E-01  0.17509637076E-01  0.52729946630E-02  0.10199177253E+01  0.10196350215E+01 0.  0.
     999903    2    3    3    0    0  0.69763931466E-02 -0.10559847728E+00  0.70881806888E-01  0.12888806884E+00  0.19702671849E-01 0.  0.
         14    1    1    2    0    0 -0.15562694955E-01 -0.17509637076E-01 -0.52729946630E-02  0.24012274726E-01  0.00000000000E+00 0.  1.
     999901    1    3    3    0    0  0.85863018085E-02  0.12310811435E+00 -0.65608812225E-01  0.89102965643E+00  0.88000000000E+00 0. -1.
        -11    1    4    4    0    0  0.12666601514E-01 -0.82256133200E-01  0.59428867857E-01  0.10226712912E+00  0.51100000000E-03 0. -1.
         11    1    4    4    0    0 -0.56902083670E-02 -0.23342344076E-01  0.11452939031E-01  0.26620939722E-01  0.51100000000E-03 0.  1.
</event>
<event>
 8    1  0.9952977E+004  0.1043930E+01  0.7957747E-01            NaN
         13   -1    0    0    0    0  0.00000000000E+00  0.00000000000E+00  0.74505805969E-08  0.10566000000E+00  0.10566000000E+00 0. -1.
     999900   -1    0    0    0    0 -0.00000000000E+00 -0.00000000000E+00 -0.74505805969E-08  0.93827000000E+00  0.93827000000E+00 0.  1.
     999902    2    1    2    0    0  0.95298254478E-02  0.13454998763E-01 -0.16147545008E-01  0.10208519200E+01  0.10205910272E+01 0.  0.
     999903    2    3    3    0    0  0.53592505714E-01  0.18332960918E-01  0.11529263903E+00  0.12998614099E+00  0.19893469013E-01 0.  0.
         14    1    1    2    0    0 -0.95298254478E-02 -0.13454998763E-01  0.16147545008E-01  0.23078079958E-01  0.00000000000E+00 0. -1.
     999901    1    3    3    0    0 -0.44062680266E-01 -0.48779621549E-02 -0.13144018404E+00  0.89086577905E+00  0.88000000000E+00 0.  1.
        -11    1    4    4    0    0  0.26196828923E-01  0.19378970892E-01  0.60800352208E-01  0.68983782935E-01  0.51100000000E-03 0.  1.
         11    1    4    4    0    0  0.27395676791E-01 -0.10460099747E-02  0.54492286825E-01  0.61002358054E-01  0.51100000000E-03 0. -1.
</event>
<event>
 8    1  0.9952977E+004  0.1043930E+01  0.7957747E-01            NaN
         13   -1    0    0    0    0  0.00000000000E+00  0.00000000000E+00  0.74505805969E-08  0.10566000000E+00  0.10566000000E+00 0. -1.
     999900   -1    0    0    0    0 -0.00000000000E+00 -0.00000000000E+00 -0.74505805969E-08  0.93827000000E+00  0.93827000000E+00 0. -1.
     999902    2    1    2    0    0 -0.26530916297E-02  0.25757221538E-01 -0.21877191588E-02  0.10179442448E+01  0.10176125128E+01 0.  0.
     999903    2    3    3    0    0  0.53062415076E-01  0.24282933653E-02  0.11498722370E+00  0.12812492395E+00  0.19298135158E-01 0.  0.
         14    1    1    2    0    0  0.26530916297E-02 -0.25757221538E-01  0.21877191588E-02  0.25985755169E-01  0.00000000000E+00 0.  1.
     999901    1    3    3    0    0 -0.55715506706E-01  0.23328928173E-01 -0.11717494286E+00  0.88981932088E+00  0.88000000000E+00 0.  1.
        -11    1    4    4    0    0  0.21610611742E-01 -0.52451881907E-03  0.26716852336E-01  0.34370699434E-01  0.51100000000E-03 0. -1.
         11    1    4    4    0    0  0.31451803334E-01  0.29528121844E-02  0.88270371366E-01  0.93754224517E-01  0.51100000000E-03 0.  1.
</event>
<event>
 8    1  0.9952977E+004  0.1043930E+01  0.7957747E-01            NaN
         13   -1    0    0    0    0  0.00000000000E+00  0.00000000000E+00  0.74505805969E-08  0.10566000000E+00  0.10566000000E+00 0. -1.
     999900   -1    0    0    0    0 -0.00000000000E+00 -0.00000000000E+00 -0.74505805969E-08  0.93827000000E+00  0.93827000000E+00 0. -1.
     999902    2    1    2    0    0 -0.40573650294E-02  0.19625187053E-01  0.12955081696E-01  0.10200669675E+01  0.10197878083E+01 0.  0.
     999903    2    3    3    0    0 -0.73188696124E-01  0.55609525317E-02 -0.10463544056E+00  0.12944669233E+00  0.20502714484E-01 0.  0.
         14    1    1    2    0    0  0.40573650294E-02 -0.19625187053E-01 -0.12955081696E-01  0.23863032490E-01  0.00000000000E+00 0.  1.
     999901    1    3    3    0    0  0.69131331094E-01  0.14064234522E-01  0.11759052226E+00  0.89062027518E+00  0.88000000000E+00 0.  1.
        -11    1    4    4    0    0 -0.30583983386E-01  0.41717992597E-02 -0.27637880499E-01  0.41435461966E-01  0.51100000000E-03 0. -1.
         11    1    4    4    0    0 -0.42604712737E-01  0.13891532720E-02 -0.76997560062E-01  0.88011230367E-01  0.51100000000E-03 0.  1.
</event>
<event>
 8    1  0.9952977E+004  0.1043930E+01  0.7957747E-01            NaN
         13   -1    0    0    0    0  0.00000000000E+00  0.00000000000E+00  0.74505805969E-08  0.10566000000E+00  0.10566000000E+00 0. -1.
     999900   -1    0    0    0    0 -0.00000000000E+00 -0.00000000000E+00 -0.74505805969E-08  0.93827000000E+00  0.93827000000E+00 0. -1.
     999902    2    1    2    0    0 -0.35605102096E-02  0.24287395625E-02 -0.21885340939E-01  0.10216243021E+01  0.10213807667E+01 0.  0.
     999903    2    3    3    0    0 -0.79693872953E-01  0.63737762386E-01  0.78847169255E-01  0.13050022335E+00  0.19995410817E-01 0.  0.
         14    1    1    2    0    0  0.35605102096E-02 -0.24287395625E-02  0.21885340939E-01  0.22305697856E-01  0.00000000000E+00 0. -1.
     999901    1    3    3    0    0  0.76133362744E-01 -0.61309022824E-01 -0.10073251019E+00  0.89112407880E+00  0.88000000000E+00 0. -1.
        -11    1    4    4    0    0 -0.61360312071E-01  0.37643342425E-01  0.57298493721E-01  0.92008084591E-01  0.51100000000E-03 0.  1.
         11    1    4    4    0    0 -0.18333560882E-01  0.26094419961E-01  0.21548675534E-01  0.38492138755E-01  0.51100000000E-03 0. -1.
</event>
<event>
 8    1  0.9952977E+004  0.1043930E+01  0.7957747E-01            NaN
         13   -1    0    0    0    0  0.00000000000E+00  0.00000000000E+00  0.74505805969E-08  0.10566000000E+00  0.10566000000E+00 0.  1.
     999900   -1    0    0    0    0 -0.00000000000E+00 -0.00000000000E+00 -0.74505805969E-08  0.93827000000E+00  0.93827000000E+00 0. -1.
     999902    2    1    2    0    0 -0.20820517918E-01 -0.50323224470E-02  0.87485072846E-02  0.10207922686E+01  0.10205300098E+01 0.  0.
     999903    2    3    3    0    0  0.26826167993E-01  0.11964387981E+00 -0.36602065387E-01  0.12957341974E+00  0.20377896056E-01 0.  0.
         14    1    1    2    0    0  0.20820517918E-01  0.50323224470E-02 -0.87485072846E-02  0.23137731420E-01  0.00000000000E+00 0. -1.
     999901    1    3    3    0    0 -0.47646685911E-01 -0.12467620225E+00  0.45350572672E-01  0.89121884884E+00  0.88000000000E+00 0. -1.
        -11    1    4    4    0    0  0.54495979950E-02  0.47997459220E-01 -0.23285334751E-01  0.53627624834E-01  0.51100000000E-03 0. -1.
         11    1    4    4    0    0  0.21376569998E-01  0.71646420588E-01 -0.13316730636E-01  0.75945794905E-01  0.51100000000E-03 0.  1.
</event>
<event>
 8    1  0.9952977E+004  0.1043930E+01  0.7957747E-01            NaN
         13   -1    0    0    0    0  0.00000000000E+00  0.00000000000E+00  0.74505805969E-08  0.10566000000E+00  0.10566000000E+00 0.  1.
     999900   -1    0    0    0    0 -0.00000000000E+00 -0.00000000000E+00 -0.74505805969E-08  0.93827000000E+00  0.93827000000E+00 0. -1.
     999902    2    1    2    0    0  0.38528605973E-02  0.94018620805E-02 -0.21694645618E-01  0.10199738485E+01  0.10196924803E+01 0.  0.
     999903    2    3    3    0    0 -0.84945197185E-01 -0.87560218453E-01  0.34788891177E-01  0.12841502822E+00  0.19941768783E-01 0.  0.
         14    1    1    2    0    0 -0.38528605973E-02 -0.94018620805E-02  0.21694645618E-01  0.23956151483E-01  0.00000000000E+00 0.  1.
     999901    1    3    3    0    0  0.88798057782E-01  0.96962080534E-01 -0.56483536795E-01  0.89155882030E+00  0.88000000000E+00 0.  1.
        -11    1    4    4    0    0 -0.34492388352E-01 -0.22572683379E-01  0.90334964514E-02  0.42203270825E-01  0.51100000000E-03 0.  1.
         11    1    4    4    0    0 -0.50452808833E-01 -0.64987535074E-01  0.25755394725E-01  0.86211757392E-01  0.51100000000E-03 0. -1.
</event>
<event>
 8    1  0.9952977E+004  0.1043930E+01  0.7957747E-01            NaN
         13   -1    0    0    0    0  0.00000000000E+00  0.00000000000E+00  0.74505805969E-08  0.10566000000E+00  0.10566000000E+00 0.  1.
     999900   -1    0    0    0    0 -0.00000000000E+00 -0.00000000000E+00 -0.74505805969E-08  0.93827000000E+00  0.93827000000E+00 0.  1.
     999902    2    1    2    0    0 -0.13127993798E-01 -0.25973760491E-01 -0.11759966397E-02  0.10148033211E+01  0.10143852410E+01 0.  0.
     999903    2    3    3    0    0  0.10777280534E+00  0.53235016358E-01 -0.18284813834E-01  0.12284830812E+00  0.17562114155E-01 0.  0.
         14    1    1    2    0    0  0.13127993798E-01  0.25973760491E-01  0.11759966397E-02  0.29126678892E-01  0.00000000000E+00 0.  1.
     999901    1    3    3    0    0 -0.12090079914E+00 -0.79208776849E-01  0.17108817194E-01  0.89195501298E+00  0.88000000000E+00 0. -1.
        -11    1    4    4    0    0  0.78524403308E-01  0.41447271714E-01 -0.59796754421E-02  0.88994246369E-01  0.51100000000E-03 0. -1.
         11    1    4    4    0    0  0.29248402036E-01  0.11787744644E-01 -0.12305138392E-01  0.33854061754E-01  0.51100000000E-03 0.  1.
</event>
<event>
 8    1  0.9952977E+004  0.1043930E+01  0.7957747E-01            NaN
         13   -1    0    0    0    0  0.00000000000E+00  0.00000000000E+00  0.74505805969E-08  0.10566000000E+00  0.10566000000E+00 0.  1.
     999900   -1    0    0    0    0 -0.00000000000E+00 -0.00000000000E+00 -0.74505805969E-08  0.93827000000E+00  0.93827000000E+00 0. -1.
     999902    2    1    2    0    0  0.16317345625E-01  0.10934220172E-01 -0.12196399090E-01  0.10208093363E+01  0.10205474688E+01 0.  0.
     999903    2    3    3    0    0  0.13112663781E+00  0.10817467019E-01 -0.70590439136E-02  0.13333675666E+00  0.20436434072E-01 0.  0.
         14    1    1    2    0    0 -0.16317345625E-01 -0.10934220172E-01  0.12196399090E-01  0.23120663697E-01  0.00000000000E+00 0.  1.
     999901    1    3    3    0    0 -0.11480929219E+00  0.11675315358E-03 -0.51373551767E-02  0.88747257965E+00  0.88000000000E+00 0. -1.
        -11    1    4    4    0    0  0.50088044341E-01  0.10245762458E-01 -0.10608870900E-01  0.52216827719E-01  0.51100000000E-03 0.  1.
         11    1    4    4    0    0  0.81038593474E-01  0.57170456093E-03  0.35498269869E-02  0.81119928939E-01  0.51100000000E-03 0. -1.
</event>
<event>
 8    1  0.9952977E+004  0.1043930E+01  0.7957747E-01            NaN
         13   -1    0    0    0    0  0.00000000000E+00  0.00000000000E+00  0.74505805969E-08  0.10566000000E+00  0.10566000000E+00 0. -1.
     999900   -1    0    0    0    0 -0.00000000000E+00 -0.00000000000E+00 -0.74505805969E-08  0.93827000000E+00  0.93827000000E+00 0.  1.
     999902    2    1    2    0    0 -0.11590852271E-01 -0.88349474837E-02 -0.16418759970E-01  0.10219759609E+01  0.10217401259E+01 0.  0.
     999903    2    3    3    0    0 -0.60887354750E-01 -0.11526704808E+00 -0.24947142360E-01  0.13415240271E+00  0.19512685564E-01 0.  0.
         14    1    1    2    0    0  0.11590852271E-01  0.88349474837E-02  0.16418759970E-01  0.21954039090E-01  0.00000000000E+00 0. -1.
     999901    1    3    3    0    0  0.49296502479E-01  0.10643210060E+00  0.85283823893E-02  0.88782355820E+00  0.88000000000E+00 0.  1.
        -11    1    4    4    0    0 -0.34854472491E-01 -0.84139953491E-01 -0.20259014678E-01  0.93300883290E-01  0.51100000000E-03 0.  1.
         11    1    4    4    0    0 -0.26032882259E-01 -0.31127094592E-01 -0.46881276820E-02  0.40851519416E-01  0.51100000000E-03 0. -1.
</event>
<event>
 8    1  0.9952977E+004  0.1043930E+01  0.7957747E-01            NaN
         13   -1    0    0    0    0  0.00000000000E+00  0.00000000000E+00  0.74505805969E-08  0.10566000000E+00  0.10566000000E+00 0. -1.
     999900   -1    0    0    0    0 -0.00000000000E+00 -0.00000000000E+00 -0.74505805969E-08  0.93827000000E+00  0.93827000000E+00 0. -1.
     999902    2    1    2    0    0  0.17611711469E-01  0.64414091239E-02 -0.20093307466E-01  0.10164453654E+01  0.10160737059E+01 0.  0.
     999903    2    3    3    0    0  0.12227581621E+00  0.12247859655E-01 -0.37560580211E-01  0.13005188886E+00  0.20032756028E-01 0.  0.
         14    1    1    2    0    0 -0.17611711469E-01 -0.64414091239E-02  0.20093307466E-01  0.27484634567E-01  0.00000000000E+00 0. -1.
     999901    1    3    3    0    0 -0.10466410474E+00 -0.58064505308E-02  0.17467272744E-01  0.88639347657E+00  0.88000000000E+00 0. -1.
        -11    1    4    4    0    0  0.94195030033E-01  0.16477188549E-02 -0.24707799528E-01  0.97396894914E-01  0.51100000000E-03 0. -1.
         11    1    4    4    0    0  0.28080786180E-01  0.10600140800E-01 -0.12852780683E-01  0.32654993948E-01  0.51100000000E-03 0.  1.
</event>
<event>
 8    1  0.9952977E+004  0.1043930E+01  0.7957747E-01            NaN
         13   -1    0    0    0    0  0.00000000000E+00  0.00000000000E+00  0.74505805969E-08  0.10566000000E+00  0.10566000000E+00 0. -1.
     999900   -1    0    0    0    0 -0.00000000000E+00 -0.00000000000E+00 -0.74505805969E-08  0.93827000000E+00  0.93827000000E+00 0.  1.
     999902    2    1    2    0    0 -0.94092929107E-03 -0.70065160735E-02 -0.22800194255E-01  0.10200589826E+01  0.10197796343E+01 0.  0.
     999903    2    3    3    0    0  0.12681502261E+00  0.16035184156E-01 -0.16931678015E-01  0.13051587361E+00  0.20212235269E-01 0.  0.
         14    1    1    2    0    0  0.94092929107E-03  0.70065160735E-02  0.22800194255E-01  0.23871017437E-01  0.00000000000E+00 0. -1.
     999901    1    3    3    0    0 -0.12775595190E+00 -0.23041700230E-01 -0.58685162401E-02  0.88954310895E+00  0.88000000000E+00 0.  1.
        -11    1    4    4    0    0  0.25648017227E-01  0.42203410184E-02  0.46191335362E-02  0.26405105219E-01  0.51100000000E-03 0. -1.
         11    1    4    4    0    0  0.10116700538E+00  0.11814843138E-01 -0.21550811551E-01  0.10411076839E+00  0.51100000000E-03 0.  1.
</event>
<event>
 7    1  0.9952977E+004  0.1043930E+01  0.7957747E-01            NaN
         13   -1    0    0    0    0  0.00000000000E+00  0.00000000000E+00  0.74505805969E-08  0.10566000000E+00  0.10566000000E+00 0.  1.
     999900   -1    0    0    0    0 -0.00000000000E+00 -0.00000000000E+00 -0.74505805969E-08  0.93827000000E+00  0.93827000000E+00 0. -1.
     999903    2    1    2    0    0 -0.45706651595E-01 -0.86780010160E-01 -0.58497787928E-01  0.11606314636E+00  0.20707355849E-01 0.  0.
         14    1    1    2    0    0 -0.28532922516E-01  0.19161851828E-01  0.23172144112E-01  0.41451809315E-01  0.00000000000E+00 0.  1.
     999901    1    1    2    0    0  0.74239574111E-01  0.67618158332E-01  0.35325643816E-01  0.88641504433E+00  0.88000000000E+00 0.  1.
        -11    1    3    3    0    0 -0.11538558213E-01 -0.42330901268E-01 -0.30143687652E-01  0.53234824637E-01  0.51100000000E-03 0. -1.
         11    1    3    3    0    0 -0.34168093383E-01 -0.44449108892E-01 -0.28354100276E-01  0.62828321720E-01  0.51100000000E-03 0.  1.
</event>
<event>
 8    1  0.9952977E+004  0.1043930E+01  0.7957747E-01            NaN
         13   -1    0    0    0    0  0.00000000000E+00  0.00000000000E+00  0.74505805969E-08  0.10566000000E+00  0.10566000000E+00 0.  1.
     999900   -1    0    0    0    0 -0.00000000000E+00 -0.00000000000E+00 -0.74505805969E-08  0.93827000000E+00  0.93827000000E+00 0. -1.
     999902    2    1    2    0    0 -0.27071937425E-01  0.14209325979E-01  0.82263917942E-02  0.10122682208E+01  0.10117729402E+01 0.  0.
     999903    2    3    3    0    0  0.20936661293E-01 -0.94292164026E-02 -0.11781813968E+00  0.12167806244E+00  0.19929448922E-01 0.  0.
         14    1    1    2    0    0  0.27071937425E-01 -0.14209325979E-01 -0.82263917942E-02  0.31661779208E-01  0.00000000000E+00 0. -1.
     999901    1    3    3    0    0 -0.48008598718E-01  0.23638542381E-01  0.12604453147E+00  0.89059015835E+00  0.88000000000E+00 0.  1.
        -11    1    4    4    0    0  0.10360942332E-01  0.17061289310E-02 -0.19379134251E-01  0.22047039875E-01  0.51100000000E-03 0.  1.
         11    1    4    4    0    0  0.10575718962E-01 -0.11135345334E-01 -0.98439005427E-01  0.99631022567E-01  0.51100000000E-03 0. -1.
</event>
<event>
 8    1  0.1029818E+005  0.1043930E+01  0.7957747E-01            NaN
         13   -1    0    0    0    0  0.00000000000E+00  0.00000000000E+00  0.74505805969E-08  0.10566000000E+00  0.10566000000E+00 0. -1.
     999900   -1    0    0    0    0 -0.00000000000E+00 -0.00000000000E+00 -0.74505805969E-08  0.93827000000E+00  0.93827000000E+00 0.  1.
     999902    2    1    2    0    0  0.15502294158E-01  0.12892993685E-01  0.12519652430E-01  0.10201962243E+01  0.10199201165E+01 0.  0.
     999903    2    3    3    0    0  0.98813564504E-01 -0.83371864212E-01  0.11978000691E-01  0.13103483065E+00  0.17654066694E-01 0.  0.
         14    1    1    2    0    0 -0.15502294158E-01 -0.12892993685E-01 -0.12519652430E-01  0.23733775665E-01  0.00000000000E+00 0.  1.
     999901    1    3    3    0    0 -0.83311270346E-01  0.96264857898E-01  0.54165173853E-03  0.88916139368E+00  0.88000000000E+00 0. -1.
        -11    1    4    4    0    0  0.58464533509E-01 -0.50408076633E-01  0.15774084556E-01  0.78791869713E-01  0.51100000000E-03 0. -1.
         11    1    4    4    0    0  0.40349030995E-01 -0.32963787579E-01 -0.37960838654E-02  0.52242960937E-01  0.51100000000E-03 0.  1.
</event>
<event>
 8    1  0.9952977E+004  0.1043930E+01  0.7957747E-01            NaN
         13   -1    0    0    0    0  0.00000000000E+00  0.00000000000E+00  0.74505805969E-08  0.10566000000E+00  0.10566000000E+00 0.  1.
     999900   -1    0    0    0    0 -0.00000000000E+00 -0.00000000000E+00 -0.74505805969E-08  0.93827000000E+00  0.93827000000E+00 0.  1.
     999902    2    1    2    0    0 -0.21460952274E-01  0.72136864471E-02  0.84476307743E-02  0.10197644830E+01  0.10194781158E+01 0.  0.
     999903    2    3    3    0    0 -0.12015977687E+00  0.51184108384E-01 -0.13341545210E-01  0.13288815334E+00  0.20568897434E-01 0.  0.
         14    1    1    2    0    0  0.21460952274E-01 -0.72136864471E-02 -0.84476307743E-02  0.24165516969E-01  0.00000000000E+00 0. -1.
     999901    1    3    3    0    0  0.98698824591E-01 -0.43970421937E-01  0.21789175984E-01  0.88687632969E+00  0.88000000000E+00 0. -1.
        -11    1    4    4    0    0 -0.10347615682E+00  0.39686987691E-01 -0.49080664389E-02  0.11093566721E+00  0.51100000000E-03 0.  1.
         11    1    4    4    0    0 -0.16683620049E-01  0.11497120692E-01 -0.84334787709E-02  0.21952486131E-01  0.51100000000E-03 0. -1.
</event>
<event>
 7    1  0.9952977E+004  0.1043930E+01  0.7957747E-01            NaN
         13   -1    0    0    0    0  0.00000000000E+00  0.00000000000E+00  0.74505805969E-08  0.10566000000E+00  0.10566000000E+00 0. -1.
     999900   -1    0    0    0    0 -0.00000000000E+00 -0.00000000000E+00 -0.74505805969E-08  0.93827000000E+00  0.93827000000E+00 0. -1.
     999902    2    1    2    0    0  0.12632065620E-02 -0.21251890684E-01  0.86384839333E-02  0.10209547535E+01  0.10206962069E+01 0.  0.
         14    1    1    2    0    0 -0.12632065620E-02  0.21251890684E-01 -0.86384839333E-02  0.22975246531E-01  0.00000000000E+00 0. -1.
     999901    1    3    3    0    0  0.70803459807E-03  0.10683110956E+00 -0.52949821801E-02  0.88647697326E+00  0.88000000000E+00 0.  1.
        -11    1    3    3    0    0 -0.12725970963E-02 -0.12196806468E+00  0.32457084564E-02  0.12201894955E+00  0.51100000000E-03 0. -1.
         11    1    3    3    0    0  0.18277690602E-02 -0.61149355588E-02  0.10687757657E-01  0.12458830658E-01  0.51100000000E-03 0.  1.
</event>
<event>
 8    1  0.9952977E+004  0.1043930E+01  0.7957747E-01            NaN
         13   -1    0    0    0    0  0.00000000000E+00  0.00000000000E+00  0.74505805969E-08  0.10566000000E+00  0.10566000000E+00 0.  1.
     999900   -1    0    0    0    0 -0.00000000000E+00 -0.00000000000E+00 -0.74505805969E-08  0.93827000000E+00  0.93827000000E+00 0. -1.
     999902    2    1    2    0    0  0.20530712812E-01 -0.10865566681E-02 -0.11990573649E-01  0.10201294826E+01  0.10198518013E+01 0.  0.
     999903    2    3    3    0    0 -0.10484529758E+00  0.34092406429E-01  0.61123786760E-01  0.12754760221E+00  0.19427941779E-01 0.  0.
         14    1    1    2    0    0 -0.20530712812E-01  0.10865566681E-02  0.11990573649E-01  0.23800517440E-01  0.00000000000E+00 0.  1.
     999901    1    3    3    0    0  0.12537601039E+00 -0.35178963098E-01 -0.73114360409E-01  0.89258188035E+00  0.88000000000E+00 0.  1.
        -11    1    4    4    0    0 -0.37318805140E-01  0.29023643098E-02  0.17595775291E-01  0.41364107204E-01  0.51100000000E-03 0.  1.
         11    1    4    4    0    0 -0.67526492439E-01  0.31190042120E-01  0.43528011469E-01  0.86183495009E-01  0.51100000000E-03 0. -1.
</event>
<event>
 8    1  0.9952977E+004  0.1043930E+01  0.7957747E-01            NaN
         13   -1    0    0    0    0  0.00000000000E+00  0.00000000000E+00  0.74505805969E-08  0.10566000000E+00  0.10566000000E+00 0. -1.
     999900   -1    0    0    0    0 -0.00000000000E+00 -0.00000000000E+00 -0.74505805969E-08  0.93827000000E+00  0.93827000000E+00 0.  1.
     999902    2    1    2    0    0 -0.50784317566E-02  0.17549722155E-01  0.14661589786E-01  0.10205046840E+01  0.10202357887E+01 0.  0.
     999903    2    3    3    0    0  0.86388148967E-01 -0.91794659507E-01  0.19112630036E-01  0.12902157085E+00  0.19801548465E-01 0.  0.
         14    1    1    2    0    0  0.50784317566E-02 -0.17549722155E-01 -0.14661589786E-01  0.23425316046E-01  0.00000000000E+00 0.  1.
     999901    1    3    3    0    0 -0.91466580724E-01  0.10934438166E+00 -0.44510402494E-02  0.89148311310E+00  0.88000000000E+00 0.  1.
        -11    1    4    4    0    0  0.66319449533E-02 -0.31784681013E-02  0.51301385105E-02  0.89813582197E-02  0.51100000000E-03 0. -1.
         11    1    4    4    0    0  0.79756204014E-01 -0.88616191406E-01  0.13982491525E-01  0.12004021263E+00  0.51100000000E-03 0.  1.
</event>
<event>
 8    1  0.9952977E+004  0.1043930E+01  0.7957747E-01            NaN
         13   -1    0    0    0    0  0.00000000000E+00  0.00000000000E+00  0.74505805969E-08  0.10566000000E+00  0.10566000000E+00 0.  1.
     999900   -1    0    0    0    0 -0.00000000000E+00 -0.00000000000E+00 -0.74505805969E-08  0.93827000000E+00  0.93827000000E+00 0. -1.
     999902    2    1    2    0    0  0.16853069108E-01  0.13813043360E-01 -0.75674728855E-02  0.10208628643E+01  0.10206022217E+01 0.  0.
     999903    2    3    3    0    0 -0.11475629511E+00  0.10738030244E-01  0.54366854767E-01  0.12891760731E+00  0.19485430898E-01 0.  0.
         14    1    1    2    0    0 -0.16853069108E-01 -0.13813043360E-01  0.75674728855E-02  0.23067135736E-01  0.00000000000E+00 0. -1.
     999901    1    3    3    0    0  0.13160936422E+00  0.30750131156E-02 -0.61934327653E-01  0.89194525695E+00  0.88000000000E+00 0. -1.
        -11    1    4    4    0    0 -0.53382685654E-02  0.14760945703E-02 -0.14320066207E-02  0.57434946173E-02  0.51100000000E-03 0.  1.
         11    1    4    4    0    0 -0.10941802654E+00  0.92619356737E-02  0.55798861388E-01  0.12317411270E+00  0.51100000000E-03 0. -1.
</event>
<event>
 8    1  0.9952977E+004  0.1043930E+01  0.7957747E-01            NaN
         13   -1    0    0    0    0  0.00000000000E+00  0.00000000000E+00  0.74505805969E-08  0.10566000000E+00  0.10566000000E+00 0. -1.
     999900   -1    0    0    0    0 -0.00000000000E+00 -0.00000000000E+00 -0.74505805969E-08  0.93827000000E+00  0.93827000000E+00 0. -1.
     999902    2    1    2    0    0 -0.20275336165E-01 -0.10397477510E-01  0.80191786492E-02  0.10197741721E+01  0.10194880372E+01 0.  0.
     999903    2    3    3    0    0 -0.49721775770E-02  0.78174642330E-01 -0.10021173087E+00  0.12859902835E+00  0.18955786300E-01 0.  0.
         14    1    1    2    0    0  0.20275336165E-01  0.10397477510E-01 -0.80191786492E-02  0.24155827897E-01  0.00000000000E+00 0.  1.
     999901    1    3    3    0    0 -0.15303158588E-01 -0.88572119840E-01  0.10823090952E+00  0.89117514376E+00  0.88000000000E+00 0.  1.
        -11    1    4    4    0    0 -0.31608667062E-02  0.74199892464E-01 -0.85541620969E-01  0.11328391395E+00  0.51100000000E-03 0.  1.
         11    1    4    4    0    0 -0.18113108708E-02  0.39747498663E-02 -0.14670109901E-01  0.15315114399E-01  0.51100000000E-03 0. -1.
</event>
<event>
 8    1  0.9952977E+004  0.1043930E+01  0.7957747E-01            NaN
         13   -1    0    0    0    0  0.00000000000E+00  0.00000000000E+00  0.74505805969E-08  0.10566000000E+00  0.10566000000E+00 0.  1.
     999900   -1    0    0    0    0 -0.00000000000E+00 -0.00000000000E+00 -0.74505805969E-08  0.93827000000E+00  0.93827000000E+00 0. -1.
     999902    2    1    2    0    0 -0.36908844792E-02  0.64948157895E-02 -0.22459696382E-01  0.10202605424E+01  0.10199859466E+01 0.  0.
     999903    2    3    3    0    0  0.11306199772E-01  0.10146103948E+00 -0.82754428267E-01  0.13297313078E+00  0.20282638519E-01 0.  0.
         14    1    1    2    0    0  0.36908844792E-02 -0.64948157895E-02  0.22459696382E-01  0.23669457576E-01  0.00000000000E+00 0.  1.
     999901    1    3    3    0    0 -0.14997084251E-01 -0.94966223687E-01  0.60294731885E-01  0.88728741165E+00  0.88000000000E+00 0.  1.
        -11    1    4    4    0    0  0.31072700047E-02  0.67332213526E-01 -0.64977766830E-01  0.93625068269E-01  0.51100000000E-03 0. -1.
         11    1    4    4    0    0  0.81989297674E-02  0.34128825951E-01 -0.17776661437E-01  0.39348062506E-01  0.51100000000E-03 0.  1.
</event>
<event>
 8    1  0.9952977E+004  0.1043930E+01  0.7957747E-01            NaN
         13   -1    0    0    0    0  0.00000000000E+00  0.00000000000E+00  0.74505805969E-08  0.10566000000E+00  0.10566000000E+00 0.  1.
     999900   -1    0    0    0    0 -0.00000000000E+00 -0.00000000000E+00 -0.74505805969E-08  0.93827000000E+00  0.93827000000E+00 0. -1.
     999902    2    1    2    0    0 -0.17085630545E-01  0.11103012283E-01  0.11276858946E-01  0.10206413075E+01  0.10203755756E+01 0.  0.
     999903    2    3    3    0    0  0.25016683223E-01  0.66130196419E-01  0.10988441499E+00  0.13242734341E+00  0.21526246940E-01 0.  0.
         14    1    1    2    0    0  0.17085630545E-01 -0.11103012283E-01 -0.11276858946E-01  0.23288692547E-01  0.00000000000E+00 0.  1.
     999901    1    3    3    0    0 -0.42102313768E-01 -0.55027184136E-01 -0.98607556039E-01  0.88821396405E+00  0.88000000000E+00 0. -1.
        -11    1    4    4    0    0  0.10024514461E-02  0.29613436213E-01  0.52582459599E-01  0.60358401998E-01  0.51100000000E-03 0.  1.
         11    1    4    4    0    0  0.24014231777E-01  0.36516760206E-01  0.57301955386E-01  0.72068941409E-01  0.51100000000E-03 0. -1.
</event>
<event>
 8    1  0.9952977E+004  0.1043930E+01  0.7957747E-01            NaN
         13   -1    0    0    0    0  0.00000000000E+00  0.00000000000E+00  0.74505805969E-08  0.10566000000E+00  0.10566000000E+00 0. -1.
     999900   -1    0    0    0    0 -0.00000000000E+00 -0.00000000000E+00 -0.74505805969E-08  0.93827000000E+00  0.93827000000E+00 0. -1.
     999902    2    1    2    0    0 -0.22506602665E-01  0.10913475010E-01 -0.57636746067E-02  0.10182615165E+01  0.10179379377E+01 0.  0.
     999903    2    3    3    0    0  0.70240126677E-01  0.59336181704E-01  0.84502445238E-01  0.12747832923E+00  0.25604751851E-01 0.  0.
         14    1    1    2    0    0  0.22506602665E-01 -0.10913475010E-01  0.57636746067E-02  0.25668483502E-01  0.00000000000E+00 0. -1.
     999901    1    3    3    0    0 -0.92746729342E-01 -0.48422706693E-01 -0.90266119844E-01  0.89078318727E+00  0.88000000000E+00 0. -1.
        -11    1    4    4    0    0  0.25437973482E-01  0.12584783480E-01  0.39417447400E-01  0.48574309575E-01  0.51100000000E-03 0. -1.
         11    1    4    4    0    0  0.44802153195E-01  0.46751398224E-01  0.45084997837E-01  0.78904019655E-01  0.51100000000E-03 0.  1.
</event>
<event>
 8    1  0.1160199E+005  0.1043930E+01  0.7957747E-01            NaN
         13   -1    0    0    0    0  0.00000000000E+00  0.00000000000E+00  0.74505805969E-08  0.10566000000E+00  0.10566000000E+00 0. -1.
     999900   -1    0    0    0    0 -0.00000000000E+00 -0.00000000000E+00 -0.74505805969E-08  0.93827000000E+00  0.93827000000E+00 0.  1.
     999902    2    1    2    0    0 -0.79660253692E-02 -0.39205051641E-02  0.30464172815E-01  0.10121984109E+01  0.10117009090E+01 0.  0.
     999903    2    3    3    0    0  0.73238629442E-01 -0.96239230667E-01  0.12494675718E-01  0.12346906748E+00  0.21508308673E-01 0.  0.
         14    1    1    2    0    0  0.79660253692E-02  0.39205051641E-02 -0.30464172815E-01  0.31731589090E-01  0.00000000000E+00 0.  1.
     999901    1    3    3    0    0 -0.81204654811E-01  0.92318725502E-01  0.17969497096E-01  0.88872934343E+00  0.88000000000E+00 0. -1.
        -11    1    4    4    0    0  0.28507823882E-01 -0.55123938262E-01  0.53296568452E-02  0.62289733947E-01  0.51100000000E-03 0.  1.
         11    1    4    4    0    0  0.44730805560E-01 -0.41115292404E-01  0.71650188730E-02  0.61179333536E-01  0.51100000000E-03 0. -1.
</event>
<event>
 8    1  0.9952977E+004  0.1043930E+01  0.7957747E-01            NaN
         13   -1    0    0    0    0  0.00000000000E+00  0.00000000000E+00  0.74505805969E-08  0.10566000000E+00  0.10566000000E+00 0. -1.
     999900   -1    0    0    0    0 -0.00000000000E+00 -0.00000000000E+00 -0.74505805969E-08  0.93827000000E+00  0.93827000000E+00 0.  1.
     999902    2    1    2    0    0 -0.88996357706E-02 -0.17683113006E-01 -0.11246940177E-01  0.10211618278E+01  0.10209079728E+01 0.  0.
     999903    2    3    3    0    0  0.71673638548E-01  0.69475426325E-01 -0.81938883528E-01  0.13038350836E+00  0.17942499621E-01 0.  0.
         14    1    1    2    0    0  0.88996357706E-02  0.17683113006E-01  0.11246940177E-01  0.22768172210E-01  0.00000000000E+00 0.  1.
     999901    1    3    3    0    0 -0.80573274319E-01 -0.87158539331E-01  0.70691943351E-01  0.89077831943E+00  0.88000000000E+00 0. -1.
        -11    1    4    4    0    0  0.19291320083E-01  0.89748396683E-02 -0.19719490135E-01  0.29014172223E-01  0.51100000000E-03 0. -1.
         11    1    4    4    0    0  0.52382318465E-01  0.60500586656E-01 -0.62219393393E-01  0.10136933614E+00  0.51100000000E-03 0.  1.
</event>
<event>
 8    1  0.9952977E+004  0.1043930E+01  0.7957747E-01            NaN
         13   -1    0    0    0    0  0.00000000000E+00  0.00000000000E+00  0.74505805969E-08  0.10566000000E+00  0.10566000000E+00 0.  1.
     999900   -1    0    0    0    0 -0.00000000000E+00 -0.00000000000E+00 -0.74505805969E-08  0.93827000000E+00  0.93827000000E+00 0. -1.
     999902    2    1    2    0    0  0.39226990297E-02 -0.37975700490E-02 -0.23075768574E-01  0.10202171301E+01  0.10199415141E+01 0.  0.
     999903    2    3    3    0    0 -0.62789374897E-02  0.51710407503E-01  0.11395229677E+00  0.12782601644E+00  0.25317449309E-01 0.  0.
         14    1    1    2    0    0 -0.39226990297E-02  0.37975700490E-02  0.23075768574E-01  0.23712869949E-01  0.00000000000E+00 0.  1.
     999901    1    3    3    0    0  0.10201636519E-01 -0.55507977552E-01 -0.13702806534E+00  0.89239111361E+00  0.88000000000E+00 0. -1.
        -11    1    4    4    0    0 -0.13784858416E-01  0.47119521674E-01  0.97277993972E-01  0.10896577847E+00  0.51100000000E-03 0. -1.
         11    1    4    4    0    0  0.75059209259E-02  0.45908858282E-02  0.16674302798E-01  0.18860237974E-01  0.51100000000E-03 0.  1.
</event>
<event>
 8    1  0.9952977E+004  0.1043930E+01  0.7957747E-01            NaN
         13   -1    0    0    0    0  0.00000000000E+00  0.00000000000E+00  0.74505805969E-08  0.10566000000E+00  0.10566000000E+00 0.  1.
     999900   -1    0    0    0    0 -0.00000000000E+00 -0.00000000000E+00 -0.74505805969E-08  0.93827000000E+00  0.93827000000E+00 0. -1.
     999902    2    1    2    0    0 -0.19867255035E-01  0.50639127886E-02  0.98846118546E-02  0.10211691435E+01  0.10209154535E+01 0.  0.
     999903    2    3    3    0    0  0.73770151383E-01  0.16178325392E-01  0.10533449413E+00  0.13099939901E+00  0.19018765437E-01 0.  0.
         14    1    1    2    0    0  0.19867255035E-01 -0.50639127886E-02 -0.98846118546E-02  0.22760856462E-01  0.00000000000E+00 0. -1.
     999901    1    3    3    0    0 -0.93637406419E-01 -0.11114412603E-01 -0.95449882278E-01  0.89016974453E+00  0.88000000000E+00 0. -1.
        -11    1    4    4    0    0  0.51696317521E-01  0.10359274038E-01  0.57623937846E-01  0.78106357857E-01  0.51100000000E-03 0.  1.
         11    1    4    4    0    0  0.22073833863E-01  0.58190513541E-02  0.47710556287E-01  0.52893041152E-01  0.51100000000E-03 0. -1.
</event>
<event>
 8    1  0.9952977E+004  0.1043930E+01  0.7957747E-01            NaN
         13   -1    0    0    0    0  0.00000000000E+00  0.00000000000E+00  0.74505805969E-08  0.10566000000E+00  0.10566000000E+00 0. -1.
     999900   -1    0    0    0    0 -0.00000000000E+00 -0.00000000000E+00 -0.74505805969E-08  0.93827000000E+00  0.93827000000E+00 0.  1.
     999902    2    1    2    0    0  0.11389522627E-01  0.12523332438E-01  0.15259432842E-01  0.10211395333E+01  0.10208851753E+01 0.  0.
     999903    2    3    3    0    0 -0.31413153892E-01  0.11927959017E+00  0.47907550219E-01  0.13305458960E+00  0.13927798746E-01 0.  0.
         14    1    1    2    0    0 -0.11389522627E-01 -0.12523332438E-01 -0.15259432842E-01  0.22790466684E-01  0.00000000000E+00 0.  1.
     999901    1    3    3    0    0  0.42802676519E-01 -0.10675625773E+00 -0.32648117378E-01  0.88808494371E+00  0.88000000000E+00 0.  1.
        -11    1    4    4    0    0 -0.73407818164E-02  0.12147943539E-01  0.36302477405E-02  0.14659448474E-01  0.51100000000E-03 0. -1.
         11    1    4    4    0    0 -0.24072372075E-01  0.10713164663E+00  0.44277302479E-01  0.11839514113E+00  0.51100000000E-03 0.  1.
</event>
<event>
 8    1  0.9952977E+004  0.1043930E+01  0.7957747E-01            NaN
         13   -1    0    0    0    0  0.00000000000E+00  0.00000000000E+00  0.74505805969E-08  0.10566000000E+00  0.10566000000E+00 0. -1.
     999900   -1    0    0    0    0 -0.00000000000E+00 -0.00000000000E+00 -0.74505805969E-08  0.93827000000E+00  0.93827000000E+00 0.  1.
     999902    2    1    2    0    0 -0.66980062228E-02  0.22486571084E-01  0.42484116628E-03  0.10204632223E+01  0.10201933632E+01 0.  0.
     999903    2    3    3    0    0 -0.75233894000E-02 -0.11040706606E+00  0.61813927647E-01  0.12837016660E+00  0.20288331593E-01 0.  0.
         14    1    1    2    0    0  0.66980062228E-02 -0.22486571084E-01 -0.42484116628E-03  0.23466777718E-01  0.00000000000E+00 0.  1.
     999901    1    3    3    0    0  0.82538317721E-03  0.13289363714E+00 -0.61389086481E-01  0.89209305568E+00  0.88000000000E+00 0.  1.
        -11    1    4    4    0    0 -0.85301233617E-02 -0.57297320835E-01  0.42489792554E-01  0.71842811552E-01  0.51100000000E-03 0. -1.
         11    1    4    4    0    0  0.10067339617E-02 -0.53109745224E-01  0.19324135094E-01  0.56527355052E-01  0.51100000000E-03 0.  1.
</event>
<event>
 8    1  0.9952977E+004  0.1043930E+01  0.7957747E-01            NaN
         13   -1    0    0    0    0  0.00000000000E+00  0.00000000000E+00  0.74505805969E-08  0.10566000000E+00  0.10566000000E+00 0. -1.
     999900   -1    0    0    0    0 -0.00000000000E+00 -0.00000000000E+00 -0.74505805969E-08  0.93827000000E+00  0.93827000000E+00 0. -1.
     999902    2    1    2    0    0 -0.12044629785E-01  0.35883066463E-02  0.22914832807E-01  0.10177949926E+01  0.10174593890E+01 0.  0.
     999903    2    3    3    0    0 -0.38922184873E-01  0.11740262531E+00 -0.30446266835E-01  0.12845618814E+00  0.16604342847E-01 0.  0.
         14    1    1    2    0    0  0.12044629785E-01 -0.35883066463E-02 -0.22914832807E-01  0.26135007439E-01  0.00000000000E+00 0.  1.
     999901    1    3    3    0    0  0.26877555089E-01 -0.11381431866E+00  0.53361099642E-01  0.88933880442E+00  0.88000000000E+00 0.  1.
        -11    1    4    4    0    0 -0.37571030767E-01  0.95589921136E-01 -0.22126075296E-01  0.10506588269E+00  0.51100000000E-03 0.  1.
         11    1    4    4    0    0 -0.13511541063E-02  0.21812704174E-01 -0.83201915390E-02  0.23390305450E-01  0.51100000000E-03 0. -1.
</event>
<event>
 8    1  0.9952977E+004  0.1043930E+01  0.7957747E-01            NaN
         13   -1    0    0    0    0  0.00000000000E+00  0.00000000000E+00  0.74505805969E-08  0.10566000000E+00  0.10566000000E+00 0. -1.
     999900   -1    0    0    0    0 -0.00000000000E+00 -0.00000000000E+00 -0.74505805969E-08  0.93827000000E+00  0.93827000000E+00 0. -1.
     999902    2    1    2    0    0  0.99800973559E-02 -0.11103761743E-01  0.17857108358E-01  0.10206539998E+01  0.10203885608E+01 0.  0.
     999903    2    3    3    0    0 -0.86957130180E-01 -0.45651814099E-01  0.85990832265E-01  0.13204126165E+00  0.19870604544E-01 0.  0.
         14    1    1    2    0    0 -0.99800973559E-02  0.11103761743E-01 -0.17857108358E-01  0.23276000236E-01  0.00000000000E+00 0.  1.
     999901    1    3    3    0    0  0.96937227536E-01  0.34548052356E-01 -0.68133723907E-01  0.88861273811E+00  0.88000000000E+00 0. -1.
        -11    1    4    4    0    0 -0.24677872927E-01 -0.23071154217E-01  0.25484068007E-01  0.42319905627E-01  0.51100000000E-03 0.  1.
         11    1    4    4    0    0 -0.62279257253E-01 -0.22580659882E-01  0.60506764258E-01  0.89721356023E-01  0.51100000000E-03 0. -1.
</event>
<event>
 8    1  0.9952977E+004  0.1043930E+01  0.7957747E-01            NaN
         13   -1    0    0    0    0  0.00000000000E+00  0.00000000000E+00  0.74505805969E-08  0.10566000000E+00  0.10566000000E+00 0. -1.
     999900   -1    0    0    0    0 -0.00000000000E+00 -0.00000000000E+00 -0.74505805969E-08  0.93827000000E+00  0.93827000000E+00 0. -1.
     999902    2    1    2    0    0  0.10820542895E-01 -0.12294955569E-02  0.21715717933E-01  0.10196366220E+01  0.10193471797E+01 0.  0.
     999903    2    3    3    0    0  0.77073013706E-01  0.64930647231E-01 -0.78304036170E-01  0.12903541745E+00  0.19036241366E-01 0.  0.
         14    1    1    2    0    0 -0.10820542895E-01  0.12294955569E-02 -0.21715717933E-01  0.24293377970E-01  0.00000000000E+00 0.  1.
     999901    1    3    3    0    0 -0.66252470811E-01 -0.66160142788E-01  0.10001975410E+00  0.89060120458E+00  0.88000000000E+00 0.  1.
        -11    1    4    4    0    0  0.50639825366E-01  0.45375987351E-01 -0.41413253177E-01  0.79615895403E-01  0.51100000000E-03 0. -1.
         11    1    4    4    0    0  0.26433188340E-01  0.19554659880E-01 -0.36890782993E-01  0.49419522051E-01  0.51100000000E-03 0.  1.
</event>
<event>
 8    1  0.9952977E+004  0.1043930E+01  0.7957747E-01            NaN
         13   -1    0    0    0    0  0.00000000000E+00  0.00000000000E+00  0.74505805969E-08  0.10566000000E+00  0.10566000000E+00 0.  1.
     999900   -1    0    0    0    0 -0.00000000000E+00 -0.00000000000E+00 -0.74505805969E-08  0.93827000000E+00  0.93827000000E+00 0.  1.
     999902    2    1    2    0    0  0.32547671133E-02  0.10289954228E-02 -0.24350051648E-01  0.10193418452E+01  0.10190452493E+01 0.  0.
     999903    2    3    3    0    0 -0.10304015905E+00 -0.69943291035E-01 -0.34424622955E-01  0.13005158115E+00  0.14799349863E-01 0.  0.
         14    1    1    2    0    0 -0.32547671133E-02 -0.10289954228E-02  0.24350051648E-01  0.24588154787E-01  0.00000000000E+00 0.  1.
     999901    1    3    3    0    0  0.10629492616E+00  0.70972286458E-01  0.10074571307E-01  0.88929026406E+00  0.88000000000E+00 0. -1.
        -11    1    4    4    0    0 -0.11851110718E-01 -0.13662130767E-01 -0.26955907712E-02  0.18292894056E-01  0.51100000000E-03 0. -1.
         11    1    4    4    0    0 -0.91189048330E-01 -0.56281160268E-01 -0.31729032184E-01  0.11175868709E+00  0.51100000000E-03 0.  1.
</event>
<event>
 8    1  0.9952977E+004  0.1043930E+01  0.7957747E-01            NaN
         13   -1    0    0    0    0  0.00000000000E+00  0.00000000000E+00  0.74505805969E-08  0.10566000000E+00  0.10566000000E+00 0.  1.
     999900   -1    0    0    0    0 -0.00000000000E+00 -0.00000000000E+00 -0.74505805969E-08  0.93827000000E+00  0.93827000000E+00 0.  1.
     999902    2    1    2    0    0  0.75819591452E-02  0.29264982082E-02  0.24948101378E-01  0.10176915119E+01  0.10173532106E+01 0.  0.
     999903    2    3    3    0    0  0.70868707986E-01  0.18266658164E-02 -0.10222951236E+00  0.12629902389E+00  0.21791277124E-01 0.  0.
         14    1    1    2    0    0 -0.75819591452E-02 -0.29264982082E-02 -0.24948101378E-01  0.26238488116E-01  0.00000000000E+00 0. -1.
     999901    1    3    3    0    0 -0.63286748841E-01  0.10998323917E-02  0.12717761374E+00  0.89139248799E+00  0.88000000000E+00 0. -1.
        -11    1    4    4    0    0  0.40877130381E-01 -0.94031678553E-02 -0.62396721372E-01  0.75186244173E-01  0.51100000000E-03 0. -1.
         11    1    4    4    0    0  0.29991577605E-01  0.11229833672E-01 -0.39832790990E-01  0.51112779719E-01  0.51100000000E-03 0.  1.
</event>
<event>
 8    1  0.9952977E+004  0.1043930E+01  0.7957747E-01            NaN
         13   -1    0    0    0    0  0.00000000000E+00  0.00000000000E+00  0.74505805969E-08  0.10566000000E+00  0.10566000000E+00 0.  1.
     999900   -1    0    0    0    0 -0.00000000000E+00 -0.00000000000E+00 -0.74505805969E-08  0.93827000000E+00  0.93827000000E+00 0. -1.
     999902    2    1    2    0    0  0.12106086917E-01 -0.16030764550E-02  0.20258527408E-01  0.10202755051E+01  0.10200012604E+01 0.  0.
     999903    2    3    3    0    0 -0.55778712302E-01  0.10460603817E+00  0.51348670180E-01  0.13075017162E+00  0.20130411818E-01 0.  0.
         14    1    1    2    0    0 -0.12106086917E-01  0.16030764550E-02 -0.20258527408E-01  0.23654494865E-01  0.00000000000E+00 0. -1.
     999901    1    3    3    0    0  0.67884799219E-01 -0.10620911463E+00 -0.31090142772E-01  0.88952533352E+00  0.88000000000E+00 0.  1.
        -11    1    4    4    0    0 -0.34036286351E-01  0.48354988676E-01  0.17890622132E-01  0.61781948817E-01  0.51100000000E-03 0. -1.
         11    1    4    4    0    0 -0.21742425951E-01  0.56251049498E-01  0.33458048048E-01  0.68968222799E-01  0.51100000000E-03 0.  1.
</event>
<event>
 8    1  0.9952977E+004  0.1043930E+01  0.7957747E-01            NaN
         13   -1    0    0    0    0  0.00000000000E+00  0.00000000000E+00  0.74505805969E-08  0.10566000000E+00  0.10566000000E+00 0.  1.
     999900   -1    0    0    0    0 -0.00000000000E+00 -0.00000000000E+00 -0.74505805969E-08  0.93827000000E+00  0.93827000000E+00 0.  1.
     999902    2    1    2    0    0  0.11660936020E-01  0.20473277507E-01  0.14284209080E-02  0.10203254897E+01  0.10200524163E+01 0.  0.
     999903    2    3    3    0    0 -0.12347344311E+00  0.13625277408E-01  0.30824390292E-01  0.12949872845E+00  0.19708837992E-01 0.  0.
         14    1    1    2    0    0 -0.11660936020E-01 -0.20473277507E-01 -0.14284209080E-02  0.23604510311E-01  0.00000000000E+00 0.  1.
     999901    1    3    3    0    0  0.13513437913E+00  0.68480000993E-02 -0.29395969384E-01  0.89082676124E+00  0.88000000000E+00 0. -1.
        -11    1    4    4    0    0 -0.80691789830E-01  0.16778287406E-01  0.25470639975E-01  0.86265233414E-01  0.51100000000E-03 0.  1.
         11    1    4    4    0    0 -0.42781653279E-01 -0.31530099990E-02  0.53537503172E-02  0.43233495033E-01  0.51100000000E-03 0. -1.
</event>
<event>
 8    1  0.9952977E+004  0.1043930E+01  0.7957747E-01            NaN
         13   -1    0    0    0    0  0.00000000000E+00  0.00000000000E+00  0.74505805969E-08  0.10566000000E+00  0.10566000000E+00 0. -1.
     999900   -1    0    0    0    0 -0.00000000000E+00 -0.00000000000E+00 -0.74505805969E-08  0.93827000000E+00  0.93827000000E+00 0. -1.
     999902    2    1    2    0    0  0.92258976968E-02 -0.69195302428E-02 -0.20757199565E-01  0.10201842968E+01  0.10199079081E+01 0.  0.
     999903    2    3    3    0    0  0.55850052312E-02 -0.41694582842E-01  0.11956465027E+00  0.12838118964E+00  0.20405728082E-01 0.  0.
         14    1    1    2    0    0 -0.92258976968E-02  0.69195302428E-02  0.20757199565E-01  0.23745703209E-01  0.00000000000E+00 0. -1.
     999901    1    3    3    0    0  0.36408924656E-02  0.34775052600E-01 -0.14032184983E+00  0.89180310715E+00  0.88000000000E+00 0. -1.
        -11    1    4    4    0    0 -0.22565883935E-02 -0.97372169600E-02  0.10700369412E-01  0.14651437194E-01  0.51100000000E-03 0.  1.
         11    1    4    4    0    0  0.78415936248E-02 -0.31957365882E-01  0.10886428086E+00  0.11372975245E+00  0.51100000000E-03 0. -1.
</event>
<event>
 8    1  0.9952977E+004  0.1043930E+01  0.7957747E-01            NaN
         13   -1    0    0    0    0  0.00000000000E+00  0.00000000000E+00  0.74505805969E-08  0.10566000000E+00  0.10566000000E+00 0. -1.
     999900   -1    0    0    0    0 -0.00000000000E+00 -0.00000000000E+00 -0.74505805969E-08  0.93827000000E+00  0.93827000000E+00 0. -1.
     999902    2    1    2    0    0  0.63046982708E-02 -0.18577385664E-01 -0.11388881429E-01  0.10212457522E+01  0.10209937861E+01 0.  0.
     999903    2    3    3    0    0 -0.11453780828E+00 -0.59426606580E-01  0.16171575286E-01  0.13162159053E+00  0.20304978462E-01 0.  0.
         14    1    1    2    0    0 -0.63046982708E-02  0.18577385664E-01  0.11388881429E-01  0.22684247808E-01  0.00000000000E+00 0. -1.
     999901    1    3    3    0    0  0.12084250655E+00  0.40849220916E-01 -0.27560456715E-01  0.88962416166E+00  0.88000000000E+00 0.  1.
        -11    1    4    4    0    0 -0.64567321638E-01 -0.31720072980E-01  0.19016511143E-01  0.74410959344E-01  0.51100000000E-03 0. -1.
         11    1    4    4    0    0 -0.49970486645E-01 -0.27706533600E-01 -0.28449358562E-02  0.57210631186E-01  0.51100000000E-03 0.  1.
</event>
<event>
 8    1  0.9952977E+004  0.1043930E+01  0.7957747E-01            NaN
         13   -1    0    0    0    0  0.00000000000E+00  0.00000000000E+00  0.74505805969E-08  0.10566000000E+00  0.10566000000E+00 0.  1.
     999900   -1    0    0    0    0 -0.00000000000E+00 -0.00000000000E+00 -0.74505805969E-08  0.93827000000E+00  0.93827000000E+00 0. -1.
     999902    2    1    2    0    0  0.14308800886E-01 -0.87243409873E-02 -0.17612421849E-01  0.10196184120E+01  0.10193285303E+01 0.  0.
     999903    2    3    3    0    0  0.20594644556E-01 -0.53130114324E-01 -0.11823638244E+00  0.13274944422E+00  0.19890308599E-01 0.  0.
         14    1    1    2    0    0 -0.14308800886E-01  0.87243409873E-02  0.17612421849E-01  0.24311588016E-01  0.00000000000E+00 0. -1.
     999901    1    3    3    0    0 -0.62858436701E-02  0.44405773337E-01  0.10062396059E+00  0.88686896776E+00  0.88000000000E+00 0.  1.
        -11    1    4    4    0    0  0.17148866216E-01 -0.18230759860E-01 -0.43411439210E-01  0.50112457462E-01  0.51100000000E-03 0. -1.
         11    1    4    4    0    0  0.34457783402E-02 -0.34899354464E-01 -0.74824943229E-01  0.82636986759E-01  0.51100000000E-03 0.  1.
</event>
<event>
 8    1  0.9952977E+004  0.1043930E+01  0.7957747E-01            NaN
         13   -1    0    0    0    0  0.00000000000E+00  0.00000000000E+00  0.74505805969E-08  0.10566000000E+00  0.10566000000E+00 0. -1.
     999900   -1    0    0    0    0 -0.00000000000E+00 -0.00000000000E+00 -0.74505805969E-08  0.93827000000E+00  0.93827000000E+00 0. -1.
     999902    2    1    2    0    0  0.21781054824E-01  0.35196817826E-03  0.98044522409E-02  0.10200413936E+01  0.10197616286E+01 0.  0.
     999903    2    3    3    0    0 -0.94266257580E-01  0.17587499620E-01  0.84001958735E-01  0.12916019378E+00  0.20750400617E-01 0.  0.
         14    1    1    2    0    0 -0.21781054824E-01 -0.35196817826E-03 -0.98044522409E-02  0.23888606376E-01  0.00000000000E+00 0.  1.
     999901    1    3    3    0    0  0.11604731240E+00 -0.17235531442E-01 -0.74197506494E-01  0.89088119984E+00  0.88000000000E+00 0. -1.
        -11    1    4    4    0    0 -0.12087055195E-01 -0.39161872860E-02  0.15396323899E-01  0.19968508626E-01  0.51100000000E-03 0.  1.
         11    1    4    4    0    0 -0.82179202385E-01  0.21503686906E-01  0.68605634836E-01  0.10919168516E+00  0.51100000000E-03 0. -1.
</event>
<event>
 8    1  0.9952977E+004  0.1043930E+01  0.7957747E-01            NaN
         13   -1    0    0    0    0  0.00000000000E+00  0.00000000000E+00  0.74505805969E-08  0.10566000000E+00  0.10566000000E+00 0.  1.
     999900   -1    0    0    0    0 -0.00000000000E+00 -0.00000000000E+00 -0.74505805969E-08  0.93827000000E+00  0.93827000000E+00 0. -1.
     999902    2    1    2    0    0  0.10216327470E-01  0.64578262849E-02 -0.19783536441E-01  0.10207467047E+01  0.10204834001E+01 0.  0.
     999903    2    3    3    0    0  0.99987363170E-01 -0.82972083935E-01  0.76822699958E-03  0.13143296777E+00  0.19803922293E-01 0.  0.
         14    1    1    2    0    0 -0.10216327470E-01 -0.64578262849E-02  0.19783536441E-01  0.23183295310E-01  0.00000000000E+00 0.  1.
     999901    1    3    3    0    0 -0.89771035701E-01  0.89429910219E-01 -0.20551763441E-01  0.88931373692E+00  0.88000000000E+00 0. -1.
        -11    1    4    4    0    0  0.47226285914E-01 -0.35769682284E-01 -0.91417044912E-02  0.59946844236E-01  0.51100000000E-03 0.  1.
         11    1    4    4    0    0  0.52761077257E-01 -0.47202401651E-01  0.99099314908E-02  0.71486123535E-01  0.51100000000E-03 0. -1.
</event>
<event>
 8    1  0.9952977E+004  0.1043930E+01  0.7957747E-01            NaN
         13   -1    0    0    0    0  0.00000000000E+00  0.00000000000E+00  0.74505805969E-08  0.10566000000E+00  0.10566000000E+00 0. -1.
     999900   -1    0    0    0    0 -0.00000000000E+00 -0.00000000000E+00 -0.74505805969E-08  0.93827000000E+00  0.93827000000E+00 0. -1.
     999902    2    1    2    0    0  0.49132382108E-02 -0.16965142205E-01  0.22347148519E-02  0.10261269129E+01  0.10259724614E+01 0.  0.
     999903    2    3    3    0    0  0.99214724572E-01  0.86583721029E-01 -0.19495260549E-01  0.13478672575E+00  0.21144595875E-01 0.  0.
         14    1    1    2    0    0 -0.49132382108E-02  0.16965142205E-01 -0.22347148519E-02  0.17803087098E-01  0.00000000000E+00 0. -1.
     999901    1    3    3    0    0 -0.94301486361E-01 -0.10354886323E+00  0.21729975401E-01  0.89134018716E+00  0.88000000000E+00 0.  1.
        -11    1    4    4    0    0  0.32045882970E-01  0.25205986443E-01 -0.15779527475E-01  0.43721104471E-01  0.51100000000E-03 0. -1.
         11    1    4    4    0    0  0.67168841602E-01  0.61377734586E-01 -0.37157330739E-02  0.91065621276E-01  0.51100000000E-03 0.  1.
</event>
<event>
 8    1  0.9952977E+004  0.1043930E+01  0.7957747E-01            NaN
         13   -1    0    0    0    0  0.00000000000E+00  0.00000000000E+00  0.74505805969E-08  0.10566000000E+00  0.10566000000E+00 0.  1.
     999900   -1    0    0    0    0 -0.00000000000E+00 -0.00000000000E+00 -0.74505805969E-08  0.93827000000E+00  0.93827000000E+00 0.  1.
     999902    2    1    2    0    0  0.21751332406E-01  0.73636910030E-02  0.64366607509E-02  0.10200809957E+01  0.10198021684E+01 0.  0.
     999903    2    3    3    0    0  0.58167284726E-01 -0.59498897458E-01 -0.98772571077E-01  0.13054982151E+00  0.19070482088E-01 0.  0.
         14    1    1    2    0    0 -0.21751332406E-01 -0.73636910030E-02 -0.64366607509E-02  0.23849004345E-01  0.00000000000E+00 0. -1.
     999901    1    3    3    0    0 -0.36415952320E-01  0.66862588461E-01  0.10520923183E+00  0.88953117415E+00  0.88000000000E+00 0. -1.
        -11    1    4    4    0    0  0.39208214496E-01 -0.27999655433E-01 -0.49588405589E-01  0.69141419411E-01  0.51100000000E-03 0.  1.
         11    1    4    4    0    0  0.18959070231E-01 -0.31499242025E-01 -0.49184165488E-01  0.61408402096E-01  0.51100000000E-03 0. -1.
</event>
<event>
 8    1  0.9952977E+004  0.1043930E+01  0.7957747E-01            NaN
         13   -1    0    0    0    0  0.00000000000E+00  0.00000000000E+00  0.74505805969E-08  0.10566000000E+00  0.10566000000E+00 0. -1.
     999900   -1    0    0    0    0 -0.00000000000E+00 -0.00000000000E+00 -0.74505805969E-08  0.93827000000E+00  0.93827000000E+00 0. -1.
     999902    2    1    2    0    0  0.20490800974E-01 -0.91474181718E-02  0.86709166226E-02  0.10198731303E+01  0.10195893629E+01 0.  0.
     999903    2    3    3    0    0  0.32761123573E-01 -0.92076638268E-01  0.86979496900E-01  0.13242732910E+00  0.20497953021E-01 0.  0.
         14    1    1    2    0    0 -0.20490800974E-01  0.91474181718E-02 -0.86709166226E-02  0.24056869681E-01  0.00000000000E+00 0. -1.
     999901    1    3    3    0    0 -0.12270322600E-01  0.82929220096E-01 -0.78308580278E-01  0.88744580122E+00  0.88000000000E+00 0. -1.
        -11    1    4    4    0    0  0.16725729247E-01 -0.42251226680E-01  0.53922899934E-01  0.70518482919E-01  0.51100000000E-03 0.  1.
         11    1    4    4    0    0  0.16035394326E-01 -0.49825411588E-01  0.33056596966E-01  0.61908846178E-01  0.51100000000E-03 0. -1.
</event>
<event>
 8    1  0.9952977E+004  0.1043930E+01  0.7957747E-01            NaN
         13   -1    0    0    0    0  0.00000000000E+00  0.00000000000E+00  0.74505805969E-08  0.10566000000E+00  0.10566000000E+00 0. -1.
     999900   -1    0    0    0    0 -0.00000000000E+00 -0.00000000000E+00 -0.74505805969E-08  0.93827000000E+00  0.93827000000E+00 0.  1.
     999902    2    1    2    0    0  0.36323988589E-02  0.22492045729E-01  0.65589819751E-02  0.10202212108E+01  0.10199456908E+01 0.  0.
     999903    2    3    3    0    0  0.61522055300E-01 -0.10764321234E+00 -0.24104781440E-01  0.12824213920E+00  0.22203182805E-01 0.  0.
         14    1    1    2    0    0 -0.36323988589E-02 -0.22492045729E-01 -0.65589819751E-02  0.23708789237E-01  0.00000000000E+00 0. -1.
     999901    1    3    3    0    0 -0.57889656441E-01  0.13013525807E+00  0.30663763415E-01  0.89197907156E+00  0.88000000000E+00 0. -1.
        -11    1    4    4    0    0  0.51436880824E-01 -0.69350630847E-01 -0.17248431206E-01  0.88051304408E-01  0.51100000000E-03 0.  1.
         11    1    4    4    0    0  0.10085174476E-01 -0.38292581497E-01 -0.68563502340E-02  0.40190834794E-01  0.51100000000E-03 0. -1.
</event>
<event>
 8    1  0.9952977E+004  0.1043930E+01  0.7957747E-01            NaN
         13   -1    0    0    0    0  0.00000000000E+00  0.00000000000E+00  0.74505805969E-08  0.10566000000E+00  0.10566000000E+00 0. -1.
     999900   -1    0    0    0    0 -0.00000000000E+00 -0.00000000000E+00 -0.74505805969E-08  0.93827000000E+00  0.93827000000E+00 0. -1.
     999902    2    1    2    0    0 -0.29671004134E-02 -0.21246621630E-01 -0.10855871419E-01  0.10198868604E+01  0.10196034207E+01 0.  0.
     999903    2    3    3    0    0  0.10809662905E-01 -0.12033355966E+00 -0.52719239347E-01  0.13322990193E+00  0.19335826314E-01 0.  0.
         14    1    1    2    0    0  0.29671004134E-02  0.21246621630E-01  0.10855871419E-01  0.24043139558E-01  0.00000000000E+00 0. -1.
     999901    1    3    3    0    0 -0.13776763318E-01  0.99086938031E-01  0.41863367928E-01  0.88665695851E+00  0.88000000000E+00 0.  1.
        -11    1    4    4    0    0  0.78268664253E-02 -0.39576985079E-01 -0.26493878783E-01  0.48267839396E-01  0.51100000000E-03 0. -1.
         11    1    4    4    0    0  0.29827964798E-02 -0.80756574581E-01 -0.26225360564E-01  0.84962062538E-01  0.51100000000E-03 0.  1.
</event>
<event>
 8    1  0.9952977E+004  0.1043930E+01  0.7957747E-01            NaN
         13   -1    0    0    0    0  0.00000000000E+00  0.00000000000E+00  0.74505805969E-08  0.10566000000E+00  0.10566000000E+00 0.  1.
     999900   -1    0    0    0    0 -0.00000000000E+00 -0.00000000000E+00 -0.74505805969E-08  0.93827000000E+00  0.93827000000E+00 0. -1.
     999902    2    1    2    0    0 -0.29382975665E-02  0.98602252115E-02 -0.20722698045E-01  0.10207937114E+01  0.10205314858E+01 0.  0.
     999903    2    3    3    0    0 -0.12009751376E+00  0.31062960981E-01 -0.41317844409E-01  0.13253699293E+00  0.21692622518E-01 0.  0.
         14    1    1    2    0    0  0.29382975665E-02 -0.98602252115E-02  0.20722698045E-01  0.23136288555E-01  0.00000000000E+00 0.  1.
     999901    1    3    3    0    0  0.11715921619E+00 -0.21202735770E-01  0.20595146363E-01  0.88825671852E+00  0.88000000000E+00 0. -1.
        -11    1    4    4    0    0 -0.11027668088E+00  0.31550326850E-01 -0.32246173893E-01  0.11914884104E+00  0.51100000000E-03 0.  1.
         11    1    4    4    0    0 -0.98208328775E-02 -0.48736586885E-03 -0.90716705154E-02  0.13388151883E-01  0.51100000000E-03 0. -1.
</event>
<event>
 8    1  0.9952977E+004  0.1043930E+01  0.7957747E-01            NaN
         13   -1    0    0    0    0  0.00000000000E+00  0.00000000000E+00  0.74505805969E-08  0.10566000000E+00  0.10566000000E+00 0.  1.
     999900   -1    0    0    0    0 -0.00000000000E+00 -0.00000000000E+00 -0.74505805969E-08  0.93827000000E+00  0.93827000000E+00 0.  1.
     999902    2    1    2    0    0 -0.21117566949E-01 -0.51856602749E-02  0.13981192050E-01  0.10180781831E+01  0.10177499056E+01 0.  0.
     999903    2    3    3    0    0 -0.14498487070E-01 -0.12694579840E+00 -0.42053929430E-02  0.12948373379E+00  0.20564778781E-01 0.  0.
         14    1    1    2    0    0  0.21117566949E-01  0.51856602749E-02 -0.13981192050E-01  0.25851816909E-01  0.00000000000E+00 0.  1.
     999901    1    3    3    0    0 -0.66190798793E-02  0.12176013813E+00  0.18186584993E-01  0.88859444930E+00  0.88000000000E+00 0. -1.
        -11    1    4    4    0    0  0.47599668328E-02 -0.43201876200E-01 -0.24265112834E-02  0.43533992114E-01  0.51100000000E-03 0.  1.
         11    1    4    4    0    0 -0.19258453903E-01 -0.83743922205E-01 -0.17788816596E-02  0.85949741675E-01  0.51100000000E-03 0. -1.
</event>
<event>
 8    1  0.9952977E+004  0.1043930E+01  0.7957747E-01            NaN
         13   -1    0    0    0    0  0.00000000000E+00  0.00000000000E+00  0.74505805969E-08  0.10566000000E+00  0.10566000000E+00 0. -1.
     999900   -1    0    0    0    0 -0.00000000000E+00 -0.00000000000E+00 -0.74505805969E-08  0.93827000000E+00  0.93827000000E+00 0.  1.
     999902    2    1    2    0    0  0.72206800620E-02  0.13582529263E-01  0.19823235688E-01  0.10188384876E+01  0.10185294693E+01 0.  0.
     999903    2    3    3    0    0 -0.34573359036E-01  0.12230240800E+00 -0.16939088724E-01  0.13040265860E+00  0.23763932457E-01 0.  0.
         14    1    1    2    0    0 -0.72206800620E-02 -0.13582529263E-01 -0.19823235688E-01  0.25091512407E-01  0.00000000000E+00 0.  1.
     999901    1    3    3    0    0  0.41794039098E-01 -0.10871987874E+00  0.36762324412E-01  0.88843582899E+00  0.88000000000E+00 0. -1.
        -11    1    4    4    0    0 -0.23341269555E-01  0.73713423820E-01  0.12051290335E-02  0.77331734577E-01  0.51100000000E-03 0. -1.
         11    1    4    4    0    0 -0.11232089481E-01  0.48588984182E-01 -0.18144217758E-01  0.53070924026E-01  0.51100000000E-03 0.  1.
</event>
<event>
 8    1  0.9952977E+004  0.1043930E+01  0.7957747E-01            NaN
         13   -1    0    0    0    0  0.00000000000E+00  0.00000000000E+00  0.74505805969E-08  0.10566000000E+00  0.10566000000E+00 0.  1.
     999900   -1    0    0    0    0 -0.00000000000E+00 -0.00000000000E+00 -0.74505805969E-08  0.93827000000E+00  0.93827000000E+00 0.  1.
     999902    2    1    2    0    0 -0.20676771981E-02 -0.83780979491E-02 -0.22576915063E-01  0.10197600826E+01  0.10194736098E+01 0.  0.
     999903    2    3    3    0    0  0.66187548065E-02 -0.11924449138E+00  0.47468213050E-01  0.12999992880E+00  0.19588098342E-01 0.  0.
         14    1    1    2    0    0  0.20676771981E-02  0.83780979491E-02  0.22576915063E-01  0.24169917418E-01  0.00000000000E+00 0.  1.
     999901    1    3    3    0    0 -0.86864320046E-02  0.11086639343E+00 -0.70045128113E-01  0.88976015379E+00  0.88000000000E+00 0. -1.
        -11    1    4    4    0    0  0.52433983951E-02 -0.44153986115E-01  0.27508499614E-01  0.52288109438E-01  0.51100000000E-03 0. -1.
         11    1    4    4    0    0  0.13753564114E-02 -0.75090505266E-01  0.19959713436E-01  0.77711819357E-01  0.51100000000E-03 0.  1.
</event>
<event>
 8    1  0.1007474E+005  0.1043930E+01  0.7957747E-01            NaN
         13   -1    0    0    0    0  0.00000000000E+00  0.00000000000E+00  0.74505805969E-08  0.10566000000E+00  0.10566000000E+00 0.  1.
     999900   -1    0    0    0    0 -0.00000000000E+00 -0.00000000000E+00 -0.74505805969E-08  0.93827000000E+00  0.93827000000E+00 0. -1.
     999902    2    1    2    0    0  0.53308424940E-02  0.21985180382E-01 -0.70766734656E-02  0.10202267229E+01  0.10199513325E+01 0.  0.
     999903    2    3    3    0    0  0.42117858166E-01  0.11539684165E+00 -0.48932455917E-01  0.13353008396E+00  0.18589057007E-01 0.  0.
         14    1    1    2    0    0 -0.53308424940E-02 -0.21985180382E-01  0.70766734656E-02  0.23703277104E-01  0.00000000000E+00 0.  1.
     999901    1    3    3    0    0 -0.36787015672E-01 -0.93411661266E-01  0.41855782451E-01  0.88669663894E+00  0.88000000000E+00 0.  1.
        -11    1    4    4    0    0  0.25628511280E-01  0.70729941728E-01 -0.20121247810E-01  0.77875997469E-01  0.51100000000E-03 0.  1.
         11    1    4    4    0    0  0.16489346886E-01  0.44666899920E-01 -0.28811208107E-01  0.55654086488E-01  0.51100000000E-03 0. -1.
</event>
<event>
 8    1  0.9952977E+004  0.1043930E+01  0.7957747E-01            NaN
         13   -1    0    0    0    0  0.00000000000E+00  0.00000000000E+00  0.74505805969E-08  0.10566000000E+00  0.10566000000E+00 0.  1.
     999900   -1    0    0    0    0 -0.00000000000E+00 -0.00000000000E+00 -0.74505805969E-08  0.93827000000E+00  0.93827000000E+00 0.  1.
     999902    2    1    2    0    0  0.20868691199E-01  0.13337335727E-02 -0.99000421240E-02  0.10207936228E+01  0.10205313951E+01 0.  0.
     999903    2    3    3    0    0 -0.53469196025E-01 -0.11023373310E+00 -0.38613147252E-01  0.13017705908E+00  0.21086980172E-01 0.  0.
         14    1    1    2    0    0 -0.20868691199E-01 -0.13337335727E-02  0.99000421240E-02  0.23136377237E-01  0.00000000000E+00 0.  1.
     999901    1    3    3    0    0  0.74337887225E-01  0.11156746668E+00  0.28713105128E-01  0.89061656368E+00  0.88000000000E+00 0. -1.
        -11    1    4    4    0    0 -0.30317383758E-01 -0.72916550618E-01 -0.34132434482E-01  0.86030525493E-01  0.51100000000E-03 0.  1.
         11    1    4    4    0    0 -0.23151812267E-01 -0.37317182485E-01 -0.44807127706E-02  0.44146533588E-01  0.51100000000E-03 0. -1.
</event>
<event>
 8    1  0.9952977E+004  0.1043930E+01  0.7957747E-01            NaN
         13   -1    0    0    0    0  0.00000000000E+00  0.00000000000E+00  0.74505805969E-08  0.10566000000E+00  0.10566000000E+00 0. -1.
     999900   -1    0    0    0    0 -0.00000000000E+00 -0.00000000000E+00 -0.74505805969E-08  0.93827000000E+00  0.93827000000E+00 0.  1.
     999902    2    1    2    0    0  0.14012385619E-01 -0.80775211729E-02  0.16898514183E-01  0.10205386965E+01  0.10202705905E+01 0.  0.
     999903    2    3    3    0    0 -0.12207471917E+00  0.34616843668E-01  0.12563243437E-01  0.12904483589E+00  0.19853756799E-01 0.  0.
         14    1    1    2    0    0 -0.14012385619E-01  0.80775211729E-02 -0.16898514183E-01  0.23391303526E-01  0.00000000000E+00 0.  1.
     999901    1    3    3    0    0  0.13608710479E+00 -0.42694364841E-01  0.43352707454E-02  0.89149386058E+00  0.88000000000E+00 0. -1.
        -11    1    4    4    0    0 -0.84815729833E-01  0.15434438550E-01  0.42272335480E-02  0.86313733235E-01  0.51100000000E-03 0.  1.
         11    1    4    4    0    0 -0.37258989338E-01  0.19182405118E-01  0.83360098895E-02  0.42731102659E-01  0.51100000000E-03 0. -1.
</event>
<event>
 8    1  0.9952977E+004  0.1043930E+01  0.7957747E-01            NaN
         13   -1    0    0    0    0  0.00000000000E+00  0.00000000000E+00  0.74505805969E-08  0.10566000000E+00  0.10566000000E+00 0.  1.
     999900   -1    0    0    0    0 -0.00000000000E+00 -0.00000000000E+00 -0.74505805969E-08  0.93827000000E+00  0.93827000000E+00 0. -1.
     999902    2    1    2    0    0  0.19856161088E-01 -0.12035456426E-02  0.23370705332E-01  0.10132395206E+01  0.10127746149E+01 0.  0.
     999903    2    3    3    0    0 -0.13035270693E-01  0.29638883128E-01 -0.11521073275E+00  0.12125414146E+00  0.19510822783E-01 0.  0.
         14    1    1    2    0    0 -0.19856161088E-01  0.12035456426E-02 -0.23370705332E-01  0.30690479353E-01  0.00000000000E+00 0. -1.
     999901    1    3    3    0    0  0.32891431780E-01 -0.30842428770E-01  0.13858143808E+00  0.89198537918E+00  0.88000000000E+00 0.  1.
        -11    1    4    4    0    0 -0.10893429452E-01  0.26890334115E-01 -0.68262900618E-01  0.74174399868E-01  0.51100000000E-03 0. -1.
         11    1    4    4    0    0 -0.21418412406E-02  0.27485490125E-02 -0.46947832133E-01  0.47079741595E-01  0.51100000000E-03 0.  1.
</event>
<event>
 8    1  0.9952977E+004  0.1043930E+01  0.7957747E-01            NaN
         13   -1    0    0    0    0  0.00000000000E+00  0.00000000000E+00  0.74505805969E-08  0.10566000000E+00  0.10566000000E+00 0. -1.
     999900   -1    0    0    0    0 -0.00000000000E+00 -0.00000000000E+00 -0.74505805969E-08  0.93827000000E+00  0.93827000000E+00 0. -1.
     999902    2    1    2    0    0 -0.11116172231E-01 -0.15200331788E-01  0.13919707093E-01  0.10205125361E+01  0.10202438231E+01 0.  0.
     999903    2    3    3    0    0 -0.70935799093E-01 -0.10501447186E+00 -0.32671068373E-01  0.13269742701E+00  0.21938129677E-01 0.  0.
         14    1    1    2    0    0  0.11116172231E-01  0.15200331788E-01 -0.13919707093E-01  0.23417463934E-01  0.00000000000E+00 0.  1.
     999901    1    3    3    0    0  0.59819626862E-01  0.89814140068E-01  0.46590775466E-01  0.88781510906E+00  0.88000000000E+00 0.  1.
        -11    1    4    4    0    0 -0.29504397175E-01 -0.55515750410E-01 -0.25126864604E-01  0.67706192052E-01  0.51100000000E-03 0.  1.
         11    1    4    4    0    0 -0.41431401918E-01 -0.49498721446E-01 -0.75442037690E-02  0.64991234956E-01  0.51100000000E-03 0. -1.
</event>
<event>
 8    1  0.9952977E+004  0.1043930E+01  0.7957747E-01            NaN
         13   -1    0    0    0    0  0.00000000000E+00  0.00000000000E+00  0.74505805969E-08  0.10566000000E+00  0.10566000000E+00 0. -1.
     999900   -1    0    0    0    0 -0.00000000000E+00 -0.00000000000E+00 -0.74505805969E-08  0.93827000000E+00  0.93827000000E+00 0. -1.
     999902    2    1    2    0    0  0.21736788234E-01  0.69989237860E-02 -0.12152434657E-03  0.10210938956E+01  0.10208385063E+01 0.  0.
     999903    2    3    3    0    0  0.40579662457E-01  0.44991104549E-02 -0.12379770615E+00  0.13224233265E+00  0.22253347968E-01 0.  0.
         14    1    1    2    0    0 -0.21736788234E-01 -0.69989237860E-02  0.12152434657E-03  0.22836104420E-01  0.00000000000E+00 0. -1.
     999901    1    3    3    0    0 -0.18842874223E-01  0.24998133311E-02  0.12367618181E+00  0.88885156293E+00  0.88000000000E+00 0.  1.
        -11    1    4    4    0    0  0.23888183911E-01  0.89957025074E-02 -0.46644333271E-01  0.53174457604E-01  0.51100000000E-03 0.  1.
         11    1    4    4    0    0  0.16691478546E-01 -0.44965920525E-02 -0.77153372883E-01  0.79067875047E-01  0.51100000000E-03 0. -1.
</event>
<event>
 8    1  0.9952977E+004  0.1043930E+01  0.7957747E-01            NaN
         13   -1    0    0    0    0  0.00000000000E+00  0.00000000000E+00  0.74505805969E-08  0.10566000000E+00  0.10566000000E+00 0.  1.
     999900   -1    0    0    0    0 -0.00000000000E+00 -0.00000000000E+00 -0.74505805969E-08  0.93827000000E+00  0.93827000000E+00 0.  1.
     999902    2    1    2    0    0  0.20357073530E-01  0.12308704343E-02  0.14199616655E-01  0.10190793542E+01  0.10187763128E+01 0.  0.
     999903    2    3    3    0    0  0.96652646560E-01  0.50965281026E-01  0.72265150445E-01  0.13247564773E+00  0.19706631290E-01 0.  0.
         14    1    1    2    0    0 -0.20357073530E-01 -0.12308704343E-02 -0.14199616655E-01  0.24850645824E-01  0.00000000000E+00 0. -1.
     999901    1    3    3    0    0 -0.76295573030E-01 -0.49734410592E-01 -0.58065533790E-01  0.88660370644E+00  0.88000000000E+00 0.  1.
        -11    1    4    4    0    0  0.41920987487E-01  0.16204314550E-01  0.20006119105E-01  0.49198119117E-01  0.51100000000E-03 0.  1.
         11    1    4    4    0    0  0.54731659073E-01  0.34760966476E-01  0.52259031340E-01  0.83277528618E-01  0.51100000000E-03 0. -1.
</event>
<event>
 8    1  0.1298207E+005  0.1043930E+01  0.7957747E-01            NaN
         13   -1    0    0    0    0  0.00000000000E+00  0.00000000000E+00  0.74505805969E-08  0.10566000000E+00  0.10566000000E+00 0. -1.
     999900   -1    0    0    0    0 -0.00000000000E+00 -0.00000000000E+00 -0.74505805969E-08  0.93827000000E+00  0.93827000000E+00 0. -1.
     999902    2    1    2    0    0  0.99583097678E-02 -0.53797687354E-02 -0.24035214809E-01  0.10173630770E+01  0.10170161400E+01 0.  0.
     999903    2    3    3    0    0 -0.30211222792E-01 -0.10357752800E+00  0.63489826039E-01  0.12667961808E+00  0.19384151717E-01 0.  0.
         14    1    1    2    0    0 -0.99583097678E-02  0.53797687354E-02  0.24035214809E-01  0.26566922968E-01  0.00000000000E+00 0. -1.
     999901    1    3    3    0    0  0.40169532560E-01  0.98197759266E-01 -0.87525040847E-01  0.89068345895E+00  0.88000000000E+00 0. -1.
        -11    1    4    4    0    0 -0.16779611762E-01 -0.36188701939E-01  0.31759399255E-01  0.50991156890E-01  0.51100000000E-03 0.  1.
         11    1    4    4    0    0 -0.13431611030E-01 -0.67388826062E-01  0.31730426783E-01  0.75688461193E-01  0.51100000000E-03 0. -1.
</event>
<event>
 8    1  0.9952977E+004  0.1043930E+01  0.7957747E-01            NaN
         13   -1    0    0    0    0  0.00000000000E+00  0.00000000000E+00  0.74505805969E-08  0.10566000000E+00  0.10566000000E+00 0. -1.
     999900   -1    0    0    0    0 -0.00000000000E+00 -0.00000000000E+00 -0.74505805969E-08  0.93827000000E+00  0.93827000000E+00 0.  1.
     999902    2    1    2    0    0 -0.20879648907E-01 -0.19599219357E-01 -0.90492856363E-02  0.10138970396E+01  0.10134521342E+01 0.  0.
     999903    2    3    3    0    0 -0.53678656581E-01  0.47087554633E-01 -0.10178318431E+00  0.12590915869E+00  0.19866143573E-01 0.  0.
         14    1    1    2    0    0  0.20879648907E-01  0.19599219357E-01  0.90492856363E-02  0.30032960367E-01  0.00000000000E+00 0.  1.
     999901    1    3    3    0    0  0.32799007674E-01 -0.66686773989E-01  0.92733898678E-01  0.88798788094E+00  0.88000000000E+00 0. -1.
        -11    1    4    4    0    0 -0.25223358800E-01  0.12372507475E-01 -0.28881339694E-01  0.40295032869E-01  0.51100000000E-03 0. -1.
         11    1    4    4    0    0 -0.28455297781E-01  0.34715047158E-01 -0.72901844620E-01  0.85614125826E-01  0.51100000000E-03 0.  1.
</event>
<event>
 8    1  0.9952977E+004  0.1043930E+01  0.7957747E-01            NaN
         13   -1    0    0    0    0  0.00000000000E+00  0.00000000000E+00  0.74505805969E-08  0.10566000000E+00  0.10566000000E+00 0. -1.
     999900   -1    0    0    0    0 -0.00000000000E+00 -0.00000000000E+00 -0.74505805969E-08  0.93827000000E+00  0.93827000000E+00 0. -1.
     999902    2    1    2    0    0  0.13828605089E-01 -0.18478942117E-01  0.82331050811E-02  0.10194251915E+01  0.10191306273E+01 0.  0.
     999903    2    3    3    0    0 -0.31374731169E-01  0.24585067269E-01  0.12204545747E+00  0.12990222829E+00  0.19766029918E-01 0.  0.
         14    1    1    2    0    0 -0.13828605089E-01  0.18478942117E-01 -0.82331050811E-02  0.24504808502E-01  0.00000000000E+00 0. -1.
     999901    1    3    3    0    0  0.45203336258E-01 -0.43064009386E-01 -0.11381235239E+00  0.88952296320E+00  0.88000000000E+00 0. -1.
        -11    1    4    4    0    0 -0.30376797254E-01  0.14159570584E-01  0.10046919923E+00  0.10591300376E+00  0.51100000000E-03 0. -1.
         11    1    4    4    0    0 -0.99793391568E-03  0.10425496685E-01  0.21576258241E-01  0.23989224537E-01  0.51100000000E-03 0.  1.
</event>
<event>
 8    1  0.9952977E+004  0.1043930E+01  0.7957747E-01            NaN
         13   -1    0    0    0    0  0.00000000000E+00  0.00000000000E+00  0.74505805969E-08  0.10566000000E+00  0.10566000000E+00 0. -1.
     999900   -1    0    0    0    0 -0.00000000000E+00 -0.00000000000E+00 -0.74505805969E-08  0.93827000000E+00  0.93827000000E+00 0. -1.
     999902    2    1    2    0    0 -0.56465506378E-02  0.94260142970E-02  0.21500181227E-01  0.10197847919E+01  0.10194989116E+01 0.  0.
     999903    2    3    3    0    0  0.76258353735E-01  0.74189609293E-01 -0.69828307501E-01  0.12891800647E+00  0.20601582994E-01 0.  0.
         14    1    1    2    0    0  0.56465506378E-02 -0.94260142970E-02 -0.21500181227E-01  0.24145208064E-01  0.00000000000E+00 0.  1.
     999901    1    3    3    0    0 -0.81904904373E-01 -0.64763594996E-01  0.91328488728E-01  0.89086678547E+00  0.88000000000E+00 0.  1.
        -11    1    4    4    0    0  0.65581422789E-02  0.13229766068E-01 -0.16138274180E-01  0.21880149791E-01  0.51100000000E-03 0. -1.
         11    1    4    4    0    0  0.69700211456E-01  0.60959843225E-01 -0.53690033321E-01  0.10703785668E+00  0.51100000000E-03 0.  1.
</event>
<event>
 7    1  0.9952977E+004  0.1043930E+01  0.7957747E-01            NaN
         13   -1    0    0    0    0  0.00000000000E+00  0.00000000000E+00  0.74505805969E-08  0.10566000000E+00  0.10566000000E+00 0.  1.
     999900   -1    0    0    0    0 -0.00000000000E+00 -0.00000000000E+00 -0.74505805969E-08  0.93827000000E+00  0.93827000000E+00 0.  1.
     999903    2    1    2    0    0 -0.74113961817E-01 -0.11511074697E+00  0.39600870466E-01  0.14393956635E+00  0.20174399955E-01 0.  0.
         14    1    1    2    0    0 -0.14011933260E-02  0.45061246753E-02  0.72222525869E-02  0.86272495475E-02  0.00000000000E+00 0.  1.
     999901    1    1    2    0    0  0.75515155143E-01  0.11060462230E+00 -0.46823123053E-01  0.89136318411E+00  0.88000000000E+00 0. -1.
        -11    1    3    3    0    0 -0.26384920221E-01 -0.46596946560E-01  0.58284949679E-02  0.53867169207E-01  0.51100000000E-03 0.  1.
         11    1    3    3    0    0 -0.47729041596E-01 -0.68513800411E-01  0.33772375498E-01  0.90072397138E-01  0.51100000000E-03 0. -1.
</event>
<event>
 8    1  0.9952977E+004  0.1043930E+01  0.7957747E-01            NaN
         13   -1    0    0    0    0  0.00000000000E+00  0.00000000000E+00  0.74505805969E-08  0.10566000000E+00  0.10566000000E+00 0.  1.
     999900   -1    0    0    0    0 -0.00000000000E+00 -0.00000000000E+00 -0.74505805969E-08  0.93827000000E+00  0.93827000000E+00 0. -1.
     999902    2    1    2    0    0 -0.82340725527E-02 -0.21497910225E-01 -0.40536567725E-02  0.10205549657E+01  0.10202872369E+01 0.  0.
     999903    2    3    3    0    0  0.10323920823E-01  0.74803625295E-01 -0.10324264387E+00  0.12956852360E+00  0.20658971297E-01 0.  0.
         14    1    1    2    0    0  0.82340725527E-02  0.21497910225E-01  0.40536567725E-02  0.23375034290E-01  0.00000000000E+00 0.  1.
     999901    1    3    3    0    0 -0.18557993376E-01 -0.96301535520E-01  0.99188987102E-01  0.89098644211E+00  0.88000000000E+00 0. -1.
        -11    1    4    4    0    0  0.10185373590E-01  0.19162202913E-01 -0.38515954936E-01  0.44211669967E-01  0.51100000000E-03 0.  1.
         11    1    4    4    0    0  0.13854723270E-03  0.55641422382E-01 -0.64726688939E-01  0.85356853632E-01  0.51100000000E-03 0. -1.
</event>
<event>
 8    1  0.9952977E+004  0.1043930E+01  0.7957747E-01            NaN
         13   -1    0    0    0    0  0.00000000000E+00  0.00000000000E+00  0.74505805969E-08  0.10566000000E+00  0.10566000000E+00 0.  1.
     999900   -1    0    0    0    0 -0.00000000000E+00 -0.00000000000E+00 -0.74505805969E-08  0.93827000000E+00  0.93827000000E+00 0. -1.
     999902    2    1    2    0    0 -0.89235267778E-02  0.21617486209E-01 -0.14518534723E-02  0.10204981217E+01  0.10202290741E+01 0.  0.
     999903    2    3    3    0    0  0.77241952833E-01 -0.90254033287E-01  0.42370410341E-01  0.12816403769E+00  0.22774087983E-01 0.  0.
         14    1    1    2    0    0  0.89235267778E-02 -0.21617486209E-01  0.14518534723E-02  0.23431878257E-01  0.00000000000E+00 0. -1.
     999901    1    3    3    0    0 -0.86165479610E-01  0.11187151950E+00 -0.43822263813E-01  0.89233408405E+00  0.88000000000E+00 0. -1.
        -11    1    4    4    0    0  0.15473245230E-01 -0.21403666598E-01  0.19630010838E-01  0.32911042346E-01  0.51100000000E-03 0.  1.
         11    1    4    4    0    0  0.61768707603E-01 -0.68850366689E-01  0.22740399502E-01  0.95252995348E-01  0.51100000000E-03 0. -1.
</event>
<event>
 8    1  0.9952977E+004  0.1043930E+01  0.7957747E-01            NaN
         13   -1    0    0    0    0  0.00000000000E+00  0.00000000000E+00  0.74505805969E-08  0.10566000000E+00  0.10566000000E+00 0.  1.
     999900   -1    0    0    0    0 -0.00000000000E+00 -0.00000000000E+00 -0.74505805969E-08  0.93827000000E+00  0.93827000000E+00 0. -1.
     999902    2    1    2    0    0  0.22996372396E-01 -0.45774951894E-02  0.73507383464E-02  0.10193572517E+01  0.10190610318E+01 0.  0.
     999903    2    3    3    0    0 -0.11479879939E+00  0.30695840741E-01 -0.38638858977E-01  0.12675052941E+00  0.21254089070E-01 0.  0.
         14    1    1    2    0    0 -0.22996372396E-01  0.45774951894E-02 -0.73507383464E-02  0.24572748316E-01  0.00000000000E+00 0. -1.
     999901    1    3    3    0    0  0.13779517178E+00 -0.35273335931E-01  0.45989597323E-01  0.89260672228E+00  0.88000000000E+00 0.  1.
        -11    1    4    4    0    0 -0.99924697676E-01  0.25028004487E-01 -0.25543738899E-01  0.10613241697E+00  0.51100000000E-03 0.  1.
         11    1    4    4    0    0 -0.14874101711E-01  0.56678362544E-02 -0.13095120078E-01  0.20618112435E-01  0.51100000000E-03 0. -1.
</event>
<event>
 8    1  0.9952977E+004  0.1043930E+01  0.7957747E-01            NaN
         13   -1    0    0    0    0  0.00000000000E+00  0.00000000000E+00  0.74505805969E-08  0.10566000000E+00  0.10566000000E+00 0. -1.
     999900   -1    0    0    0    0 -0.00000000000E+00 -0.00000000000E+00 -0.74505805969E-08  0.93827000000E+00  0.93827000000E+00 0.  1.
     999902    2    1    2    0    0 -0.23389057500E-01  0.38097811828E-02  0.97605328862E-03  0.10202125987E+01  0.10199368762E+01 0.  0.
     999903    2    3    3    0    0 -0.20215457124E-01 -0.11323577906E+00 -0.59886229343E-01  0.13037331415E+00  0.13410227866E-01 0.  0.
         14    1    1    2    0    0  0.23389057500E-01 -0.38097811828E-02 -0.97605328862E-03  0.23717401278E-01  0.00000000000E+00 0. -1.
     999901    1    3    3    0    0 -0.31736003752E-02  0.11704556025E+00  0.60862282632E-01  0.88983928457E+00  0.88000000000E+00 0. -1.
        -11    1    4    4    0    0 -0.15067278498E-01 -0.81862762121E-01 -0.49875610542E-01  0.97037994370E-01  0.51100000000E-03 0. -1.
         11    1    4    4    0    0 -0.51481786268E-02 -0.31373016944E-01 -0.10010618801E-01  0.33335319784E-01  0.51100000000E-03 0.  1.
</event>
<event>
 8    1  0.9952977E+004  0.1043930E+01  0.7957747E-01            NaN
         13   -1    0    0    0    0  0.00000000000E+00  0.00000000000E+00  0.74505805969E-08  0.10566000000E+00  0.10566000000E+00 0. -1.
     999900   -1    0    0    0    0 -0.00000000000E+00 -0.00000000000E+00 -0.74505805969E-08  0.93827000000E+00  0.93827000000E+00 0.  1.
     999902    2    1    2    0    0  0.29017965486E-02 -0.22918580584E-01 -0.14916809300E-01  0.10164310371E+01  0.10160589846E+01 0.  0.
     999903    2    3    3    0    0  0.54911238124E-01  0.59952633059E-01 -0.95929497585E-01  0.12731030533E+00  0.19896810098E-01 0.  0.
         14    1    1    2    0    0 -0.29017965486E-02  0.22918580584E-01  0.14916809300E-01  0.27498962869E-01  0.00000000000E+00 0. -1.
     999901    1    3    3    0    0 -0.52009441575E-01 -0.82871213643E-01  0.81012688285E-01  0.88912073181E+00  0.88000000000E+00 0. -1.
        -11    1    4    4    0    0  0.41038982797E-01  0.41390859173E-01 -0.80800790604E-01  0.99631472012E-01  0.51100000000E-03 0.  1.
         11    1    4    4    0    0  0.13872255327E-01  0.18561773886E-01 -0.15128706981E-01  0.27678833313E-01  0.51100000000E-03 0. -1.
</event>
<event>
 8    1  0.9952977E+004  0.1043930E+01  0.7957747E-01            NaN
         13   -1    0    0    0    0  0.00000000000E+00  0.00000000000E+00  0.74505805969E-08  0.10566000000E+00  0.10566000000E+00 0.  1.
     999900   -1    0    0    0    0 -0.00000000000E+00 -0.00000000000E+00 -0.74505805969E-08  0.93827000000E+00  0.93827000000E+00 0.  1.
     999902    2    1    2    0    0  0.97953857215E-02 -0.17072845020E-01  0.11361085248E-01  0.10212032344E+01  0.10209503122E+01 0.  0.
     999903    2    3    3    0    0  0.82212881406E-01  0.80934236271E-01  0.59910933832E-01  0.13148037332E+00  0.19709391281E-01 0.  0.
         14    1    1    2    0    0 -0.97953857215E-02  0.17072845020E-01 -0.11361085248E-01  0.22726765642E-01  0.00000000000E+00 0.  1.
     999901    1    3    3    0    0 -0.72417495685E-01 -0.98007081291E-01 -0.48549848584E-01  0.88972286104E+00  0.88000000000E+00 0.  1.
        -11    1    4    4    0    0  0.13609724308E-01  0.22860596767E-01  0.85141272479E-02  0.27938914870E-01  0.51100000000E-03 0.  1.
         11    1    4    4    0    0  0.68603157098E-01  0.58073639504E-01  0.51396806584E-01  0.10354145845E+00  0.51100000000E-03 0. -1.
</event>
<event>
 8    1  0.9952977E+004  0.1043930E+01  0.7957747E-01            NaN
         13   -1    0    0    0    0  0.00000000000E+00  0.00000000000E+00  0.74505805969E-08  0.10566000000E+00  0.10566000000E+00 0.  1.
     999900   -1    0    0    0    0 -0.00000000000E+00 -0.00000000000E+00 -0.74505805969E-08  0.93827000000E+00  0.93827000000E+00 0.  1.
     999902    2    1    2    0    0 -0.13993227217E-01  0.19039794077E-01 -0.41723794905E-02  0.10199355649E+01  0.10196532860E+01 0.  0.
     999903    2    3    3    0    0  0.87213149309E-02 -0.67253562964E-01  0.10808753360E+00  0.12832758937E+00  0.13636429423E-01 0.  0.
         14    1    1    2    0    0  0.13993227217E-01 -0.19039794077E-01  0.41723794905E-02  0.23994435127E-01  0.00000000000E+00 0. -1.
     999901    1    3    3    0    0 -0.22714542148E-01  0.86293357041E-01 -0.11225991309E+00  0.89160797550E+00  0.88000000000E+00 0. -1.
        -11    1    4    4    0    0  0.46125866096E-02 -0.51689494030E-02  0.10398297325E-01  0.12505186981E-01  0.51100000000E-03 0.  1.
         11    1    4    4    0    0  0.41087283213E-02 -0.62084613561E-01  0.97689236278E-01  0.11582240239E+00  0.51100000000E-03 0. -1.
</event>
<event>
 8    1  0.9952977E+004  0.1043930E+01  0.7957747E-01            NaN
         13   -1    0    0    0    0  0.00000000000E+00  0.00000000000E+00  0.74505805969E-08  0.10566000000E+00  0.10566000000E+00 0.  1.
     999900   -1    0    0    0    0 -0.00000000000E+00 -0.00000000000E+00 -0.74505805969E-08  0.93827000000E+00  0.93827000000E+00 0. -1.
     999902    2    1    2    0    0 -0.20084874423E-01  0.20214618663E-02 -0.13100428774E-01  0.10198653013E+01  0.10195813470E+01 0.  0.
     999903    2    3    3    0    0  0.36021859712E-01  0.10844497820E+00 -0.60010711152E-01  0.13044160867E+00  0.18863725675E-01 0.  0.
         14    1    1    2    0    0  0.20084874423E-01 -0.20214618663E-02  0.13100428774E-01  0.24064698683E-01  0.00000000000E+00 0.  1.
     999901    1    3    3    0    0 -0.56106734135E-01 -0.10642351633E+00  0.46910282378E-01  0.88942369264E+00  0.88000000000E+00 0.  1.
        -11    1    4    4    0    0  0.13212856803E-01  0.68217965480E-01 -0.38450478424E-01  0.79416439175E-01  0.51100000000E-03 0.  1.
         11    1    4    4    0    0  0.22809002908E-01  0.40227012720E-01 -0.21560232728E-01  0.51025169498E-01  0.51100000000E-03 0. -1.
</event>
<event>
 8    1  0.9952977E+004  0.1043930E+01  0.7957747E-01            NaN
         13   -1    0    0    0    0  0.00000000000E+00  0.00000000000E+00  0.74505805969E-08  0.10566000000E+00  0.10566000000E+00 0. -1.
     999900   -1    0    0    0    0 -0.00000000000E+00 -0.00000000000E+00 -0.74505805969E-08  0.93827000000E+00  0.93827000000E+00 0.  1.
     999902    2    1    2    0    0  0.13925739461E-02  0.20379592141E-01 -0.12543909984E-01  0.10199588357E+01  0.10196771106E+01 0.  0.
     999903    2    3    3    0    0 -0.89106975467E-01  0.54214607263E-02  0.91569439617E-01  0.12908650836E+00  0.17576093280E-01 0.  0.
         14    1    1    2    0    0 -0.13925739461E-02 -0.20379592141E-01  0.12543909984E-01  0.23971164255E-01  0.00000000000E+00 0. -1.
     999901    1    3    3    0    0  0.90499549413E-01  0.14958131415E-01 -0.10411334960E+00  0.89087232739E+00  0.88000000000E+00 0.  1.
        -11    1    4    4    0    0 -0.78940815497E-01  0.10389504363E-01  0.78945140489E-01  0.11212577973E+00  0.51100000000E-03 0.  1.
         11    1    4    4    0    0 -0.10166159971E-01 -0.49680436371E-02  0.12624299128E-01  0.16960728628E-01  0.51100000000E-03 0. -1.
</event>
<event>
 8    1  0.9952977E+004  0.1043930E+01  0.7957747E-01            NaN
         13   -1    0    0    0    0  0.00000000000E+00  0.00000000000E+00  0.74505805969E-08  0.10566000000E+00  0.10566000000E+00 0.  1.
     999900   -1    0    0    0    0 -0.00000000000E+00 -0.00000000000E+00 -0.74505805969E-08  0.93827000000E+00  0.93827000000E+00 0.  1.
     999902    2    1    2    0    0  0.34772813518E-02 -0.98319162046E-02 -0.21549866061E-01  0.10199893486E+01  0.10197083487E+01 0.  0.
     999903    2    3    3    0    0  0.46672117302E-01  0.83163466916E-01 -0.88186071091E-01  0.13153320509E+00  0.20730464144E-01 0.  0.
         14    1    1    2    0    0 -0.34772813518E-02  0.98319162046E-02  0.21549866061E-01  0.23940651392E-01  0.00000000000E+00 0.  1.
     999901    1    3    3    0    0 -0.43194835950E-01 -0.92995383121E-01  0.66636205030E-01  0.88845614352E+00  0.88000000000E+00 0. -1.
        -11    1    4    4    0    0  0.31777784233E-01  0.71319880682E-01 -0.75800838607E-01  0.10882270538E+00  0.51100000000E-03 0.  1.
         11    1    4    4    0    0  0.14894333069E-01  0.11843586235E-01 -0.12385232483E-01  0.22710499711E-01  0.51100000000E-03 0. -1.
</event>
<event>
 7    1  0.9952977E+004  0.1043930E+01  0.7957747E-01            NaN
         13   -1    0    0    0    0  0.00000000000E+00  0.00000000000E+00  0.74505805969E-08  0.10566000000E+00  0.10566000000E+00 0. -1.
     999900   -1    0    0    0    0 -0.00000000000E+00 -0.00000000000E+00 -0.74505805969E-08  0.93827000000E+00  0.93827000000E+00 0.  1.
     999903    2    1    2    0    0  0.83989518089E-01  0.24588084849E-02 -0.30228403536E-01  0.91524362506E-01  0.20066580769E-01 0.  0.
         14    1    1    2    0    0 -0.42510474569E-02 -0.59356095152E-01 -0.26527880315E-01  0.65153249115E-01  0.00000000000E+00 0.  1.
     999901    1    1    2    0    0 -0.79738470632E-01  0.56897286667E-01  0.56756283851E-01  0.88725238838E+00  0.88000000000E+00 0. -1.
        -11    1    3    3    0    0  0.49737587469E-01 -0.76352991030E-02 -0.21736415113E-01  0.54816587477E-01  0.51100000000E-03 0. -1.
         11    1    3    3    0    0  0.34251930620E-01  0.10094107588E-01 -0.84919884225E-02  0.36707775029E-01  0.51100000000E-03 0.  1.
</event>
<event>
 8    1  0.9952977E+004  0.1043930E+01  0.7957747E-01            NaN
         13   -1    0    0    0    0  0.00000000000E+00  0.00000000000E+00  0.74505805969E-08  0.10566000000E+00  0.10566000000E+00 0. -1.
     999900   -1    0    0    0    0 -0.00000000000E+00 -0.00000000000E+00 -0.74505805969E-08  0.93827000000E+00  0.93827000000E+00 0.  1.
     999902    2    1    2    0    0  0.12658862208E-01  0.10179987671E-02 -0.19624450456E-01  0.10205547531E+01  0.10202870193E+01 0.  0.
     999903    2    3    3    0    0  0.24152484231E-01  0.68963722695E-02  0.12460863637E+00  0.12871965510E+00  0.20261660960E-01 0.  0.
         14    1    1    2    0    0 -0.12658862208E-01 -0.10179987671E-02  0.19624450456E-01  0.23375246942E-01  0.00000000000E+00 0. -1.
     999901    1    3    3    0    0 -0.11493622024E-01 -0.58783735024E-02 -0.14423308683E+00  0.89183509796E+00  0.88000000000E+00 0.  1.
        -11    1    4    4    0    0  0.13359314407E-01  0.12103114786E-01  0.49994252681E-01  0.53147371441E-01  0.51100000000E-03 0. -1.
         11    1    4    4    0    0  0.10793169825E-01 -0.52067425160E-02  0.74614383689E-01  0.75572283655E-01  0.51100000000E-03 0.  1.
</event>
<event>
 8    1  0.9952977E+004  0.1043930E+01  0.7957747E-01            NaN
         13   -1    0    0    0    0  0.00000000000E+00  0.00000000000E+00  0.74505805969E-08  0.10566000000E+00  0.10566000000E+00 0.  1.
     999900   -1    0    0    0    0 -0.00000000000E+00 -0.00000000000E+00 -0.74505805969E-08  0.93827000000E+00  0.93827000000E+00 0. -1.
     999902    2    1    2    0    0  0.21193452278E-01 -0.17375056736E-01  0.68934122656E-02  0.10156709457E+01  0.10152777432E+01 0.  0.
     999903    2    3    3    0    0  0.10477852061E+00 -0.61157495838E-01  0.41933783419E-01  0.12993329086E+00  0.20135545809E-01 0.  0.
         14    1    1    2    0    0 -0.21193452278E-01  0.17375056736E-01 -0.68934122656E-02  0.28259054278E-01  0.00000000000E+00 0.  1.
     999901    1    3    3    0    0 -0.83585068331E-01  0.43782439102E-01 -0.35040371153E-01  0.88573765486E+00  0.88000000000E+00 0. -1.
        -11    1    4    4    0    0  0.49316785199E-01 -0.28324522759E-01  0.90974057559E-02  0.57597289905E-01  0.51100000000E-03 0.  1.
         11    1    4    4    0    0  0.55461735409E-01 -0.32832973080E-01  0.32836377663E-01  0.72336000960E-01  0.51100000000E-03 0. -1.
</event>
<event>
 8    1  0.9952977E+004  0.1043930E+01  0.7957747E-01            NaN
         13   -1    0    0    0    0  0.00000000000E+00  0.00000000000E+00  0.74505805969E-08  0.10566000000E+00  0.10566000000E+00 0.  1.
     999900   -1    0    0    0    0 -0.00000000000E+00 -0.00000000000E+00 -0.74505805969E-08  0.93827000000E+00  0.93827000000E+00 0. -1.
     999902    2    1    2    0    0  0.61874539629E-02 -0.21390389681E-01  0.81714217917E-02  0.10202106937E+01  0.10199349264E+01 0.  0.
     999903    2    3    3    0    0  0.87627035609E-01 -0.87892200065E-01  0.42275307109E-01  0.13329583238E+00  0.24021680535E-01 0.  0.
         14    1    1    2    0    0 -0.61874539629E-02  0.21390389681E-01 -0.81714217917E-02  0.23719306300E-01  0.00000000000E+00 0. -1.
     999901    1    3    3    0    0 -0.81439581646E-01  0.66501810384E-01 -0.34103885318E-01  0.88691486132E+00  0.88000000000E+00 0.  1.
        -11    1    4    4    0    0  0.79375906554E-01 -0.79912998495E-01  0.30171265885E-01  0.11660698211E+00  0.51100000000E-03 0. -1.
         11    1    4    4    0    0  0.82511290550E-02 -0.79792015705E-02  0.12104041225E-01  0.16688850271E-01  0.51100000000E-03 0.  1.
</event>
<event>
 8    1  0.9952977E+004  0.1043930E+01  0.7957747E-01            NaN
         13   -1    0    0    0    0  0.00000000000E+00  0.00000000000E+00  0.74505805969E-08  0.10566000000E+00  0.10566000000E+00 0. -1.
     999900   -1    0    0    0    0 -0.00000000000E+00 -0.00000000000E+00 -0.74505805969E-08  0.93827000000E+00  0.93827000000E+00 0. -1.
     999902    2    1    2    0    0  0.56351629956E-02  0.23529371850E-01 -0.19525232015E-02  0.10196565835E+01  0.10193676224E+01 0.  0.
     999903    2    3    3    0    0 -0.55987890215E-01  0.54464980166E-01  0.10312675503E+00  0.13072685216E+00  0.18796392147E-01 0.  0.
         14    1    1    2    0    0 -0.56351629956E-02 -0.23529371850E-01  0.19525232015E-02  0.24273416499E-01  0.00000000000E+00 0.  1.
     999901    1    3    3    0    0  0.61623053210E-01 -0.30935608315E-01 -0.10507927823E+00  0.88892973134E+00  0.88000000000E+00 0. -1.
        -11    1    4    4    0    0 -0.28369729996E-01  0.14826830734E-01  0.42157759996E-01  0.52935945618E-01  0.51100000000E-03 0.  1.
         11    1    4    4    0    0 -0.27618160219E-01  0.39638149431E-01  0.60968995034E-01  0.77790906542E-01  0.51100000000E-03 0. -1.
</event>
<event>
 8    1  0.9952977E+004  0.1043930E+01  0.7957747E-01            NaN
         13   -1    0    0    0    0  0.00000000000E+00  0.00000000000E+00  0.74505805969E-08  0.10566000000E+00  0.10566000000E+00 0. -1.
     999900   -1    0    0    0    0 -0.00000000000E+00 -0.00000000000E+00 -0.74505805969E-08  0.93827000000E+00  0.93827000000E+00 0.  1.
     999902    2    1    2    0    0 -0.21042320067E-02  0.37416401682E-01 -0.23947872498E-02  0.10063780372E+01  0.10056771867E+01 0.  0.
     999903    2    3    3    0    0 -0.16354009518E-01  0.11963986391E+00 -0.59392723320E-02  0.12242310772E+00  0.19261144416E-01 0.  0.
         14    1    1    2    0    0  0.21042320067E-02 -0.37416401682E-01  0.23947872498E-02  0.37551962840E-01  0.00000000000E+00 0.  1.
     999901    1    3    3    0    0  0.14249777512E-01 -0.82223462232E-01  0.35444850823E-02  0.88395492944E+00  0.88000000000E+00 0.  1.
        -11    1    4    4    0    0 -0.14431844639E-01  0.56085399579E-01  0.40567977706E-02  0.58056600958E-01  0.51100000000E-03 0.  1.
         11    1    4    4    0    0 -0.19221648789E-02  0.63554464335E-01 -0.99960701026E-02  0.64366506766E-01  0.51100000000E-03 0. -1.
</event>
<event>
 8    1  0.9952977E+004  0.1043930E+01  0.7957747E-01            NaN
         13   -1    0    0    0    0  0.00000000000E+00  0.00000000000E+00  0.74505805969E-08  0.10566000000E+00  0.10566000000E+00 0. -1.
     999900   -1    0    0    0    0 -0.00000000000E+00 -0.00000000000E+00 -0.74505805969E-08  0.93827000000E+00  0.93827000000E+00 0.  1.
     999902    2    1    2    0    0  0.24711677464E-01 -0.70372002921E-02  0.73876451671E-02  0.10171948828E+01  0.10168434801E+01 0.  0.
     999903    2    3    3    0    0 -0.93290913349E-03 -0.52648952777E-01  0.11601773212E+00  0.12897274133E+00  0.20026764374E-01 0.  0.
         14    1    1    2    0    0 -0.24711677464E-01  0.70372002921E-02 -0.73876451671E-02  0.26735117209E-01  0.00000000000E+00 0.  1.
     999901    1    3    3    0    0  0.25644586598E-01  0.45611752485E-01 -0.10863008696E+00  0.88822214146E+00  0.88000000000E+00 0.  1.
        -11    1    4    4    0    0  0.55416477325E-02 -0.73128607452E-02  0.31875054204E-01  0.33173302419E-01  0.51100000000E-03 0.  1.
         11    1    4    4    0    0 -0.64745568660E-02 -0.45336092032E-01  0.84142677921E-01  0.95799438913E-01  0.51100000000E-03 0. -1.
</event>
<event>
 8    1  0.9952977E+004  0.1043930E+01  0.7957747E-01            NaN
         13   -1    0    0    0    0  0.00000000000E+00  0.00000000000E+00  0.74505805969E-08  0.10566000000E+00  0.10566000000E+00 0. -1.
     999900   -1    0    0    0    0 -0.00000000000E+00 -0.00000000000E+00 -0.74505805969E-08  0.93827000000E+00  0.93827000000E+00 0. -1.
     999902    2    1    2    0    0 -0.21938713788E-02  0.20909191704E-01 -0.13120134260E-01  0.10191480450E+01  0.10188466972E+01 0.  0.
     999903    2    3    3    0    0 -0.73796469656E-01  0.98976488099E-01 -0.43014996835E-01  0.13229115823E+00  0.20208821428E-01 0.  0.
         14    1    1    2    0    0  0.21938713788E-02 -0.20909191704E-01  0.13120134260E-01  0.24781954974E-01  0.00000000000E+00 0. -1.
     999901    1    3    3    0    0  0.71602598277E-01 -0.78067296394E-01  0.29894862575E-01  0.88685688679E+00  0.88000000000E+00 0.  1.
        -11    1    4    4    0    0 -0.26196828333E-01  0.20339597190E-01 -0.12157486371E-01  0.35327590131E-01  0.51100000000E-03 0. -1.
         11    1    4    4    0    0 -0.47599641322E-01  0.78636890909E-01 -0.30857510464E-01  0.96963568101E-01  0.51100000000E-03 0.  1.
</event>
<event>
 8    1  0.9952977E+004  0.1043930E+01  0.7957747E-01            NaN
         13   -1    0    0    0    0  0.00000000000E+00  0.00000000000E+00  0.74505805969E-08  0.10566000000E+00  0.10566000000E+00 0. -1.
     999900   -1    0    0    0    0 -0.00000000000E+00 -0.00000000000E+00 -0.74505805969E-08  0.93827000000E+00  0.93827000000E+00 0.  1.
     999902    2    1    2    0    0 -0.43472169974E-02  0.15995682599E-01  0.20401959159E-01  0.10176431193E+01  0.10173035527E+01 0.  0.
     999903    2    3    3    0    0 -0.71217103097E-01 -0.11270653982E-01  0.10667055686E+00  0.13048061690E+00  0.21158456270E-01 0.  0.
         14    1    1    2    0    0  0.43472169974E-02 -0.15995682599E-01 -0.20401959159E-01  0.26286880662E-01  0.00000000000E+00 0.  1.
     999901    1    3    3    0    0  0.66869886100E-01  0.27266336581E-01 -0.86268597702E-01  0.88716250244E+00  0.88000000000E+00 0.  1.
        -11    1    4    4    0    0 -0.37787941168E-01  0.46942084843E-02  0.52869590508E-01  0.65156878474E-01  0.51100000000E-03 0.  1.
         11    1    4    4    0    0 -0.33429161929E-01 -0.15964862466E-01  0.53800966353E-01  0.65323738429E-01  0.51100000000E-03 0. -1.
</event>
<event>
 8    1  0.9952977E+004  0.1043930E+01  0.7957747E-01            NaN
         13   -1    0    0    0    0  0.00000000000E+00  0.00000000000E+00  0.74505805969E-08  0.10566000000E+00  0.10566000000E+00 0. -1.
     999900   -1    0    0    0    0 -0.00000000000E+00 -0.00000000000E+00 -0.74505805969E-08  0.93827000000E+00  0.93827000000E+00 0.  1.
     999902    2    1    2    0    0  0.11600273871E-01  0.18192725919E-01  0.94630472489E-02  0.10203696330E+01  0.10200975919E+01 0.  0.
     999903    2    3    3    0    0  0.60805422544E-01  0.10896600481E+00  0.43674021600E-01  0.13367277071E+00  0.19750945569E-01 0.  0.
         14    1    1    2    0    0 -0.11600273871E-01 -0.18192725919E-01 -0.94630472489E-02  0.23560367007E-01  0.00000000000E+00 0.  1.
     999901    1    3    3    0    0 -0.49205148673E-01 -0.90773278894E-01 -0.34210974351E-01  0.88669686228E+00  0.88000000000E+00 0.  1.
        -11    1    4    4    0    0  0.24162135290E-01  0.62542590317E-01  0.20036802334E-01  0.69979418074E-01  0.51100000000E-03 0. -1.
         11    1    4    4    0    0  0.36643287254E-01  0.46423414496E-01  0.23637219267E-01  0.63693352636E-01  0.51100000000E-03 0.  1.
</event>
<event>
 8    1  0.9952977E+004  0.1043930E+01  0.7957747E-01            NaN
         13   -1    0    0    0    0  0.00000000000E+00  0.00000000000E+00  0.74505805969E-08  0.10566000000E+00  0.10566000000E+00 0.  1.
     999900   -1    0    0    0    0 -0.00000000000E+00 -0.00000000000E+00 -0.74505805969E-08  0.93827000000E+00  0.93827000000E+00 0. -1.
     999902    2    1    2    0    0 -0.19037638713E-01  0.11203988575E-01  0.88895356967E-02  0.10201185554E+01  0.10198406161E+01 0.  0.
     999903    2    3    3    0    0  0.67071460637E-03  0.12979790263E+00  0.13034411570E-01  0.13193495074E+00  0.19722828293E-01 0.  0.
         14    1    1    2    0    0  0.19037638713E-01 -0.11203988575E-01 -0.88895356967E-02  0.23811444573E-01  0.00000000000E+00 0. -1.
     999901    1    3    3    0    0 -0.19708353319E-01 -0.11859391406E+00 -0.41448758733E-02  0.88818360469E+00  0.88000000000E+00 0. -1.
        -11    1    4    4    0    0  0.65628418208E-02  0.26858182559E-01  0.76183466836E-02  0.28683325999E-01  0.51100000000E-03 0.  1.
         11    1    4    4    0    0 -0.58921272145E-02  0.10293972007E+00  0.54160648865E-02  0.10325162474E+00  0.51100000000E-03 0. -1.
</event>
<event>
 8    1  0.9952977E+004  0.1043930E+01  0.7957747E-01            NaN
         13   -1    0    0    0    0  0.00000000000E+00  0.00000000000E+00  0.74505805969E-08  0.10566000000E+00  0.10566000000E+00 0.  1.
     999900   -1    0    0    0    0 -0.00000000000E+00 -0.00000000000E+00 -0.74505805969E-08  0.93827000000E+00  0.93827000000E+00 0. -1.
     999902    2    1    2    0    0 -0.11238089969E-01  0.20323833777E-01 -0.70213336996E-02  0.10196678481E+01  0.10193791584E+01 0.  0.
     999903    2    3    3    0    0 -0.93836679935E-01  0.86633578022E-01  0.29957265705E-01  0.13254501220E+00  0.18974802994E-01 0.  0.
         14    1    1    2    0    0  0.11238089969E-01 -0.20323833777E-01  0.70213336996E-02  0.24262151851E-01  0.00000000000E+00 0.  1.
     999901    1    3    3    0    0  0.82598589967E-01 -0.66309744245E-01 -0.36978599405E-01  0.88712283595E+00  0.88000000000E+00 0. -1.
        -11    1    4    4    0    0 -0.59824507756E-01  0.42557935148E-01  0.15869837651E-01  0.75114994777E-01  0.51100000000E-03 0.  1.
         11    1    4    4    0    0 -0.34012172179E-01  0.44075642874E-01  0.14087428054E-01  0.57430017424E-01  0.51100000000E-03 0. -1.
</event>
<event>
 8    1  0.9952977E+004  0.1043930E+01  0.7957747E-01            NaN
         13   -1    0    0    0    0  0.00000000000E+00  0.00000000000E+00  0.74505805969E-08  0.10566000000E+00  0.10566000000E+00 0.  1.
     999900   -1    0    0    0    0 -0.00000000000E+00 -0.00000000000E+00 -0.74505805969E-08  0.93827000000E+00  0.93827000000E+00 0. -1.
     999902    2    1    2    0    0 -0.77666808910E-02 -0.11432431396E-01 -0.19504533079E-01  0.10200250083E+01  0.10197448548E+01 0.  0.
     999903    2    3    3    0    0  0.71546620761E-01 -0.15791295620E-01 -0.10801897226E+00  0.13202477996E+00  0.19853468059E-01 0.  0.
         14    1    1    2    0    0  0.77666808910E-02  0.11432431396E-01  0.19504533079E-01  0.23904991745E-01  0.00000000000E+00 0.  1.
     999901    1    3    3    0    0 -0.79313301652E-01  0.43588642243E-02  0.88514439183E-01  0.88800022830E+00  0.88000000000E+00 0.  1.
        -11    1    4    4    0    0  0.25141332716E-01 -0.13430266263E-01 -0.51421004100E-01  0.58794893029E-01  0.51100000000E-03 0.  1.
         11    1    4    4    0    0  0.46405288045E-01 -0.23610293577E-02 -0.56597968162E-01  0.73229886927E-01  0.51100000000E-03 0. -1.
</event>
<event>
 8    1  0.9952977E+004  0.1043930E+01  0.7957747E-01            NaN
         13   -1    0    0    0    0  0.00000000000E+00  0.00000000000E+00  0.74505805969E-08  0.10566000000E+00  0.10566000000E+00 0.  1.
     999900   -1    0    0    0    0 -0.00000000000E+00 -0.00000000000E+00 -0.74505805969E-08  0.93827000000E+00  0.93827000000E+00 0.  1.
     999902    2    1    2    0    0 -0.14351697914E-01  0.14954250646E-01 -0.86750102900E-02  0.10214609847E+01  0.10212138300E+01 0.  0.
     999903    2    3    3    0    0 -0.12964090174E+00 -0.57656411366E-02 -0.25154667961E-01  0.13354629647E+00  0.19022354240E-01 0.  0.
         14    1    1    2    0    0  0.14351697914E-01 -0.14954250646E-01  0.86750102900E-02  0.22469015308E-01  0.00000000000E+00 0.  1.
     999901    1    3    3    0    0  0.11528920382E+00  0.20719891783E-01  0.16479657671E-01  0.88791468822E+00  0.88000000000E+00 0.  1.
        -11    1    4    4    0    0 -0.40687147772E-01  0.34203480370E-02 -0.72103851702E-03  0.40840222723E-01  0.51100000000E-03 0. -1.
         11    1    4    4    0    0 -0.88953753966E-01 -0.91859891736E-02 -0.24433629444E-01  0.92706073752E-01  0.51100000000E-03 0.  1.
</event>
<event>
 8    1  0.9952977E+004  0.1043930E+01  0.7957747E-01            NaN
         13   -1    0    0    0    0  0.00000000000E+00  0.00000000000E+00  0.74505805969E-08  0.10566000000E+00  0.10566000000E+00 0. -1.
     999900   -1    0    0    0    0 -0.00000000000E+00 -0.00000000000E+00 -0.74505805969E-08  0.93827000000E+00  0.93827000000E+00 0.  1.
     999902    2    1    2    0    0 -0.20045524765E-01  0.69647238515E-02 -0.20716598068E-01  0.10142735019E+01  0.10138398438E+01 0.  0.
     999903    2    3    3    0    0  0.71020730274E-01 -0.51374330139E-01  0.81684737375E-01  0.12175877292E+00  0.21668791767E-01 0.  0.
         14    1    1    2    0    0  0.20045524765E-01 -0.69647238515E-02  0.20716598068E-01  0.29656498056E-01  0.00000000000E+00 0.  1.
     999901    1    3    3    0    0 -0.91066255039E-01  0.58339053991E-01 -0.10240133544E+00  0.89251472903E+00  0.88000000000E+00 0.  1.
        -11    1    4    4    0    0  0.19261622835E-01 -0.62740593698E-02  0.28224287709E-01  0.34745438160E-01  0.51100000000E-03 0. -1.
         11    1    4    4    0    0  0.51759107439E-01 -0.45100270770E-01  0.53460449666E-01  0.87013334759E-01  0.51100000000E-03 0.  1.
</event>
<event>
 8    1  0.9952977E+004  0.1043930E+01  0.7957747E-01            NaN
         13   -1    0    0    0    0  0.00000000000E+00  0.00000000000E+00  0.74505805969E-08  0.10566000000E+00  0.10566000000E+00 0.  1.
     999900   -1    0    0    0    0 -0.00000000000E+00 -0.00000000000E+00 -0.74505805969E-08  0.93827000000E+00  0.93827000000E+00 0.  1.
     999902    2    1    2    0    0  0.16551955546E-01  0.17000341673E-01 -0.23580087878E-03  0.10202016530E+01  0.10199256729E+01 0.  0.
     999903    2    3    3    0    0 -0.91256790070E-01 -0.31792047096E-01  0.82377544116E-01  0.12844586378E+00  0.19332463761E-01 0.  0.
         14    1    1    2    0    0 -0.16551955546E-01 -0.17000341673E-01  0.23580087878E-03  0.23728347002E-01  0.00000000000E+00 0.  1.
     999901    1    3    3    0    0  0.10780874562E+00  0.48792388769E-01 -0.82613344995E-01  0.89175578922E+00  0.88000000000E+00 0.  1.
        -11    1    4    4    0    0 -0.19086038279E-01  0.12901922256E-02  0.14959190658E-01  0.24289503068E-01  0.51100000000E-03 0. -1.
         11    1    4    4    0    0 -0.72170751791E-01 -0.33082239322E-01  0.67418353458E-01  0.10415636071E+00  0.51100000000E-03 0.  1.
</event>
<event>
 8    1  0.9952977E+004  0.1043930E+01  0.7957747E-01            NaN
         13   -1    0    0    0    0  0.00000000000E+00  0.00000000000E+00  0.74505805969E-08  0.10566000000E+00  0.10566000000E+00 0.  1.
     999900   -1    0    0    0    0 -0.00000000000E+00 -0.00000000000E+00 -0.74505805969E-08  0.93827000000E+00  0.93827000000E+00 0. -1.
     999902    2    1    2    0    0  0.10401779639E-01 -0.56504033731E-02  0.18813488611E-01  0.10217022824E+01  0.10214604654E+01 0.  0.
     999903    2    3    3    0    0 -0.61060605616E-01  0.47529700317E-01  0.10621160348E+00  0.13289778956E+00  0.19835518308E-01 0.  0.
         14    1    1    2    0    0 -0.10401779639E-01  0.56504033731E-02 -0.18813488611E-01  0.22227717644E-01  0.00000000000E+00 0. -1.
     999901    1    3    3    0    0  0.71462385254E-01 -0.53180103690E-01 -0.87398114864E-01  0.88880449280E+00  0.88000000000E+00 0.  1.
        -11    1    4    4    0    0 -0.22137788404E-01  0.16433919434E-01  0.54565722102E-01  0.61137832256E-01  0.51100000000E-03 0. -1.
         11    1    4    4    0    0 -0.38922817211E-01  0.31095780883E-01  0.51645881373E-01  0.71759957303E-01  0.51100000000E-03 0.  1.
</event>
<event>
 8    1  0.9952977E+004  0.1043930E+01  0.7957747E-01            NaN
         13   -1    0    0    0    0  0.00000000000E+00  0.00000000000E+00  0.74505805969E-08  0.10566000000E+00  0.10566000000E+00 0.  1.
     999900   -1    0    0    0    0 -0.00000000000E+00 -0.00000000000E+00 -0.74505805969E-08  0.93827000000E+00  0.93827000000E+00 0. -1.
     999902    2    1    2    0    0  0.17769823048E-01 -0.94994832023E-02  0.11138645842E-01  0.10209066157E+01  0.10206469722E+01 0.  0.
     999903    2    3    3    0    0  0.89706581373E-01  0.61788758747E-01 -0.70604438006E-01  0.13133433513E+00  0.19964956044E-01 0.  0.
         14    1    1    2    0    0 -0.17769823048E-01  0.94994832023E-02 -0.11138645842E-01  0.23023384275E-01  0.00000000000E+00 0. -1.
     999901    1    3    3    0    0 -0.71936758324E-01 -0.71288241949E-01  0.81743083849E-01  0.88957228059E+00  0.88000000000E+00 0.  1.
        -11    1    4    4    0    0  0.76033879097E-01  0.48346842059E-01 -0.65767112632E-01  0.11155331520E+00  0.51100000000E-03 0.  1.
         11    1    4    4    0    0  0.13672702276E-01  0.13441916688E-01 -0.48373253742E-02  0.19781019932E-01  0.51100000000E-03 0. -1.
</event>
<event>
 8    1  0.9952977E+004  0.1043930E+01  0.7957747E-01            NaN
         13   -1    0    0    0    0  0.00000000000E+00  0.00000000000E+00  0.74505805969E-08  0.10566000000E+00  0.10566000000E+00 0.  1.
     999900   -1    0    0    0    0 -0.00000000000E+00 -0.00000000000E+00 -0.74505805969E-08  0.93827000000E+00  0.93827000000E+00 0. -1.
     999902    2    1    2    0    0 -0.16101686376E-01 -0.14833002887E-01  0.14383877823E-01  0.10177349963E+01  0.10173978300E+01 0.  0.
     999903    2    3    3    0    0 -0.80841397024E-01 -0.91072053142E-01  0.45796628695E-01  0.13151245998E+00  0.19202749663E-01 0.  0.
         14    1    1    2    0    0  0.16101686376E-01  0.14833002887E-01 -0.14383877823E-01  0.26195003723E-01  0.00000000000E+00 0.  1.
     999901    1    3    3    0    0  0.64739710647E-01  0.76239050254E-01 -0.31412750872E-01  0.88622253629E+00  0.88000000000E+00 0. -1.
        -11    1    4    4    0    0 -0.70749738202E-01 -0.68174174999E-01  0.36636792834E-01  0.10486066614E+00  0.51100000000E-03 0. -1.
         11    1    4    4    0    0 -0.10091658822E-01 -0.22897878142E-01  0.91598358616E-02  0.26651793846E-01  0.51100000000E-03 0.  1.
</event>
<event>
 8    1  0.9952977E+004  0.1043930E+01  0.7957747E-01            NaN
         13   -1    0    0    0    0  0.00000000000E+00  0.00000000000E+00  0.74505805969E-08  0.10566000000E+00  0.10566000000E+00 0. -1.
     999900   -1    0    0    0    0 -0.00000000000E+00 -0.00000000000E+00 -0.74505805969E-08  0.93827000000E+00  0.93827000000E+00 0. -1.
     999902    2    1    2    0    0  0.11717800657E-01 -0.18809713184E-01 -0.68683321680E-02  0.10207290054E+01  0.10204652941E+01 0.  0.
     999903    2    3    3    0    0  0.18938140596E-01  0.12405577265E+00 -0.22195136813E-01  0.12904655562E+00  0.20295357152E-01 0.  0.
         14    1    1    2    0    0 -0.11717800657E-01  0.18809713184E-01  0.68683321680E-02  0.23200994570E-01  0.00000000000E+00 0.  1.
     999901    1    3    3    0    0 -0.72203399397E-02 -0.14286548584E+00  0.15326804645E-01  0.89168244981E+00  0.88000000000E+00 0.  1.
        -11    1    4    4    0    0  0.80625731072E-02  0.26188705439E-01 -0.12427511897E-01  0.30092483291E-01  0.51100000000E-03 0.  1.
         11    1    4    4    0    0  0.10875567489E-01  0.97867067216E-01 -0.97676249153E-02  0.98954072332E-01  0.51100000000E-03 0. -1.
</event>
<event>
 8    1  0.9952977E+004  0.1043930E+01  0.7957747E-01            NaN
         13   -1    0    0    0    0  0.00000000000E+00  0.00000000000E+00  0.74505805969E-08  0.10566000000E+00  0.10566000000E+00 0.  1.
     999900   -1    0    0    0    0 -0.00000000000E+00 -0.00000000000E+00 -0.74505805969E-08  0.93827000000E+00  0.93827000000E+00 0.  1.
     999902    2    1    2    0    0  0.66045193304E-02  0.20796653146E-01  0.69024896522E-02  0.10210440912E+01  0.10207875741E+01 0.  0.
     999903    2    3    3    0    0  0.73921164131E-01  0.41473166790E-01 -0.98994393479E-01  0.13190225847E+00  0.20345854070E-01 0.  0.
         14    1    1    2    0    0 -0.66045193304E-02 -0.20796653146E-01 -0.69024896522E-02  0.22885908788E-01  0.00000000000E+00 0. -1.
     999901    1    3    3    0    0 -0.67316644801E-01 -0.20676513644E-01  0.10589688313E+00  0.88914183275E+00  0.88000000000E+00 0. -1.
        -11    1    4    4    0    0  0.15053230775E-01  0.75798445474E-02 -0.33685965543E-01  0.37670402117E-01  0.51100000000E-03 0. -1.
         11    1    4    4    0    0  0.58867933356E-01  0.33893322243E-01 -0.65308427936E-01  0.94231856348E-01  0.51100000000E-03 0.  1.
</event>
<event>
 8    1  0.1021556E+005  0.1043930E+01  0.7957747E-01            NaN
         13   -1    0    0    0    0  0.00000000000E+00  0.00000000000E+00  0.74505805969E-08  0.10566000000E+00  0.10566000000E+00 0. -1.
     999900   -1    0    0    0    0 -0.00000000000E+00 -0.00000000000E+00 -0.74505805969E-08  0.93827000000E+00  0.93827000000E+00 0. -1.
     999902    2    1    2    0    0  0.22795264820E-01 -0.79361950219E-02 -0.11079757644E-01  0.10173712290E+01  0.10170245077E+01 0.  0.
     999903    2    3    3    0    0  0.81127216484E-02 -0.26758390486E-01 -0.12528402939E+00  0.12967056556E+00  0.18345022170E-01 0.  0.
         14    1    1    2    0    0 -0.22795264820E-01  0.79361950219E-02  0.11079757644E-01  0.26558771039E-01  0.00000000000E+00 0. -1.
     999901    1    3    3    0    0  0.14682543171E-01  0.18822195464E-01  0.11420427175E+00  0.88770066340E+00  0.88000000000E+00 0.  1.
        -11    1    4    4    0    0  0.11859701089E-01 -0.19072364910E-01 -0.64813580545E-01  0.68596420878E-01  0.51100000000E-03 0.  1.
         11    1    4    4    0    0 -0.37469794410E-02 -0.76860255752E-02 -0.60470448846E-01  0.61074144683E-01  0.51100000000E-03 0. -1.
</event>
<event>
 8    1  0.9952977E+004  0.1043930E+01  0.7957747E-01            NaN
         13   -1    0    0    0    0  0.00000000000E+00  0.00000000000E+00  0.74505805969E-08  0.10566000000E+00  0.10566000000E+00 0. -1.
     999900   -1    0    0    0    0 -0.00000000000E+00 -0.00000000000E+00 -0.74505805969E-08  0.93827000000E+00  0.93827000000E+00 0.  1.
     999902    2    1    2    0    0  0.53854800862E-02  0.20029941165E-01  0.95157370273E-02  0.10211100265E+01  0.10208550020E+01 0.  0.
     999903    2    3    3    0    0 -0.12134552289E-01 -0.11618771623E+00  0.52310013841E-01  0.12942984178E+00  0.19207124522E-01 0.  0.
         14    1    1    2    0    0 -0.53854800862E-02 -0.20029941165E-01 -0.95157370273E-02  0.22819973488E-01  0.00000000000E+00 0.  1.
     999901    1    3    3    0    0  0.17520032375E-01  0.13621765739E+00 -0.42794276814E-01  0.89168018473E+00  0.88000000000E+00 0. -1.
        -11    1    4    4    0    0 -0.11849483349E-02 -0.58519136743E-01  0.35130716939E-01  0.68266550092E-01  0.51100000000E-03 0. -1.
         11    1    4    4    0    0 -0.10949603954E-01 -0.57668579487E-01  0.17179296901E-01  0.61163291685E-01  0.51100000000E-03 0.  1.
</event>
<event>
 8    1  0.9952977E+004  0.1043930E+01  0.7957747E-01            NaN
         13   -1    0    0    0    0  0.00000000000E+00  0.00000000000E+00  0.74505805969E-08  0.10566000000E+00  0.10566000000E+00 0. -1.
     999900   -1    0    0    0    0 -0.00000000000E+00 -0.00000000000E+00 -0.74505805969E-08  0.93827000000E+00  0.93827000000E+00 0. -1.
     999902    2    1    2    0    0 -0.33775900384E-02 -0.36895667379E-02 -0.22719578169E-01  0.10206662890E+01  0.10204011335E+01 0.  0.
     999903    2    3    3    0    0 -0.92214349242E-01  0.17651670949E-02 -0.93996136431E-01  0.13330949962E+00  0.20725515768E-01 0.  0.
         14    1    1    2    0    0  0.33775900384E-02  0.36895667379E-02  0.22719578169E-01  0.23263710997E-01  0.00000000000E+00 0. -1.
     999901    1    3    3    0    0  0.88836759204E-01 -0.54547338328E-02  0.71276558262E-01  0.88735678938E+00  0.88000000000E+00 0.  1.
        -11    1    4    4    0    0 -0.15860995983E-01  0.28051876385E-02 -0.28344525344E-01  0.32605421470E-01  0.51100000000E-03 0.  1.
         11    1    4    4    0    0 -0.76353353259E-01 -0.10400205436E-02 -0.65651611087E-01  0.10070407815E+00  0.51100000000E-03 0. -1.
</event>
<event>
 8    1  0.9952977E+004  0.1043930E+01  0.7957747E-01            NaN
         13   -1    0    0    0    0  0.00000000000E+00  0.00000000000E+00  0.74505805969E-08  0.10566000000E+00  0.10566000000E+00 0. -1.
     999900   -1    0    0    0    0 -0.00000000000E+00 -0.00000000000E+00 -0.74505805969E-08  0.93827000000E+00  0.93827000000E+00 0. -1.
     999902    2    1    2    0    0  0.94962744217E-02  0.90127662973E-02  0.19339356111E-01  0.10205757739E+01  0.10203085270E+01 0.  0.
     999903    2    3    3    0    0 -0.88649108499E-01  0.44181937059E-01 -0.79665504357E-01  0.12890803912E+00  0.21447190167E-01 0.  0.
         14    1    1    2    0    0 -0.94962744217E-02 -0.90127662973E-02 -0.19339356111E-01  0.23354226148E-01  0.00000000000E+00 0.  1.
     999901    1    3    3    0    0  0.98145382921E-01 -0.35169170761E-01  0.99004860467E-01  0.89166773473E+00  0.88000000000E+00 0. -1.
        -11    1    4    4    0    0 -0.45576878514E-01  0.34380047810E-01 -0.47380140874E-01  0.74191498251E-01  0.51100000000E-03 0. -1.
         11    1    4    4    0    0 -0.43072229984E-01  0.98018892486E-02 -0.32285363483E-01  0.54716540871E-01  0.51100000000E-03 0.  1.
</event>
<event>
 8    1  0.9952977E+004  0.1043930E+01  0.7957747E-01            NaN
         13   -1    0    0    0    0  0.00000000000E+00  0.00000000000E+00  0.74505805969E-08  0.10566000000E+00  0.10566000000E+00 0.  1.
     999900   -1    0    0    0    0 -0.00000000000E+00 -0.00000000000E+00 -0.74505805969E-08  0.93827000000E+00  0.93827000000E+00 0.  1.
     999902    2    1    2    0    0 -0.20311455039E-01  0.78153586906E-02 -0.11399202421E-01  0.10193621989E+01  0.10190660997E+01 0.  0.
     999903    2    3    3    0    0  0.39525472961E-01  0.78575042964E-01 -0.94645187108E-01  0.13058928926E+00  0.18961820487E-01 0.  0.
         14    1    1    2    0    0  0.20311455039E-01 -0.78153586906E-02  0.11399202421E-01  0.24567801145E-01  0.00000000000E+00 0.  1.
     999901    1    3    3    0    0 -0.59836928000E-01 -0.70759684273E-01  0.83245984687E-01  0.88877290960E+00  0.88000000000E+00 0. -1.
        -11    1    4    4    0    0  0.13272934489E-01  0.20687125104E-01 -0.39039672720E-01  0.46135508040E-01  0.51100000000E-03 0. -1.
         11    1    4    4    0    0  0.26252538472E-01  0.57887917860E-01 -0.55605514387E-01  0.84453781216E-01  0.51100000000E-03 0.  1.
</event>
<event>
 8    1  0.9952977E+004  0.1043930E+01  0.7957747E-01            NaN
         13   -1    0    0    0    0  0.00000000000E+00  0.00000000000E+00  0.74505805969E-08  0.10566000000E+00  0.10566000000E+00 0. -1.
     999900   -1    0    0    0    0 -0.00000000000E+00 -0.00000000000E+00 -0.74505805969E-08  0.93827000000E+00  0.93827000000E+00 0. -1.
     999902    2    1    2    0    0 -0.25395171691E-01 -0.39850734592E-02 -0.12016954307E-01  0.10155539054E+01  0.10151573927E+01 0.  0.
     999903    2    3    3    0    0  0.18984391722E-01 -0.90921287651E-01 -0.85160860150E-01  0.12714100477E+00  0.16893055239E-01 0.  0.
         14    1    1    2    0    0  0.25395171691E-01  0.39850734592E-02  0.12016954307E-01  0.28376094631E-01  0.00000000000E+00 0.  1.
     999901    1    3    3    0    0 -0.44379563414E-01  0.86936214192E-01  0.73143905843E-01  0.88841290060E+00  0.88000000000E+00 0.  1.
        -11    1    4    4    0    0  0.14139008998E-01 -0.52663428588E-01 -0.39286701927E-01  0.67209034775E-01  0.51100000000E-03 0.  1.
         11    1    4    4    0    0  0.48453827242E-02 -0.38257859063E-01 -0.45874158224E-01  0.59931969996E-01  0.51100000000E-03 0. -1.
</event>
<event>
 8    1  0.9952977E+004  0.1043930E+01  0.7957747E-01            NaN
         13   -1    0    0    0    0  0.00000000000E+00  0.00000000000E+00  0.74505805969E-08  0.10566000000E+00  0.10566000000E+00 0.  1.
     999900   -1    0    0    0    0 -0.00000000000E+00 -0.00000000000E+00 -0.74505805969E-08  0.93827000000E+00  0.93827000000E+00 0.  1.
     999902    2    1    2    0    0 -0.22605900222E-01 -0.10756042620E-01  0.29796268823E-02  0.10187189438E+01  0.10184069369E+01 0.  0.
     999903    2    3    3    0    0  0.14281468226E-01 -0.83975551514E-01 -0.95187486713E-01  0.12947288303E+00  0.21135662414E-01 0.  0.
         14    1    1    2    0    0  0.22605900222E-01  0.10756042620E-01 -0.29796268823E-02  0.25211056187E-01  0.00000000000E+00 0. -1.
     999901    1    3    3    0    0 -0.36887368447E-01  0.73219508894E-01  0.98167113595E-01  0.88924606079E+00  0.88000000000E+00 0. -1.
        -11    1    4    4    0    0  0.82345115935E-02 -0.58947621974E-01 -0.51257737510E-01  0.78550914019E-01  0.51100000000E-03 0.  1.
         11    1    4    4    0    0  0.60469566320E-02 -0.25027929540E-01 -0.43929749203E-01  0.50921969007E-01  0.51100000000E-03 0. -1.
</event>
<event>
 8    1  0.9952977E+004  0.1043930E+01  0.7957747E-01            NaN
         13   -1    0    0    0    0  0.00000000000E+00  0.00000000000E+00  0.74505805969E-08  0.10566000000E+00  0.10566000000E+00 0. -1.
     999900   -1    0    0    0    0 -0.00000000000E+00 -0.00000000000E+00 -0.74505805969E-08  0.93827000000E+00  0.93827000000E+00 0. -1.
     999902    2    1    2    0    0 -0.59474939597E-02  0.15961771607E-01 -0.70200232869E-02  0.10255063314E+01  0.10253408234E+01 0.  0.
     999903    2    3    3    0    0  0.84373537674E-02  0.19722561850E-01  0.13134830372E+00  0.13457038461E+00  0.19915901646E-01 0.  0.
         14    1    1    2    0    0  0.59474939597E-02 -0.15961771607E-01  0.70200232869E-02  0.18423668586E-01  0.00000000000E+00 0. -1.
     999901    1    3    3    0    0 -0.14384847727E-01 -0.37607902435E-02 -0.13836832701E+00  0.89093594680E+00  0.88000000000E+00 0. -1.
        -11    1    4    4    0    0  0.13612759034E-01  0.99039522708E-02  0.97533226204E-01  0.98976698338E-01  0.51100000000E-03 0. -1.
         11    1    4    4    0    0 -0.51754052667E-02  0.98186095796E-02  0.33815077520E-01  0.35593686272E-01  0.51100000000E-03 0.  1.
</event>
<event>
 8    1  0.9952977E+004  0.1043930E+01  0.7957747E-01            NaN
         13   -1    0    0    0    0  0.00000000000E+00  0.00000000000E+00  0.74505805969E-08  0.10566000000E+00  0.10566000000E+00 0.  1.
     999900   -1    0    0    0    0 -0.00000000000E+00 -0.00000000000E+00 -0.74505805969E-08  0.93827000000E+00  0.93827000000E+00 0.  1.
     999902    2    1    2    0    0  0.10879724226E-01 -0.65268382934E-02  0.17723294817E-01  0.10221335967E+01  0.10219011725E+01 0.  0.
     999903    2    3    3    0    0  0.14567116415E-01  0.12916740023E+00  0.83017623472E-04  0.13155080852E+00  0.20228449473E-01 0.  0.
         14    1    1    2    0    0 -0.10879724226E-01  0.65268382934E-02 -0.17723294817E-01  0.21796403293E-01  0.00000000000E+00 0. -1.
     999901    1    3    3    0    0 -0.36873921890E-02 -0.13569423852E+00  0.17640277193E-01  0.89058278818E+00  0.88000000000E+00 0. -1.
        -11    1    4    4    0    0  0.12679754358E-02  0.70684109600E-01  0.75931527475E-02  0.71103925358E-01  0.51100000000E-03 0.  1.
         11    1    4    4    0    0  0.13299140979E-01  0.58483290631E-01 -0.75101351240E-02  0.60446883165E-01  0.51100000000E-03 0. -1.
</event>
<event>
 8    1  0.9952977E+004  0.1043930E+01  0.7957747E-01            NaN
         13   -1    0    0    0    0  0.00000000000E+00  0.00000000000E+00  0.74505805969E-08  0.10566000000E+00  0.10566000000E+00 0.  1.
     999900   -1    0    0    0    0 -0.00000000000E+00 -0.00000000000E+00 -0.74505805969E-08  0.93827000000E+00  0.93827000000E+00 0.  1.
     999902    2    1    2    0    0  0.62451876702E-02  0.22315563916E-01  0.69538280532E-02  0.10197361478E+01  0.10194491005E+01 0.  0.
     999903    2    3    3    0    0  0.13011346918E+00  0.25996988658E-02 -0.70456529214E-02  0.13073218153E+00  0.10246402553E-01 0.  0.
         14    1    1    2    0    0 -0.62451876702E-02 -0.22315563916E-01 -0.69538280532E-02  0.24193852246E-01  0.00000000000E+00 0.  1.
     999901    1    3    3    0    0 -0.12386828151E+00  0.19715865050E-01  0.13999480975E-01  0.88900396623E+00  0.88000000000E+00 0.  1.
        -11    1    4    4    0    0  0.51674053020E-01  0.47222764138E-02 -0.61707970686E-02  0.52257511493E-01  0.51100000000E-03 0. -1.
         11    1    4    4    0    0  0.78439416161E-01 -0.21225775480E-02 -0.87485585280E-03  0.78474670034E-01  0.51100000000E-03 0.  1.
</event>
<event>
 8    1  0.9952977E+004  0.1043930E+01  0.7957747E-01            NaN
         13   -1    0    0    0    0  0.00000000000E+00  0.00000000000E+00  0.74505805969E-08  0.10566000000E+00  0.10566000000E+00 0. -1.
     999900   -1    0    0    0    0 -0.00000000000E+00 -0.00000000000E+00 -0.74505805969E-08  0.93827000000E+00  0.93827000000E+00 0. -1.
     999902    2    1    2    0    0 -0.51089344136E-02  0.22674444669E-01 -0.32832167002E-02  0.10204563730E+01  0.10201863546E+01 0.  0.
     999903    2    3    3    0    0  0.83925930461E-01  0.57255603664E-01  0.80627683052E-01  0.13131965528E+00  0.20549030026E-01 0.  0.
         14    1    1    2    0    0  0.51089344136E-02 -0.22674444669E-01  0.32832167002E-02  0.23473626984E-01  0.00000000000E+00 0.  1.
     999901    1    3    3    0    0 -0.89034864875E-01 -0.34581158995E-01 -0.83910899752E-01  0.88913671773E+00  0.88000000000E+00 0. -1.
        -11    1    4    4    0    0  0.39354249996E-01  0.18987453699E-01  0.24643797670E-01  0.50168299506E-01  0.51100000000E-03 0. -1.
         11    1    4    4    0    0  0.44571680465E-01  0.38268149965E-01  0.55983885382E-01  0.81151355778E-01  0.51100000000E-03 0.  1.
</event>
<event>
 8    1  0.9952977E+004  0.1043930E+01  0.7957747E-01            NaN
         13   -1    0    0    0    0  0.00000000000E+00  0.00000000000E+00  0.74505805969E-08  0.10566000000E+00  0.10566000000E+00 0. -1.
     999900   -1    0    0    0    0 -0.00000000000E+00 -0.00000000000E+00 -0.74505805969E-08  0.93827000000E+00  0.93827000000E+00 0.  1.
     999902    2    1    2    0    0  0.74009662340E-02  0.13085688896E-01 -0.15721364633E-01  0.10221775091E+01  0.10219460305E+01 0.  0.
     999903    2    3    3    0    0 -0.95722071505E-01  0.88140034636E-01  0.14623946096E-01  0.13246499731E+00  0.20043328918E-01 0.  0.
         14    1    1    2    0    0 -0.74009662340E-02 -0.13085688896E-01  0.15721364633E-01  0.21752490915E-01  0.00000000000E+00 0. -1.
     999901    1    3    3    0    0  0.10312303774E+00 -0.75054345740E-01 -0.30345310729E-01  0.88971251178E+00  0.88000000000E+00 0.  1.
        -11    1    4    4    0    0 -0.45934999263E-01  0.39167542207E-01 -0.29814826894E-02  0.60442293800E-01  0.51100000000E-03 0.  1.
         11    1    4    4    0    0 -0.49787072242E-01  0.48972492429E-01  0.17605428785E-01  0.72022703509E-01  0.51100000000E-03 0. -1.
</event>
<event>
 8    1  0.9952977E+004  0.1043930E+01  0.7957747E-01            NaN
         13   -1    0    0    0    0  0.00000000000E+00  0.00000000000E+00  0.74505805969E-08  0.10566000000E+00  0.10566000000E+00 0.  1.
     999900   -1    0    0    0    0 -0.00000000000E+00 -0.00000000000E+00 -0.74505805969E-08  0.93827000000E+00  0.93827000000E+00 0.  1.
     999902    2    1    2    0    0  0.42917118384E-02  0.17575423538E-01  0.15552029309E-01  0.10200725081E+01  0.10197934800E+01 0.  0.
     999903    2    3    3    0    0  0.89572950945E-01 -0.69907301390E-01 -0.56959226120E-01  0.12867809538E+00  0.20083686464E-01 0.  0.
         14    1    1    2    0    0 -0.42917118384E-02 -0.17575423538E-01 -0.15552029309E-01  0.23857491877E-01  0.00000000000E+00 0. -1.
     999901    1    3    3    0    0 -0.85281239106E-01  0.87482724928E-01  0.72511255429E-01  0.89139441274E+00  0.88000000000E+00 0. -1.
        -11    1    4    4    0    0  0.38945379604E-01 -0.25221376868E-01 -0.33339060818E-01  0.57136805484E-01  0.51100000000E-03 0. -1.
         11    1    4    4    0    0  0.50627571341E-01 -0.44685924522E-01 -0.23620165302E-01  0.71541289897E-01  0.51100000000E-03 0.  1.
</event>
<event>
 8    1  0.9952977E+004  0.1043930E+01  0.7957747E-01            NaN
         13   -1    0    0    0    0  0.00000000000E+00  0.00000000000E+00  0.74505805969E-08  0.10566000000E+00  0.10566000000E+00 0. -1.
     999900   -1    0    0    0    0 -0.00000000000E+00 -0.00000000000E+00 -0.74505805969E-08  0.93827000000E+00  0.93827000000E+00 0. -1.
     999902    2    1    2    0    0 -0.77912744877E-02  0.14615293962E-01 -0.17274985944E-01  0.10199980984E+01  0.10197173063E+01 0.  0.
     999903    2    3    3    0    0 -0.15369063192E-01 -0.49468927597E-01 -0.11942139776E+00  0.13174244837E+00  0.20278549218E-01 0.  0.
         14    1    1    2    0    0  0.77912744877E-02 -0.14615293962E-01  0.17274985944E-01  0.23931901619E-01  0.00000000000E+00 0. -1.
     999901    1    3    3    0    0  0.75777887045E-02  0.64084221559E-01  0.10214641181E+00  0.88825565001E+00  0.88000000000E+00 0.  1.
        -11    1    4    4    0    0 -0.15038846951E-01 -0.19847774696E-01 -0.67700209564E-01  0.72136541184E-01  0.51100000000E-03 0. -1.
         11    1    4    4    0    0 -0.33021624163E-03 -0.29621152902E-01 -0.51721188194E-01  0.59605907184E-01  0.51100000000E-03 0.  1.
</event>
<event>
 8    1  0.9952977E+004  0.1043930E+01  0.7957747E-01            NaN
         13   -1    0    0    0    0  0.00000000000E+00  0.00000000000E+00  0.74505805969E-08  0.10566000000E+00  0.10566000000E+00 0.  1.
     999900   -1    0    0    0    0 -0.00000000000E+00 -0.00000000000E+00 -0.74505805969E-08  0.93827000000E+00  0.93827000000E+00 0.  1.
     999902    2    1    2    0    0  0.85995249728E-02  0.94752920971E-02 -0.19910606371E-01  0.10202621899E+01  0.10199876327E+01 0.  0.
     999903    2    3    3    0    0  0.40794329982E-01 -0.89544390522E-01  0.79968935436E-01  0.12851260289E+00  0.20930437982E-01 0.  0.
         14    1    1    2    0    0 -0.85995249728E-02 -0.94752920971E-02  0.19910606371E-01  0.23667810126E-01  0.00000000000E+00 0.  1.
     999901    1    3    3    0    0 -0.32194805009E-01  0.99019682619E-01 -0.99879541807E-01  0.89174958698E+00  0.88000000000E+00 0. -1.
        -11    1    4    4    0    0  0.12623666658E-01 -0.37858149633E-01  0.44545543607E-01  0.59809389143E-01  0.51100000000E-03 0. -1.
         11    1    4    4    0    0  0.28170663324E-01 -0.51686240889E-01  0.35423391829E-01  0.68703213746E-01  0.51100000000E-03 0.  1.
</event>
<event>
 8    1  0.9952977E+004  0.1043930E+01  0.7957747E-01            NaN
         13   -1    0    0    0    0  0.00000000000E+00  0.00000000000E+00  0.74505805969E-08  0.10566000000E+00  0.10566000000E+00 0.  1.
     999900   -1    0    0    0    0 -0.00000000000E+00 -0.00000000000E+00 -0.74505805969E-08  0.93827000000E+00  0.93827000000E+00 0. -1.
     999902    2    1    2    0    0  0.70187326224E-02  0.16384519766E-01 -0.14719355747E-01  0.10208134577E+01  0.10205516845E+01 0.  0.
     999903    2    3    3    0    0 -0.70081027275E-01 -0.90941467568E-01 -0.57577652770E-01  0.12991499311E+00  0.19519693363E-01 0.  0.
         14    1    1    2    0    0 -0.70187326224E-02 -0.16384519766E-01  0.14719355747E-01  0.23116542328E-01  0.00000000000E+00 0.  1.
     999901    1    3    3    0    0  0.77099759898E-01  0.10732598733E+00  0.42858297023E-01  0.89089846456E+00  0.88000000000E+00 0. -1.
        -11    1    4    4    0    0 -0.28794030979E-01 -0.24157851224E-01 -0.23431355264E-01  0.44294328376E-01  0.51100000000E-03 0. -1.
         11    1    4    4    0    0 -0.41286996296E-01 -0.66783616345E-01 -0.34146297506E-01  0.85620664735E-01  0.51100000000E-03 0.  1.
</event>
<event>
 8    1  0.9952977E+004  0.1043930E+01  0.7957747E-01            NaN
         13   -1    0    0    0    0  0.00000000000E+00  0.00000000000E+00  0.74505805969E-08  0.10566000000E+00  0.10566000000E+00 0.  1.
     999900   -1    0    0    0    0 -0.00000000000E+00 -0.00000000000E+00 -0.74505805969E-08  0.93827000000E+00  0.93827000000E+00 0. -1.
     999902    2    1    2    0    0  0.13909863190E-02  0.13541745062E-01  0.15807110851E-01  0.10230690687E+01  0.10228563637E+01 0.  0.
     999903    2    3    3    0    0  0.44931301816E-01 -0.84151749820E-01 -0.87078763221E-01  0.13064244362E+00  0.19606075373E-01 0.  0.
         14    1    1    2    0    0 -0.13909863190E-02 -0.13541745062E-01 -0.15807110851E-01  0.20860931324E-01  0.00000000000E+00 0. -1.
     999901    1    3    3    0    0 -0.43540315497E-01  0.97693494882E-01  0.10288587407E+00  0.89242662505E+00  0.88000000000E+00 0.  1.
        -11    1    4    4    0    0  0.34126794806E-01 -0.63087323955E-01 -0.53177700045E-01  0.89290410855E-01  0.51100000000E-03 0. -1.
         11    1    4    4    0    0  0.10804507009E-01 -0.21064425865E-01 -0.33901063176E-01  0.41352032770E-01  0.51100000000E-03 0.  1.
</event>
<event>
 8    1  0.9952977E+004  0.1043930E+01  0.7957747E-01            NaN
         13   -1    0    0    0    0  0.00000000000E+00  0.00000000000E+00  0.74505805969E-08  0.10566000000E+00  0.10566000000E+00 0. -1.
     999900   -1    0    0    0    0 -0.00000000000E+00 -0.00000000000E+00 -0.74505805969E-08  0.93827000000E+00  0.93827000000E+00 0.  1.
     999902    2    1    2    0    0 -0.10088882477E-01 -0.19422013838E-01 -0.96815833965E-02  0.10199981545E+01  0.10197173638E+01 0.  0.
     999903    2    3    3    0    0 -0.95748566007E-01  0.84319668356E-01  0.93413072128E-02  0.12957028637E+00  0.20581659929E-01 0.  0.
         14    1    1    2    0    0  0.10088882477E-01  0.19422013838E-01  0.96815833965E-02  0.23931845483E-01  0.00000000000E+00 0. -1.
     999901    1    3    3    0    0  0.85659683530E-01 -0.10374168219E+00 -0.19022890609E-01  0.89042786815E+00  0.88000000000E+00 0.  1.
        -11    1    4    4    0    0 -0.10188496313E-01  0.93175187431E-02  0.76162337998E-02  0.15776240076E-01  0.51100000000E-03 0. -1.
         11    1    4    4    0    0 -0.85560069694E-01  0.75002149613E-01  0.17250734130E-02  0.11379404629E+00  0.51100000000E-03 0.  1.
</event>
<event>
 8    1  0.9952977E+004  0.1043930E+01  0.7957747E-01            NaN
         13   -1    0    0    0    0  0.00000000000E+00  0.00000000000E+00  0.74505805969E-08  0.10566000000E+00  0.10566000000E+00 0. -1.
     999900   -1    0    0    0    0 -0.00000000000E+00 -0.00000000000E+00 -0.74505805969E-08  0.93827000000E+00  0.93827000000E+00 0. -1.
     999902    2    1    2    0    0 -0.11561739390E-01 -0.76617669306E-02 -0.19280936286E-01  0.10201785581E+01  0.10199020342E+01 0.  0.
     999903    2    3    3    0    0  0.10890992883E+00  0.32659169617E-01  0.55155436907E-01  0.12794541901E+00  0.19997851550E-01 0.  0.
         14    1    1    2    0    0  0.11561739390E-01  0.76617669306E-02  0.19280936286E-01  0.23751441941E-01  0.00000000000E+00 0. -1.
     999901    1    3    3    0    0 -0.12047166822E+00 -0.40320936548E-01 -0.74436373193E-01  0.89223313905E+00  0.88000000000E+00 0. -1.
        -11    1    4    4    0    0  0.55775546254E-01  0.24291294710E-01  0.36832424340E-01  0.71118683638E-01  0.51100000000E-03 0.  1.
         11    1    4    4    0    0  0.53134382576E-01  0.83678749077E-02  0.18323012567E-01  0.56826735369E-01  0.51100000000E-03 0. -1.
</event>
<event>
 8    1  0.9952977E+004  0.1043930E+01  0.7957747E-01            NaN
         13   -1    0    0    0    0  0.00000000000E+00  0.00000000000E+00  0.74505805969E-08  0.10566000000E+00  0.10566000000E+00 0. -1.
     999900   -1    0    0    0    0 -0.00000000000E+00 -0.00000000000E+00 -0.74505805969E-08  0.93827000000E+00  0.93827000000E+00 0.  1.
     999902    2    1    2    0    0 -0.87090150391E-02 -0.14930378476E-01  0.15693754732E-01  0.10205835424E+01  0.10203164754E+01 0.  0.
     999903    2    3    3    0    0 -0.62762083270E-01  0.10315301983E+00  0.45082919116E-01  0.13056716833E+00  0.20873218592E-01 0.  0.
         14    1    1    2    0    0  0.87090150391E-02  0.14930378476E-01 -0.15693754732E-01  0.23346457589E-01  0.00000000000E+00 0.  1.
     999901    1    3    3    0    0  0.54053068231E-01 -0.11808339831E+00 -0.29389164385E-01  0.89001637408E+00  0.88000000000E+00 0. -1.
        -11    1    4    4    0    0 -0.44058399727E-01  0.68119001572E-01  0.19876894646E-01  0.83526600694E-01  0.51100000000E-03 0. -1.
         11    1    4    4    0    0 -0.18703683543E-01  0.35034018257E-01  0.25206024470E-01  0.47040567641E-01  0.51100000000E-03 0.  1.
</event>
<event>
 8    1  0.9952977E+004  0.1043930E+01  0.7957747E-01            NaN
         13   -1    0    0    0    0  0.00000000000E+00  0.00000000000E+00  0.74505805969E-08  0.10566000000E+00  0.10566000000E+00 0.  1.
     999900   -1    0    0    0    0 -0.00000000000E+00 -0.00000000000E+00 -0.74505805969E-08  0.93827000000E+00  0.93827000000E+00 0.  1.
     999902    2    1    2    0    0 -0.20026888246E-01  0.82386436457E-02 -0.10075553873E-01  0.10200455220E+01  0.10197658549E+01 0.  0.
     999903    2    3    3    0    0  0.29024166004E-01 -0.56238923595E-01  0.10997160545E+00  0.12820770995E+00  0.18391414984E-01 0.  0.
         14    1    1    2    0    0  0.20026888246E-01 -0.82386436457E-02  0.10075553873E-01  0.23884477968E-01  0.00000000000E+00 0.  1.
     999901    1    3    3    0    0 -0.49051054250E-01  0.64477567241E-01 -0.12004715933E+00  0.89183781208E+00  0.88000000000E+00 0.  1.
        -11    1    4    4    0    0  0.65565151841E-02 -0.31663977323E-01  0.59916205740E-01  0.68086769512E-01  0.51100000000E-03 0.  1.
         11    1    4    4    0    0  0.22467650820E-01 -0.24574946272E-01  0.50055399713E-01  0.60120940437E-01  0.51100000000E-03 0. -1.
</event>
<event>
 8    1  0.9952977E+004  0.1043930E+01  0.7957747E-01            NaN
         13   -1    0    0    0    0  0.00000000000E+00  0.00000000000E+00  0.74505805969E-08  0.10566000000E+00  0.10566000000E+00 0. -1.
     999900   -1    0    0    0    0 -0.00000000000E+00 -0.00000000000E+00 -0.74505805969E-08  0.93827000000E+00  0.93827000000E+00 0. -1.
     999902    2    1    2    0    0  0.13641856068E-01  0.63833054655E-02  0.14692134909E-01  0.10228894284E+01  0.10226730059E+01 0.  0.
     999903    2    3    3    0    0  0.12821363985E+00  0.31389526914E-01  0.20540528693E-01  0.13509091044E+00  0.20089821337E-01 0.  0.
         14    1    1    2    0    0 -0.13641856068E-01 -0.63833054655E-02 -0.14692134909E-01  0.21040571614E-01  0.00000000000E+00 0.  1.
     999901    1    3    3    0    0 -0.11457178378E+00 -0.25006221449E-01 -0.58483937846E-02  0.88779851794E+00  0.88000000000E+00 0. -1.
        -11    1    4    4    0    0  0.45215675449E-01  0.16377365642E-01  0.15759520032E-01  0.50609277848E-01  0.51100000000E-03 0.  1.
         11    1    4    4    0    0  0.82997964404E-01  0.15012161273E-01  0.47810086616E-02  0.84481632596E-01  0.51100000000E-03 0. -1.
</event>
<event>
 8    1  0.9952977E+004  0.1043930E+01  0.7957747E-01            NaN
         13   -1    0    0    0    0  0.00000000000E+00  0.00000000000E+00  0.74505805969E-08  0.10566000000E+00  0.10566000000E+00 0. -1.
     999900   -1    0    0    0    0 -0.00000000000E+00 -0.00000000000E+00 -0.74505805969E-08  0.93827000000E+00  0.93827000000E+00 0. -1.
     999902    2    1    2    0    0 -0.20625086183E-02  0.13555565464E-01  0.18896144169E-01  0.10205832323E+01  0.10203161581E+01 0.  0.
     999903    2    3    3    0    0 -0.59443899935E-01 -0.11275173492E+00 -0.55125377486E-02  0.12938070654E+00  0.21504608424E-01 0.  0.
         14    1    1    2    0    0  0.20625086183E-02 -0.13555565464E-01 -0.18896144169E-01  0.23346767685E-01  0.00000000000E+00 0.  1.
     999901    1    3    3    0    0  0.57381391317E-01  0.12630730039E+00  0.24408681918E-01  0.89120252578E+00  0.88000000000E+00 0.  1.
        -11    1    4    4    0    0 -0.12793160681E-01 -0.46510793313E-01 -0.17782208571E-02  0.48273616451E-01  0.51100000000E-03 0. -1.
         11    1    4    4    0    0 -0.46650739254E-01 -0.66240941612E-01 -0.37343168915E-02  0.81107090086E-01  0.51100000000E-03 0.  1.
</event>
<event>
 8    1  0.9952977E+004  0.1043930E+01  0.7957747E-01            NaN
         13   -1    0    0    0    0  0.00000000000E+00  0.00000000000E+00  0.74505805969E-08  0.10566000000E+00  0.10566000000E+00 0. -1.
     999900   -1    0    0    0    0 -0.00000000000E+00 -0.00000000000E+00 -0.74505805969E-08  0.93827000000E+00  0.93827000000E+00 0. -1.
     999902    2    1    2    0    0 -0.40723427603E-02  0.24651966969E-01 -0.13109707298E-02  0.10189095664E+01  0.10186023181E+01 0.  0.
     999903    2    3    3    0    0 -0.69948170173E-01  0.10380880703E+00  0.37057816425E-01  0.13207384671E+00  0.20030084844E-01 0.  0.
         14    1    1    2    0    0  0.40723427603E-02 -0.24651966969E-01  0.13109707298E-02  0.25020433554E-01  0.00000000000E+00 0. -1.
     999901    1    3    3    0    0  0.65875827412E-01 -0.79156840066E-01 -0.38368787155E-01  0.88683571973E+00  0.88000000000E+00 0. -1.
        -11    1    4    4    0    0 -0.15293716999E-01  0.39495616291E-01  0.11569854025E-01  0.43908132834E-01  0.51100000000E-03 0.  1.
         11    1    4    4    0    0 -0.54654453174E-01  0.64313190744E-01  0.25487962400E-01  0.88165713879E-01  0.51100000000E-03 0. -1.
</event>
<event>
 8    1  0.9952977E+004  0.1043930E+01  0.7957747E-01            NaN
         13   -1    0    0    0    0  0.00000000000E+00  0.00000000000E+00  0.74505805969E-08  0.10566000000E+00  0.10566000000E+00 0.  1.
     999900   -1    0    0    0    0 -0.00000000000E+00 -0.00000000000E+00 -0.74505805969E-08  0.93827000000E+00  0.93827000000E+00 0. -1.
     999902    2    1    2    0    0  0.12409842463E-01  0.19111004517E-01  0.56304233314E-02  0.10204579666E+01  0.10201879853E+01 0.  0.
     999903    2    3    3    0    0 -0.32721170707E-01  0.16013098437E-01 -0.12323689358E+00  0.12992262722E+00  0.19117081141E-01 0.  0.
         14    1    1    2    0    0 -0.12409842463E-01 -0.19111004517E-01 -0.56304233314E-02  0.23472033369E-01  0.00000000000E+00 0. -1.
     999901    1    3    3    0    0  0.45131013170E-01  0.30979060800E-02  0.12886731691E+00  0.89053533941E+00  0.88000000000E+00 0.  1.
        -11    1    4    4    0    0  0.14273797840E-02  0.39186648864E-03 -0.20100740687E-01  0.20161643523E-01  0.51100000000E-03 0. -1.
         11    1    4    4    0    0 -0.34148550491E-01  0.15621231948E-01 -0.10313615289E+00  0.10976098370E+00  0.51100000000E-03 0.  1.
</event>
<event>
 8    1  0.9952977E+004  0.1043930E+01  0.7957747E-01            NaN
         13   -1    0    0    0    0  0.00000000000E+00  0.00000000000E+00  0.74505805969E-08  0.10566000000E+00  0.10566000000E+00 0. -1.
     999900   -1    0    0    0    0 -0.00000000000E+00 -0.00000000000E+00 -0.74505805969E-08  0.93827000000E+00  0.93827000000E+00 0.  1.
     999902    2    1    2    0    0  0.20062604564E-01  0.14048345709E-01 -0.84731375012E-02  0.10180136311E+01  0.10176836910E+01 0.  0.
     999903    2    3    3    0    0 -0.52922419175E-01 -0.37004014661E-01 -0.10875205101E+00  0.12785127640E+00  0.18677813724E-01 0.  0.
         14    1    1    2    0    0 -0.20062604564E-01 -0.14048345709E-01  0.84731375012E-02  0.25916368923E-01  0.00000000000E+00 0. -1.
     999901    1    3    3    0    0  0.72985023739E-01  0.51052360370E-01  0.10027891351E+00  0.89016235468E+00  0.88000000000E+00 0. -1.
        -11    1    4    4    0    0 -0.29030802070E-01 -0.23366260696E-01 -0.78861951354E-01  0.87225214818E-01  0.51100000000E-03 0. -1.
         11    1    4    4    0    0 -0.23891617104E-01 -0.13637753965E-01 -0.29890099657E-01  0.40626061581E-01  0.51100000000E-03 0.  1.
</event>
<event>
 8    1  0.9952977E+004  0.1043930E+01  0.7957747E-01            NaN
         13   -1    0    0    0    0  0.00000000000E+00  0.00000000000E+00  0.74505805969E-08  0.10566000000E+00  0.10566000000E+00 0. -1.
     999900   -1    0    0    0    0 -0.00000000000E+00 -0.00000000000E+00 -0.74505805969E-08  0.93827000000E+00  0.93827000000E+00 0. -1.
     999902    2    1    2    0    0 -0.11645855810E-01 -0.16768019762E-01 -0.99477938987E-02  0.10212198470E+01  0.10209672987E+01 0.  0.
     999903    2    3    3    0    0  0.14873796466E-01 -0.11621307297E+00 -0.61390788389E-01  0.13372956976E+00  0.19699258334E-01 0.  0.
         14    1    1    2    0    0  0.11645855810E-01  0.16768019762E-01  0.99477938987E-02  0.22710152966E-01  0.00000000000E+00 0. -1.
     999901    1    3    3    0    0 -0.26519652275E-01  0.99445053212E-01  0.51442994490E-01  0.88749027727E+00  0.88000000000E+00 0.  1.
        -11    1    4    4    0    0  0.14444056273E-01 -0.50763645242E-01 -0.33951563657E-01  0.62757853975E-01  0.51100000000E-03 0.  1.
         11    1    4    4    0    0  0.42974019309E-03 -0.65449427733E-01 -0.27439224732E-01  0.70971715790E-01  0.51100000000E-03 0. -1.
</event>
<event>
 8    1  0.9952977E+004  0.1043930E+01  0.7957747E-01            NaN
         13   -1    0    0    0    0  0.00000000000E+00  0.00000000000E+00  0.74505805969E-08  0.10566000000E+00  0.10566000000E+00 0.  1.
     999900   -1    0    0    0    0 -0.00000000000E+00 -0.00000000000E+00 -0.74505805969E-08  0.93827000000E+00  0.93827000000E+00 0.  1.
     999902    2    1    2    0    0  0.22132016010E-01  0.10610091639E-03  0.90286799058E-02  0.10200269782E+01  0.10197468714E+01 0.  0.
     999903    2    3    3    0    0  0.69085635853E-01  0.11043940234E+00 -0.31546960536E-02  0.13181162455E+00  0.19866192102E-01 0.  0.
         14    1    1    2    0    0 -0.22132016010E-01 -0.10610091639E-03 -0.90286799058E-02  0.23903021794E-01  0.00000000000E+00 0.  1.
     999901    1    3    3    0    0 -0.46953619843E-01 -0.11033330142E+00  0.12183375959E-01  0.88821535366E+00  0.88000000000E+00 0.  1.
        -11    1    4    4    0    0  0.40721612085E-01  0.76828351788E-01 -0.90974047558E-02  0.87429224082E-01  0.51100000000E-03 0. -1.
         11    1    4    4    0    0  0.28364023768E-01  0.33611050553E-01  0.59427087022E-02  0.44382400468E-01  0.51100000000E-03 0.  1.
</event>
<event>
 8    1  0.9952977E+004  0.1043930E+01  0.7957747E-01            NaN
         13   -1    0    0    0    0  0.00000000000E+00  0.00000000000E+00  0.74505805969E-08  0.10566000000E+00  0.10566000000E+00 0.  1.
     999900   -1    0    0    0    0 -0.00000000000E+00 -0.00000000000E+00 -0.74505805969E-08  0.93827000000E+00  0.93827000000E+00 0. -1.
     999902    2    1    2    0    0 -0.93166314554E-02  0.16387085322E-01 -0.14033644237E-01  0.10204293754E+01  0.10201587282E+01 0.  0.
     999903    2    3    3    0    0 -0.87564689848E-02 -0.11661828529E+00 -0.52710840524E-01  0.12959456022E+00  0.18434129079E-01 0.  0.
         14    1    1    2    0    0  0.93166314554E-02 -0.16387085322E-01  0.14033644237E-01  0.23500624621E-01  0.00000000000E+00 0.  1.
     999901    1    3    3    0    0 -0.56016247062E-03  0.13300537061E+00  0.38677196287E-01  0.89083481516E+00  0.88000000000E+00 0.  1.
        -11    1    4    4    0    0  0.10279319562E-02 -0.35474209545E-01 -0.24507940551E-01  0.43132081540E-01  0.51100000000E-03 0. -1.
         11    1    4    4    0    0 -0.97844009410E-02 -0.81144075748E-01 -0.28202899974E-01  0.86462478675E-01  0.51100000000E-03 0.  1.
</event>
<event>
 8    1  0.9952977E+004  0.1043930E+01  0.7957747E-01            NaN
         13   -1    0    0    0    0  0.00000000000E+00  0.00000000000E+00  0.74505805969E-08  0.10566000000E+00  0.10566000000E+00 0. -1.
     999900   -1    0    0    0    0 -0.00000000000E+00 -0.00000000000E+00 -0.74505805969E-08  0.93827000000E+00  0.93827000000E+00 0. -1.
     999902    2    1    2    0    0  0.22144373349E-01 -0.36079814931E-02 -0.52793839046E-02  0.10208808634E+01  0.10206206321E+01 0.  0.
     999903    2    3    3    0    0 -0.44032950499E-01  0.55259795188E-01  0.10632735937E+00  0.12942087081E+00  0.21253441069E-01 0.  0.
         14    1    1    2    0    0 -0.22144373349E-01  0.36079814931E-02  0.52793839046E-02  0.23049136554E-01  0.00000000000E+00 0.  1.
     999901    1    3    3    0    0  0.66177323848E-01 -0.58867776681E-01 -0.11160674327E+00  0.89145999263E+00  0.88000000000E+00 0. -1.
        -11    1    4    4    0    0 -0.47748272821E-02  0.46643484226E-02  0.25134799360E-01  0.26011043455E-01  0.51100000000E-03 0.  1.
         11    1    4    4    0    0 -0.39258123217E-01  0.50595446765E-01  0.81192560010E-01  0.10340982736E+00  0.51100000000E-03 0. -1.
</event>
<event>
 8    1  0.9952977E+004  0.1043930E+01  0.7957747E-01            NaN
         13   -1    0    0    0    0  0.00000000000E+00  0.00000000000E+00  0.74505805969E-08  0.10566000000E+00  0.10566000000E+00 0. -1.
     999900   -1    0    0    0    0 -0.00000000000E+00 -0.00000000000E+00 -0.74505805969E-08  0.93827000000E+00  0.93827000000E+00 0. -1.
     999902    2    1    2    0    0 -0.20527987995E-01  0.10214741526E-01 -0.70088759575E-02  0.10199536872E+01  0.10196718395E+01 0.  0.
     999903    2    3    3    0    0 -0.45995736050E-01  0.12207566278E+00  0.90327588151E-02  0.13236211107E+00  0.20495427211E-01 0.  0.
         14    1    1    2    0    0  0.20527987995E-01 -0.10214741526E-01  0.70088759575E-02  0.23976312847E-01  0.00000000000E+00 0. -1.
     999901    1    3    3    0    0  0.25467748055E-01 -0.11186092125E+00 -0.16041634773E-01  0.88759157609E+00  0.88000000000E+00 0.  1.
        -11    1    4    4    0    0 -0.45766384288E-01  0.10826562918E+00  0.38648129972E-02  0.11760614905E+00  0.51100000000E-03 0. -1.
         11    1    4    4    0    0 -0.22935176204E-03  0.13810033595E-01  0.51679458180E-02  0.14755962019E-01  0.51100000000E-03 0.  1.
</event>
<event>
 8    1  0.9952977E+004  0.1043930E+01  0.7957747E-01            NaN
         13   -1    0    0    0    0  0.00000000000E+00  0.00000000000E+00  0.74505805969E-08  0.10566000000E+00  0.10566000000E+00 0. -1.
     999900   -1    0    0    0    0 -0.00000000000E+00 -0.00000000000E+00 -0.74505805969E-08  0.93827000000E+00  0.93827000000E+00 0. -1.
     999902    2    1    2    0    0  0.19884479732E-01  0.15364314618E-02 -0.12484832421E-01  0.10204007799E+01  0.10201294661E+01 0.  0.
     999903    2    3    3    0    0 -0.50904108910E-01  0.18012754841E-01 -0.11799146678E+00  0.13112346470E+00  0.18859722209E-01 0.  0.
         14    1    1    2    0    0 -0.19884479732E-01 -0.15364314618E-02  0.12484832421E-01  0.23529220055E-01  0.00000000000E+00 0.  1.
     999901    1    3    3    0    0  0.70788588642E-01 -0.16476323379E-01  0.10550663436E+00  0.88927731524E+00  0.88000000000E+00 0.  1.
        -11    1    4    4    0    0 -0.91778540125E-02  0.94341634623E-02 -0.41851973659E-01  0.43875793607E-01  0.51100000000E-03 0.  1.
         11    1    4    4    0    0 -0.41726254898E-01  0.85785913787E-02 -0.76139493119E-01  0.87247671094E-01  0.51100000000E-03 0. -1.
</event>
<event>
 8    1  0.9952977E+004  0.1043930E+01  0.7957747E-01            NaN
         13   -1    0    0    0    0  0.00000000000E+00  0.00000000000E+00  0.74505805969E-08  0.10566000000E+00  0.10566000000E+00 0. -1.
     999900   -1    0    0    0    0 -0.00000000000E+00 -0.00000000000E+00 -0.74505805969E-08  0.93827000000E+00  0.93827000000E+00 0.  1.
     999902    2    1    2    0    0 -0.32383816787E-02 -0.13653801237E-01  0.21613207063E-01  0.10181609464E+01  0.10178347944E+01 0.  0.
     999903    2    3    3    0    0 -0.11116973353E+00  0.16186247739E-03  0.65019794993E-01  0.13039736235E+00  0.20424556678E-01 0.  0.
         14    1    1    2    0    0  0.32383816787E-02  0.13653801237E-01 -0.21613207063E-01  0.25769053604E-01  0.00000000000E+00 0. -1.
     999901    1    3    3    0    0  0.10793135185E+00 -0.13815663714E-01 -0.43406587930E-01  0.88776358404E+00  0.88000000000E+00 0.  1.
        -11    1    4    4    0    0 -0.10064209168E+00  0.58799582965E-02  0.60545697387E-01  0.11759866972E+00  0.51100000000E-03 0.  1.
         11    1    4    4    0    0 -0.10527641854E-01 -0.57180958191E-02  0.44740976060E-02  0.12798692636E-01  0.51100000000E-03 0. -1.
</event>
<event>
 8    1  0.9952977E+004  0.1043930E+01  0.7957747E-01            NaN
         13   -1    0    0    0    0  0.00000000000E+00  0.00000000000E+00  0.74505805969E-08  0.10566000000E+00  0.10566000000E+00 0.  1.
     999900   -1    0    0    0    0 -0.00000000000E+00 -0.00000000000E+00 -0.74505805969E-08  0.93827000000E+00  0.93827000000E+00 0. -1.
     999902    2    1    2    0    0 -0.15960499490E-01 -0.12137307240E-01  0.10681615961E-01  0.10212110940E+01  0.10209583487E+01 0.  0.
     999903    2    3    3    0    0 -0.94913256695E-01 -0.20085493971E-01  0.90376545429E-01  0.13405383998E+00  0.19762557681E-01 0.  0.
         14    1    1    2    0    0  0.15960499490E-01  0.12137307240E-01 -0.10681615961E-01  0.22718906016E-01  0.00000000000E+00 0. -1.
     999901    1    3    3    0    0  0.78952757205E-01  0.79481867308E-02 -0.79694929468E-01  0.88715725400E+00  0.88000000000E+00 0. -1.
        -11    1    4    4    0    0 -0.19100813284E-01  0.19566626510E-02  0.11178023804E-01  0.22223387096E-01  0.51100000000E-03 0. -1.
         11    1    4    4    0    0 -0.75812443411E-01 -0.22042156622E-01  0.79198521625E-01  0.11183045289E+00  0.51100000000E-03 0.  1.
</event>
<event>
 8    1  0.9952977E+004  0.1043930E+01  0.7957747E-01            NaN
         13   -1    0    0    0    0  0.00000000000E+00  0.00000000000E+00  0.74505805969E-08  0.10566000000E+00  0.10566000000E+00 0. -1.
     999900   -1    0    0    0    0 -0.00000000000E+00 -0.00000000000E+00 -0.74505805969E-08  0.93827000000E+00  0.93827000000E+00 0. -1.
     999902    2    1    2    0    0  0.98408561558E-02  0.21087530244E-01  0.12456293712E-02  0.10206259666E+01  0.10203598805E+01 0.  0.
     999903    2    3    3    0    0 -0.89742774115E-01  0.90534595993E-01  0.27390672329E-01  0.13190589949E+00  0.19965941290E-01 0.  0.
         14    1    1    2    0    0 -0.98408561558E-02 -0.21087530244E-01 -0.12456293712E-02  0.23304033432E-01  0.00000000000E+00 0. -1.
     999901    1    3    3    0    0  0.99583630270E-01 -0.69447065749E-01 -0.26145042958E-01  0.88872006708E+00  0.88000000000E+00 0.  1.
        -11    1    4    4    0    0 -0.75410352797E-01  0.66335738175E-01  0.25976376540E-01  0.10374095010E+00  0.51100000000E-03 0.  1.
         11    1    4    4    0    0 -0.14332421318E-01  0.24198857818E-01  0.14142957892E-02  0.28164949389E-01  0.51100000000E-03 0. -1.
</event>
<event>
 8    1  0.9952977E+004  0.1043930E+01  0.7957747E-01            NaN
         13   -1    0    0    0    0  0.00000000000E+00  0.00000000000E+00  0.74505805969E-08  0.10566000000E+00  0.10566000000E+00 0.  1.
     999900   -1    0    0    0    0 -0.00000000000E+00 -0.00000000000E+00 -0.74505805969E-08  0.93827000000E+00  0.93827000000E+00 0. -1.
     999902    2    1    2    0    0  0.40526660319E-02  0.23125968165E-01 -0.26249848377E-02  0.10203053296E+01  0.10200317841E+01 0.  0.
     999903    2    3    3    0    0 -0.31683162087E-01 -0.90335693674E-01 -0.82950075212E-01  0.12867608028E+00  0.22637542877E-01 0.  0.
         14    1    1    2    0    0 -0.40526660319E-02 -0.23125968165E-01  0.26249848377E-02  0.23624670388E-01  0.00000000000E+00 0. -1.
     999901    1    3    3    0    0  0.35735828119E-01  0.11346166184E+00  0.80325090374E-01  0.89162924933E+00  0.88000000000E+00 0.  1.
        -11    1    4    4    0    0 -0.77166619469E-02 -0.30996113388E-01 -0.41719146912E-01  0.52545734906E-01  0.51100000000E-03 0.  1.
         11    1    4    4    0    0 -0.23966500140E-01 -0.59339580286E-01 -0.41230928300E-01  0.76130345376E-01  0.51100000000E-03 0. -1.
</event>
<event>
 8    1  0.9952977E+004  0.1043930E+01  0.7957747E-01            NaN
         13   -1    0    0    0    0  0.00000000000E+00  0.00000000000E+00  0.74505805969E-08  0.10566000000E+00  0.10566000000E+00 0.  1.
     999900   -1    0    0    0    0 -0.00000000000E+00 -0.00000000000E+00 -0.74505805969E-08  0.93827000000E+00  0.93827000000E+00 0.  1.
     999902    2    1    2    0    0 -0.11963267172E-01  0.15926920314E-01  0.11078692205E-01  0.10211369315E+01  0.10208825147E+01 0.  0.
     999903    2    3    3    0    0 -0.11711096708E+00  0.12308806198E-01  0.59507566796E-01  0.13354778922E+00  0.20673078630E-01 0.  0.
         14    1    1    2    0    0  0.11963267172E-01 -0.15926920314E-01 -0.11078692205E-01  0.22793068531E-01  0.00000000000E+00 0.  1.
     999901    1    3    3    0    0  0.10514769990E+00  0.36181141161E-02 -0.48428874591E-01  0.88758914225E+00  0.88000000000E+00 0.  1.
        -11    1    4    4    0    0 -0.10554373215E+00  0.10547434664E-01  0.59926713229E-01  0.12182856747E+00  0.51100000000E-03 0.  1.
         11    1    4    4    0    0 -0.11567234928E-01  0.17613715346E-02 -0.41914643293E-03  0.11719221744E-01  0.51100000000E-03 0. -1.
</event>
<event>
 8    1  0.9952977E+004  0.1043930E+01  0.7957747E-01            NaN
         13   -1    0    0    0    0  0.00000000000E+00  0.00000000000E+00  0.74505805969E-08  0.10566000000E+00  0.10566000000E+00 0. -1.
     999900   -1    0    0    0    0 -0.00000000000E+00 -0.00000000000E+00 -0.74505805969E-08  0.93827000000E+00  0.93827000000E+00 0.  1.
     999902    2    1    2    0    0 -0.14025827673E-01  0.19057851348E-02  0.19337291055E-01  0.10199657207E+01  0.10196841593E+01 0.  0.
     999903    2    3    3    0    0  0.46508604074E-01  0.26115247525E-01  0.11906934748E+00  0.13193587962E+00  0.19608937118E-01 0.  0.
         14    1    1    2    0    0  0.14025827673E-01 -0.19057851348E-02 -0.19337291055E-01  0.23964279339E-01  0.00000000000E+00 0. -1.
     999901    1    3    3    0    0 -0.60534431747E-01 -0.24209462390E-01 -0.99732056429E-01  0.88802984104E+00  0.88000000000E+00 0.  1.
        -11    1    4    4    0    0  0.12685196985E-01  0.14836472552E-01  0.28017973118E-01  0.34151179759E-01  0.51100000000E-03 0. -1.
         11    1    4    4    0    0  0.33823407089E-01  0.11278774972E-01  0.91051374367E-01  0.97784699862E-01  0.51100000000E-03 0.  1.
</event>
<event>
 8    1  0.9952977E+004  0.1043930E+01  0.7957747E-01            NaN
         13   -1    0    0    0    0  0.00000000000E+00  0.00000000000E+00  0.74505805969E-08  0.10566000000E+00  0.10566000000E+00 0.  1.
     999900   -1    0    0    0    0 -0.00000000000E+00 -0.00000000000E+00 -0.74505805969E-08  0.93827000000E+00  0.93827000000E+00 0.  1.
     999902    2    1    2    0    0 -0.18204985721E-01  0.15017626253E-01 -0.12291368337E-01  0.10173211981E+01  0.10169731519E+01 0.  0.
     999903    2    3    3    0    0 -0.11843678783E+00 -0.36190934030E-01  0.30510413313E-01  0.12912036308E+00  0.20102895889E-01 0.  0.
         14    1    1    2    0    0  0.18204985721E-01 -0.15017626253E-01  0.12291368337E-01  0.26608801908E-01  0.00000000000E+00 0.  1.
     999901    1    3    3    0    0  0.10023180211E+00  0.51208560283E-01 -0.42801781650E-01  0.88820083501E+00  0.88000000000E+00 0.  1.
        -11    1    4    4    0    0 -0.57579389530E-01 -0.81165933680E-02  0.18556504515E-01  0.61039906351E-01  0.51100000000E-03 0. -1.
         11    1    4    4    0    0 -0.60857398305E-01 -0.28074340662E-01  0.11953908798E-01  0.68080456730E-01  0.51100000000E-03 0.  1.
</event>
<event>
 8    1  0.9952977E+004  0.1043930E+01  0.7957747E-01            NaN
         13   -1    0    0    0    0  0.00000000000E+00  0.00000000000E+00  0.74505805969E-08  0.10566000000E+00  0.10566000000E+00 0. -1.
     999900   -1    0    0    0    0 -0.00000000000E+00 -0.00000000000E+00 -0.74505805969E-08  0.93827000000E+00  0.93827000000E+00 0.  1.
     999902    2    1    2    0    0  0.19665390639E-01 -0.12328972102E-01  0.56322257501E-02  0.10200458398E+01  0.10197661801E+01 0.  0.
     999903    2    3    3    0    0  0.62011674348E-01  0.36566682750E-01  0.10886885935E+00  0.13165302390E+00  0.17248771662E-01 0.  0.
         14    1    1    2    0    0 -0.19665390639E-01  0.12328972102E-01 -0.56322257501E-02  0.23884160211E-01  0.00000000000E+00 0.  1.
     999901    1    3    3    0    0 -0.42346283709E-01 -0.48895654852E-01 -0.10323663360E+00  0.88839281589E+00  0.88000000000E+00 0.  1.
        -11    1    4    4    0    0  0.40299984285E-01  0.27206983070E-01  0.58965022395E-01  0.76429337615E-01  0.51100000000E-03 0. -1.
         11    1    4    4    0    0  0.21711690063E-01  0.93596996801E-02  0.49903836951E-01  0.55223686285E-01  0.51100000000E-03 0.  1.
</event>
<event>
 8    1  0.9952977E+004  0.1043930E+01  0.7957747E-01            NaN
         13   -1    0    0    0    0  0.00000000000E+00  0.00000000000E+00  0.74505805969E-08  0.10566000000E+00  0.10566000000E+00 0.  1.
     999900   -1    0    0    0    0 -0.00000000000E+00 -0.00000000000E+00 -0.74505805969E-08  0.93827000000E+00  0.93827000000E+00 0.  1.
     999902    2    1    2    0    0 -0.82930626707E-02  0.12280394907E-01 -0.14344328335E-01  0.10233061608E+01  0.10230983120E+01 0.  0.
     999903    2    3    3    0    0  0.33232437832E-01  0.12532080923E+00 -0.31227070481E-01  0.13494388705E+00  0.20616075567E-01 0.  0.
         14    1    1    2    0    0  0.82930626707E-02 -0.12280394907E-01  0.14344328335E-01  0.20623839190E-01  0.00000000000E+00 0.  1.
     999901    1    3    3    0    0 -0.41525500503E-01 -0.11304041432E+00  0.16882742146E-01  0.88836227376E+00  0.88000000000E+00 0.  1.
        -11    1    4    4    0    0  0.19519903261E-01  0.45401435133E-01 -0.47888780183E-02  0.49653916352E-01  0.51100000000E-03 0. -1.
         11    1    4    4    0    0  0.13712534572E-01  0.79919374093E-01 -0.26438192463E-01  0.85289970697E-01  0.51100000000E-03 0.  1.
</event>
<event>
 8    1  0.9952977E+004  0.1043930E+01  0.7957747E-01            NaN
         13   -1    0    0    0    0  0.00000000000E+00  0.00000000000E+00  0.74505805969E-08  0.10566000000E+00  0.10566000000E+00 0.  1.
     999900   -1    0    0    0    0 -0.00000000000E+00 -0.00000000000E+00 -0.74505805969E-08  0.93827000000E+00  0.93827000000E+00 0.  1.
     999902    2    1    2    0    0  0.22456398792E-01  0.98352685132E-02 -0.36659771796E-02  0.10191416612E+01  0.10188401562E+01 0.  0.
     999903    2    3    3    0    0  0.71734149151E-01 -0.18036127785E-01 -0.10662622218E+00  0.13133203998E+00  0.20195628475E-01 0.  0.
         14    1    1    2    0    0 -0.22456398792E-01 -0.98352685132E-02  0.36659771796E-02  0.24788338833E-01  0.00000000000E+00 0.  1.
     999901    1    3    3    0    0 -0.49277750359E-01  0.27871396298E-01  0.10296024500E+00  0.88780962118E+00  0.88000000000E+00 0. -1.
        -11    1    4    4    0    0  0.25037591229E-01 -0.56697372909E-02 -0.54597334217E-01  0.60333712965E-01  0.51100000000E-03 0.  1.
         11    1    4    4    0    0  0.46696557922E-01 -0.12366390494E-01 -0.52028887967E-01  0.70998327020E-01  0.51100000000E-03 0. -1.
</event>
<event>
 8    1  0.9952977E+004  0.1043930E+01  0.7957747E-01            NaN
         13   -1    0    0    0    0  0.00000000000E+00  0.00000000000E+00  0.74505805969E-08  0.10566000000E+00  0.10566000000E+00 0.  1.
     999900   -1    0    0    0    0 -0.00000000000E+00 -0.00000000000E+00 -0.74505805969E-08  0.93827000000E+00  0.93827000000E+00 0.  1.
     999902    2    1    2    0    0  0.21099360655E-01 -0.72133550822E-02  0.84258735486E-02  0.10200928262E+01  0.10198142787E+01 0.  0.
     999903    2    3    3    0    0  0.33454181190E-01  0.12351947059E+00  0.11123487961E-01  0.13034511449E+00  0.22133120746E-01 0.  0.
         14    1    1    2    0    0 -0.21099360655E-01  0.72133550822E-02 -0.84258735486E-02  0.23837173840E-01  0.00000000000E+00 0. -1.
     999901    1    3    3    0    0 -0.12354820535E-01 -0.13073282567E+00 -0.26976144120E-02  0.88974771167E+00  0.88000000000E+00 0. -1.
        -11    1    4    4    0    0  0.21890907125E-01  0.95082359840E-01 -0.34186019623E-03  0.97571742615E-01  0.51100000000E-03 0.  1.
         11    1    4    4    0    0  0.11563274065E-01  0.28437110747E-01  0.11465348157E-01  0.32773371876E-01  0.51100000000E-03 0. -1.
</event>
<event>
 8    1  0.9952977E+004  0.1043930E+01  0.7957747E-01            NaN
         13   -1    0    0    0    0  0.00000000000E+00  0.00000000000E+00  0.74505805969E-08  0.10566000000E+00  0.10566000000E+00 0.  1.
     999900   -1    0    0    0    0 -0.00000000000E+00 -0.00000000000E+00 -0.74505805969E-08  0.93827000000E+00  0.93827000000E+00 0. -1.
     999902    2    1    2    0    0 -0.22964328923E-01 -0.39274364983E-03 -0.54405703306E-02  0.10203267279E+01  0.10200536834E+01 0.  0.
     999903    2    3    3    0    0  0.64693577042E-01 -0.79822052330E-01 -0.76404056115E-01  0.12958055757E+00  0.19917885466E-01 0.  0.
         14    1    1    2    0    0  0.22964328923E-01  0.39274364983E-03  0.54405703306E-02  0.23603272146E-01  0.00000000000E+00 0.  1.
     999901    1    3    3    0    0 -0.87657905965E-01  0.79429308681E-01  0.70963485784E-01  0.89074617028E+00  0.88000000000E+00 0.  1.
        -11    1    4    4    0    0  0.53897507566E-01 -0.70058777415E-01 -0.56467818336E-01  0.10489065375E+00  0.51100000000E-03 0. -1.
         11    1    4    4    0    0  0.10796069476E-01 -0.97632749156E-02 -0.19936237779E-01  0.24689903827E-01  0.51100000000E-03 0.  1.
</event>
<event>
 8    1  0.9952977E+004  0.1043930E+01  0.7957747E-01            NaN
         13   -1    0    0    0    0  0.00000000000E+00  0.00000000000E+00  0.74505805969E-08  0.10566000000E+00  0.10566000000E+00 0.  1.
     999900   -1    0    0    0    0 -0.00000000000E+00 -0.00000000000E+00 -0.74505805969E-08  0.93827000000E+00  0.93827000000E+00 0.  1.
     999902    2    1    2    0    0 -0.18785322505E-01  0.10398586761E-01  0.82132443138E-02  0.10209413869E+01  0.10206825360E+01 0.  0.
     999903    2    3    3    0    0 -0.12259251162E+00  0.87432438323E-02  0.49269356097E-01  0.13388768113E+00  0.19826081102E-01 0.  0.
         14    1    1    2    0    0  0.18785322505E-01 -0.10398586761E-01 -0.82132443138E-02  0.22988613060E-01  0.00000000000E+00 0. -1.
     999901    1    3    3    0    0  0.10380718911E+00  0.16553429285E-02 -0.41056111783E-01  0.88705370581E+00  0.88000000000E+00 0.  1.
        -11    1    4    4    0    0 -0.33327898492E-01 -0.68980930185E-03  0.46996970378E-02  0.33668574784E-01  0.51100000000E-03 0. -1.
         11    1    4    4    0    0 -0.89264613125E-01  0.94330531342E-02  0.44569659059E-01  0.10021910635E+00  0.51100000000E-03 0.  1.
</event>
<event>
 8    1  0.9952977E+004  0.1043930E+01  0.7957747E-01            NaN
         13   -1    0    0    0    0  0.00000000000E+00  0.00000000000E+00  0.74505805969E-08  0.10566000000E+00  0.10566000000E+00 0. -1.
     999900   -1    0    0    0    0 -0.00000000000E+00 -0.00000000000E+00 -0.74505805969E-08  0.93827000000E+00  0.93827000000E+00 0.  1.
     999902    2    1    2    0    0  0.12625324085E-01 -0.50578206677E-02  0.15764784280E-01  0.10231091263E+01  0.10228972458E+01 0.  0.
     999903    2    3    3    0    0 -0.24958368119E-01 -0.10210579431E+00  0.81717588444E-01  0.13452563811E+00  0.19257976980E-01 0.  0.
         14    1    1    2    0    0 -0.12625324085E-01  0.50578206677E-02 -0.15764784280E-01  0.20820873698E-01  0.00000000000E+00 0.  1.
     999901    1    3    3    0    0  0.37583692204E-01  0.97047973642E-01 -0.65952804164E-01  0.88858348819E+00  0.88000000000E+00 0.  1.
        -11    1    4    4    0    0 -0.23953914304E-01 -0.86328354924E-01  0.60687435962E-01  0.10821090924E+00  0.51100000000E-03 0.  1.
         11    1    4    4    0    0 -0.10044538152E-02 -0.15777439386E-01  0.21030152482E-01  0.26314728869E-01  0.51100000000E-03 0. -1.
</event>
<event>
 8    1  0.9952977E+004  0.1043930E+01  0.7957747E-01            NaN
         13   -1    0    0    0    0  0.00000000000E+00  0.00000000000E+00  0.74505805969E-08  0.10566000000E+00  0.10566000000E+00 0.  1.
     999900   -1    0    0    0    0 -0.00000000000E+00 -0.00000000000E+00 -0.74505805969E-08  0.93827000000E+00  0.93827000000E+00 0.  1.
     999902    2    1    2    0    0 -0.21368018238E-02 -0.11284782971E-01  0.26701069941E-01  0.10148635350E+01  0.10144472068E+01 0.  0.
     999903    2    3    3    0    0 -0.47289871264E-01  0.71552759625E-02  0.11871756624E+00  0.12872253552E+00  0.13714981509E-01 0.  0.
         14    1    1    2    0    0  0.21368018238E-02  0.11284782971E-01 -0.26701069941E-01  0.29066464951E-01  0.00000000000E+00 0. -1.
     999901    1    3    3    0    0  0.45153069440E-01 -0.18440058933E-01 -0.92016496303E-01  0.88614099953E+00  0.88000000000E+00 0.  1.
        -11    1    4    4    0    0 -0.24581297980E-01  0.99651262636E-02  0.71153310734E-01  0.75938124162E-01  0.51100000000E-03 0.  1.
         11    1    4    4    0    0 -0.22708573283E-01 -0.28098503010E-02  0.47564255510E-01  0.52784411359E-01  0.51100000000E-03 0. -1.
</event>
<event>
 8    1  0.9952977E+004  0.1043930E+01  0.7957747E-01            NaN
         13   -1    0    0    0    0  0.00000000000E+00  0.00000000000E+00  0.74505805969E-08  0.10566000000E+00  0.10566000000E+00 0.  1.
     999900   -1    0    0    0    0 -0.00000000000E+00 -0.00000000000E+00 -0.74505805969E-08  0.93827000000E+00  0.93827000000E+00 0.  1.
     999902    2    1    2    0    0  0.17312575618E-01  0.22742033870E-02 -0.22347343226E-01  0.10155697986E+01  0.10151737362E+01 0.  0.
     999903    2    3    3    0    0 -0.31029631652E-01 -0.10197483989E+00 -0.66190169101E-01  0.12701646568E+00  0.19756974873E-01 0.  0.
         14    1    1    2    0    0 -0.17312575618E-01 -0.22742033870E-02  0.22347343226E-01  0.28360201424E-01  0.00000000000E+00 0. -1.
     999901    1    3    3    0    0  0.48342207269E-01  0.10424904328E+00  0.43842825875E-01  0.88855333290E+00  0.88000000000E+00 0.  1.
        -11    1    4    4    0    0 -0.10692986842E-01 -0.59224914199E-01 -0.44996910562E-01  0.75145948065E-01  0.51100000000E-03 0.  1.
         11    1    4    4    0    0 -0.20336644809E-01 -0.42749925691E-01 -0.21193258539E-01  0.51870517611E-01  0.51100000000E-03 0. -1.
</event>
<event>
 8    1  0.9952977E+004  0.1043930E+01  0.7957747E-01            NaN
         13   -1    0    0    0    0  0.00000000000E+00  0.00000000000E+00  0.74505805969E-08  0.10566000000E+00  0.10566000000E+00 0. -1.
     999900   -1    0    0    0    0 -0.00000000000E+00 -0.00000000000E+00 -0.74505805969E-08  0.93827000000E+00  0.93827000000E+00 0.  1.
     999902    2    1    2    0    0 -0.16397059550E-01 -0.65916219870E-02 -0.82395455000E-02  0.10244312013E+01  0.10242456165E+01 0.  0.
     999903    2    3    3    0    0  0.27100991939E-01 -0.40356546342E-01 -0.12430106945E+00  0.13510424904E+00  0.20959189986E-01 0.  0.
         14    1    1    2    0    0  0.16397059550E-01  0.65916219870E-02  0.82395455000E-02  0.19498798741E-01  0.00000000000E+00 0. -1.
     999901    1    3    3    0    0 -0.43498051489E-01  0.33764924355E-01  0.11606152395E+00  0.88932695222E+00  0.88000000000E+00 0. -1.
        -11    1    4    4    0    0  0.22843686139E-01 -0.28917663210E-01 -0.66536133034E-01  0.76061707594E-01  0.51100000000E-03 0.  1.
         11    1    4    4    0    0  0.42573058000E-02 -0.11438883131E-01 -0.57764936419E-01  0.59042541446E-01  0.51100000000E-03 0. -1.
</event>
<event>
 8    1  0.9952977E+004  0.1043930E+01  0.7957747E-01            NaN
         13   -1    0    0    0    0  0.00000000000E+00  0.00000000000E+00  0.74505805969E-08  0.10566000000E+00  0.10566000000E+00 0. -1.
     999900   -1    0    0    0    0 -0.00000000000E+00 -0.00000000000E+00 -0.74505805969E-08  0.93827000000E+00  0.93827000000E+00 0. -1.
     999902    2    1    2    0    0 -0.18066170007E-01  0.43937246564E-02  0.15158202908E-01  0.10199412020E+01  0.10196590573E+01 0.  0.
     999903    2    3    3    0    0 -0.30768931085E-01  0.12612341120E+00  0.23929126320E-02  0.13137920112E+00  0.20023148693E-01 0.  0.
         14    1    1    2    0    0  0.18066170007E-01 -0.43937246564E-02 -0.15158202908E-01  0.23988798021E-01  0.00000000000E+00 0.  1.
     999901    1    3    3    0    0  0.12702761077E-01 -0.12172968655E+00  0.12765290276E-01  0.88856200085E+00  0.88000000000E+00 0.  1.
        -11    1    4    4    0    0 -0.16086332814E-01  0.64004736741E-01 -0.87723609750E-02  0.66577712988E-01  0.51100000000E-03 0.  1.
         11    1    4    4    0    0 -0.14682598271E-01  0.62118674463E-01  0.11165273607E-01  0.64801488136E-01  0.51100000000E-03 0. -1.
</event>
<event>
 8    1  0.9952977E+004  0.1043930E+01  0.7957747E-01            NaN
         13   -1    0    0    0    0  0.00000000000E+00  0.00000000000E+00  0.74505805969E-08  0.10566000000E+00  0.10566000000E+00 0.  1.
     999900   -1    0    0    0    0 -0.00000000000E+00 -0.00000000000E+00 -0.74505805969E-08  0.93827000000E+00  0.93827000000E+00 0.  1.
     999902    2    1    2    0    0 -0.22069248100E-01 -0.33406523514E-02  0.88514976102E-02  0.10199183220E+01  0.10196356324E+01 0.  0.
     999903    2    3    3    0    0 -0.50645320588E-01 -0.11989508474E+00 -0.35246343930E-02  0.13168710421E+00  0.19730446687E-01 0.  0.
         14    1    1    2    0    0  0.22069248100E-01  0.33406523514E-02 -0.88514976102E-02  0.24011677987E-01  0.00000000000E+00 0. -1.
     999901    1    3    3    0    0  0.28576072488E-01  0.11655443239E+00  0.12376132003E-01  0.88823121780E+00  0.88000000000E+00 0.  1.
        -11    1    4    4    0    0 -0.33324112689E-01 -0.90695737733E-01 -0.99288834689E-02  0.97134222483E-01  0.51100000000E-03 0. -1.
         11    1    4    4    0    0 -0.17321207898E-01 -0.29199347007E-01  0.64042490759E-02  0.34552881731E-01  0.51100000000E-03 0.  1.
</event>
<event>
 8    1  0.9952977E+004  0.1043930E+01  0.7957747E-01            NaN
         13   -1    0    0    0    0  0.00000000000E+00  0.00000000000E+00  0.74505805969E-08  0.10566000000E+00  0.10566000000E+00 0. -1.
     999900   -1    0    0    0    0 -0.00000000000E+00 -0.00000000000E+00 -0.74505805969E-08  0.93827000000E+00  0.93827000000E+00 0. -1.
     999902    2    1    2    0    0 -0.18539720422E-01  0.16204051934E-01 -0.86495052765E-02  0.10178319833E+01  0.10174973414E+01 0.  0.
     999903    2    3    3    0    0  0.11070844249E+00  0.10245510754E-01  0.55893180064E-01  0.12603248229E+00  0.19970209962E-01 0.  0.
         14    1    1    2    0    0  0.18539720422E-01 -0.16204051934E-01  0.86495052765E-02  0.26098016667E-01  0.00000000000E+00 0. -1.
     999901    1    3    3    0    0 -0.12924816291E+00  0.59585411806E-02 -0.64542685341E-01  0.89179950104E+00  0.88000000000E+00 0. -1.
        -11    1    4    4    0    0  0.61786829875E-01  0.64665216096E-02  0.20106437899E-01  0.65298990909E-01  0.51100000000E-03 0. -1.
         11    1    4    4    0    0  0.48921612613E-01  0.37789891440E-02  0.35786742165E-01  0.60733491381E-01  0.51100000000E-03 0.  1.
</event>
<event>
 7    1  0.9952977E+004  0.1043930E+01  0.7957747E-01            NaN
         13   -1    0    0    0    0  0.00000000000E+00  0.00000000000E+00  0.74505805969E-08  0.10566000000E+00  0.10566000000E+00 0.  1.
     999900   -1    0    0    0    0 -0.00000000000E+00 -0.00000000000E+00 -0.74505805969E-08  0.93827000000E+00  0.93827000000E+00 0.  1.
     999902    2    1    2    0    0 -0.12755781978E-01 -0.98996014450E-02 -0.16980014160E-01  0.10204985476E+01  0.10202295098E+01 0.  0.
         14    1    1    2    0    0  0.12755781978E-01  0.98996014450E-02  0.16980014160E-01  0.23431452441E-01  0.00000000000E+00 0. -1.
     999901    1    3    3    0    0 -0.42419115761E-01  0.92010847747E-01 -0.42568406206E-01  0.88683563680E+00  0.88000000000E+00 0.  1.
        -11    1    3    3    0    0  0.40453041102E-01 -0.21052411894E-01 -0.63722130276E-02  0.46049091205E-01  0.51100000000E-03 0.  1.
         11    1    3    3    0    0 -0.10789707319E-01 -0.80858037298E-01  0.31960605073E-01  0.87613819557E-01  0.51100000000E-03 0. -1.
</event>
<event>
 8    1  0.9952977E+004  0.1043930E+01  0.7957747E-01            NaN
         13   -1    0    0    0    0  0.00000000000E+00  0.00000000000E+00  0.74505805969E-08  0.10566000000E+00  0.10566000000E+00 0.  1.
     999900   -1    0    0    0    0 -0.00000000000E+00 -0.00000000000E+00 -0.74505805969E-08  0.93827000000E+00  0.93827000000E+00 0.  1.
     999902    2    1    2    0    0 -0.19874120999E-01 -0.10814864507E-01 -0.35538509987E-02  0.10210264667E+01  0.10207695499E+01 0.  0.
     999903    2    3    3    0    0  0.27308815260E-01 -0.86714738363E-01  0.92193483111E-01  0.13133293954E+00  0.21988302316E-01 0.  0.
         14    1    1    2    0    0  0.19874120999E-01  0.10814864507E-01  0.35538509987E-02  0.22903533280E-01  0.00000000000E+00 0.  1.
     999901    1    3    3    0    0 -0.47182936259E-01  0.75899873856E-01 -0.95747334109E-01  0.88969352718E+00  0.88000000000E+00 0.  1.
        -11    1    4    4    0    0  0.42783419903E-02 -0.33818658083E-01  0.22455357273E-01  0.40822910675E-01  0.51100000000E-03 0. -1.
         11    1    4    4    0    0  0.23030473270E-01 -0.52896080280E-01  0.69738125838E-01  0.90510028861E-01  0.51100000000E-03 0.  1.
</event>
<event>
 8    1  0.9952977E+004  0.1043930E+01  0.7957747E-01            NaN
         13   -1    0    0    0    0  0.00000000000E+00  0.00000000000E+00  0.74505805969E-08  0.10566000000E+00  0.10566000000E+00 0. -1.
     999900   -1    0    0    0    0 -0.00000000000E+00 -0.00000000000E+00 -0.74505805969E-08  0.93827000000E+00  0.93827000000E+00 0. -1.
     999902    2    1    2    0    0  0.41358518146E-02 -0.20501064836E-01 -0.10871573204E-01  0.10203590426E+01  0.10200867540E+01 0.  0.
     999903    2    3    3    0    0  0.65321869003E-01 -0.67380011910E-01 -0.92451593955E-01  0.13323071806E+00  0.19902623842E-01 0.  0.
         14    1    1    2    0    0 -0.41358518146E-02  0.20501064836E-01  0.10871573204E-01  0.23570957417E-01  0.00000000000E+00 0.  1.
     999901    1    3    3    0    0 -0.61186017188E-01  0.46878947074E-01  0.81580020751E-01  0.88712832452E+00  0.88000000000E+00 0.  1.
        -11    1    4    4    0    0  0.16253679268E-01 -0.29035910959E-01 -0.37940910985E-01  0.50468208432E-01  0.51100000000E-03 0.  1.
         11    1    4    4    0    0  0.49068189735E-01 -0.38344100951E-01 -0.54510682971E-01  0.82762509631E-01  0.51100000000E-03 0. -1.
</event>
<event>
 8    1  0.9952977E+004  0.1043930E+01  0.7957747E-01            NaN
         13   -1    0    0    0    0  0.00000000000E+00  0.00000000000E+00  0.74505805969E-08  0.10566000000E+00  0.10566000000E+00 0. -1.
     999900   -1    0    0    0    0 -0.00000000000E+00 -0.00000000000E+00 -0.74505805969E-08  0.93827000000E+00  0.93827000000E+00 0.  1.
     999902    2    1    2    0    0 -0.19487241429E-01 -0.13792064735E-01  0.52542184360E-02  0.10194845415E+01  0.10191914197E+01 0.  0.
     999903    2    3    3    0    0  0.49405005615E-01 -0.10873977721E+00 -0.47268840341E-01  0.13014777658E+00  0.20950101522E-01 0.  0.
         14    1    1    2    0    0  0.19487241429E-01  0.13792064735E-01 -0.52542184360E-02  0.24445458465E-01  0.00000000000E+00 0.  1.
     999901    1    3    3    0    0 -0.68892247044E-01  0.94947712470E-01  0.52523058777E-01  0.88933676496E+00  0.88000000000E+00 0. -1.
        -11    1    4    4    0    0  0.34122092099E-01 -0.72822201778E-01 -0.21076088645E-01  0.83137553937E-01  0.51100000000E-03 0. -1.
         11    1    4    4    0    0  0.15282913517E-01 -0.35917575427E-01 -0.26192751696E-01  0.47010222638E-01  0.51100000000E-03 0.  1.
</event>
<event>
 8    1  0.9952977E+004  0.1043930E+01  0.7957747E-01            NaN
         13   -1    0    0    0    0  0.00000000000E+00  0.00000000000E+00  0.74505805969E-08  0.10566000000E+00  0.10566000000E+00 0. -1.
     999900   -1    0    0    0    0 -0.00000000000E+00 -0.00000000000E+00 -0.74505805969E-08  0.93827000000E+00  0.93827000000E+00 0.  1.
     999902    2    1    2    0    0 -0.14293018320E-01 -0.12877554024E-01  0.14451640714E-01  0.10198681694E+01  0.10195842836E+01 0.  0.
     999903    2    3    3    0    0 -0.12191822334E+00 -0.36868511387E-01  0.32352779532E-01  0.13280605124E+00  0.19167800756E-01 0.  0.
         14    1    1    2    0    0  0.14293018320E-01  0.12877554024E-01 -0.14451640714E-01  0.24061830555E-01  0.00000000000E+00 0.  1.
     999901    1    3    3    0    0  0.10762520502E+00  0.23990957363E-01 -0.17901138818E-01  0.88706211821E+00  0.88000000000E+00 0.  1.
        -11    1    4    4    0    0 -0.82098479054E-01 -0.24720010447E-01  0.30922719595E-01  0.91146666903E-01  0.51100000000E-03 0.  1.
         11    1    4    4    0    0 -0.39819744291E-01 -0.12148500940E-01  0.14300599372E-02  0.41659384332E-01  0.51100000000E-03 0. -1.
</event>
<event>
 8    1  0.9952977E+004  0.1043930E+01  0.7957747E-01            NaN
         13   -1    0    0    0    0  0.00000000000E+00  0.00000000000E+00  0.74505805969E-08  0.10566000000E+00  0.10566000000E+00 0. -1.
     999900   -1    0    0    0    0 -0.00000000000E+00 -0.00000000000E+00 -0.74505805969E-08  0.93827000000E+00  0.93827000000E+00 0.  1.
     999902    2    1    2    0    0 -0.26474322985E-01 -0.55277592576E-02  0.26830152350E-02  0.10167519855E+01  0.10163886833E+01 0.  0.
     999903    2    3    3    0    0  0.34404827907E-01  0.75503003043E-01 -0.92411948777E-01  0.12584497151E+00  0.20312383532E-01 0.  0.
         14    1    1    2    0    0  0.26474322985E-01  0.55277592576E-02 -0.26830152350E-02  0.27178014472E-01  0.00000000000E+00 0. -1.
     999901    1    3    3    0    0 -0.60879150891E-01 -0.81030762301E-01  0.95094964012E-01  0.89090701402E+00  0.88000000000E+00 0. -1.
        -11    1    4    4    0    0  0.14468996219E-01  0.19648132748E-01 -0.39131633209E-01  0.46118833579E-01  0.51100000000E-03 0. -1.
         11    1    4    4    0    0  0.19935831687E-01  0.55854870295E-01 -0.53280315568E-01  0.79726137927E-01  0.51100000000E-03 0.  1.
</event>
<event>
 8    1  0.9952977E+004  0.1043930E+01  0.7957747E-01            NaN
         13   -1    0    0    0    0  0.00000000000E+00  0.00000000000E+00  0.74505805969E-08  0.10566000000E+00  0.10566000000E+00 0. -1.
     999900   -1    0    0    0    0 -0.00000000000E+00 -0.00000000000E+00 -0.74505805969E-08  0.93827000000E+00  0.93827000000E+00 0.  1.
     999902    2    1    2    0    0 -0.22943756067E-02  0.24740186445E-01 -0.11557734031E-02  0.10190567856E+01  0.10187531867E+01 0.  0.
     999903    2    3    3    0    0  0.11406690845E+00 -0.54166459797E-01 -0.55006347889E-02  0.12788615932E+00  0.19476852726E-01 0.  0.
         14    1    1    2    0    0  0.22943756067E-02 -0.24740186445E-01  0.11557734031E-02  0.24873214446E-01  0.00000000000E+00 0.  1.
     999901    1    3    3    0    0 -0.11636128405E+00  0.78906646241E-01  0.43448613858E-02  0.89117062624E+00  0.88000000000E+00 0. -1.
        -11    1    4    4    0    0  0.81767166894E-01 -0.30551194448E-01 -0.88160880771E-02  0.87733856601E-01  0.51100000000E-03 0.  1.
         11    1    4    4    0    0  0.32299741553E-01 -0.23615265349E-01  0.33154532882E-02  0.40152302716E-01  0.51100000000E-03 0. -1.
</event>
<event>
 8    1  0.9952977E+004  0.1043930E+01  0.7957747E-01            NaN
         13   -1    0    0    0    0  0.00000000000E+00  0.00000000000E+00  0.74505805969E-08  0.10566000000E+00  0.10566000000E+00 0.  1.
     999900   -1    0    0    0    0 -0.00000000000E+00 -0.00000000000E+00 -0.74505805969E-08  0.93827000000E+00  0.93827000000E+00 0.  1.
     999902    2    1    2    0    0  0.23948752604E-02  0.25935014321E-01  0.10973529543E-01  0.10156673259E+01  0.10152740212E+01 0.  0.
     999903    2    3    3    0    0 -0.12105195622E+00 -0.18120032671E-02  0.30685067353E-01  0.12639933375E+00  0.19451446033E-01 0.  0.
         14    1    1    2    0    0 -0.23948752604E-02 -0.25935014321E-01 -0.10973529543E-01  0.28262674077E-01  0.00000000000E+00 0. -1.
     999901    1    3    3    0    0  0.12344683148E+00  0.27747017588E-01 -0.19711537810E-01  0.88926799218E+00  0.88000000000E+00 0.  1.
        -11    1    4    4    0    0 -0.55258999940E-01  0.81097949026E-02  0.10186485895E-01  0.56774567049E-01  0.51100000000E-03 0.  1.
         11    1    4    4    0    0 -0.65792956279E-01 -0.99217981697E-02  0.20498581458E-01  0.69624766697E-01  0.51100000000E-03 0. -1.
</event>
<event>
 8    1  0.9952977E+004  0.1043930E+01  0.7957747E-01            NaN
         13   -1    0    0    0    0  0.00000000000E+00  0.00000000000E+00  0.74505805969E-08  0.10566000000E+00  0.10566000000E+00 0.  1.
     999900   -1    0    0    0    0 -0.00000000000E+00 -0.00000000000E+00 -0.74505805969E-08  0.93827000000E+00  0.93827000000E+00 0.  1.
     999902    2    1    2    0    0 -0.17806848241E-01 -0.15602402221E-01  0.12594667692E-02  0.10202212452E+01  0.10199457260E+01 0.  0.
     999903    2    3    3    0    0  0.11035224342E+00 -0.45750287520E-01  0.45661429723E-01  0.12931991388E+00  0.19182479655E-01 0.  0.
         14    1    1    2    0    0  0.17806848241E-01  0.15602402221E-01 -0.12594667692E-02  0.23708754836E-01  0.00000000000E+00 0. -1.
     999901    1    3    3    0    0 -0.12815909166E+00  0.30147885299E-01 -0.44401962954E-01  0.89090133128E+00  0.88000000000E+00 0. -1.
        -11    1    4    4    0    0  0.21738092611E-01 -0.54510868136E-02  0.16290356323E-02  0.22476073855E-01  0.51100000000E-03 0. -1.
         11    1    4    4    0    0  0.88614150811E-01 -0.40299200706E-01  0.44032394091E-01  0.10684384003E+00  0.51100000000E-03 0.  1.
</event>
<event>
 8    1  0.1762056E+005  0.1043930E+01  0.7957747E-01            NaN
         13   -1    0    0    0    0  0.00000000000E+00  0.00000000000E+00  0.74505805969E-08  0.10566000000E+00  0.10566000000E+00 0. -1.
     999900   -1    0    0    0    0 -0.00000000000E+00 -0.00000000000E+00 -0.74505805969E-08  0.93827000000E+00  0.93827000000E+00 0.  1.
     999902    2    1    2    0    0  0.27625633386E-02  0.12814084985E-01  0.19738976222E-01  0.10202348589E+01  0.10199596598E+01 0.  0.
     999903    2    3    3    0    0  0.54381469728E-01  0.11856301990E+00  0.98488360831E-02  0.13234682337E+00  0.20103436196E-01 0.  0.
         14    1    1    2    0    0 -0.27625633386E-02 -0.12814084985E-01 -0.19738976222E-01  0.23695141116E-01  0.00000000000E+00 0.  1.
     999901    1    3    3    0    0 -0.51618906389E-01 -0.10574893492E+00  0.98901401386E-02  0.88788803551E+00  0.88000000000E+00 0.  1.
        -11    1    4    4    0    0  0.23906030029E-01  0.66570112289E-01  0.13324413373E-01  0.71978324756E-01  0.51100000000E-03 0.  1.
         11    1    4    4    0    0  0.30475439699E-01  0.51992907611E-01 -0.34755772899E-02  0.60368498616E-01  0.51100000000E-03 0. -1.
</event>
<event>
 8    1  0.9952977E+004  0.1043930E+01  0.7957747E-01            NaN
         13   -1    0    0    0    0  0.00000000000E+00  0.00000000000E+00  0.74505805969E-08  0.10566000000E+00  0.10566000000E+00 0. -1.
     999900   -1    0    0    0    0 -0.00000000000E+00 -0.00000000000E+00 -0.74505805969E-08  0.93827000000E+00  0.93827000000E+00 0. -1.
     999902    2    1    2    0    0 -0.95921835643E-02  0.22694863753E-02  0.20344589876E-01  0.10213232999E+01  0.10210730728E+01 0.  0.
     999903    2    3    3    0    0 -0.51535282515E-01 -0.90487999602E-01  0.81658007417E-01  0.13333540021E+00  0.16319784259E-01 0.  0.
         14    1    1    2    0    0  0.95921835643E-02 -0.22694863753E-02 -0.20344589876E-01  0.22606700139E-01  0.00000000000E+00 0.  1.
     999901    1    3    3    0    0  0.41943098950E-01  0.92757485978E-01 -0.61313417540E-01  0.88798789965E+00  0.88000000000E+00 0. -1.
        -11    1    4    4    0    0 -0.32847947171E-01 -0.66540351591E-01  0.50141024807E-01  0.89559977182E-01  0.51100000000E-03 0. -1.
         11    1    4    4    0    0 -0.18687335344E-01 -0.23947648011E-01  0.31516982609E-01  0.43775423029E-01  0.51100000000E-03 0.  1.
</event>
<event>
 8    1  0.9952977E+004  0.1043930E+01  0.7957747E-01            NaN
         13   -1    0    0    0    0  0.00000000000E+00  0.00000000000E+00  0.74505805969E-08  0.10566000000E+00  0.10566000000E+00 0.  1.
     999900   -1    0    0    0    0 -0.00000000000E+00 -0.00000000000E+00 -0.74505805969E-08  0.93827000000E+00  0.93827000000E+00 0. -1.
     999902    2    1    2    0    0  0.82860376254E-02 -0.10496055327E-01 -0.19531456748E-01  0.10202592712E+01  0.10199846456E+01 0.  0.
     999903    2    3    3    0    0  0.95715981559E-01  0.66643287463E-01 -0.57917357003E-01  0.13173918108E+00  0.19947799345E-01 0.  0.
         14    1    1    2    0    0 -0.82860376254E-02  0.10496055327E-01  0.19531456748E-01  0.23670728752E-01  0.00000000000E+00 0. -1.
     999901    1    3    3    0    0 -0.87429943933E-01 -0.77139342789E-01  0.38385900255E-01  0.88852009017E+00  0.88000000000E+00 0.  1.
        -11    1    4    4    0    0  0.34902541770E-01  0.15612630368E-01 -0.25639585282E-01  0.46039017186E-01  0.51100000000E-03 0.  1.
         11    1    4    4    0    0  0.60813439789E-01  0.51030657095E-01 -0.32277771721E-01  0.85700163890E-01  0.51100000000E-03 0. -1.
</event>
<event>
 8    1  0.9952977E+004  0.1043930E+01  0.7957747E-01            NaN
         13   -1    0    0    0    0  0.00000000000E+00  0.00000000000E+00  0.74505805969E-08  0.10566000000E+00  0.10566000000E+00 0. -1.
     999900   -1    0    0    0    0 -0.00000000000E+00 -0.00000000000E+00 -0.74505805969E-08  0.93827000000E+00  0.93827000000E+00 0.  1.
     999902    2    1    2    0    0  0.88569287643E-02 -0.59118661299E-02  0.21343129874E-01  0.10200778609E+01  0.10197989594E+01 0.  0.
     999903    2    3    3    0    0 -0.18420386340E-02 -0.11979524273E+00  0.52181560132E-01  0.13213929309E+00  0.19585307618E-01 0.  0.
         14    1    1    2    0    0 -0.88569287643E-02  0.59118661299E-02 -0.21343129874E-01  0.23852139131E-01  0.00000000000E+00 0.  1.
     999901    1    3    3    0    0  0.10698967398E-01  0.11388337660E+00 -0.30838430258E-01  0.88793856778E+00  0.88000000000E+00 0.  1.
        -11    1    4    4    0    0  0.75784933382E-02 -0.60924179125E-01  0.21236964659E-01  0.64965059472E-01  0.51100000000E-03 0. -1.
         11    1    4    4    0    0 -0.94205319722E-02 -0.58871063601E-01  0.30944595473E-01  0.67174233618E-01  0.51100000000E-03 0.  1.
</event>
<event>
 8    1  0.9952977E+004  0.1043930E+01  0.7957747E-01            NaN
         13   -1    0    0    0    0  0.00000000000E+00  0.00000000000E+00  0.74505805969E-08  0.10566000000E+00  0.10566000000E+00 0. -1.
     999900   -1    0    0    0    0 -0.00000000000E+00 -0.00000000000E+00 -0.74505805969E-08  0.93827000000E+00  0.93827000000E+00 0.  1.
     999902    2    1    2    0    0 -0.20684820114E-01 -0.94241433877E-02  0.82090721034E-02  0.10197625606E+01  0.10194761473E+01 0.  0.
     999903    2    3    3    0    0  0.92696518952E-01 -0.29609921777E-01 -0.80432042227E-01  0.12784325886E+00  0.20129414410E-01 0.  0.
         14    1    1    2    0    0  0.20684820114E-01  0.94241433877E-02 -0.82090721034E-02  0.24167439388E-01  0.00000000000E+00 0. -1.
     999901    1    3    3    0    0 -0.11338133907E+00  0.20185778389E-01  0.88641114330E-01  0.89191930176E+00  0.88000000000E+00 0. -1.
        -11    1    4    4    0    0  0.46521808303E-01 -0.75740175309E-02 -0.29264321394E-01  0.55482483875E-01  0.51100000000E-03 0.  1.
         11    1    4    4    0    0  0.46174710649E-01 -0.22035904246E-01 -0.51167720833E-01  0.72360774980E-01  0.51100000000E-03 0. -1.
</event>
<event>
 8    1  0.9952977E+004  0.1043930E+01  0.7957747E-01            NaN
         13   -1    0    0    0    0  0.00000000000E+00  0.00000000000E+00  0.74505805969E-08  0.10566000000E+00  0.10566000000E+00 0. -1.
     999900   -1    0    0    0    0 -0.00000000000E+00 -0.00000000000E+00 -0.74505805969E-08  0.93827000000E+00  0.93827000000E+00 0.  1.
     999902    2    1    2    0    0 -0.48663820568E-02 -0.13134237388E-01 -0.19160792380E-01  0.10201955139E+01  0.10199193893E+01 0.  0.
     999903    2    3    3    0    0 -0.58620180342E-01  0.42399167270E-01 -0.10890782844E+00  0.13226085394E+00  0.19950024115E-01 0.  0.
         14    1    1    2    0    0  0.48663820568E-02  0.13134237388E-01  0.19160792380E-01  0.23734486106E-01  0.00000000000E+00 0. -1.
     999901    1    3    3    0    0  0.53753798285E-01 -0.55533404658E-01  0.89747036057E-01  0.88793465995E+00  0.88000000000E+00 0. -1.
        -11    1    4    4    0    0 -0.23384298676E-01  0.89300077300E-02 -0.25565131685E-01  0.35782782755E-01  0.51100000000E-03 0.  1.
         11    1    4    4    0    0 -0.35235881665E-01  0.33469159540E-01 -0.83342696752E-01  0.96478071187E-01  0.51100000000E-03 0. -1.
</event>
<event>
 8    1  0.9952977E+004  0.1043930E+01  0.7957747E-01            NaN
         13   -1    0    0    0    0  0.00000000000E+00  0.00000000000E+00  0.74505805969E-08  0.10566000000E+00  0.10566000000E+00 0. -1.
     999900   -1    0    0    0    0 -0.00000000000E+00 -0.00000000000E+00 -0.74505805969E-08  0.93827000000E+00  0.93827000000E+00 0.  1.
     999902    2    1    2    0    0  0.17667612808E-01  0.14570900614E-01  0.87979374251E-02  0.10193971773E+01  0.10191019310E+01 0.  0.
     999903    2    3    3    0    0 -0.20390528314E-01 -0.11394958903E+00 -0.48856525261E-01  0.12738261719E+00  0.20954441437E-01 0.  0.
         14    1    1    2    0    0 -0.17667612808E-01 -0.14570900614E-01 -0.87979374251E-02  0.24532822707E-01  0.00000000000E+00 0.  1.
     999901    1    3    3    0    0  0.38058141122E-01  0.12852048965E+00  0.57654462686E-01  0.89201456010E+00  0.88000000000E+00 0. -1.
        -11    1    4    4    0    0 -0.19889501978E-01 -0.64865531737E-01 -0.21435305050E-01  0.71153797650E-01  0.51100000000E-03 0.  1.
         11    1    4    4    0    0 -0.50102633604E-03 -0.49084057298E-01 -0.27421220210E-01  0.56228819541E-01  0.51100000000E-03 0. -1.
</event>
<event>
 8    1  0.9952977E+004  0.1043930E+01  0.7957747E-01            NaN
         13   -1    0    0    0    0  0.00000000000E+00  0.00000000000E+00  0.74505805969E-08  0.10566000000E+00  0.10566000000E+00 0.  1.
     999900   -1    0    0    0    0 -0.00000000000E+00 -0.00000000000E+00 -0.74505805969E-08  0.93827000000E+00  0.93827000000E+00 0.  1.
     999902    2    1    2    0    0  0.15940115442E-01  0.99513169550E-02 -0.14594895278E-01  0.10201365774E+01  0.10198590636E+01 0.  0.
     999903    2    3    3    0    0  0.64776324871E-01  0.92549383913E-01 -0.66885989732E-01  0.13337743619E+00  0.23546637447E-01 0.  0.
         14    1    1    2    0    0 -0.15940115442E-01 -0.99513169550E-02  0.14594895278E-01  0.23793422571E-01  0.00000000000E+00 0.  1.
     999901    1    3    3    0    0 -0.48836209429E-01 -0.82598066958E-01  0.52291094454E-01  0.88675914124E+00  0.88000000000E+00 0.  1.
        -11    1    4    4    0    0  0.37214856121E-01  0.43775474307E-01 -0.21767482197E-01  0.61443649542E-01  0.51100000000E-03 0. -1.
         11    1    4    4    0    0  0.27561468750E-01  0.48773909606E-01 -0.45118507535E-01  0.71933786645E-01  0.51100000000E-03 0.  1.
</event>
<event>
 8    1  0.9952977E+004  0.1043930E+01  0.7957747E-01            NaN
         13   -1    0    0    0    0  0.00000000000E+00  0.00000000000E+00  0.74505805969E-08  0.10566000000E+00  0.10566000000E+00 0.  1.
     999900   -1    0    0    0    0 -0.00000000000E+00 -0.00000000000E+00 -0.74505805969E-08  0.93827000000E+00  0.93827000000E+00 0.  1.
     999902    2    1    2    0    0 -0.21834463992E-01 -0.31731380888E-02 -0.74601023255E-02  0.10206391059E+01  0.10203733232E+01 0.  0.
     999903    2    3    3    0    0  0.12623260627E+00  0.20057676341E-02 -0.11001797246E-01  0.12824725137E+00  0.19688167788E-01 0.  0.
         14    1    1    2    0    0  0.21834463992E-01  0.31731380888E-02  0.74601023255E-02  0.23290894140E-01  0.00000000000E+00 0. -1.
     999901    1    3    3    0    0 -0.14806707026E+00 -0.51789057229E-02  0.35416949201E-02  0.89239185449E+00  0.88000000000E+00 0. -1.
        -11    1    4    4    0    0  0.63404515132E-01 -0.88037616562E-02 -0.48705676519E-02  0.64199862216E-01  0.51100000000E-03 0.  1.
         11    1    4    4    0    0  0.62828091140E-01  0.10809529290E-01 -0.61312295937E-02  0.64047389151E-01  0.51100000000E-03 0. -1.
</event>
<event>
 8    1  0.9952977E+004  0.1043930E+01  0.7957747E-01            NaN
         13   -1    0    0    0    0  0.00000000000E+00  0.00000000000E+00  0.74505805969E-08  0.10566000000E+00  0.10566000000E+00 0. -1.
     999900   -1    0    0    0    0 -0.00000000000E+00 -0.00000000000E+00 -0.74505805969E-08  0.93827000000E+00  0.93827000000E+00 0.  1.
     999902    2    1    2    0    0  0.16456973452E-01 -0.12251155084E-01 -0.11333938379E-01  0.10204911234E+01  0.10202219131E+01 0.  0.
     999903    2    3    3    0    0  0.59561168201E-01 -0.11097185693E+00  0.36142899052E-01  0.13265228744E+00  0.20688992799E-01 0.  0.
         14    1    1    2    0    0 -0.16456973452E-01  0.12251155084E-01  0.11333938379E-01  0.23438876579E-01  0.00000000000E+00 0. -1.
     999901    1    3    3    0    0 -0.43104194749E-01  0.98720701850E-01 -0.47476837431E-01  0.88783883598E+00  0.88000000000E+00 0.  1.
        -11    1    4    4    0    0  0.30041790966E-01 -0.76198443507E-01  0.25832267850E-01  0.85885267541E-01  0.51100000000E-03 0.  1.
         11    1    4    4    0    0  0.29519377235E-01 -0.34773413428E-01  0.10310631202E-01  0.46767019902E-01  0.51100000000E-03 0. -1.
</event>
<event>
 8    1  0.9952977E+004  0.1043930E+01  0.7957747E-01            NaN
         13   -1    0    0    0    0  0.00000000000E+00  0.00000000000E+00  0.74505805969E-08  0.10566000000E+00  0.10566000000E+00 0. -1.
     999900   -1    0    0    0    0 -0.00000000000E+00 -0.00000000000E+00 -0.74505805969E-08  0.93827000000E+00  0.93827000000E+00 0.  1.
     999902    2    1    2    0    0  0.17040840463E-01  0.15241661856E-01 -0.20241636841E-02  0.10209779688E+01  0.10207199503E+01 0.  0.
     999903    2    3    3    0    0  0.11550340261E+00  0.62473669571E-01  0.17292610971E-01  0.13401749811E+00  0.20436731638E-01 0.  0.
         14    1    1    2    0    0 -0.17040840463E-01 -0.15241661856E-01  0.20241636841E-02  0.22952031249E-01  0.00000000000E+00 0. -1.
     999901    1    3    3    0    0 -0.98462562152E-01 -0.47232007715E-01 -0.19316774655E-01  0.88696047064E+00  0.88000000000E+00 0.  1.
        -11    1    4    4    0    0  0.77447800167E-01  0.38049329949E-01  0.21176235337E-02  0.86317198232E-01  0.51100000000E-03 0.  1.
         11    1    4    4    0    0  0.38055602448E-01  0.24424339622E-01  0.15174987437E-01  0.47700299877E-01  0.51100000000E-03 0. -1.
</event>
<event>
 8    1  0.9952977E+004  0.1043930E+01  0.7957747E-01            NaN
         13   -1    0    0    0    0  0.00000000000E+00  0.00000000000E+00  0.74505805969E-08  0.10566000000E+00  0.10566000000E+00 0. -1.
     999900   -1    0    0    0    0 -0.00000000000E+00 -0.00000000000E+00 -0.74505805969E-08  0.93827000000E+00  0.93827000000E+00 0. -1.
     999902    2    1    2    0    0  0.32332120818E-02 -0.21815451848E-01  0.83802391833E-02  0.10203377129E+01  0.10200649256E+01 0.  0.
     999903    2    3    3    0    0  0.63798541813E-01 -0.43887246955E-01  0.10583863692E+00  0.13261395941E+00  0.19705349070E-01 0.  0.
         14    1    1    2    0    0 -0.32332120818E-02  0.21815451848E-01 -0.83802391833E-02  0.23592287054E-01  0.00000000000E+00 0.  1.
     999901    1    3    3    0    0 -0.60565329731E-01  0.22071795107E-01 -0.97458397738E-01  0.88772375354E+00  0.88000000000E+00 0. -1.
        -11    1    4    4    0    0  0.31185645487E-01 -0.27868004343E-01  0.42747415211E-01  0.59806126599E-01  0.51100000000E-03 0. -1.
         11    1    4    4    0    0  0.32612896326E-01 -0.16019242612E-01  0.63091221710E-01  0.72807832810E-01  0.51100000000E-03 0.  1.
</event>
<event>
 8    1  0.9952977E+004  0.1043930E+01  0.7957747E-01            NaN
         13   -1    0    0    0    0  0.00000000000E+00  0.00000000000E+00  0.74505805969E-08  0.10566000000E+00  0.10566000000E+00 0.  1.
     999900   -1    0    0    0    0 -0.00000000000E+00 -0.00000000000E+00 -0.74505805969E-08  0.93827000000E+00  0.93827000000E+00 0. -1.
     999902    2    1    2    0    0 -0.20237610932E-01  0.59744149038E-02 -0.10637224780E-01  0.10202994037E+01  0.10200257194E+01 0.  0.
     999903    2    3    3    0    0  0.12157813461E+00 -0.28515300116E-01 -0.17618763547E-01  0.12825120546E+00  0.23314924754E-01 0.  0.
         14    1    1    2    0    0  0.20237610932E-01 -0.59744149038E-02  0.10637224780E-01  0.23630596284E-01  0.00000000000E+00 0.  1.
     999901    1    3    3    0    0 -0.14181574555E+00  0.34489715020E-01  0.69815387662E-02  0.89204819826E+00  0.88000000000E+00 0.  1.
        -11    1    4    4    0    0  0.52341825243E-01 -0.18981929131E-01 -0.17481577695E-01  0.58359634877E-01  0.51100000000E-03 0. -1.
         11    1    4    4    0    0  0.69236309371E-01 -0.95333709855E-02 -0.13718585116E-03  0.69891570584E-01  0.51100000000E-03 0.  1.
</event>
<event>
 8    1  0.9952977E+004  0.1043930E+01  0.7957747E-01            NaN
         13   -1    0    0    0    0  0.00000000000E+00  0.00000000000E+00  0.74505805969E-08  0.10566000000E+00  0.10566000000E+00 0.  1.
     999900   -1    0    0    0    0 -0.00000000000E+00 -0.00000000000E+00 -0.74505805969E-08  0.93827000000E+00  0.93827000000E+00 0.  1.
     999902    2    1    2    0    0 -0.80844360240E-02 -0.48035720098E-02 -0.22426284585E-01  0.10196118864E+01  0.10193218472E+01 0.  0.
     999903    2    3    3    0    0 -0.39702323717E-01 -0.69442048615E-01  0.98413545279E-01  0.12844406382E+00  0.20351388452E-01 0.  0.
         14    1    1    2    0    0  0.80844360240E-02  0.48035720098E-02  0.22426284585E-01  0.24318113622E-01  0.00000000000E+00 0.  1.
     999901    1    3    3    0    0  0.31617887693E-01  0.64638476605E-01 -0.12083982986E+00  0.89116782256E+00  0.88000000000E+00 0.  1.
        -11    1    4    4    0    0 -0.29239898647E-01 -0.32874568964E-01  0.45692847446E-01  0.63433480010E-01  0.51100000000E-03 0.  1.
         11    1    4    4    0    0 -0.10462425070E-01 -0.36567479651E-01  0.52720697833E-01  0.65010583810E-01  0.51100000000E-03 0. -1.
</event>
<event>
 8    1  0.9952977E+004  0.1043930E+01  0.7957747E-01            NaN
         13   -1    0    0    0    0  0.00000000000E+00  0.00000000000E+00  0.74505805969E-08  0.10566000000E+00  0.10566000000E+00 0. -1.
     999900   -1    0    0    0    0 -0.00000000000E+00 -0.00000000000E+00 -0.74505805969E-08  0.93827000000E+00  0.93827000000E+00 0. -1.
     999902    2    1    2    0    0 -0.21718185488E-01  0.76793597095E-02  0.79101118828E-02  0.10195738505E+01  0.10192828924E+01 0.  0.
     999903    2    3    3    0    0  0.91596769096E-01 -0.64111664842E-01  0.58858496467E-01  0.12795175120E+00  0.20175588015E-01 0.  0.
         14    1    1    2    0    0  0.21718185488E-01 -0.76793597095E-02 -0.79101118828E-02  0.24356149458E-01  0.00000000000E+00 0. -1.
     999901    1    3    3    0    0 -0.11331495458E+00  0.71791024552E-01 -0.50948384585E-01  0.89162209934E+00  0.88000000000E+00 0. -1.
        -11    1    4    4    0    0  0.73820253691E-01 -0.53545160506E-01  0.38700536889E-01  0.99068192399E-01  0.51100000000E-03 0. -1.
         11    1    4    4    0    0  0.17776515405E-01 -0.10566504337E-01  0.20157959578E-01  0.28883558804E-01  0.51100000000E-03 0.  1.
</event>
<event>
 8    1  0.9952977E+004  0.1043930E+01  0.7957747E-01            NaN
         13   -1    0    0    0    0  0.00000000000E+00  0.00000000000E+00  0.74505805969E-08  0.10566000000E+00  0.10566000000E+00 0.  1.
     999900   -1    0    0    0    0 -0.00000000000E+00 -0.00000000000E+00 -0.74505805969E-08  0.93827000000E+00  0.93827000000E+00 0. -1.
     999902    2    1    2    0    0 -0.19711070780E-01 -0.14021122490E-01  0.78480377626E-02  0.10184995088E+01  0.10181819776E+01 0.  0.
     999903    2    3    3    0    0 -0.33190358588E-01 -0.12319401545E+00  0.24474227714E-01  0.13149508830E+00  0.20337282938E-01 0.  0.
         14    1    1    2    0    0  0.19711070780E-01  0.14021122490E-01 -0.78480377626E-02  0.25430491224E-01  0.00000000000E+00 0. -1.
     999901    1    3    3    0    0  0.13479287808E-01  0.10917289296E+00 -0.16626189952E-01  0.88700442048E+00  0.88000000000E+00 0.  1.
        -11    1    4    4    0    0 -0.20438422357E-01 -0.72916035561E-01  0.43405146078E-02  0.75852346954E-01  0.51100000000E-03 0.  1.
         11    1    4    4    0    0 -0.12751936231E-01 -0.50277979892E-01  0.20133713106E-01  0.55642741342E-01  0.51100000000E-03 0. -1.
</event>
<event>
 8    1  0.9952977E+004  0.1043930E+01  0.7957747E-01            NaN
         13   -1    0    0    0    0  0.00000000000E+00  0.00000000000E+00  0.74505805969E-08  0.10566000000E+00  0.10566000000E+00 0.  1.
     999900   -1    0    0    0    0 -0.00000000000E+00 -0.00000000000E+00 -0.74505805969E-08  0.93827000000E+00  0.93827000000E+00 0. -1.
     999902    2    1    2    0    0  0.41432439589E-02 -0.12654321241E-01  0.20055765108E-01  0.10198565285E+01  0.10195723646E+01 0.  0.
     999903    2    3    3    0    0 -0.61838844642E-01 -0.37627999800E-01  0.10912516226E+00  0.13255123822E+00  0.20533402992E-01 0.  0.
         14    1    1    2    0    0 -0.41432439589E-02  0.12654321241E-01 -0.20055765108E-01  0.24073471512E-01  0.00000000000E+00 0. -1.
     999901    1    3    3    0    0  0.65982088601E-01  0.24973678559E-01 -0.89069397153E-01  0.88730529027E+00  0.88000000000E+00 0. -1.
        -11    1    4    4    0    0 -0.28985064993E-01 -0.12951920550E-01  0.64482122628E-01  0.71875527812E-01  0.51100000000E-03 0.  1.
         11    1    4    4    0    0 -0.32853779648E-01 -0.24676079250E-01  0.44643039633E-01  0.60675710404E-01  0.51100000000E-03 0. -1.
</event>
<event>
 8    1  0.9952977E+004  0.1043930E+01  0.7957747E-01            NaN
         13   -1    0    0    0    0  0.00000000000E+00  0.00000000000E+00  0.74505805969E-08  0.10566000000E+00  0.10566000000E+00 0. -1.
     999900   -1    0    0    0    0 -0.00000000000E+00 -0.00000000000E+00 -0.74505805969E-08  0.93827000000E+00  0.93827000000E+00 0.  1.
     999902    2    1    2    0    0  0.16378911119E-01  0.25656706430E-02  0.21394331470E-01  0.10168639915E+01  0.10165037179E+01 0.  0.
     999903    2    3    3    0    0 -0.10949754870E+00 -0.57194055671E-01  0.12160237212E-01  0.12585255697E+00  0.20739372024E-01 0.  0.
         14    1    1    2    0    0 -0.16378911119E-01 -0.25656706430E-02 -0.21394331470E-01  0.27066008467E-01  0.00000000000E+00 0. -1.
     999901    1    3    3    0    0  0.12587645982E+00  0.59759726314E-01  0.92340942582E-02  0.89101143456E+00  0.88000000000E+00 0.  1.
        -11    1    4    4    0    0 -0.14477989583E-01 -0.37783539632E-02 -0.43801904874E-02  0.15599209298E-01  0.51100000000E-03 0. -1.
         11    1    4    4    0    0 -0.95019559115E-01 -0.53415701707E-01  0.16540427699E-01  0.11025334767E+00  0.51100000000E-03 0.  1.
</event>
<event>
 8    1  0.9952977E+004  0.1043930E+01  0.7957747E-01            NaN
         13   -1    0    0    0    0  0.00000000000E+00  0.00000000000E+00  0.74505805969E-08  0.10566000000E+00  0.10566000000E+00 0.  1.
     999900   -1    0    0    0    0 -0.00000000000E+00 -0.00000000000E+00 -0.74505805969E-08  0.93827000000E+00  0.93827000000E+00 0.  1.
     999902    2    1    2    0    0  0.14964403361E-01 -0.61247526789E-02  0.17589557216E-01  0.10200377735E+01  0.10197579227E+01 0.  0.
     999903    2    3    3    0    0 -0.27230340404E-01  0.12177141213E+00  0.27560663649E-01  0.12973599977E+00  0.22406945477E-01 0.  0.
         14    1    1    2    0    0 -0.14964403361E-01  0.61247526789E-02 -0.17589557216E-01  0.23892226485E-01  0.00000000000E+00 0. -1.
     999901    1    3    3    0    0  0.42194743765E-01 -0.12789616480E+00 -0.99711064322E-02  0.89030177375E+00  0.88000000000E+00 0. -1.
        -11    1    4    4    0    0 -0.16681985020E-01  0.43844710035E-01  0.19063667357E-01  0.50639231396E-01  0.51100000000E-03 0. -1.
         11    1    4    4    0    0 -0.10548355384E-01  0.77926702091E-01  0.84969962913E-02  0.79096768373E-01  0.51100000000E-03 0.  1.
</event>
<event>
 8    1  0.9952977E+004  0.1043930E+01  0.7957747E-01            NaN
         13   -1    0    0    0    0  0.00000000000E+00  0.00000000000E+00  0.74505805969E-08  0.10566000000E+00  0.10566000000E+00 0. -1.
     999900   -1    0    0    0    0 -0.00000000000E+00 -0.00000000000E+00 -0.74505805969E-08  0.93827000000E+00  0.93827000000E+00 0.  1.
     999902    2    1    2    0    0 -0.21339681930E-01  0.20299440308E-01 -0.15879969342E-02  0.10144347286E+01  0.10140058420E+01 0.  0.
     999903    2    3    3    0    0  0.73517424830E-01 -0.92813411207E-01 -0.21041995401E-01  0.12192655162E+00  0.20104162931E-01 0.  0.
         14    1    1    2    0    0  0.21339681930E-01 -0.20299440308E-01  0.15879969342E-02  0.29495271417E-01  0.00000000000E+00 0.  1.
     999901    1    3    3    0    0 -0.94857106760E-01  0.11311285151E+00  0.19453998467E-01  0.89250817696E+00  0.88000000000E+00 0. -1.
        -11    1    4    4    0    0  0.43775659231E-01 -0.46703711995E-01 -0.19924315558E-01  0.67043154212E-01  0.51100000000E-03 0. -1.
         11    1    4    4    0    0  0.29741765600E-01 -0.46109699211E-01 -0.11176798430E-02  0.54883397413E-01  0.51100000000E-03 0.  1.
</event>
<event>
 8    1  0.9952977E+004  0.1043930E+01  0.7957747E-01            NaN
         13   -1    0    0    0    0  0.00000000000E+00  0.00000000000E+00  0.74505805969E-08  0.10566000000E+00  0.10566000000E+00 0.  1.
     999900   -1    0    0    0    0 -0.00000000000E+00 -0.00000000000E+00 -0.74505805969E-08  0.93827000000E+00  0.93827000000E+00 0. -1.
     999902    2    1    2    0    0  0.15347024440E-01  0.17669791994E-01 -0.19464691387E-02  0.10204450804E+01  0.10201747990E+01 0.  0.
     999903    2    3    3    0    0 -0.50233655374E-05 -0.39007685852E-02 -0.12938970678E+00  0.13087060159E+00  0.19240637198E-01 0.  0.
         14    1    1    2    0    0 -0.15347024440E-01 -0.17669791994E-01  0.19464691387E-02  0.23484919637E-01  0.00000000000E+00 0.  1.
     999901    1    3    3    0    0  0.15352047805E-01  0.21570560579E-01  0.12744323764E+00  0.88957447877E+00  0.88000000000E+00 0.  1.
        -11    1    4    4    0    0  0.53961376280E-02 -0.66452323533E-02 -0.27647572112E-01  0.28946964936E-01  0.51100000000E-03 0.  1.
         11    1    4    4    0    0 -0.54011609935E-02  0.27444637682E-02 -0.10174213467E+00  0.10192363666E+00  0.51100000000E-03 0. -1.
</event>
<event>
 8    1  0.9952977E+004  0.1043930E+01  0.7957747E-01            NaN
         13   -1    0    0    0    0  0.00000000000E+00  0.00000000000E+00  0.74505805969E-08  0.10566000000E+00  0.10566000000E+00 0. -1.
     999900   -1    0    0    0    0 -0.00000000000E+00 -0.00000000000E+00 -0.74505805969E-08  0.93827000000E+00  0.93827000000E+00 0. -1.
     999902    2    1    2    0    0  0.12403427407E-01 -0.19049900457E-01  0.89107050118E-02  0.10195139319E+01  0.10192215230E+01 0.  0.
     999903    2    3    3    0    0 -0.88990888757E-01 -0.13992721868E-02  0.93312356519E-01  0.12950494832E+00  0.11958240519E-01 0.  0.
         14    1    1    2    0    0 -0.12403427407E-01  0.19049900457E-01 -0.89107050118E-02  0.24416068125E-01  0.00000000000E+00 0.  1.
     999901    1    3    3    0    0  0.10139431616E+00 -0.17650628270E-01 -0.84401651507E-01  0.89000898355E+00  0.88000000000E+00 0.  1.
        -11    1    4    4    0    0 -0.63443962845E-01  0.34956167872E-02  0.61777257994E-01  0.88623058424E-01  0.51100000000E-03 0. -1.
         11    1    4    4    0    0 -0.25546925912E-01 -0.48948889740E-02  0.31535098525E-01  0.40881889898E-01  0.51100000000E-03 0.  1.
</event>
<event>
 8    1  0.9952977E+004  0.1043930E+01  0.7957747E-01            NaN
         13   -1    0    0    0    0  0.00000000000E+00  0.00000000000E+00  0.74505805969E-08  0.10566000000E+00  0.10566000000E+00 0.  1.
     999900   -1    0    0    0    0 -0.00000000000E+00 -0.00000000000E+00 -0.74505805969E-08  0.93827000000E+00  0.93827000000E+00 0.  1.
     999902    2    1    2    0    0  0.27857199056E-02  0.20994343273E-01 -0.35916411034E-02  0.10224492512E+01  0.10222235805E+01 0.  0.
     999903    2    3    3    0    0 -0.30332833126E-02  0.13007356446E+00  0.30051400847E-01  0.13505757238E+00  0.20226917356E-01 0.  0.
         14    1    1    2    0    0 -0.27857199056E-02 -0.20994343273E-01  0.35916411034E-02  0.21480748839E-01  0.00000000000E+00 0. -1.
     999901    1    3    3    0    0  0.58190032182E-02 -0.10907922119E+00 -0.33643041951E-01  0.88739167878E+00  0.88000000000E+00 0.  1.
        -11    1    4    4    0    0 -0.19415809371E-02  0.62246458923E-01  0.24737629022E-01  0.67011960094E-01  0.51100000000E-03 0.  1.
         11    1    4    4    0    0 -0.10917023756E-02  0.67827105538E-01  0.53137718255E-02  0.68045612289E-01  0.51100000000E-03 0. -1.
</event>
<event>
 8    1  0.9952977E+004  0.1043930E+01  0.7957747E-01            NaN
         13   -1    0    0    0    0  0.00000000000E+00  0.00000000000E+00  0.74505805969E-08  0.10566000000E+00  0.10566000000E+00 0. -1.
     999900   -1    0    0    0    0 -0.00000000000E+00 -0.00000000000E+00 -0.74505805969E-08  0.93827000000E+00  0.93827000000E+00 0. -1.
     999902    2    1    2    0    0  0.18729925221E-01  0.97451840253E-03  0.15130507948E-01  0.10198324471E+01  0.10195477076E+01 0.  0.
     999903    2    3    3    0    0 -0.31869427380E-01  0.65712882293E-01  0.10700634491E+00  0.13124226054E+00  0.20984036748E-01 0.  0.
         14    1    1    2    0    0 -0.18729925221E-01 -0.97451840253E-03 -0.15130507948E-01  0.24097552898E-01  0.00000000000E+00 0.  1.
     999901    1    3    3    0    0  0.50599352601E-01 -0.64738363890E-01 -0.91875836965E-01  0.88859018657E+00  0.88000000000E+00 0.  1.
        -11    1    4    4    0    0 -0.21283297476E-01  0.39672413385E-01  0.47606928456E-01  0.65525261489E-01  0.51100000000E-03 0. -1.
         11    1    4    4    0    0 -0.10586129904E-01  0.26040468908E-01  0.59399416457E-01  0.65716999047E-01  0.51100000000E-03 0.  1.
</event>
<event>
 8    1  0.9952977E+004  0.1043930E+01  0.7957747E-01            NaN
         13   -1    0    0    0    0  0.00000000000E+00  0.00000000000E+00  0.74505805969E-08  0.10566000000E+00  0.10566000000E+00 0.  1.
     999900   -1    0    0    0    0 -0.00000000000E+00 -0.00000000000E+00 -0.74505805969E-08  0.93827000000E+00  0.93827000000E+00 0.  1.
     999902    2    1    2    0    0  0.16786151934E-02 -0.23744155213E-01 -0.12411232726E-02  0.10200942486E+01  0.10198157349E+01 0.  0.
     999903    2    3    3    0    0  0.12289970635E+00 -0.15649596939E-01  0.36854067252E-01  0.13093097997E+00  0.20867475618E-01 0.  0.
         14    1    1    2    0    0 -0.16786151934E-02  0.23744155213E-01  0.12411232726E-02  0.23835751356E-01  0.00000000000E+00 0. -1.
     999901    1    3    3    0    0 -0.12122109115E+00 -0.80945582734E-02 -0.38095190525E-01  0.88916326867E+00  0.88000000000E+00 0.  1.
        -11    1    4    4    0    0  0.88933153937E-01 -0.19657358983E-01  0.22391374884E-01  0.93793136324E-01  0.51100000000E-03 0. -1.
         11    1    4    4    0    0  0.33966552411E-01  0.40077620435E-02  0.14462692368E-01  0.37137843648E-01  0.51100000000E-03 0.  1.
</event>
<event>
 8    1  0.9952977E+004  0.1043930E+01  0.7957747E-01            NaN
         13   -1    0    0    0    0  0.00000000000E+00  0.00000000000E+00  0.74505805969E-08  0.10566000000E+00  0.10566000000E+00 0. -1.
     999900   -1    0    0    0    0 -0.00000000000E+00 -0.00000000000E+00 -0.74505805969E-08  0.93827000000E+00  0.93827000000E+00 0. -1.
     999902    2    1    2    0    0 -0.41830253641E-02  0.48169477856E-03  0.23413040259E-01  0.10201413434E+01  0.10198639420E+01 0.  0.
     999903    2    3    3    0    0 -0.56537977467E-01 -0.29668662899E-01 -0.10926493862E+00  0.12814721156E+00  0.20152135475E-01 0.  0.
         14    1    1    2    0    0  0.41830253641E-02 -0.48169477856E-03 -0.23413040259E-01  0.23788656650E-01  0.00000000000E+00 0.  1.
     999901    1    3    3    0    0  0.52354952103E-01  0.30150357678E-01  0.13267797888E+00  0.89199413179E+00  0.88000000000E+00 0.  1.
        -11    1    4    4    0    0 -0.21323932807E-01 -0.74345604732E-03 -0.32869048095E-01  0.39190538156E-01  0.51100000000E-03 0. -1.
         11    1    4    4    0    0 -0.35214044660E-01 -0.28925206852E-01 -0.76395890522E-01  0.88956673399E-01  0.51100000000E-03 0.  1.
</event>
<event>
 8    1  0.9952977E+004  0.1043930E+01  0.7957747E-01            NaN
         13   -1    0    0    0    0  0.00000000000E+00  0.00000000000E+00  0.74505805969E-08  0.10566000000E+00  0.10566000000E+00 0. -1.
     999900   -1    0    0    0    0 -0.00000000000E+00 -0.00000000000E+00 -0.74505805969E-08  0.93827000000E+00  0.93827000000E+00 0.  1.
     999902    2    1    2    0    0  0.14737140685E-01  0.20555774013E-01 -0.53151461064E-02  0.10180848082E+01  0.10177567012E+01 0.  0.
     999903    2    3    3    0    0  0.10006426594E+00  0.80470348202E-01  0.20694292357E-01  0.13154830845E+00  0.19707091705E-01 0.  0.
         14    1    1    2    0    0 -0.14737140685E-01 -0.20555774013E-01  0.53151461064E-02  0.25845191796E-01  0.00000000000E+00 0.  1.
     999901    1    3    3    0    0 -0.85327125250E-01 -0.59914574189E-01 -0.26009438464E-01  0.88653649975E+00  0.88000000000E+00 0. -1.
        -11    1    4    4    0    0  0.33275848968E-01  0.23197417712E-01  0.15446989224E-01  0.43408212473E-01  0.51100000000E-03 0. -1.
         11    1    4    4    0    0  0.66788416967E-01  0.57272930490E-01  0.52473031327E-02  0.88140095979E-01  0.51100000000E-03 0.  1.
</event>
<event>
 8    1  0.9952977E+004  0.1043930E+01  0.7957747E-01            NaN
         13   -1    0    0    0    0  0.00000000000E+00  0.00000000000E+00  0.74505805969E-08  0.10566000000E+00  0.10566000000E+00 0.  1.
     999900   -1    0    0    0    0 -0.00000000000E+00 -0.00000000000E+00 -0.74505805969E-08  0.93827000000E+00  0.93827000000E+00 0. -1.
     999902    2    1    2    0    0 -0.13652419601E-01 -0.39816438153E-02 -0.19071327696E-01  0.10201401369E+01  0.10198627071E+01 0.  0.
     999903    2    3    3    0    0  0.17900846813E-01 -0.11328971163E-01 -0.12974849766E+00  0.13261603702E+00  0.17422821940E-01 0.  0.
         14    1    1    2    0    0  0.13652419601E-01  0.39816438153E-02  0.19071327696E-01  0.23789863146E-01  0.00000000000E+00 0.  1.
     999901    1    3    3    0    0 -0.31553266413E-01  0.73473273474E-02  0.11067716997E+00  0.88752409984E+00  0.88000000000E+00 0.  1.
        -11    1    4    4    0    0 -0.17302617088E-02 -0.62340164707E-02 -0.20601859418E-01  0.21599872671E-01  0.51100000000E-03 0. -1.
         11    1    4    4    0    0  0.19631108521E-01 -0.50949546920E-02 -0.10914663824E+00  0.11101616435E+00  0.51100000000E-03 0.  1.
</event>
<event>
 8    1  0.9952977E+004  0.1043930E+01  0.7957747E-01            NaN
         13   -1    0    0    0    0  0.00000000000E+00  0.00000000000E+00  0.74505805969E-08  0.10566000000E+00  0.10566000000E+00 0. -1.
     999900   -1    0    0    0    0 -0.00000000000E+00 -0.00000000000E+00 -0.74505805969E-08  0.93827000000E+00  0.93827000000E+00 0.  1.
     999902    2    1    2    0    0 -0.46352941047E-02 -0.16881966376E-01  0.16322553896E-01  0.10199944092E+01  0.10197135295E+01 0.  0.
     999903    2    3    3    0    0 -0.82691097500E-01  0.97132804331E-01  0.84716433024E-03  0.12907827172E+00  0.19694752087E-01 0.  0.
         14    1    1    2    0    0  0.46352941047E-02  0.16881966376E-01 -0.16322553896E-01  0.23935590777E-01  0.00000000000E+00 0. -1.
     999901    1    3    3    0    0  0.78055803395E-01 -0.11401477071E+00  0.15475389565E-01  0.89091613750E+00  0.88000000000E+00 0. -1.
        -11    1    4    4    0    0 -0.31164557822E-01  0.51461599132E-01 -0.14870522768E-02  0.60183039928E-01  0.51100000000E-03 0.  1.
         11    1    4    4    0    0 -0.51526539678E-01  0.45671205199E-01  0.23342166070E-02  0.68895231792E-01  0.51100000000E-03 0. -1.
</event>
<event>
 8    1  0.9952977E+004  0.1043930E+01  0.7957747E-01            NaN
         13   -1    0    0    0    0  0.00000000000E+00  0.00000000000E+00  0.74505805969E-08  0.10566000000E+00  0.10566000000E+00 0.  1.
     999900   -1    0    0    0    0 -0.00000000000E+00 -0.00000000000E+00 -0.74505805969E-08  0.93827000000E+00  0.93827000000E+00 0.  1.
     999902    2    1    2    0    0 -0.14380701175E-01  0.11836181317E-01  0.14892243685E-01  0.10200830154E+01  0.10198042359E+01 0.  0.
     999903    2    3    3    0    0  0.95112046850E-01 -0.30065556345E-01 -0.76405239426E-01  0.12762593073E+00  0.22369140524E-01 0.  0.
         14    1    1    2    0    0  0.14380701175E-01 -0.11836181317E-01 -0.14892243685E-01  0.23846984640E-01  0.00000000000E+00 0. -1.
     999901    1    3    3    0    0 -0.10949274802E+00  0.41901737662E-01  0.91297483111E-01  0.89245708463E+00  0.88000000000E+00 0. -1.
        -11    1    4    4    0    0  0.51541738190E-01 -0.22063660546E-01 -0.54551213196E-01  0.78226925508E-01  0.51100000000E-03 0. -1.
         11    1    4    4    0    0  0.43570308660E-01 -0.80018957987E-02 -0.21854026231E-01  0.49399005219E-01  0.51100000000E-03 0.  1.
</event>
<event>
 8    1  0.9952977E+004  0.1043930E+01  0.7957747E-01            NaN
         13   -1    0    0    0    0  0.00000000000E+00  0.00000000000E+00  0.74505805969E-08  0.10566000000E+00  0.10566000000E+00 0.  1.
     999900   -1    0    0    0    0 -0.00000000000E+00 -0.00000000000E+00 -0.74505805969E-08  0.93827000000E+00  0.93827000000E+00 0.  1.
     999902    2    1    2    0    0  0.71730232774E-02  0.21334262642E-01 -0.76293388421E-02  0.10201642718E+01  0.10198874113E+01 0.  0.
     999903    2    3    3    0    0  0.79344570660E-01  0.98379375026E-01 -0.34269202948E-01  0.13345441850E+00  0.25722387570E-01 0.  0.
         14    1    1    2    0    0 -0.71730232774E-02 -0.21334262642E-01  0.76293388421E-02  0.23765728194E-01  0.00000000000E+00 0.  1.
     999901    1    3    3    0    0 -0.72171547382E-01 -0.77045112383E-01  0.26639864106E-01  0.88670985331E+00  0.88000000000E+00 0. -1.
        -11    1    4    4    0    0  0.23127569640E-01  0.18858527117E-01 -0.17607172280E-01  0.34652592388E-01  0.51100000000E-03 0. -1.
         11    1    4    4    0    0  0.56217001019E-01  0.79520847909E-01 -0.16662030668E-01  0.98801826110E-01  0.51100000000E-03 0.  1.
</event>
<event>
 8    1  0.9952977E+004  0.1043930E+01  0.7957747E-01            NaN
         13   -1    0    0    0    0  0.00000000000E+00  0.00000000000E+00  0.74505805969E-08  0.10566000000E+00  0.10566000000E+00 0.  1.
     999900   -1    0    0    0    0 -0.00000000000E+00 -0.00000000000E+00 -0.74505805969E-08  0.93827000000E+00  0.93827000000E+00 0. -1.
     999902    2    1    2    0    0  0.68021188990E-02  0.19183135112E-01  0.12520774237E-01  0.10200337392E+01  0.10197537927E+01 0.  0.
     999903    2    3    3    0    0 -0.39934813656E-01  0.51106775271E-01 -0.11035078749E+00  0.12969622993E+00  0.20907509136E-01 0.  0.
         14    1    1    2    0    0 -0.68021188990E-02 -0.19183135112E-01 -0.12520774237E-01  0.23896260832E-01  0.00000000000E+00 0. -1.
     999901    1    3    3    0    0  0.46736932555E-01 -0.31923640159E-01  0.12287156173E+00  0.89033750923E+00  0.88000000000E+00 0.  1.
        -11    1    4    4    0    0  0.13266683129E-02  0.86786918596E-02 -0.11431380980E-01  0.14422806014E-01  0.51100000000E-03 0. -1.
         11    1    4    4    0    0 -0.41261481969E-01  0.42428083411E-01 -0.98919406515E-01  0.11527342392E+00  0.51100000000E-03 0.  1.
</event>
<event>
 8    1  0.9952977E+004  0.1043930E+01  0.7957747E-01            NaN
         13   -1    0    0    0    0  0.00000000000E+00  0.00000000000E+00  0.74505805969E-08  0.10566000000E+00  0.10566000000E+00 0. -1.
     999900   -1    0    0    0    0 -0.00000000000E+00 -0.00000000000E+00 -0.74505805969E-08  0.93827000000E+00  0.93827000000E+00 0. -1.
     999902    2    1    2    0    0 -0.20142277949E-01  0.89357167903E-02 -0.14611720815E-01  0.10174902424E+01  0.10171466623E+01 0.  0.
     999903    2    3    3    0    0 -0.57523834449E-01  0.11227618178E+00  0.23219186646E-01  0.12984852978E+00  0.20163767768E-01 0.  0.
         14    1    1    2    0    0  0.20142277949E-01 -0.89357167903E-02  0.14611720815E-01  0.26439757577E-01  0.00000000000E+00 0.  1.
     999901    1    3    3    0    0  0.37381556500E-01 -0.10334046499E+00 -0.37830907461E-01  0.88764171265E+00  0.88000000000E+00 0. -1.
        -11    1    4    4    0    0 -0.46840041114E-01  0.71480315280E-01  0.18179139840E-01  0.87373721280E-01  0.51100000000E-03 0. -1.
         11    1    4    4    0    0 -0.10683793335E-01  0.40795866505E-01  0.50400468064E-02  0.42474808496E-01  0.51100000000E-03 0.  1.
</event>
<event>
 8    1  0.9952977E+004  0.1043930E+01  0.7957747E-01            NaN
         13   -1    0    0    0    0  0.00000000000E+00  0.00000000000E+00  0.74505805969E-08  0.10566000000E+00  0.10566000000E+00 0.  1.
     999900   -1    0    0    0    0 -0.00000000000E+00 -0.00000000000E+00 -0.74505805969E-08  0.93827000000E+00  0.93827000000E+00 0. -1.
     999902    2    1    2    0    0 -0.22470140828E-01  0.27939205881E-02 -0.13757198202E-02  0.10212450749E+01  0.10209930936E+01 0.  0.
     999903    2    3    3    0    0  0.11226691690E+00 -0.28225741253E-01  0.52472572842E-01  0.12882368747E+00  0.21014719896E-01 0.  0.
         14    1    1    2    0    0  0.22470140828E-01 -0.27939205881E-02  0.13757198202E-02  0.22684925085E-01  0.00000000000E+00 0.  1.
     999901    1    3    3    0    0 -0.13473705773E+00  0.31019661841E-01 -0.53848292662E-01  0.89242138745E+00  0.88000000000E+00 0. -1.
        -11    1    4    4    0    0  0.86539579678E-01 -0.30000103042E-01  0.44463335898E-01  0.10181529548E+00  0.51100000000E-03 0. -1.
         11    1    4    4    0    0  0.25727337226E-01  0.17743617893E-02  0.80092369447E-02  0.27008391990E-01  0.51100000000E-03 0.  1.
</event>
<event>
 8    1  0.9952977E+004  0.1043930E+01  0.7957747E-01            NaN
         13   -1    0    0    0    0  0.00000000000E+00  0.00000000000E+00  0.74505805969E-08  0.10566000000E+00  0.10566000000E+00 0.  1.
     999900   -1    0    0    0    0 -0.00000000000E+00 -0.00000000000E+00 -0.74505805969E-08  0.93827000000E+00  0.93827000000E+00 0.  1.
     999902    2    1    2    0    0  0.13999578329E-02 -0.62203028993E-02  0.22693771859E-01  0.10203575726E+01  0.10200852497E+01 0.  0.
     999903    2    3    3    0    0  0.84559714463E-02 -0.94563512058E-01 -0.85316149702E-01  0.12933543314E+00  0.20857794716E-01 0.  0.
         14    1    1    2    0    0 -0.13999578329E-02  0.62203028993E-02 -0.22693771859E-01  0.23572427352E-01  0.00000000000E+00 0. -1.
     999901    1    3    3    0    0 -0.70560136133E-02  0.88343209159E-01  0.10800992156E+00  0.89102213951E+00  0.88000000000E+00 0. -1.
        -11    1    4    4    0    0 -0.45290008484E-02 -0.56576667561E-01 -0.54902173327E-01  0.78967974002E-01  0.51100000000E-03 0.  1.
         11    1    4    4    0    0  0.12984972295E-01 -0.37986844497E-01 -0.30413976375E-01  0.50367459140E-01  0.51100000000E-03 0. -1.
</event>
<event>
 8    1  0.9952977E+004  0.1043930E+01  0.7957747E-01            NaN
         13   -1    0    0    0    0  0.00000000000E+00  0.00000000000E+00  0.74505805969E-08  0.10566000000E+00  0.10566000000E+00 0. -1.
     999900   -1    0    0    0    0 -0.00000000000E+00 -0.00000000000E+00 -0.74505805969E-08  0.93827000000E+00  0.93827000000E+00 0.  1.
     999902    2    1    2    0    0  0.87059537884E-02 -0.97122689967E-03 -0.22058737507E-01  0.10201955353E+01  0.10199194113E+01 0.  0.
     999903    2    3    3    0    0 -0.57626567180E-01 -0.74148697413E-01 -0.90547299789E-01  0.13202571559E+00  0.20325489031E-01 0.  0.
         14    1    1    2    0    0 -0.87059537884E-02  0.97122689967E-03  0.22058737507E-01  0.23734464676E-01  0.00000000000E+00 0. -1.
     999901    1    3    3    0    0  0.66332520968E-01  0.73177470513E-01  0.68488562282E-01  0.88816981974E+00  0.88000000000E+00 0. -1.
        -11    1    4    4    0    0 -0.36453846758E-01 -0.31295043581E-01 -0.40778938552E-01  0.63019406905E-01  0.51100000000E-03 0.  1.
         11    1    4    4    0    0 -0.21172720422E-01 -0.42853653831E-01 -0.49768361237E-01  0.69006308682E-01  0.51100000000E-03 0. -1.
</event>
<event>
 8    1  0.9952977E+004  0.1043930E+01  0.7957747E-01            NaN
         13   -1    0    0    0    0  0.00000000000E+00  0.00000000000E+00  0.74505805969E-08  0.10566000000E+00  0.10566000000E+00 0.  1.
     999900   -1    0    0    0    0 -0.00000000000E+00 -0.00000000000E+00 -0.74505805969E-08  0.93827000000E+00  0.93827000000E+00 0.  1.
     999902    2    1    2    0    0  0.21841655435E-01 -0.45761788432E-02  0.79955464232E-02  0.10202249776E+01  0.10199495462E+01 0.  0.
     999903    2    3    3    0    0  0.43656533776E-01  0.11886983089E+00  0.28871436579E-01  0.13109584803E+00  0.17794153091E-01 0.  0.
         14    1    1    2    0    0 -0.21841655435E-01  0.45761788432E-02 -0.79955464232E-02  0.23705022412E-01  0.00000000000E+00 0. -1.
     999901    1    3    3    0    0 -0.21814878341E-01 -0.12344600973E+00 -0.20875890156E-01  0.88912912956E+00  0.88000000000E+00 0. -1.
        -11    1    4    4    0    0  0.21174831071E-01  0.43605785720E-01  0.37399326483E-02  0.48621869939E-01  0.51100000000E-03 0.  1.
         11    1    4    4    0    0  0.22481702706E-01  0.75264045168E-01  0.25131503931E-01  0.82473978093E-01  0.51100000000E-03 0. -1.
</event>
<event>
 8    1  0.9952977E+004  0.1043930E+01  0.7957747E-01            NaN
         13   -1    0    0    0    0  0.00000000000E+00  0.00000000000E+00  0.74505805969E-08  0.10566000000E+00  0.10566000000E+00 0.  1.
     999900   -1    0    0    0    0 -0.00000000000E+00 -0.00000000000E+00 -0.74505805969E-08  0.93827000000E+00  0.93827000000E+00 0. -1.
     999902    2    1    2    0    0 -0.50182038039E-02  0.22381993695E-01 -0.19129249131E-02  0.10209127175E+01  0.10206532131E+01 0.  0.
     999903    2    3    3    0    0 -0.41820013752E-01  0.10683475805E-01  0.12255573407E+00  0.13131523798E+00  0.18992987300E-01 0.  0.
         14    1    1    2    0    0  0.50182038039E-02 -0.22381993695E-01  0.19129249131E-02  0.23017282483E-01  0.00000000000E+00 0. -1.
     999901    1    3    3    0    0  0.36801809949E-01  0.11698517890E-01 -0.12446865898E+00  0.88959747954E+00  0.88000000000E+00 0. -1.
        -11    1    4    4    0    0 -0.11093342886E-01  0.16792811769E-02  0.59971066552E-01  0.61013704903E-01  0.51100000000E-03 0. -1.
         11    1    4    4    0    0 -0.30726670867E-01  0.90041946286E-02  0.62584667515E-01  0.70301533073E-01  0.51100000000E-03 0.  1.
</event>
<event>
 8    1  0.1645401E+005  0.1043930E+01  0.7957747E-01            NaN
         13   -1    0    0    0    0  0.00000000000E+00  0.00000000000E+00  0.74505805969E-08  0.10566000000E+00  0.10566000000E+00 0.  1.
     999900   -1    0    0    0    0 -0.00000000000E+00 -0.00000000000E+00 -0.74505805969E-08  0.93827000000E+00  0.93827000000E+00 0. -1.
     999902    2    1    2    0    0 -0.25059567054E-01 -0.76327340755E-02 -0.10380251419E-01  0.10157521692E+01  0.10153612554E+01 0.  0.
     999903    2    3    3    0    0 -0.11685510543E+00 -0.46999020398E-01  0.22190724651E-01  0.12950333626E+00  0.20363257559E-01 0.  0.
         14    1    1    2    0    0  0.25059567054E-01  0.76327340755E-02  0.10380251419E-01  0.28177830823E-01  0.00000000000E+00 0. -1.
     999901    1    3    3    0    0  0.91795538376E-01  0.39366286322E-01 -0.32570976070E-01  0.88624883292E+00  0.88000000000E+00 0.  1.
        -11    1    4    4    0    0 -0.55463900049E-01 -0.11905004997E-01  0.68381096767E-02  0.57140127910E-01  0.51100000000E-03 0.  1.
         11    1    4    4    0    0 -0.61391205382E-01 -0.35094015401E-01  0.15352614975E-01  0.72363208350E-01  0.51100000000E-03 0. -1.
</event>
<event>
 8    1  0.9952977E+004  0.1043930E+01  0.7957747E-01            NaN
         13   -1    0    0    0    0  0.00000000000E+00  0.00000000000E+00  0.74505805969E-08  0.10566000000E+00  0.10566000000E+00 0.  1.
     999900   -1    0    0    0    0 -0.00000000000E+00 -0.00000000000E+00 -0.74505805969E-08  0.93827000000E+00  0.93827000000E+00 0.  1.
     999902    2    1    2    0    0  0.24061693548E-02  0.16725593990E-01 -0.16958844891E-01  0.10199897083E+01  0.10197087170E+01 0.  0.
     999903    2    3    3    0    0  0.49074243880E-01  0.10894049522E+00 -0.56009860283E-01  0.13308132580E+00  0.17240125206E-01 0.  0.
         14    1    1    2    0    0 -0.24061693548E-02 -0.16725593990E-01  0.16958844891E-01  0.23940291671E-01  0.00000000000E+00 0.  1.
     999901    1    3    3    0    0 -0.46668074525E-01 -0.92214901233E-01  0.39051015392E-01  0.88690838252E+00  0.88000000000E+00 0. -1.
        -11    1    4    4    0    0  0.36273867103E-01  0.74237991776E-01 -0.30191605827E-01  0.87970830625E-01  0.51100000000E-03 0. -1.
         11    1    4    4    0    0  0.12800376777E-01  0.34702503447E-01 -0.25818254456E-01  0.45110495179E-01  0.51100000000E-03 0.  1.
</event>
<event>
 7    1  0.1959352E+005  0.1043930E+01  0.7957747E-01            NaN
         13   -1    0    0    0    0  0.00000000000E+00  0.00000000000E+00  0.74505805969E-08  0.10566000000E+00  0.10566000000E+00 0.  1.
     999900   -1    0    0    0    0 -0.00000000000E+00 -0.00000000000E+00 -0.74505805969E-08  0.93827000000E+00  0.93827000000E+00 0. -1.
     999903    2    1    2    0    0 -0.49688066155E-01 -0.57458326762E-01  0.79433395403E-01  0.11162681792E+00  0.19506894682E-01 0.  0.
         14    1    1    2    0    0 -0.12140362896E-02 -0.38893003213E-01  0.12398290995E-01  0.40839407472E-01  0.00000000000E+00 0.  1.
     999901    1    1    2    0    0  0.50902102445E-01  0.96351329975E-01 -0.91831686398E-01  0.89146377461E+00  0.88000000000E+00 0. -1.
        -11    1    3    3    0    0 -0.19474876609E-01 -0.36126969810E-01  0.36177778658E-01  0.54713083959E-01  0.51100000000E-03 0.  1.
         11    1    3    3    0    0 -0.30213189545E-01 -0.21331356951E-01  0.43255616745E-01  0.56913733956E-01  0.51100000000E-03 0. -1.
</event>
<event>
 8    1  0.9952977E+004  0.1043930E+01  0.7957747E-01            NaN
         13   -1    0    0    0    0  0.00000000000E+00  0.00000000000E+00  0.74505805969E-08  0.10566000000E+00  0.10566000000E+00 0.  1.
     999900   -1    0    0    0    0 -0.00000000000E+00 -0.00000000000E+00 -0.74505805969E-08  0.93827000000E+00  0.93827000000E+00 0. -1.
     999902    2    1    2    0    0 -0.20838201665E-01  0.14616035246E-01 -0.65084710374E-02  0.10176579744E+01  0.10173187964E+01 0.  0.
     999903    2    3    3    0    0 -0.10352571475E+00  0.71432159135E-01 -0.33493198279E-01  0.13154654106E+00  0.19041301440E-01 0.  0.
         14    1    1    2    0    0  0.20838201665E-01 -0.14616035246E-01  0.65084710374E-02  0.26272025620E-01  0.00000000000E+00 0.  1.
     999901    1    3    3    0    0  0.82687513086E-01 -0.56816123889E-01  0.26984727242E-01  0.88611143332E+00  0.88000000000E+00 0.  1.
        -11    1    4    4    0    0 -0.66437934772E-01  0.53644408973E-01 -0.16164140784E-01  0.86909506724E-01  0.51100000000E-03 0.  1.
         11    1    4    4    0    0 -0.37087779980E-01  0.17787750162E-01 -0.17329057496E-01  0.44637034336E-01  0.51100000000E-03 0. -1.
</event>
<event>
 8    1  0.9952977E+004  0.1043930E+01  0.7957747E-01            NaN
         13   -1    0    0    0    0  0.00000000000E+00  0.00000000000E+00  0.74505805969E-08  0.10566000000E+00  0.10566000000E+00 0. -1.
     999900   -1    0    0    0    0 -0.00000000000E+00 -0.00000000000E+00 -0.74505805969E-08  0.93827000000E+00  0.93827000000E+00 0.  1.
     999902    2    1    2    0    0  0.59020543136E-02  0.23232501611E-01  0.54735394978E-02  0.10193425436E+01  0.10190459647E+01 0.  0.
     999903    2    3    3    0    0  0.10796784986E+00  0.51426887722E-01 -0.50228286409E-01  0.13124624061E+00  0.20022825313E-01 0.  0.
         14    1    1    2    0    0 -0.59020543136E-02 -0.23232501611E-01 -0.54735394978E-02  0.24587456372E-01  0.00000000000E+00 0. -1.
     999901    1    3    3    0    0 -0.10206579555E+00 -0.28194386111E-01  0.55701825907E-01  0.88809630302E+00  0.88000000000E+00 0. -1.
        -11    1    4    4    0    0  0.33839787448E-01  0.64662810873E-02 -0.16707125691E-01  0.38292730060E-01  0.51100000000E-03 0. -1.
         11    1    4    4    0    0  0.74128062414E-01  0.44960606634E-01 -0.33521160718E-01  0.92953510547E-01  0.51100000000E-03 0.  1.
</event>
<event>
 8    1  0.9952977E+004  0.1043930E+01  0.7957747E-01            NaN
         13   -1    0    0    0    0  0.00000000000E+00  0.00000000000E+00  0.74505805969E-08  0.10566000000E+00  0.10566000000E+00 0.  1.
     999900   -1    0    0    0    0 -0.00000000000E+00 -0.00000000000E+00 -0.74505805969E-08  0.93827000000E+00  0.93827000000E+00 0.  1.
     999902    2    1    2    0    0 -0.10658846963E-01 -0.49868272030E-02 -0.20695177577E-01  0.10201230716E+01  0.10198452389E+01 0.  0.
     999903    2    3    3    0    0  0.42180008045E-02 -0.12307978184E+00 -0.42601832295E-01  0.13183980145E+00  0.20009820189E-01 0.  0.
         14    1    1    2    0    0  0.10658846963E-01  0.49868272030E-02  0.20695177577E-01  0.23806928384E-01  0.00000000000E+00 0. -1.
     999901    1    3    3    0    0 -0.14876847768E-01  0.11809295463E+00  0.21906654718E-01  0.88828327016E+00  0.88000000000E+00 0.  1.
        -11    1    4    4    0    0 -0.49088222169E-02 -0.88505752321E-01 -0.34846293356E-01  0.95246469809E-01  0.51100000000E-03 0.  1.
         11    1    4    4    0    0  0.91268230214E-02 -0.34574029516E-01 -0.77555389390E-02  0.36593331643E-01  0.51100000000E-03 0. -1.
</event>
<event>
 8    1  0.9952977E+004  0.1043930E+01  0.7957747E-01            NaN
         13   -1    0    0    0    0  0.00000000000E+00  0.00000000000E+00  0.74505805969E-08  0.10566000000E+00  0.10566000000E+00 0. -1.
     999900   -1    0    0    0    0 -0.00000000000E+00 -0.00000000000E+00 -0.74505805969E-08  0.93827000000E+00  0.93827000000E+00 0. -1.
     999902    2    1    2    0    0 -0.17370399247E-01  0.35961249800E-02  0.15792180636E-01  0.10201801399E+01  0.10199036533E+01 0.  0.
     999903    2    3    3    0    0  0.47851671078E-01  0.65563684175E-01  0.10148550769E+00  0.13145226078E+00  0.19799229412E-01 0.  0.
         14    1    1    2    0    0  0.17370399247E-01 -0.35961249800E-02 -0.15792180636E-01  0.23749860087E-01  0.00000000000E+00 0.  1.
     999901    1    3    3    0    0 -0.65222070326E-01 -0.61967559195E-01 -0.85693327053E-01  0.88872787913E+00  0.88000000000E+00 0.  1.
        -11    1    4    4    0    0  0.35298693714E-01  0.52897276980E-01  0.65539322114E-01  0.91322415397E-01  0.51100000000E-03 0. -1.
         11    1    4    4    0    0  0.12552977364E-01  0.12666407195E-01  0.35946185575E-01  0.40129845382E-01  0.51100000000E-03 0.  1.
</event>
<event>
 8    1  0.9952977E+004  0.1043930E+01  0.7957747E-01            NaN
         13   -1    0    0    0    0  0.00000000000E+00  0.00000000000E+00  0.74505805969E-08  0.10566000000E+00  0.10566000000E+00 0.  1.
     999900   -1    0    0    0    0 -0.00000000000E+00 -0.00000000000E+00 -0.74505805969E-08  0.93827000000E+00  0.93827000000E+00 0.  1.
     999902    2    1    2    0    0  0.59809745789E-02  0.22688987072E-01  0.56343330141E-02  0.10197989433E+01  0.10195134020E+01 0.  0.
     999903    2    3    3    0    0  0.11597226989E+00  0.27935400559E-01  0.52221972461E-01  0.13171335163E+00  0.19781774479E-01 0.  0.
         14    1    1    2    0    0 -0.59809745789E-02 -0.22688987072E-01 -0.56343330141E-02  0.24131056748E-01  0.00000000000E+00 0. -1.
     999901    1    3    3    0    0 -0.10999129531E+00 -0.52464134871E-02 -0.46587639447E-01  0.88808559162E+00  0.88000000000E+00 0.  1.
        -11    1    4    4    0    0  0.45296243253E-01  0.21154601665E-02  0.24336675551E-01  0.51466102655E-01  0.51100000000E-03 0.  1.
         11    1    4    4    0    0  0.70676026637E-01  0.25819940393E-01  0.27885296910E-01  0.80247248974E-01  0.51100000000E-03 0. -1.
</event>
<event>
 8    1  0.9952977E+004  0.1043930E+01  0.7957747E-01            NaN
         13   -1    0    0    0    0  0.00000000000E+00  0.00000000000E+00  0.74505805969E-08  0.10566000000E+00  0.10566000000E+00 0.  1.
     999900   -1    0    0    0    0 -0.00000000000E+00 -0.00000000000E+00 -0.74505805969E-08  0.93827000000E+00  0.93827000000E+00 0. -1.
     999902    2    1    2    0    0  0.99306323361E-02 -0.82534008588E-02 -0.20220675567E-01  0.10199380888E+01  0.10196558699E+01 0.  0.
     999903    2    3    3    0    0 -0.17904993361E-01  0.12318766838E+00 -0.28894781953E-01  0.12969833630E+00  0.22157607880E-01 0.  0.
         14    1    1    2    0    0 -0.99306323361E-02  0.82534008588E-02  0.20220675567E-01  0.23991911235E-01  0.00000000000E+00 0.  1.
     999901    1    3    3    0    0  0.27835625697E-01 -0.13144106924E+00  0.86741063860E-02  0.89023975246E+00  0.88000000000E+00 0. -1.
        -11    1    4    4    0    0 -0.19776894272E-01  0.81989311785E-01 -0.12271851792E-01  0.85230465571E-01  0.51100000000E-03 0. -1.
         11    1    4    4    0    0  0.18719009107E-02  0.41198356598E-01 -0.16622930161E-01  0.44467870733E-01  0.51100000000E-03 0.  1.
</event>
<event>
 8    1  0.9952977E+004  0.1043930E+01  0.7957747E-01            NaN
         13   -1    0    0    0    0  0.00000000000E+00  0.00000000000E+00  0.74505805969E-08  0.10566000000E+00  0.10566000000E+00 0. -1.
     999900   -1    0    0    0    0 -0.00000000000E+00 -0.00000000000E+00 -0.74505805969E-08  0.93827000000E+00  0.93827000000E+00 0. -1.
     999902    2    1    2    0    0 -0.35565300685E-02  0.59414133368E-02  0.23458894839E-01  0.10194704611E+01  0.10191769973E+01 0.  0.
     999903    2    3    3    0    0  0.12884931467E-01 -0.11169176400E+00 -0.57634591490E-01  0.12779561023E+00  0.19206776207E-01 0.  0.
         14    1    1    2    0    0  0.35565300685E-02 -0.59414133368E-02 -0.23458894839E-01  0.24459538950E-01  0.00000000000E+00 0.  1.
     999901    1    3    3    0    0 -0.16441461536E-01  0.11763317734E+00  0.81093486329E-01  0.89167485082E+00  0.88000000000E+00 0. -1.
        -11    1    4    4    0    0  0.40977745399E-02 -0.84571118670E-01 -0.36016447774E-01  0.92013648448E-01  0.51100000000E-03 0.  1.
         11    1    4    4    0    0  0.87871569274E-02 -0.27120645330E-01 -0.21618143715E-01  0.35781961778E-01  0.51100000000E-03 0. -1.
</event>
<event>
 8    1  0.9952977E+004  0.1043930E+01  0.7957747E-01            NaN
         13   -1    0    0    0    0  0.00000000000E+00  0.00000000000E+00  0.74505805969E-08  0.10566000000E+00  0.10566000000E+00 0. -1.
     999900   -1    0    0    0    0 -0.00000000000E+00 -0.00000000000E+00 -0.74505805969E-08  0.93827000000E+00  0.93827000000E+00 0.  1.
     999902    2    1    2    0    0  0.22900785006E-01 -0.15669353117E-02 -0.53539172374E-02  0.10203595594E+01  0.10200872829E+01 0.  0.
     999903    2    3    3    0    0  0.17584115794E-01 -0.62941015028E-01 -0.11261104476E+00  0.13170938299E+00  0.19883200572E-01 0.  0.
         14    1    1    2    0    0 -0.22900785006E-01  0.15669353117E-02  0.53539172374E-02  0.23570440597E-01  0.00000000000E+00 0. -1.
     999901    1    3    3    0    0  0.53166692123E-02  0.61374079716E-01  0.10725712752E+00  0.88865017641E+00  0.88000000000E+00 0. -1.
        -11    1    4    4    0    0  0.82275720373E-02 -0.32816634262E-01 -0.77163549068E-01  0.84256150230E-01  0.51100000000E-03 0.  1.
         11    1    4    4    0    0  0.93565437564E-02 -0.30124380766E-01 -0.35447495692E-01  0.47453232761E-01  0.51100000000E-03 0. -1.
</event>
<event>
 8    1  0.9952977E+004  0.1043930E+01  0.7957747E-01            NaN
         13   -1    0    0    0    0  0.00000000000E+00  0.00000000000E+00  0.74505805969E-08  0.10566000000E+00  0.10566000000E+00 0.  1.
     999900   -1    0    0    0    0 -0.00000000000E+00 -0.00000000000E+00 -0.74505805969E-08  0.93827000000E+00  0.93827000000E+00 0.  1.
     999902    2    1    2    0    0  0.22457221831E-01 -0.74356753566E-02  0.31647788173E-02  0.10200630374E+01  0.10197837851E+01 0.  0.
     999903    2    3    3    0    0 -0.12172330369E+00  0.31882778219E-01  0.51994443840E-02  0.12746116386E+00  0.19652986066E-01 0.  0.
         14    1    1    2    0    0 -0.22457221831E-01  0.74356753566E-02 -0.31647788173E-02  0.23866962633E-01  0.00000000000E+00 0. -1.
     999901    1    3    3    0    0  0.14418052552E+00 -0.39318453576E-01 -0.20346655667E-02  0.89260187351E+00  0.88000000000E+00 0. -1.
        -11    1    4    4    0    0 -0.30120740325E-01  0.39485546818E-02  0.87793311429E-02  0.31625746760E-01  0.51100000000E-03 0.  1.
         11    1    4    4    0    0 -0.91602563366E-01  0.27934223537E-01 -0.35798867590E-02  0.95835417096E-01  0.51100000000E-03 0. -1.
</event>
<event>
 8    1  0.9952977E+004  0.1043930E+01  0.7957747E-01            NaN
         13   -1    0    0    0    0  0.00000000000E+00  0.00000000000E+00  0.74505805969E-08  0.10566000000E+00  0.10566000000E+00 0.  1.
     999900   -1    0    0    0    0 -0.00000000000E+00 -0.00000000000E+00 -0.74505805969E-08  0.93827000000E+00  0.93827000000E+00 0.  1.
     999902    2    1    2    0    0 -0.96769583158E-02  0.63663352641E-02 -0.20182894142E-01  0.10206593541E+01  0.10203940386E+01 0.  0.
     999903    2    3    3    0    0  0.34289329888E-02  0.77473879281E-01 -0.10653819087E+00  0.13348108308E+00  0.21280363609E-01 0.  0.
         14    1    1    2    0    0  0.96769583158E-02 -0.63663352641E-02  0.20182894142E-01  0.23270645949E-01  0.00000000000E+00 0.  1.
     999901    1    3    3    0    0 -0.13105891305E-01 -0.71107544017E-01  0.86355296728E-01  0.88717827097E+00  0.88000000000E+00 0. -1.
        -11    1    4    4    0    0  0.93028449615E-02  0.33041110616E-01 -0.58116923348E-01  0.67498857883E-01  0.51100000000E-03 0. -1.
         11    1    4    4    0    0 -0.58739119727E-02  0.44432768665E-01 -0.48421267522E-01  0.65982225201E-01  0.51100000000E-03 0.  1.
</event>
<event>
 8    1  0.9952977E+004  0.1043930E+01  0.7957747E-01            NaN
         13   -1    0    0    0    0  0.00000000000E+00  0.00000000000E+00  0.74505805969E-08  0.10566000000E+00  0.10566000000E+00 0. -1.
     999900   -1    0    0    0    0 -0.00000000000E+00 -0.00000000000E+00 -0.74505805969E-08  0.93827000000E+00  0.93827000000E+00 0.  1.
     999902    2    1    2    0    0  0.14535576408E-01  0.72827461385E-02  0.17395992369E-01  0.10201194577E+01  0.10198415397E+01 0.  0.
     999903    2    3    3    0    0 -0.26014487183E-01 -0.96697689476E-01  0.81720504118E-01  0.13074108973E+00  0.19692512728E-01 0.  0.
         14    1    1    2    0    0 -0.14535576408E-01 -0.72827461385E-02 -0.17395992369E-01  0.23810542273E-01  0.00000000000E+00 0.  1.
     999901    1    3    3    0    0  0.40550063590E-01  0.10398043561E+00 -0.64324511749E-01  0.88937836800E+00  0.88000000000E+00 0. -1.
        -11    1    4    4    0    0 -0.14430030965E-01 -0.21277543806E-01  0.19160570587E-01  0.32067869437E-01  0.51100000000E-03 0.  1.
         11    1    4    4    0    0 -0.11584456218E-01 -0.75420145670E-01  0.62559933531E-01  0.98673220294E-01  0.51100000000E-03 0. -1.
</event>
<event>
 8    1  0.9952977E+004  0.1043930E+01  0.7957747E-01            NaN
         13   -1    0    0    0    0  0.00000000000E+00  0.00000000000E+00  0.74505805969E-08  0.10566000000E+00  0.10566000000E+00 0.  1.
     999900   -1    0    0    0    0 -0.00000000000E+00 -0.00000000000E+00 -0.74505805969E-08  0.93827000000E+00  0.93827000000E+00 0. -1.
     999902    2    1    2    0    0 -0.19476847862E-01  0.12993838195E-01 -0.24343015343E-02  0.10203903896E+01  0.10201188332E+01 0.  0.
     999903    2    3    3    0    0  0.11499565939E+00  0.84465234168E-02  0.53761537427E-01  0.12839178781E+00  0.17285914327E-01 0.  0.
         14    1    1    2    0    0  0.19476847862E-01 -0.12993838195E-01  0.24343015343E-02  0.23539610396E-01  0.00000000000E+00 0. -1.
     999901    1    3    3    0    0 -0.13447250726E+00  0.45473147778E-02 -0.56195838962E-01  0.89199860179E+00  0.88000000000E+00 0.  1.
        -11    1    4    4    0    0  0.52119755255E-01 -0.21743302329E-02  0.17446062854E-01  0.55007479764E-01  0.51100000000E-03 0. -1.
         11    1    4    4    0    0  0.62875904138E-01  0.10620853650E-01  0.36315474573E-01  0.73384308050E-01  0.51100000000E-03 0.  1.
</event>
<event>
 7    1  0.1281533E+005  0.1043930E+01  0.7957747E-01            NaN
         13   -1    0    0    0    0  0.00000000000E+00  0.00000000000E+00  0.74505805969E-08  0.10566000000E+00  0.10566000000E+00 0.  1.
     999900   -1    0    0    0    0 -0.00000000000E+00 -0.00000000000E+00 -0.74505805969E-08  0.93827000000E+00  0.93827000000E+00 0.  1.
     999903    2    1    2    0    0  0.38226903064E-01  0.95408868295E-01  0.23089656459E-01  0.10719683744E+00  0.19846446917E-01 0.  0.
         14    1    1    2    0    0 -0.39076533643E-01 -0.31022672952E-01 -0.21626836868E-01  0.54379240446E-01  0.00000000000E+00 0. -1.
     999901    1    1    2    0    0  0.84963057939E-03 -0.64386195343E-01 -0.14628195912E-02  0.88235392211E+00  0.88000000000E+00 0.  1.
        -11    1    3    3    0    0  0.19306439575E-01  0.71968599178E-01  0.15135097369E-01  0.76036505510E-01  0.51100000000E-03 0. -1.
         11    1    3    3    0    0  0.18920463488E-01  0.23440269117E-01  0.79545590895E-02  0.31160331933E-01  0.51100000000E-03 0.  1.
</event>
<event>
 8    1  0.9952977E+004  0.1043930E+01  0.7957747E-01            NaN
         13   -1    0    0    0    0  0.00000000000E+00  0.00000000000E+00  0.74505805969E-08  0.10566000000E+00  0.10566000000E+00 0. -1.
     999900   -1    0    0    0    0 -0.00000000000E+00 -0.00000000000E+00 -0.74505805969E-08  0.93827000000E+00  0.93827000000E+00 0. -1.
     999902    2    1    2    0    0 -0.15825215738E-01  0.30680747196E-02  0.16834437638E-01  0.10206223011E+01  0.10203561304E+01 0.  0.
     999903    2    3    3    0    0  0.50618859252E-01  0.68959045911E-01  0.98389170585E-01  0.13191109402E+00  0.20062126337E-01 0.  0.
         14    1    1    2    0    0  0.15825215738E-01 -0.30680747196E-02 -0.16834437638E-01  0.23307698861E-01  0.00000000000E+00 0.  1.
     999901    1    3    3    0    0 -0.66444074989E-01 -0.65890971192E-01 -0.81554732947E-01  0.88871120712E+00  0.88000000000E+00 0. -1.
        -11    1    4    4    0    0  0.14939504645E-01  0.35822143213E-01  0.49544408381E-01  0.62939051997E-01  0.51100000000E-03 0.  1.
         11    1    4    4    0    0  0.35679354607E-01  0.33136902698E-01  0.48844762204E-01  0.68972042027E-01  0.51100000000E-03 0. -1.
</event>
<event>
 8    1  0.9952977E+004  0.1043930E+01  0.7957747E-01            NaN
         13   -1    0    0    0    0  0.00000000000E+00  0.00000000000E+00  0.74505805969E-08  0.10566000000E+00  0.10566000000E+00 0. -1.
     999900   -1    0    0    0    0 -0.00000000000E+00 -0.00000000000E+00 -0.74505805969E-08  0.93827000000E+00  0.93827000000E+00 0. -1.
     999902    2    1    2    0    0  0.21577819627E-01 -0.51271064144E-02  0.66909388673E-02  0.10207641160E+01  0.10205012113E+01 0.  0.
     999903    2    3    3    0    0  0.23597403718E-01 -0.12458307368E+00 -0.30462644581E-01  0.13191418735E+00  0.19889705888E-01 0.  0.
         14    1    1    2    0    0 -0.21577819627E-01  0.51271064144E-02 -0.66909388673E-02  0.23165884031E-01  0.00000000000E+00 0. -1.
     999901    1    3    3    0    0 -0.20195840908E-02  0.11945596727E+00  0.37153583448E-01  0.88884992861E+00  0.88000000000E+00 0.  1.
        -11    1    4    4    0    0  0.29599677577E-02 -0.19549370119E-01  0.24391035151E-02  0.19928613302E-01  0.51100000000E-03 0.  1.
         11    1    4    4    0    0  0.20637435960E-01 -0.10503370356E+00 -0.32901748096E-01  0.11198557405E+00  0.51100000000E-03 0. -1.
</event>
<event>
 8    1  0.9952977E+004  0.1043930E+01  0.7957747E-01            NaN
         13   -1    0    0    0    0  0.00000000000E+00  0.00000000000E+00  0.74505805969E-08  0.10566000000E+00  0.10566000000E+00 0.  1.
     999900   -1    0    0    0    0 -0.00000000000E+00 -0.00000000000E+00 -0.74505805969E-08  0.93827000000E+00  0.93827000000E+00 0.  1.
     999902    2    1    2    0    0 -0.13130336245E-01 -0.17808932002E-01 -0.63814038995E-02  0.10209020582E+01  0.10206423106E+01 0.  0.
     999903    2    3    3    0    0  0.61364571403E-01  0.11098119938E+00 -0.92226354801E-03  0.12839648877E+00  0.20059175400E-01 0.  0.
         14    1    1    2    0    0  0.13130336245E-01  0.17808932002E-01  0.63814038995E-02  0.23027941825E-01  0.00000000000E+00 0.  1.
     999901    1    3    3    0    0 -0.74494907649E-01 -0.12879013139E+00 -0.54591403515E-02  0.89250556941E+00  0.88000000000E+00 0. -1.
        -11    1    4    4    0    0  0.98747674598E-02  0.36332234325E-01  0.14179216396E-02  0.37680418074E-01  0.51100000000E-03 0. -1.
         11    1    4    4    0    0  0.51489803943E-01  0.74648965059E-01 -0.23401851876E-02  0.90716070694E-01  0.51100000000E-03 0.  1.
</event>
<event>
 8    1  0.9952977E+004  0.1043930E+01  0.7957747E-01            NaN
         13   -1    0    0    0    0  0.00000000000E+00  0.00000000000E+00  0.74505805969E-08  0.10566000000E+00  0.10566000000E+00 0.  1.
     999900   -1    0    0    0    0 -0.00000000000E+00 -0.00000000000E+00 -0.74505805969E-08  0.93827000000E+00  0.93827000000E+00 0. -1.
     999902    2    1    2    0    0  0.15182938789E-01 -0.67612720967E-03  0.17666638877E-01  0.10206257320E+01  0.10203596405E+01 0.  0.
     999903    2    3    3    0    0  0.10932010014E+00 -0.22857689206E-01  0.70871223467E-01  0.13372970953E+00  0.19686204402E-01 0.  0.
         14    1    1    2    0    0 -0.15182938789E-01  0.67612720967E-03 -0.17666638877E-01  0.23304268010E-01  0.00000000000E+00 0. -1.
     999901    1    3    3    0    0 -0.94137161351E-01  0.22181561997E-01 -0.53204584591E-01  0.88689602246E+00  0.88000000000E+00 0. -1.
        -11    1    4    4    0    0  0.19223045692E-02 -0.10057810830E-02  0.59298435495E-02  0.63349045743E-02  0.51100000000E-03 0.  1.
         11    1    4    4    0    0  0.10739779557E+00 -0.21851908123E-01  0.64941379918E-01  0.12739480495E+00  0.51100000000E-03 0. -1.
</event>
<event>
 8    1  0.9952977E+004  0.1043930E+01  0.7957747E-01            NaN
         13   -1    0    0    0    0  0.00000000000E+00  0.00000000000E+00  0.74505805969E-08  0.10566000000E+00  0.10566000000E+00 0.  1.
     999900   -1    0    0    0    0 -0.00000000000E+00 -0.00000000000E+00 -0.74505805969E-08  0.93827000000E+00  0.93827000000E+00 0.  1.
     999902    2    1    2    0    0  0.47447816173E-02  0.19532606804E-01  0.13941039551E-01  0.10194680241E+01  0.10191745012E+01 0.  0.
     999903    2    3    3    0    0  0.37262770313E-02 -0.48215766149E-01 -0.11630680016E+00  0.12730470994E+00  0.18454597334E-01 0.  0.
         14    1    1    2    0    0 -0.47447816173E-02 -0.19532606804E-01 -0.13941039551E-01  0.24461975900E-01  0.00000000000E+00 0. -1.
     999901    1    3    3    0    0  0.10185045859E-02  0.67748372953E-01  0.13024783971E+00  0.89216331416E+00  0.88000000000E+00 0. -1.
        -11    1    4    4    0    0 -0.54693132310E-02 -0.23972795196E-01 -0.70493984465E-01  0.74661042476E-01  0.51100000000E-03 0.  1.
         11    1    4    4    0    0  0.91955902623E-02 -0.24242970952E-01 -0.45812815695E-01  0.52643667461E-01  0.51100000000E-03 0. -1.
</event>
<event>
 8    1  0.9952977E+004  0.1043930E+01  0.7957747E-01            NaN
         13   -1    0    0    0    0  0.00000000000E+00  0.00000000000E+00  0.74505805969E-08  0.10566000000E+00  0.10566000000E+00 0.  1.
     999900   -1    0    0    0    0 -0.00000000000E+00 -0.00000000000E+00 -0.74505805969E-08  0.93827000000E+00  0.93827000000E+00 0. -1.
     999902    2    1    2    0    0 -0.48184711291E-02  0.22815218255E-01 -0.26817431569E-02  0.10204578123E+01  0.10201878274E+01 0.  0.
     999903    2    3    3    0    0  0.94318887034E-02 -0.12314294804E-01  0.12751822717E+00  0.13007071240E+00  0.20417874088E-01 0.  0.
         14    1    1    2    0    0  0.48184711291E-02 -0.22815218255E-01  0.26817431569E-02  0.23472187678E-01  0.00000000000E+00 0. -1.
     999901    1    3    3    0    0 -0.14250359832E-01  0.35129513059E-01 -0.13019997032E+00  0.89038709993E+00  0.88000000000E+00 0. -1.
        -11    1    4    4    0    0 -0.23547487208E-02 -0.12545524063E-01  0.84632786731E-01  0.85591499148E-01  0.51100000000E-03 0. -1.
         11    1    4    4    0    0  0.11786637424E-01  0.23122925849E-03  0.42885440436E-01  0.44479213248E-01  0.51100000000E-03 0.  1.
</event>
<event>
 8    1  0.9952977E+004  0.1043930E+01  0.7957747E-01            NaN
         13   -1    0    0    0    0  0.00000000000E+00  0.00000000000E+00  0.74505805969E-08  0.10566000000E+00  0.10566000000E+00 0. -1.
     999900   -1    0    0    0    0 -0.00000000000E+00 -0.00000000000E+00 -0.74505805969E-08  0.93827000000E+00  0.93827000000E+00 0. -1.
     999902    2    1    2    0    0 -0.19816638675E-01 -0.12079201145E-01 -0.42012589572E-02  0.10203449020E+01  0.10200722829E+01 0.  0.
     999903    2    3    3    0    0  0.85048640947E-02 -0.46047681531E-01  0.12008260545E+00  0.13051208397E+00  0.20514634823E-01 0.  0.
         14    1    1    2    0    0  0.19816638675E-01  0.12079201145E-01  0.42012589572E-02  0.23585097954E-01  0.00000000000E+00 0.  1.
     999901    1    3    3    0    0 -0.28321502770E-01  0.33968480385E-01 -0.12428386441E+00  0.88983281808E+00  0.88000000000E+00 0. -1.
        -11    1    4    4    0    0  0.32227580295E-02 -0.34529533264E-01  0.61815386586E-01  0.70880730643E-01  0.51100000000E-03 0.  1.
         11    1    4    4    0    0  0.52821060653E-02 -0.11518148267E-01  0.58267218865E-01  0.59631353323E-01  0.51100000000E-03 0. -1.
</event>
<event>
 8    1  0.9952977E+004  0.1043930E+01  0.7957747E-01            NaN
         13   -1    0    0    0    0  0.00000000000E+00  0.00000000000E+00  0.74505805969E-08  0.10566000000E+00  0.10566000000E+00 0. -1.
     999900   -1    0    0    0    0 -0.00000000000E+00 -0.00000000000E+00 -0.74505805969E-08  0.93827000000E+00  0.93827000000E+00 0.  1.
     999902    2    1    2    0    0 -0.85206512600E-02  0.17363800357E-01  0.15514844523E-01  0.10191345677E+01  0.10188328880E+01 0.  0.
     999903    2    3    3    0    0 -0.35951047272E-01  0.85356815804E-01 -0.88981755058E-01  0.12992423485E+00  0.19603322807E-01 0.  0.
         14    1    1    2    0    0  0.85206512600E-02 -0.17363800357E-01 -0.15514844523E-01  0.24795432267E-01  0.00000000000E+00 0.  1.
     999901    1    3    3    0    0  0.27430396012E-01 -0.67993015447E-01  0.10449659958E+00  0.88921033288E+00  0.88000000000E+00 0. -1.
        -11    1    4    4    0    0 -0.19845314712E-01  0.27875302020E-01 -0.40481652188E-01  0.53008435777E-01  0.51100000000E-03 0. -1.
         11    1    4    4    0    0 -0.16105732561E-01  0.57481513784E-01 -0.48500102870E-01  0.76915799077E-01  0.51100000000E-03 0.  1.
</event>
<event>
 8    1  0.9952977E+004  0.1043930E+01  0.7957747E-01            NaN
         13   -1    0    0    0    0  0.00000000000E+00  0.00000000000E+00  0.74505805969E-08  0.10566000000E+00  0.10566000000E+00 0.  1.
     999900   -1    0    0    0    0 -0.00000000000E+00 -0.00000000000E+00 -0.74505805969E-08  0.93827000000E+00  0.93827000000E+00 0. -1.
     999902    2    1    2    0    0 -0.45317650901E-02  0.93017409306E-02  0.23770553121E-01  0.10180051379E+01  0.10176749787E+01 0.  0.
     999903    2    3    3    0    0 -0.11272669242E+00 -0.55641825211E-01  0.20734082499E-01  0.12899837233E+00  0.20183111456E-01 0.  0.
         14    1    1    2    0    0  0.45317650901E-02 -0.93017409306E-02 -0.23770553121E-01  0.25924862099E-01  0.00000000000E+00 0. -1.
     999901    1    3    3    0    0  0.10819492733E+00  0.64943566142E-01  0.30364706225E-02  0.88900676557E+00  0.88000000000E+00 0. -1.
        -11    1    4    4    0    0 -0.26685452661E-01 -0.54705191054E-02  0.90734064872E-02  0.28716333145E-01  0.51100000000E-03 0.  1.
         11    1    4    4    0    0 -0.86041239763E-01 -0.50171306106E-01  0.11660676012E-01  0.10028203918E+00  0.51100000000E-03 0. -1.
</event>
<event>
 8    1  0.9952977E+004  0.1043930E+01  0.7957747E-01            NaN
         13   -1    0    0    0    0  0.00000000000E+00  0.00000000000E+00  0.74505805969E-08  0.10566000000E+00  0.10566000000E+00 0. -1.
     999900   -1    0    0    0    0 -0.00000000000E+00 -0.00000000000E+00 -0.74505805969E-08  0.93827000000E+00  0.93827000000E+00 0.  1.
     999902    2    1    2    0    0 -0.14439436901E-02  0.18958496648E-01  0.12965077164E-01  0.10209168995E+01  0.10206574905E+01 0.  0.
     999903    2    3    3    0    0 -0.46461259235E-01 -0.68350358381E-01 -0.96610097655E-01  0.12869713185E+00  0.19975501890E-01 0.  0.
         14    1    1    2    0    0  0.14439436901E-02 -0.18958496648E-01 -0.12965077164E-01  0.23013100495E-01  0.00000000000E+00 0.  1.
     999901    1    3    3    0    0  0.45017315545E-01  0.87308855029E-01  0.10957517482E+00  0.89221976766E+00  0.88000000000E+00 0. -1.
        -11    1    4    4    0    0 -0.16428327860E-01 -0.41537503421E-01 -0.53782031122E-01  0.69914391504E-01  0.51100000000E-03 0. -1.
         11    1    4    4    0    0 -0.30032931375E-01 -0.26812854959E-01 -0.42828066533E-01  0.58782740341E-01  0.51100000000E-03 0.  1.
</event>
<event>
 8    1  0.9952977E+004  0.1043930E+01  0.7957747E-01            NaN
         13   -1    0    0    0    0  0.00000000000E+00  0.00000000000E+00  0.74505805969E-08  0.10566000000E+00  0.10566000000E+00 0. -1.
     999900   -1    0    0    0    0 -0.00000000000E+00 -0.00000000000E+00 -0.74505805969E-08  0.93827000000E+00  0.93827000000E+00 0. -1.
     999902    2    1    2    0    0  0.22618461529E-01  0.45599080626E-02 -0.38685960457E-02  0.10205344107E+01  0.10202662054E+01 0.  0.
     999903    2    3    3    0    0  0.56517511810E-01 -0.62600452432E-01 -0.99765193714E-01  0.13213370320E+00  0.19828662574E-01 0.  0.
         14    1    1    2    0    0 -0.22618461529E-01 -0.45599080626E-02  0.38685960457E-02  0.23395589303E-01  0.00000000000E+00 0. -1.
     999901    1    3    3    0    0 -0.33899050282E-01  0.67160360494E-01  0.95896597668E-01  0.88840070749E+00  0.88000000000E+00 0. -1.
        -11    1    4    4    0    0  0.12587633615E-01 -0.14483276240E-01 -0.11337687573E-01  0.22293902556E-01  0.51100000000E-03 0. -1.
         11    1    4    4    0    0  0.43929878196E-01 -0.48117176192E-01 -0.88427506141E-01  0.10983980065E+00  0.51100000000E-03 0.  1.
</event>
<event>
 8    1  0.1039896E+005  0.1043930E+01  0.7957747E-01            NaN
         13   -1    0    0    0    0  0.00000000000E+00  0.00000000000E+00  0.74505805969E-08  0.10566000000E+00  0.10566000000E+00 0.  1.
     999900   -1    0    0    0    0 -0.00000000000E+00 -0.00000000000E+00 -0.74505805969E-08  0.93827000000E+00  0.93827000000E+00 0.  1.
     999902    2    1    2    0    0  0.10870876970E-01 -0.21105675199E-01 -0.36400494775E-02  0.10199117683E+01  0.10196289226E+01 0.  0.
     999903    2    3    3    0    0 -0.59558725908E-01  0.75351127273E-01  0.81464839610E-01  0.12777551986E+00  0.21564535023E-01 0.  0.
         14    1    1    2    0    0 -0.10870876970E-01  0.21105675199E-01  0.36400494775E-02  0.24018231657E-01  0.00000000000E+00 0.  1.
     999901    1    3    3    0    0  0.70429602878E-01 -0.96456802472E-01 -0.85104889087E-01  0.89213624848E+00  0.88000000000E+00 0.  1.
        -11    1    4    4    0    0 -0.24140220487E-01  0.47729170306E-01  0.45852592364E-01  0.70452432824E-01  0.51100000000E-03 0.  1.
         11    1    4    4    0    0 -0.35418505421E-01  0.27621956967E-01  0.35612247245E-01  0.57323087040E-01  0.51100000000E-03 0. -1.
</event>
<event>
 8    1  0.9952977E+004  0.1043930E+01  0.7957747E-01            NaN
         13   -1    0    0    0    0  0.00000000000E+00  0.00000000000E+00  0.74505805969E-08  0.10566000000E+00  0.10566000000E+00 0.  1.
     999900   -1    0    0    0    0 -0.00000000000E+00 -0.00000000000E+00 -0.74505805969E-08  0.93827000000E+00  0.93827000000E+00 0.  1.
     999902    2    1    2    0    0  0.19817694339E-01  0.25517585695E-02 -0.12290793603E-01  0.10204711831E+01  0.10202015093E+01 0.  0.
     999903    2    3    3    0    0 -0.26836366210E-01  0.76901508753E-01 -0.10116440544E+00  0.13165005064E+00  0.21528267548E-01 0.  0.
         14    1    1    2    0    0 -0.19817694339E-01 -0.25517585695E-02  0.12290793603E-01  0.23458816853E-01  0.00000000000E+00 0.  1.
     999901    1    3    3    0    0  0.46654060549E-01 -0.74349750183E-01  0.88873611841E-01  0.88882113251E+00  0.88000000000E+00 0. -1.
        -11    1    4    4    0    0 -0.93968754827E-02  0.24595564854E-01 -0.18116495861E-01  0.31964224105E-01  0.51100000000E-03 0.  1.
         11    1    4    4    0    0 -0.17439490727E-01  0.52305943898E-01 -0.83047909584E-01  0.99685826531E-01  0.51100000000E-03 0. -1.
</event>
<event>
 8    1  0.9952977E+004  0.1043930E+01  0.7957747E-01            NaN
         13   -1    0    0    0    0  0.00000000000E+00  0.00000000000E+00  0.74505805969E-08  0.10566000000E+00  0.10566000000E+00 0. -1.
     999900   -1    0    0    0    0 -0.00000000000E+00 -0.00000000000E+00 -0.74505805969E-08  0.93827000000E+00  0.93827000000E+00 0. -1.
     999902    2    1    2    0    0 -0.20857195281E-02  0.22465007052E-01 -0.82505315754E-03  0.10213532978E+01  0.10211037418E+01 0.  0.
     999903    2    3    3    0    0 -0.96225707356E-01  0.50740101968E-02  0.87640598645E-01  0.13175172656E+00  0.19811879867E-01 0.  0.
         14    1    1    2    0    0  0.20857195281E-02 -0.22465007052E-01  0.82505315754E-03  0.22576702161E-01  0.00000000000E+00 0. -1.
     999901    1    3    3    0    0  0.94139987828E-01  0.17390996855E-01 -0.88465651802E-01  0.88960157128E+00  0.88000000000E+00 0. -1.
        -11    1    4    4    0    0 -0.26245998355E-01  0.73356999750E-02  0.33833675281E-01  0.43447020931E-01  0.51100000000E-03 0. -1.
         11    1    4    4    0    0 -0.69979709001E-01 -0.22616897782E-02  0.53806923364E-01  0.88304705625E-01  0.51100000000E-03 0.  1.
</event>
<event>
 8    1  0.9952977E+004  0.1043930E+01  0.7957747E-01            NaN
         13   -1    0    0    0    0  0.00000000000E+00  0.00000000000E+00  0.74505805969E-08  0.10566000000E+00  0.10566000000E+00 0.  1.
     999900   -1    0    0    0    0 -0.00000000000E+00 -0.00000000000E+00 -0.74505805969E-08  0.93827000000E+00  0.93827000000E+00 0.  1.
     999902    2    1    2    0    0  0.16916398889E-01  0.14681103549E-01 -0.86363814287E-02  0.10199240333E+01  0.10196414798E+01 0.  0.
     999903    2    3    3    0    0  0.34790350165E-01 -0.93891617145E-01 -0.80622914716E-01  0.13015463914E+00  0.20351203364E-01 0.  0.
         14    1    1    2    0    0 -0.16916398889E-01 -0.14681103549E-01  0.86363814287E-02  0.24005966695E-01  0.00000000000E+00 0.  1.
     999901    1    3    3    0    0 -0.17873951276E-01  0.10857272069E+00  0.71986533288E-01  0.88976939416E+00  0.88000000000E+00 0.  1.
        -11    1    4    4    0    0  0.21338358200E-01 -0.65644604756E-01 -0.43445418167E-01  0.81561664678E-01  0.51100000000E-03 0. -1.
         11    1    4    4    0    0  0.13451991965E-01 -0.28247012389E-01 -0.37177496549E-01  0.48592974465E-01  0.51100000000E-03 0.  1.
</event>
<event>
 8    1  0.9952977E+004  0.1043930E+01  0.7957747E-01            NaN
         13   -1    0    0    0    0  0.00000000000E+00  0.00000000000E+00  0.74505805969E-08  0.10566000000E+00  0.10566000000E+00 0.  1.
     999900   -1    0    0    0    0 -0.00000000000E+00 -0.00000000000E+00 -0.74505805969E-08  0.93827000000E+00  0.93827000000E+00 0.  1.
     999902    2    1    2    0    0  0.45096526197E-02 -0.52857180246E-02  0.19333126180E-01  0.10233862528E+01  0.10231800315E+01 0.  0.
     999903    2    3    3    0    0  0.22717275307E-02 -0.87434989398E-02  0.13454288005E+00  0.13586709697E+00  0.16627445565E-01 0.  0.
         14    1    1    2    0    0 -0.45096526197E-02  0.52857180246E-02 -0.19333126180E-01  0.20543747216E-01  0.00000000000E+00 0. -1.
     999901    1    3    3    0    0  0.22379250890E-02  0.34577809152E-02 -0.11520975387E+00  0.88751915582E+00  0.88000000000E+00 0.  1.
        -11    1    4    4    0    0 -0.44916623768E-02 -0.66745333892E-02  0.29394268762E-01  0.30479642122E-01  0.51100000000E-03 0.  1.
         11    1    4    4    0    0  0.67633899075E-02 -0.20689655507E-02  0.10514861129E+00  0.10538745484E+00  0.51100000000E-03 0. -1.
</event>
<event>
 8    1  0.9952977E+004  0.1043930E+01  0.7957747E-01            NaN
         13   -1    0    0    0    0  0.00000000000E+00  0.00000000000E+00  0.74505805969E-08  0.10566000000E+00  0.10566000000E+00 0.  1.
     999900   -1    0    0    0    0 -0.00000000000E+00 -0.00000000000E+00 -0.74505805969E-08  0.93827000000E+00  0.93827000000E+00 0. -1.
     999902    2    1    2    0    0  0.19250756342E-01 -0.16349707968E-02 -0.12914840814E-01  0.10206908550E+01  0.10204262656E+01 0.  0.
     999903    2    3    3    0    0 -0.95130575963E-01  0.84206093544E-01 -0.62364415618E-02  0.12912123988E+00  0.22201547503E-01 0.  0.
         14    1    1    2    0    0 -0.19250756342E-01  0.16349707968E-02  0.12914840814E-01  0.23239145047E-01  0.00000000000E+00 0.  1.
     999901    1    3    3    0    0  0.11438133231E+00 -0.85841064341E-01 -0.66783992518E-02  0.89156961507E+00  0.88000000000E+00 0.  1.
        -11    1    4    4    0    0 -0.66923764265E-01  0.53899358693E-01  0.54336263399E-02  0.86102941339E-01  0.51100000000E-03 0.  1.
         11    1    4    4    0    0 -0.28206811698E-01  0.30306734851E-01 -0.11670067902E-01  0.43018298540E-01  0.51100000000E-03 0. -1.
</event>
<event>
 8    1  0.9952977E+004  0.1043930E+01  0.7957747E-01            NaN
         13   -1    0    0    0    0  0.00000000000E+00  0.00000000000E+00  0.74505805969E-08  0.10566000000E+00  0.10566000000E+00 0. -1.
     999900   -1    0    0    0    0 -0.00000000000E+00 -0.00000000000E+00 -0.74505805969E-08  0.93827000000E+00  0.93827000000E+00 0. -1.
     999902    2    1    2    0    0  0.99990153615E-02 -0.14717716934E-01  0.15545862117E-01  0.10203023609E+01  0.10200287458E+01 0.  0.
     999903    2    3    3    0    0 -0.56011613045E-01 -0.11714141420E+00 -0.42068680510E-02  0.13168647811E+00  0.21545743460E-01 0.  0.
         14    1    1    2    0    0 -0.99990153615E-02  0.14717716934E-01 -0.15545862117E-01  0.23627639089E-01  0.00000000000E+00 0.  1.
     999901    1    3    3    0    0  0.66010628407E-01  0.10242369726E+00  0.19752730168E-01  0.88861588280E+00  0.88000000000E+00 0.  1.
        -11    1    4    4    0    0 -0.25086935233E-01 -0.47607070004E-01 -0.12152751533E-01  0.55170081789E-01  0.51100000000E-03 0. -1.
         11    1    4    4    0    0 -0.30924677812E-01 -0.69534344193E-01  0.79458834817E-02  0.76516396318E-01  0.51100000000E-03 0.  1.
</event>
<event>
 8    1  0.9952977E+004  0.1043930E+01  0.7957747E-01            NaN
         13   -1    0    0    0    0  0.00000000000E+00  0.00000000000E+00  0.74505805969E-08  0.10566000000E+00  0.10566000000E+00 0.  1.
     999900   -1    0    0    0    0 -0.00000000000E+00 -0.00000000000E+00 -0.74505805969E-08  0.93827000000E+00  0.93827000000E+00 0.  1.
     999902    2    1    2    0    0 -0.22769586774E-01 -0.50265018765E-02 -0.59015485622E-02  0.10198769736E+01  0.10195932980E+01 0.  0.
     999903    2    3    3    0    0 -0.89158692885E-01 -0.25352650929E-02 -0.96159338446E-01  0.13276920772E+00  0.20623871179E-01 0.  0.
         14    1    1    2    0    0  0.22769586774E-01  0.50265018765E-02  0.59015485622E-02  0.24053026388E-01  0.00000000000E+00 0. -1.
     999901    1    3    3    0    0  0.66389106111E-01 -0.24912367836E-02  0.90257789884E-01  0.88710776589E+00  0.88000000000E+00 0.  1.
        -11    1    4    4    0    0 -0.58507163737E-01  0.78382447953E-02 -0.58397203779E-01  0.83036262080E-01  0.51100000000E-03 0. -1.
         11    1    4    4    0    0 -0.30651529148E-01 -0.10373509888E-01 -0.37762134667E-01  0.49732945641E-01  0.51100000000E-03 0.  1.
</event>
<event>
 8    1  0.9952977E+004  0.1043930E+01  0.7957747E-01            NaN
         13   -1    0    0    0    0  0.00000000000E+00  0.00000000000E+00  0.74505805969E-08  0.10566000000E+00  0.10566000000E+00 0.  1.
     999900   -1    0    0    0    0 -0.00000000000E+00 -0.00000000000E+00 -0.74505805969E-08  0.93827000000E+00  0.93827000000E+00 0. -1.
     999902    2    1    2    0    0  0.26514505479E-02 -0.16194337976E-01 -0.16064825445E-01  0.10209655625E+01  0.10207072619E+01 0.  0.
     999903    2    3    3    0    0  0.10373800367E+00 -0.78120199606E-01 -0.21966935058E-01  0.13299701664E+00  0.18474880449E-01 0.  0.
         14    1    1    2    0    0 -0.26514505479E-02  0.16194337976E-01  0.16064825445E-01  0.22964437486E-01  0.00000000000E+00 0. -1.
     999901    1    3    3    0    0 -0.10108655312E+00  0.61925861630E-01  0.59021096139E-02  0.88796854587E+00  0.88000000000E+00 0. -1.
        -11    1    4    4    0    0  0.87891371631E-01 -0.60933507061E-01 -0.12149148834E-01  0.10763665002E+00  0.51100000000E-03 0. -1.
         11    1    4    4    0    0  0.15846632039E-01 -0.17186692545E-01 -0.98177862241E-02  0.25360366617E-01  0.51100000000E-03 0.  1.
</event>
<event>
 8    1  0.9952977E+004  0.1043930E+01  0.7957747E-01            NaN
         13   -1    0    0    0    0  0.00000000000E+00  0.00000000000E+00  0.74505805969E-08  0.10566000000E+00  0.10566000000E+00 0.  1.
     999900   -1    0    0    0    0 -0.00000000000E+00 -0.00000000000E+00 -0.74505805969E-08  0.93827000000E+00  0.93827000000E+00 0.  1.
     999902    2    1    2    0    0  0.20245463150E-01  0.77848106554E-02  0.10555862434E-01  0.10198072247E+01  0.10195218817E+01 0.  0.
     999903    2    3    3    0    0 -0.81162743483E-01  0.23953514050E-01 -0.93645141024E-01  0.12772936912E+00  0.19601467641E-01 0.  0.
         14    1    1    2    0    0 -0.20245463150E-01 -0.77848106554E-02 -0.10555862434E-01  0.24122775272E-01  0.00000000000E+00 0. -1.
     999901    1    3    3    0    0  0.10140820663E+00 -0.16168703395E-01  0.10420100346E+00  0.89207785561E+00  0.88000000000E+00 0. -1.
        -11    1    4    4    0    0 -0.46424867075E-01  0.13171944357E-01 -0.67300651172E-01  0.82815500784E-01  0.51100000000E-03 0.  1.
         11    1    4    4    0    0 -0.34737876409E-01  0.10781569693E-01 -0.26344489852E-01  0.44913868337E-01  0.51100000000E-03 0. -1.
</event>
<event>
 8    1  0.9952977E+004  0.1043930E+01  0.7957747E-01            NaN
         13   -1    0    0    0    0  0.00000000000E+00  0.00000000000E+00  0.74505805969E-08  0.10566000000E+00  0.10566000000E+00 0. -1.
     999900   -1    0    0    0    0 -0.00000000000E+00 -0.00000000000E+00 -0.74505805969E-08  0.93827000000E+00  0.93827000000E+00 0. -1.
     999902    2    1    2    0    0 -0.14804477936E-02 -0.42624529498E-02 -0.22847141601E-01  0.10206415456E+01  0.10203758192E+01 0.  0.
     999903    2    3    3    0    0  0.49823131474E-01 -0.83765238472E-01  0.82569381260E-01  0.12931366344E+00  0.20133584500E-01 0.  0.
         14    1    1    2    0    0  0.14804477936E-02  0.42624529498E-02  0.22847141601E-01  0.23288454439E-01  0.00000000000E+00 0. -1.
     999901    1    3    3    0    0 -0.51303579268E-01  0.79502785522E-01 -0.10541652286E+00  0.89132788212E+00  0.88000000000E+00 0. -1.
        -11    1    4    4    0    0  0.49405334939E-01 -0.69779169098E-01  0.71809727587E-01  0.11165535212E+00  0.51100000000E-03 0. -1.
         11    1    4    4    0    0  0.41779653491E-03 -0.13986069373E-01  0.10759653674E-01  0.17658311319E-01  0.51100000000E-03 0.  1.
</event>
<event>
 8    1  0.9952977E+004  0.1043930E+01  0.7957747E-01            NaN
         13   -1    0    0    0    0  0.00000000000E+00  0.00000000000E+00  0.74505805969E-08  0.10566000000E+00  0.10566000000E+00 0. -1.
     999900   -1    0    0    0    0 -0.00000000000E+00 -0.00000000000E+00 -0.74505805969E-08  0.93827000000E+00  0.93827000000E+00 0.  1.
     999902    2    1    2    0    0  0.21636960413E-01  0.66198995689E-03  0.10789983156E-01  0.10197428128E+01  0.10194559256E+01 0.  0.
     999903    2    3    3    0    0  0.11874942743E+00  0.15365498996E-01 -0.54515739334E-01  0.13187353089E+00  0.90076211888E-02 0.  0.
         14    1    1    2    0    0 -0.21636960413E-01 -0.66198995689E-03 -0.10789983156E-01  0.24187187169E-01  0.00000000000E+00 0. -1.
     999901    1    3    3    0    0 -0.97112467016E-01 -0.14703509039E-01  0.65305722490E-01  0.88786928194E+00  0.88000000000E+00 0. -1.
        -11    1    4    4    0    0  0.94310788304E-01  0.11276586249E-01 -0.46994942147E-01  0.10597392083E+00  0.51100000000E-03 0.  1.
         11    1    4    4    0    0  0.24438639125E-01  0.40889127474E-02 -0.75207971872E-02  0.25899610057E-01  0.51100000000E-03 0. -1.
</event>
<event>
 8    1  0.9952977E+004  0.1043930E+01  0.7957747E-01            NaN
         13   -1    0    0    0    0  0.00000000000E+00  0.00000000000E+00  0.74505805969E-08  0.10566000000E+00  0.10566000000E+00 0. -1.
     999900   -1    0    0    0    0 -0.00000000000E+00 -0.00000000000E+00 -0.74505805969E-08  0.93827000000E+00  0.93827000000E+00 0. -1.
     999902    2    1    2    0    0  0.78635242836E-02  0.15553260395E-01 -0.17501380604E-01  0.10192310679E+01  0.10189317605E+01 0.  0.
     999903    2    3    3    0    0 -0.94193814513E-01  0.55213803947E-01 -0.69274258559E-01  0.13093545833E+00  0.20594477664E-01 0.  0.
         14    1    1    2    0    0 -0.78635242836E-02 -0.15553260395E-01  0.17501380604E-01  0.24698932085E-01  0.00000000000E+00 0. -1.
     999901    1    3    3    0    0  0.10205733880E+00 -0.39660543552E-01  0.51772877954E-01  0.88829560959E+00  0.88000000000E+00 0. -1.
        -11    1    4    4    0    0 -0.80742886191E-01  0.49907203127E-01 -0.67237203336E-01  0.11632388073E+00  0.51100000000E-03 0.  1.
         11    1    4    4    0    0 -0.13450928322E-01  0.53066008204E-02 -0.20370552225E-02  0.14611577600E-01  0.51100000000E-03 0. -1.
</event>
<event>
 8    1  0.9952977E+004  0.1043930E+01  0.7957747E-01            NaN
         13   -1    0    0    0    0  0.00000000000E+00  0.00000000000E+00  0.74505805969E-08  0.10566000000E+00  0.10566000000E+00 0.  1.
     999900   -1    0    0    0    0 -0.00000000000E+00 -0.00000000000E+00 -0.74505805969E-08  0.93827000000E+00  0.93827000000E+00 0.  1.
     999902    2    1    2    0    0  0.14929293678E-01  0.14362446012E-01 -0.94716310181E-02  0.10211511620E+01  0.10208970664E+01 0.  0.
     999903    2    3    3    0    0  0.11357265922E+00 -0.42772514632E-01 -0.49239396003E-01  0.13290773119E+00  0.22621007087E-01 0.  0.
         14    1    1    2    0    0 -0.14929293678E-01 -0.14362446012E-01  0.94716310181E-02  0.22778837971E-01  0.00000000000E+00 0.  1.
     999901    1    3    3    0    0 -0.98643365543E-01  0.57134960644E-01  0.39767764985E-01  0.88824343084E+00  0.88000000000E+00 0. -1.
        -11    1    4    4    0    0  0.10258638573E+00 -0.33177768589E-01 -0.48686748253E-01  0.11830211934E+00  0.51100000000E-03 0. -1.
         11    1    4    4    0    0  0.10986273494E-01 -0.95947460430E-02 -0.55264774985E-03  0.14605611848E-01  0.51100000000E-03 0.  1.
</event>
<event>
 8    1  0.9952977E+004  0.1043930E+01  0.7957747E-01            NaN
         13   -1    0    0    0    0  0.00000000000E+00  0.00000000000E+00  0.74505805969E-08  0.10566000000E+00  0.10566000000E+00 0. -1.
     999900   -1    0    0    0    0 -0.00000000000E+00 -0.00000000000E+00 -0.74505805969E-08  0.93827000000E+00  0.93827000000E+00 0. -1.
     999902    2    1    2    0    0 -0.13807044134E-01 -0.18255655816E-01  0.68271955298E-02  0.10200445644E+01  0.10197648745E+01 0.  0.
     999903    2    3    3    0    0 -0.50839173118E-01  0.75832125150E-01  0.90905163846E-01  0.13027324887E+00  0.19293465994E-01 0.  0.
         14    1    1    2    0    0  0.13807044134E-01  0.18255655816E-01 -0.68271955298E-02  0.23885435642E-01  0.00000000000E+00 0.  1.
     999901    1    3    3    0    0  0.37032128984E-01 -0.94087780966E-01 -0.84077968316E-01  0.88977131549E+00  0.88000000000E+00 0. -1.
        -11    1    4    4    0    0 -0.28639862179E-01  0.37175653698E-01  0.33840680931E-01  0.57859517284E-01  0.51100000000E-03 0.  1.
         11    1    4    4    0    0 -0.22199310939E-01  0.38656471452E-01  0.57064482915E-01  0.72413731589E-01  0.51100000000E-03 0. -1.
</event>
<event>
 8    1  0.1198590E+005  0.1043930E+01  0.7957747E-01            NaN
         13   -1    0    0    0    0  0.00000000000E+00  0.00000000000E+00  0.74505805969E-08  0.10566000000E+00  0.10566000000E+00 0. -1.
     999900   -1    0    0    0    0 -0.00000000000E+00 -0.00000000000E+00 -0.74505805969E-08  0.93827000000E+00  0.93827000000E+00 0.  1.
     999902    2    1    2    0    0  0.19746086827E-01 -0.90048550038E-02 -0.95949547186E-02  0.10202011459E+01  0.10199251540E+01 0.  0.
     999903    2    3    3    0    0 -0.65068582452E-03 -0.12792954978E+00  0.22667955830E-01  0.13138170041E+00  0.19517220137E-01 0.  0.
         14    1    1    2    0    0 -0.19746086827E-01  0.90048550038E-02  0.95949547186E-02  0.23728854053E-01  0.00000000000E+00 0. -1.
     999901    1    3    3    0    0  0.20396772652E-01  0.11892469478E+00 -0.32262910549E-01  0.88881944553E+00  0.88000000000E+00 0. -1.
        -11    1    4    4    0    0  0.85495636026E-02 -0.35388152280E-01  0.60068721104E-02  0.36902032372E-01  0.51100000000E-03 0. -1.
         11    1    4    4    0    0 -0.92002494271E-02 -0.92541397503E-01  0.16661083720E-01  0.94479668041E-01  0.51100000000E-03 0.  1.
</event>
<event>
 8    1  0.9952977E+004  0.1043930E+01  0.7957747E-01            NaN
         13   -1    0    0    0    0  0.00000000000E+00  0.00000000000E+00  0.74505805969E-08  0.10566000000E+00  0.10566000000E+00 0. -1.
     999900   -1    0    0    0    0 -0.00000000000E+00 -0.00000000000E+00 -0.74505805969E-08  0.93827000000E+00  0.93827000000E+00 0. -1.
     999902    2    1    2    0    0 -0.49512479069E-02 -0.95525760596E-02 -0.21010068971E-01  0.10203251369E+01  0.10200520552E+01 0.  0.
     999903    2    3    3    0    0  0.11949713086E+00 -0.48402987724E-01 -0.67297269726E-02  0.13060569703E+00  0.19752097752E-01 0.  0.
         14    1    1    2    0    0  0.49512479069E-02  0.95525760596E-02  0.21010068971E-01  0.23604863130E-01  0.00000000000E+00 0.  1.
     999901    1    3    3    0    0 -0.12444837877E+00  0.38850411664E-01 -0.14280341999E-01  0.88971943984E+00  0.88000000000E+00 0. -1.
        -11    1    4    4    0    0  0.17352539151E-01 -0.68362863156E-02  0.59887764379E-02  0.19595203234E-01  0.51100000000E-03 0.  1.
         11    1    4    4    0    0  0.10214459171E+00 -0.41566701408E-01 -0.12718503411E-01  0.11101049379E+00  0.51100000000E-03 0. -1.
</event>
<event>
 8    1  0.9952977E+004  0.1043930E+01  0.7957747E-01            NaN
         13   -1    0    0    0    0  0.00000000000E+00  0.00000000000E+00  0.74505805969E-08  0.10566000000E+00  0.10566000000E+00 0. -1.
     999900   -1    0    0    0    0 -0.00000000000E+00 -0.00000000000E+00 -0.74505805969E-08  0.93827000000E+00  0.93827000000E+00 0.  1.
     999902    2    1    2    0    0 -0.19514751413E-01 -0.36327363684E-02  0.13766813966E-01  0.10197732729E+01  0.10194871165E+01 0.  0.
     999903    2    3    3    0    0 -0.37280659913E-01 -0.97438458287E-01 -0.75301933588E-01  0.13013942534E+00  0.19539397890E-01 0.  0.
         14    1    1    2    0    0  0.19514751413E-01  0.36327363684E-02 -0.13766813966E-01  0.24156727076E-01  0.00000000000E+00 0.  1.
     999901    1    3    3    0    0  0.17765908499E-01  0.93805721919E-01  0.89068747554E-01  0.88963384758E+00  0.88000000000E+00 0. -1.
        -11    1    4    4    0    0 -0.17781059130E-01 -0.71525226051E-01 -0.52696604857E-01  0.90604731167E-01  0.51100000000E-03 0.  1.
         11    1    4    4    0    0 -0.19499600783E-01 -0.25913232236E-01 -0.22605328731E-01  0.39534694176E-01  0.51100000000E-03 0. -1.
</event>
<event>
 8    1  0.9952977E+004  0.1043930E+01  0.7957747E-01            NaN
         13   -1    0    0    0    0  0.00000000000E+00  0.00000000000E+00  0.74505805969E-08  0.10566000000E+00  0.10566000000E+00 0. -1.
     999900   -1    0    0    0    0 -0.00000000000E+00 -0.00000000000E+00 -0.74505805969E-08  0.93827000000E+00  0.93827000000E+00 0. -1.
     999902    2    1    2    0    0 -0.34566660423E-02 -0.14611163866E-01 -0.18948802165E-01  0.10197537357E+01  0.10194671107E+01 0.  0.
     999903    2    3    3    0    0 -0.10567471369E+00  0.63620541979E-01 -0.37533084799E-01  0.13019535957E+00  0.18093665286E-01 0.  0.
         14    1    1    2    0    0  0.34566660423E-02  0.14611163866E-01  0.18948802165E-01  0.24176264251E-01  0.00000000000E+00 0. -1.
     999901    1    3    3    0    0  0.10221804765E+00 -0.78231705845E-01  0.18584282634E-01  0.88955837618E+00  0.88000000000E+00 0.  1.
        -11    1    4    4    0    0 -0.85396956443E-01  0.57044568873E-01 -0.35966439983E-01  0.10881437834E+00  0.51100000000E-03 0. -1.
         11    1    4    4    0    0 -0.20277757252E-01  0.65759731058E-02 -0.15666448162E-02  0.21380981232E-01  0.51100000000E-03 0.  1.
</event>
<event>
 8    1  0.9952977E+004  0.1043930E+01  0.7957747E-01            NaN
         13   -1    0    0    0    0  0.00000000000E+00  0.00000000000E+00  0.74505805969E-08  0.10566000000E+00  0.10566000000E+00 0. -1.
     999900   -1    0    0    0    0 -0.00000000000E+00 -0.00000000000E+00 -0.74505805969E-08  0.93827000000E+00  0.93827000000E+00 0.  1.
     999902    2    1    2    0    0 -0.15369164742E-03  0.15939080671E-01 -0.15998389490E-01  0.10213462364E+01  0.10210965224E+01 0.  0.
     999903    2    3    3    0    0 -0.35474837564E-02  0.10107118127E+00  0.82165545033E-01  0.13179851397E+00  0.19791492329E-01 0.  0.
         14    1    1    2    0    0  0.15369164742E-03 -0.15939080671E-01  0.15998389490E-01  0.22583763638E-01  0.00000000000E+00 0. -1.
     999901    1    3    3    0    0  0.33937921089E-02 -0.85132100601E-01 -0.98163934522E-01  0.88954772240E+00  0.88000000000E+00 0.  1.
        -11    1    4    4    0    0 -0.11550990878E-01  0.48441386249E-01  0.40731641539E-01  0.64337555405E-01  0.51100000000E-03 0. -1.
         11    1    4    4    0    0  0.80035071214E-02  0.52629795023E-01  0.41433903494E-01  0.67460958562E-01  0.51100000000E-03 0.  1.
</event>
<event>
 8    1  0.9952977E+004  0.1043930E+01  0.7957747E-01            NaN
         13   -1    0    0    0    0  0.00000000000E+00  0.00000000000E+00  0.74505805969E-08  0.10566000000E+00  0.10566000000E+00 0.  1.
     999900   -1    0    0    0    0 -0.00000000000E+00 -0.00000000000E+00 -0.74505805969E-08  0.93827000000E+00  0.93827000000E+00 0. -1.
     999902    2    1    2    0    0 -0.19313218170E-01 -0.95498160775E-02 -0.94621740622E-02  0.10203984866E+01  0.10201271192E+01 0.  0.
     999903    2    3    3    0    0  0.17051885537E-01 -0.12841203972E+00 -0.12683687424E-01  0.13165722669E+00  0.19807338778E-01 0.  0.
         14    1    1    2    0    0  0.19313218170E-01  0.95498160775E-02  0.94621740622E-02  0.23531513363E-01  0.00000000000E+00 0.  1.
     999901    1    3    3    0    0 -0.36365103707E-01  0.11886222364E+00  0.32215133619E-02  0.88874125994E+00  0.88000000000E+00 0.  1.
        -11    1    4    4    0    0 -0.21451959287E-02 -0.53611630555E-01 -0.84179589784E-02  0.54313276007E-01  0.51100000000E-03 0. -1.
         11    1    4    4    0    0  0.19197081466E-01 -0.74800409162E-01 -0.42657284457E-02  0.77343950687E-01  0.51100000000E-03 0.  1.
</event>
<event>
 8    1  0.9952977E+004  0.1043930E+01  0.7957747E-01            NaN
         13   -1    0    0    0    0  0.00000000000E+00  0.00000000000E+00  0.74505805969E-08  0.10566000000E+00  0.10566000000E+00 0. -1.
     999900   -1    0    0    0    0 -0.00000000000E+00 -0.00000000000E+00 -0.74505805969E-08  0.93827000000E+00  0.93827000000E+00 0. -1.
     999902    2    1    2    0    0  0.15242804079E-01 -0.15278667273E-01 -0.80669615250E-02  0.10208896741E+01  0.10206296439E+01 0.  0.
     999903    2    3    3    0    0  0.66565531208E-01 -0.53041723511E-01 -0.10086274911E+00  0.13371938101E+00  0.21521717398E-01 0.  0.
         14    1    1    2    0    0 -0.15242804079E-01  0.15278667273E-01  0.80669615250E-02  0.23040325911E-01  0.00000000000E+00 0. -1.
     999901    1    3    3    0    0 -0.51322727130E-01  0.37763056237E-01  0.92795787588E-01  0.88717029308E+00  0.88000000000E+00 0.  1.
        -11    1    4    4    0    0  0.58858149572E-01 -0.36365913342E-01 -0.83458286771E-01  0.10840806324E+00  0.51100000000E-03 0. -1.
         11    1    4    4    0    0  0.77073816363E-02 -0.16675810168E-01 -0.17404462342E-01  0.25311317762E-01  0.51100000000E-03 0.  1.
</event>
<event>
 8    1  0.9952977E+004  0.1043930E+01  0.7957747E-01            NaN
         13   -1    0    0    0    0  0.00000000000E+00  0.00000000000E+00  0.74505805969E-08  0.10566000000E+00  0.10566000000E+00 0.  1.
     999900   -1    0    0    0    0 -0.00000000000E+00 -0.00000000000E+00 -0.74505805969E-08  0.93827000000E+00  0.93827000000E+00 0.  1.
     999902    2    1    2    0    0  0.76442221807E-02 -0.66637821615E-02 -0.16048280392E-01  0.10249461271E+01  0.10247703041E+01 0.  0.
     999903    2    3    3    0    0  0.77914132308E-01 -0.10812932235E+00 -0.20152682481E-01  0.13632361885E+00  0.20382249104E-01 0.  0.
         14    1    1    2    0    0 -0.76442221807E-02  0.66637821615E-02  0.16048280392E-01  0.18983872866E-01  0.00000000000E+00 0.  1.
     999901    1    3    3    0    0 -0.70269910128E-01  0.10146554019E+00  0.41044020886E-02  0.88862250829E+00  0.88000000000E+00 0. -1.
        -11    1    4    4    0    0  0.35581995451E-01 -0.66658758926E-01 -0.11161081748E-01  0.76382585768E-01  0.51100000000E-03 0. -1.
         11    1    4    4    0    0  0.42332136858E-01 -0.41470563428E-01 -0.89916007326E-02  0.59941033081E-01  0.51100000000E-03 0.  1.
</event>
<event>
 8    1  0.9952977E+004  0.1043930E+01  0.7957747E-01            NaN
         13   -1    0    0    0    0  0.00000000000E+00  0.00000000000E+00  0.74505805969E-08  0.10566000000E+00  0.10566000000E+00 0. -1.
     999900   -1    0    0    0    0 -0.00000000000E+00 -0.00000000000E+00 -0.74505805969E-08  0.93827000000E+00  0.93827000000E+00 0. -1.
     999902    2    1    2    0    0  0.44174234090E-02  0.14968820121E-01 -0.17812698626E-01  0.10202472755E+01  0.10199723682E+01 0.  0.
     999903    2    3    3    0    0 -0.22779217953E-01  0.36319841225E-01 -0.12422229292E+00  0.13316299253E+00  0.21521637610E-01 0.  0.
         14    1    1    2    0    0 -0.44174234090E-02 -0.14968820121E-01  0.17812698626E-01  0.23682724457E-01  0.00000000000E+00 0. -1.
     999901    1    3    3    0    0  0.27196641362E-01 -0.21351021104E-01  0.10640959429E+00  0.88708428301E+00  0.88000000000E+00 0.  1.
        -11    1    4    4    0    0 -0.11537262583E-01  0.31475998781E-01 -0.70569836820E-01  0.78129443342E-01  0.51100000000E-03 0.  1.
         11    1    4    4    0    0 -0.11241955371E-01  0.48438424436E-02 -0.53652456099E-01  0.55033549192E-01  0.51100000000E-03 0. -1.
</event>
<event>
 8    1  0.9952977E+004  0.1043930E+01  0.7957747E-01            NaN
         13   -1    0    0    0    0  0.00000000000E+00  0.00000000000E+00  0.74505805969E-08  0.10566000000E+00  0.10566000000E+00 0.  1.
     999900   -1    0    0    0    0 -0.00000000000E+00 -0.00000000000E+00 -0.74505805969E-08  0.93827000000E+00  0.93827000000E+00 0.  1.
     999902    2    1    2    0    0  0.12375085046E-01  0.22644359580E-01  0.87208369357E-02  0.10166910069E+01  0.10163260504E+01 0.  0.
     999903    2    3    3    0    0 -0.86205331804E-01 -0.86762279951E-01  0.11123229877E-01  0.12445018575E+00  0.20126351778E-01 0.  0.
         14    1    1    2    0    0 -0.12375085046E-01 -0.22644359580E-01 -0.87208369357E-02  0.27238993145E-01  0.00000000000E+00 0. -1.
     999901    1    3    3    0    0  0.98580416850E-01  0.10940663953E+00 -0.24023929409E-02  0.89224082111E+00  0.88000000000E+00 0.  1.
        -11    1    4    4    0    0 -0.57060863230E-01 -0.64420234606E-01 -0.59132331014E-04  0.86059127098E-01  0.51100000000E-03 0.  1.
         11    1    4    4    0    0 -0.29144468573E-01 -0.22342045345E-01  0.11182362208E-01  0.38391058649E-01  0.51100000000E-03 0. -1.
</event>
<event>
 8    1  0.9952977E+004  0.1043930E+01  0.7957747E-01            NaN
         13   -1    0    0    0    0  0.00000000000E+00  0.00000000000E+00  0.74505805969E-08  0.10566000000E+00  0.10566000000E+00 0. -1.
     999900   -1    0    0    0    0 -0.00000000000E+00 -0.00000000000E+00 -0.74505805969E-08  0.93827000000E+00  0.93827000000E+00 0.  1.
     999902    2    1    2    0    0  0.68996446331E-02 -0.18549306091E-02  0.21941443745E-01  0.10208546275E+01  0.10205937966E+01 0.  0.
     999903    2    3    3    0    0 -0.10429908308E+00  0.31893651895E-01  0.67789175299E-01  0.13203173265E+00  0.30683910740E-01 0.  0.
         14    1    1    2    0    0 -0.68996446331E-02  0.18549306091E-02 -0.21941443745E-01  0.23075372527E-01  0.00000000000E+00 0.  1.
     999901    1    3    3    0    0  0.11119872771E+00 -0.33748582504E-01 -0.45847731554E-01  0.88882289482E+00  0.88000000000E+00 0.  1.
        -11    1    4    4    0    0 -0.42237879252E-01  0.59532152823E-02  0.11139495485E-01  0.44088872707E-01  0.51100000000E-03 0.  1.
         11    1    4    4    0    0 -0.62061203824E-01  0.25940436613E-01  0.56649679813E-01  0.87942859948E-01  0.51100000000E-03 0. -1.
</event>
<event>
 8    1  0.9952977E+004  0.1043930E+01  0.7957747E-01            NaN
         13   -1    0    0    0    0  0.00000000000E+00  0.00000000000E+00  0.74505805969E-08  0.10566000000E+00  0.10566000000E+00 0.  1.
     999900   -1    0    0    0    0 -0.00000000000E+00 -0.00000000000E+00 -0.74505805969E-08  0.93827000000E+00  0.93827000000E+00 0.  1.
     999902    2    1    2    0    0 -0.17918686557E-01  0.57019420517E-03 -0.14197217953E-01  0.10210615622E+01  0.10208054410E+01 0.  0.
     999903    2    3    3    0    0  0.82195984247E-01 -0.58390676661E-01  0.77540030517E-01  0.12869669605E+00  0.19614593895E-01 0.  0.
         14    1    1    2    0    0  0.17918686557E-01 -0.57019420517E-03  0.14197217953E-01  0.22868437790E-01  0.00000000000E+00 0.  1.
     999901    1    3    3    0    0 -0.10011467080E+00  0.58960870866E-01 -0.91737248471E-01  0.89236486616E+00  0.88000000000E+00 0.  1.
        -11    1    4    4    0    0  0.11048588217E-01 -0.15592316026E-01  0.20072835432E-01  0.27719514135E-01  0.51100000000E-03 0.  1.
         11    1    4    4    0    0  0.71147396030E-01 -0.42798360635E-01  0.57467195086E-01  0.10097718191E+00  0.51100000000E-03 0. -1.
</event>
<event>
 8    1  0.9952977E+004  0.1043930E+01  0.7957747E-01            NaN
         13   -1    0    0    0    0  0.00000000000E+00  0.00000000000E+00  0.74505805969E-08  0.10566000000E+00  0.10566000000E+00 0.  1.
     999900   -1    0    0    0    0 -0.00000000000E+00 -0.00000000000E+00 -0.74505805969E-08  0.93827000000E+00  0.93827000000E+00 0.  1.
     999902    2    1    2    0    0  0.15546375576E-02  0.16673044939E-01  0.18339021048E-01  0.10190960108E+01  0.10187933806E+01 0.  0.
     999903    2    3    3    0    0  0.10062149894E+00 -0.25112406133E-02 -0.76769157665E-01  0.12823808416E+00  0.20506347365E-01 0.  0.
         14    1    1    2    0    0 -0.15546375576E-02 -0.16673044939E-01 -0.18339021048E-01  0.24833989178E-01  0.00000000000E+00 0. -1.
     999901    1    3    3    0    0 -0.99066861383E-01  0.19184285553E-01  0.95108178713E-01  0.89085792666E+00  0.88000000000E+00 0. -1.
        -11    1    4    4    0    0  0.36725567985E-01 -0.90800264043E-02 -0.21617082004E-01  0.43574919147E-01  0.51100000000E-03 0. -1.
         11    1    4    4    0    0  0.63895930956E-01  0.65687857910E-02 -0.55152075661E-01  0.84663165014E-01  0.51100000000E-03 0.  1.
</event>
<event>
 8    1  0.9952977E+004  0.1043930E+01  0.7957747E-01            NaN
         13   -1    0    0    0    0  0.00000000000E+00  0.00000000000E+00  0.74505805969E-08  0.10566000000E+00  0.10566000000E+00 0.  1.
     999900   -1    0    0    0    0 -0.00000000000E+00 -0.00000000000E+00 -0.74505805969E-08  0.93827000000E+00  0.93827000000E+00 0.  1.
     999902    2    1    2    0    0  0.97390046250E-03 -0.13580332260E-01 -0.17602239303E-01  0.10216766242E+01  0.10214342425E+01 0.  0.
     999903    2    3    3    0    0 -0.50085419670E-01 -0.12153351776E+00  0.14572789408E-02  0.13340627702E+00  0.22719284376E-01 0.  0.
         14    1    1    2    0    0 -0.97390046250E-03  0.13580332260E-01  0.17602239303E-01  0.22253375809E-01  0.00000000000E+00 0.  1.
     999901    1    3    3    0    0  0.51059320132E-01  0.10795318550E+00 -0.19059518244E-01  0.88827034717E+00  0.88000000000E+00 0. -1.
        -11    1    4    4    0    0 -0.27841823151E-01 -0.39065390314E-01 -0.14179470539E-03  0.47974504307E-01  0.51100000000E-03 0. -1.
         11    1    4    4    0    0 -0.22243596519E-01 -0.82468127449E-01  0.15990736462E-02  0.85431772711E-01  0.51100000000E-03 0.  1.
</event>
<event>
 8    1  0.9952977E+004  0.1043930E+01  0.7957747E-01            NaN
         13   -1    0    0    0    0  0.00000000000E+00  0.00000000000E+00  0.74505805969E-08  0.10566000000E+00  0.10566000000E+00 0. -1.
     999900   -1    0    0    0    0 -0.00000000000E+00 -0.00000000000E+00 -0.74505805969E-08  0.93827000000E+00  0.93827000000E+00 0. -1.
     999902    2    1    2    0    0 -0.16612044978E-01 -0.68847012663E-02 -0.18201053972E-01  0.10183441149E+01  0.10180226416E+01 0.  0.
     999903    2    3    3    0    0 -0.89478422195E-01 -0.41932401713E-02 -0.94862627835E-01  0.13200684852E+00  0.20072832262E-01 0.  0.
         14    1    1    2    0    0  0.16612044978E-01  0.68847012663E-02  0.18201053972E-01  0.25585885084E-01  0.00000000000E+00 0. -1.
     999901    1    3    3    0    0  0.72866377218E-01 -0.26914610950E-02  0.76661573864E-01  0.88633726639E+00  0.88000000000E+00 0.  1.
        -11    1    4    4    0    0 -0.42566517001E-01 -0.89443156948E-03 -0.30876341373E-01  0.52595797884E-01  0.51100000000E-03 0.  1.
         11    1    4    4    0    0 -0.46911905194E-01 -0.32988086019E-02 -0.63986286462E-01  0.79411050638E-01  0.51100000000E-03 0. -1.
</event>
<event>
 8    1  0.9952977E+004  0.1043930E+01  0.7957747E-01            NaN
         13   -1    0    0    0    0  0.00000000000E+00  0.00000000000E+00  0.74505805969E-08  0.10566000000E+00  0.10566000000E+00 0. -1.
     999900   -1    0    0    0    0 -0.00000000000E+00 -0.00000000000E+00 -0.74505805969E-08  0.93827000000E+00  0.93827000000E+00 0. -1.
     999902    2    1    2    0    0 -0.33887438594E-02 -0.37419890729E-02  0.22958044281E-01  0.10204234506E+01  0.10201526654E+01 0.  0.
     999903    2    3    3    0    0  0.10095829905E+00  0.75368937380E-01 -0.22575299603E-01  0.12956985464E+00  0.20140710221E-01 0.  0.
         14    1    1    2    0    0  0.33887438594E-02  0.37419890729E-02 -0.22958044281E-01  0.23506549393E-01  0.00000000000E+00 0.  1.
     999901    1    3    3    0    0 -0.10434704291E+00 -0.79110926453E-01  0.45533343884E-01  0.89085359597E+00  0.88000000000E+00 0.  1.
        -11    1    4    4    0    0  0.83075298620E-01  0.70716391967E-01 -0.18955317092E-01  0.11073336670E+00  0.51100000000E-03 0.  1.
         11    1    4    4    0    0  0.17883000435E-01  0.46525454138E-02 -0.36199825113E-02  0.18836487936E-01  0.51100000000E-03 0. -1.
</event>
<event>
 8    1  0.9952977E+004  0.1043930E+01  0.7957747E-01            NaN
         13   -1    0    0    0    0  0.00000000000E+00  0.00000000000E+00  0.74505805969E-08  0.10566000000E+00  0.10566000000E+00 0.  1.
     999900   -1    0    0    0    0 -0.00000000000E+00 -0.00000000000E+00 -0.74505805969E-08  0.93827000000E+00  0.93827000000E+00 0.  1.
     999902    2    1    2    0    0 -0.13240518665E-01 -0.14561260341E-01 -0.13422992708E-01  0.10201073559E+01  0.10198291520E+01 0.  0.
     999903    2    3    3    0    0 -0.48118868133E-01 -0.73642984598E-01 -0.98065433776E-01  0.13338784434E+00  0.20899116374E-01 0.  0.
         14    1    1    2    0    0  0.13240518665E-01  0.14561260341E-01  0.13422992708E-01  0.23822644070E-01  0.00000000000E+00 0. -1.
     999901    1    3    3    0    0  0.34878349468E-01  0.59081724258E-01  0.84642441068E-01  0.88671951159E+00  0.88000000000E+00 0.  1.
        -11    1    4    4    0    0 -0.52283924320E-02 -0.23762350186E-01 -0.31414110181E-01  0.39737800811E-01  0.51100000000E-03 0.  1.
         11    1    4    4    0    0 -0.42890475701E-01 -0.49880634412E-01 -0.66651323595E-01  0.93650043530E-01  0.51100000000E-03 0. -1.
</event>
<event>
 8    1  0.9952977E+004  0.1043930E+01  0.7957747E-01            NaN
         13   -1    0    0    0    0  0.00000000000E+00  0.00000000000E+00  0.74505805969E-08  0.10566000000E+00  0.10566000000E+00 0. -1.
     999900   -1    0    0    0    0 -0.00000000000E+00 -0.00000000000E+00 -0.74505805969E-08  0.93827000000E+00  0.93827000000E+00 0. -1.
     999902    2    1    2    0    0  0.17324578719E-01  0.65555416244E-02  0.15191327466E-01  0.10199739447E+01  0.10196925788E+01 0.  0.
     999903    2    3    3    0    0  0.10044145464E-02 -0.70328339747E-02  0.13047646932E+00  0.13220051888E+00  0.20059873966E-01 0.  0.
         14    1    1    2    0    0 -0.17324578719E-01 -0.65555416244E-02 -0.15191327466E-01  0.23956055267E-01  0.00000000000E+00 0.  1.
     999901    1    3    3    0    0  0.16320164172E-01  0.13588375599E-01 -0.11528514186E+00  0.88777342585E+00  0.88000000000E+00 0. -1.
        -11    1    4    4    0    0  0.14476150752E-02  0.55654404237E-02  0.15612570004E-01  0.16645815680E-01  0.51100000000E-03 0. -1.
         11    1    4    4    0    0 -0.44320052881E-03 -0.12598274398E-01  0.11486389932E+00  0.11555470320E+00  0.51100000000E-03 0.  1.
</event>
<event>
 8    1  0.9952977E+004  0.1043930E+01  0.7957747E-01            NaN
         13   -1    0    0    0    0  0.00000000000E+00  0.00000000000E+00  0.74505805969E-08  0.10566000000E+00  0.10566000000E+00 0.  1.
     999900   -1    0    0    0    0 -0.00000000000E+00 -0.00000000000E+00 -0.74505805969E-08  0.93827000000E+00  0.93827000000E+00 0. -1.
     999902    2    1    2    0    0  0.53458075239E-02 -0.63425606849E-03 -0.23458039963E-01  0.10198621879E+01  0.10195781592E+01 0.  0.
     999903    2    3    3    0    0 -0.83576342192E-01 -0.75768251739E-01  0.57910317613E-01  0.12847390237E+00  0.20642329310E-01 0.  0.
         14    1    1    2    0    0 -0.53458075239E-02  0.63425606849E-03  0.23458039963E-01  0.24067812068E-01  0.00000000000E+00 0.  1.
     999901    1    3    3    0    0  0.88922149716E-01  0.75133995670E-01 -0.81368357577E-01  0.89138828556E+00  0.88000000000E+00 0. -1.
        -11    1    4    4    0    0 -0.13627518332E-01 -0.36961638204E-02  0.52815515347E-02  0.15083991199E-01  0.51100000000E-03 0. -1.
         11    1    4    4    0    0 -0.69948823860E-01 -0.72072087918E-01  0.52628766079E-01  0.11338991118E+00  0.51100000000E-03 0.  1.
</event>
<event>
 8    1  0.9952977E+004  0.1043930E+01  0.7957747E-01            NaN
         13   -1    0    0    0    0  0.00000000000E+00  0.00000000000E+00  0.74505805969E-08  0.10566000000E+00  0.10566000000E+00 0.  1.
     999900   -1    0    0    0    0 -0.00000000000E+00 -0.00000000000E+00 -0.74505805969E-08  0.93827000000E+00  0.93827000000E+00 0. -1.
     999902    2    1    2    0    0  0.21309353050E-02 -0.21081138613E-01  0.10324394714E-01  0.10203599254E+01  0.10200876575E+01 0.  0.
     999903    2    3    3    0    0 -0.16059425725E-01  0.52293045725E-01 -0.11425708113E+00  0.12837606664E+00  0.20815045320E-01 0.  0.
         14    1    1    2    0    0 -0.21309353050E-02  0.21081138613E-01 -0.10324394714E-01  0.23570074602E-01  0.00000000000E+00 0. -1.
     999901    1    3    3    0    0  0.18190361030E-01 -0.73374184339E-01  0.12458147584E+00  0.89198385876E+00  0.88000000000E+00 0.  1.
        -11    1    4    4    0    0 -0.93962127767E-02  0.32391157935E-01 -0.46530173445E-01  0.57469940741E-01  0.51100000000E-03 0. -1.
         11    1    4    4    0    0 -0.66632129483E-02  0.19901887790E-01 -0.67726907685E-01  0.70906125899E-01  0.51100000000E-03 0.  1.
</event>
<event>
 8    1  0.9952977E+004  0.1043930E+01  0.7957747E-01            NaN
         13   -1    0    0    0    0  0.00000000000E+00  0.00000000000E+00  0.74505805969E-08  0.10566000000E+00  0.10566000000E+00 0.  1.
     999900   -1    0    0    0    0 -0.00000000000E+00 -0.00000000000E+00 -0.74505805969E-08  0.93827000000E+00  0.93827000000E+00 0.  1.
     999902    2    1    2    0    0  0.81694309275E-02 -0.53306321648E-02  0.21179688752E-01  0.10206118857E+01  0.10203454742E+01 0.  0.
     999903    2    3    3    0    0  0.92749542727E-01 -0.89314101861E-01 -0.16577376945E-01  0.13177409702E+00  0.22585764366E-01 0.  0.
         14    1    1    2    0    0 -0.81694309275E-02  0.53306321648E-02 -0.21179688752E-01  0.23318114345E-01  0.00000000000E+00 0. -1.
     999901    1    3    3    0    0 -0.84580111799E-01  0.83983469696E-01  0.37757065697E-01  0.88883778863E+00  0.88000000000E+00 0.  1.
        -11    1    4    4    0    0  0.85225992028E-01 -0.81645086363E-01 -0.21465409091E-01  0.11996005482E+00  0.51100000000E-03 0.  1.
         11    1    4    4    0    0  0.75235506985E-02 -0.76690154977E-02  0.48880321456E-02  0.11814042199E-01  0.51100000000E-03 0. -1.
</event>
<event>
 8    1  0.9952977E+004  0.1043930E+01  0.7957747E-01            NaN
         13   -1    0    0    0    0  0.00000000000E+00  0.00000000000E+00  0.74505805969E-08  0.10566000000E+00  0.10566000000E+00 0. -1.
     999900   -1    0    0    0    0 -0.00000000000E+00 -0.00000000000E+00 -0.74505805969E-08  0.93827000000E+00  0.93827000000E+00 0.  1.
     999902    2    1    2    0    0  0.10825367920E-01 -0.39556819823E-02  0.19818921727E-01  0.10210034724E+01  0.10207460335E+01 0.  0.
     999903    2    3    3    0    0 -0.66115721378E-02 -0.43487432183E-01  0.12474669801E+00  0.13371736046E+00  0.19588879000E-01 0.  0.
         14    1    1    2    0    0 -0.10825367920E-01  0.39556819823E-02 -0.19818921727E-01  0.22926527626E-01  0.00000000000E+00 0.  1.
     999901    1    3    3    0    0  0.17436940058E-01  0.39531750201E-01 -0.10492777629E+00  0.88728611191E+00  0.88000000000E+00 0.  1.
        -11    1    4    4    0    0 -0.10420426389E-01 -0.16174207638E-01  0.36546514458E-01  0.41304952716E-01  0.51100000000E-03 0.  1.
         11    1    4    4    0    0  0.38088542511E-02 -0.27313224545E-01  0.88200183555E-01  0.92412407749E-01  0.51100000000E-03 0. -1.
</event>
<event>
 8    1  0.9952977E+004  0.1043930E+01  0.7957747E-01            NaN
         13   -1    0    0    0    0  0.00000000000E+00  0.00000000000E+00  0.74505805969E-08  0.10566000000E+00  0.10566000000E+00 0.  1.
     999900   -1    0    0    0    0 -0.00000000000E+00 -0.00000000000E+00 -0.74505805969E-08  0.93827000000E+00  0.93827000000E+00 0. -1.
     999902    2    1    2    0    0 -0.57479444781E-02  0.63458597135E-02  0.23166074201E-01  0.10192323119E+01  0.10189330351E+01 0.  0.
     999903    2    3    3    0    0 -0.54762912254E-01  0.10791705334E+00  0.47743649445E-01  0.13169457661E+00  0.20467986876E-01 0.  0.
         14    1    1    2    0    0  0.57479444781E-02 -0.63458597135E-02 -0.23166074201E-01  0.24697688052E-01  0.00000000000E+00 0. -1.
     999901    1    3    3    0    0  0.49014967776E-01 -0.10157119363E+00 -0.24577575244E-01  0.88753773534E+00  0.88000000000E+00 0.  1.
        -11    1    4    4    0    0 -0.51664167838E-01  0.89586146882E-01  0.45420779546E-01  0.11295207960E+00  0.51100000000E-03 0.  1.
         11    1    4    4    0    0 -0.30987444167E-02  0.18330906457E-01  0.23228698992E-02  0.18742497007E-01  0.51100000000E-03 0. -1.
</event>
<event>
 8    1  0.9952977E+004  0.1043930E+01  0.7957747E-01            NaN
         13   -1    0    0    0    0  0.00000000000E+00  0.00000000000E+00  0.74505805969E-08  0.10566000000E+00  0.10566000000E+00 0.  1.
     999900   -1    0    0    0    0 -0.00000000000E+00 -0.00000000000E+00 -0.74505805969E-08  0.93827000000E+00  0.93827000000E+00 0.  1.
     999902    2    1    2    0    0  0.76426708354E-02  0.10454292303E-02  0.23499416848E-01  0.10191969061E+01  0.10188967600E+01 0.  0.
     999903    2    3    3    0    0  0.23039839174E-01 -0.11445912274E+00 -0.49787617412E-01  0.12849529297E+00  0.20012708415E-01 0.  0.
         14    1    1    2    0    0 -0.76426708354E-02 -0.10454292303E-02 -0.23499416848E-01  0.24733093861E-01  0.00000000000E+00 0. -1.
     999901    1    3    3    0    0 -0.15397168338E-01  0.11550455197E+00  0.73287034260E-01  0.89070161317E+00  0.88000000000E+00 0. -1.
        -11    1    4    4    0    0  0.80007964639E-02 -0.78667456668E-01 -0.39162900167E-01  0.88241573836E-01  0.51100000000E-03 0. -1.
         11    1    4    4    0    0  0.15039042710E-01 -0.35791666077E-01 -0.10624717245E-01  0.40253719129E-01  0.51100000000E-03 0.  1.
</event>
<event>
 8    1  0.9952977E+004  0.1043930E+01  0.7957747E-01            NaN
         13   -1    0    0    0    0  0.00000000000E+00  0.00000000000E+00  0.74505805969E-08  0.10566000000E+00  0.10566000000E+00 0.  1.
     999900   -1    0    0    0    0 -0.00000000000E+00 -0.00000000000E+00 -0.74505805969E-08  0.93827000000E+00  0.93827000000E+00 0. -1.
     999902    2    1    2    0    0 -0.23519396304E-02 -0.15767151791E-01 -0.18003613596E-01  0.10198828630E+01  0.10195993279E+01 0.  0.
     999903    2    3    3    0    0  0.63616914799E-01 -0.10013840308E+00  0.51172922034E-01  0.13069458660E+00  0.19687442611E-01 0.  0.
         14    1    1    2    0    0  0.23519396304E-02  0.15767151791E-01  0.18003613596E-01  0.24047137005E-01  0.00000000000E+00 0.  1.
     999901    1    3    3    0    0 -0.65968854429E-01  0.84371251290E-01 -0.69176535630E-01  0.88918827640E+00  0.88000000000E+00 0. -1.
        -11    1    4    4    0    0  0.26830985771E-01 -0.58235195117E-01  0.32519011399E-01  0.71895667263E-01  0.51100000000E-03 0.  1.
         11    1    4    4    0    0  0.36785929028E-01 -0.41903207964E-01  0.18653910635E-01  0.58798919336E-01  0.51100000000E-03 0. -1.
</event>
<event>
 7    1  0.1061961E+005  0.1043930E+01  0.7957747E-01            NaN
         13   -1    0    0    0    0  0.00000000000E+00  0.00000000000E+00  0.74505805969E-08  0.10566000000E+00  0.10566000000E+00 0.  1.
     999900   -1    0    0    0    0 -0.00000000000E+00 -0.00000000000E+00 -0.74505805969E-08  0.93827000000E+00  0.93827000000E+00 0.  1.
     999903    2    1    2    0    0  0.16183403370E-01  0.81428690083E-01 -0.77974325340E-01  0.11583296137E+00  0.21088987979E-01 0.  0.
         14    1    1    2    0    0 -0.39721204821E-01  0.12737255778E-02 -0.48447088223E-02  0.40035830114E-01  0.00000000000E+00 0. -1.
     999901    1    1    2    0    0  0.23537801451E-01 -0.82702415661E-01  0.82819034163E-01  0.88806120852E+00  0.88000000000E+00 0. -1.
        -11    1    3    3    0    0  0.48118581826E-02  0.62394093615E-01 -0.49808749287E-01  0.79983432808E-01  0.51100000000E-03 0.  1.
         11    1    3    3    0    0  0.11371545187E-01  0.19034596469E-01 -0.28165576053E-01  0.35849528561E-01  0.51100000000E-03 0. -1.
</event>
<event>
 8    1  0.9952977E+004  0.1043930E+01  0.7957747E-01            NaN
         13   -1    0    0    0    0  0.00000000000E+00  0.00000000000E+00  0.74505805969E-08  0.10566000000E+00  0.10566000000E+00 0. -1.
     999900   -1    0    0    0    0 -0.00000000000E+00 -0.00000000000E+00 -0.74505805969E-08  0.93827000000E+00  0.93827000000E+00 0.  1.
     999902    2    1    2    0    0 -0.17334787875E-01 -0.19120387459E-02 -0.17018353734E-01  0.10195624986E+01  0.10192712658E+01 0.  0.
     999903    2    3    3    0    0 -0.79874807772E-01 -0.99639578295E-01  0.21954442632E-01  0.13109144954E+00  0.19873100233E-01 0.  0.
         14    1    1    2    0    0  0.17334787875E-01  0.19120387459E-02  0.17018353734E-01  0.24367501445E-01  0.00000000000E+00 0.  1.
     999901    1    3    3    0    0  0.62540019898E-01  0.97727539549E-01 -0.38972796367E-01  0.88847104901E+00  0.88000000000E+00 0.  1.
        -11    1    4    4    0    0 -0.76084405638E-01 -0.84873866612E-01  0.19570781900E-01  0.11565330363E+00  0.51100000000E-03 0. -1.
         11    1    4    4    0    0 -0.37904021346E-02 -0.14765711682E-01  0.23836607317E-02  0.15438145916E-01  0.51100000000E-03 0.  1.
</event>
<event>
 8    1  0.9952977E+004  0.1043930E+01  0.7957747E-01            NaN
         13   -1    0    0    0    0  0.00000000000E+00  0.00000000000E+00  0.74505805969E-08  0.10566000000E+00  0.10566000000E+00 0. -1.
     999900   -1    0    0    0    0 -0.00000000000E+00 -0.00000000000E+00 -0.74505805969E-08  0.93827000000E+00  0.93827000000E+00 0. -1.
     999902    2    1    2    0    0 -0.27947796691E-01 -0.76636785394E-02  0.18641724021E-01  0.10094724147E+01  0.10088841514E+01 0.  0.
     999903    2    3    3    0    0 -0.63807148313E-01 -0.10325532994E+00  0.12821752210E-01  0.12355056208E+00  0.19165821774E-01 0.  0.
         14    1    1    2    0    0  0.27947796691E-01  0.76636785394E-02 -0.18641724021E-01  0.34457585276E-01  0.00000000000E+00 0.  1.
     999901    1    3    3    0    0  0.35859351623E-01  0.95591651400E-01  0.58199718106E-02  0.88592185264E+00  0.88000000000E+00 0.  1.
        -11    1    4    4    0    0 -0.31866790205E-01 -0.64698698222E-01  0.11225441058E-02  0.72131373866E-01  0.51100000000E-03 0. -1.
         11    1    4    4    0    0 -0.31940358109E-01 -0.38556631718E-01  0.11699208104E-01  0.51419188216E-01  0.51100000000E-03 0.  1.
</event>
<event>
 8    1  0.9952977E+004  0.1043930E+01  0.7957747E-01            NaN
         13   -1    0    0    0    0  0.00000000000E+00  0.00000000000E+00  0.74505805969E-08  0.10566000000E+00  0.10566000000E+00 0.  1.
     999900   -1    0    0    0    0 -0.00000000000E+00 -0.00000000000E+00 -0.74505805969E-08  0.93827000000E+00  0.93827000000E+00 0.  1.
     999902    2    1    2    0    0 -0.17569561374E-01  0.48847794799E-02 -0.18390608736E-01  0.10180308678E+01  0.10177013721E+01 0.  0.
     999903    2    3    3    0    0  0.35897020451E-01 -0.45474195322E-01 -0.11456759666E+00  0.12974897861E+00  0.18776707058E-01 0.  0.
         14    1    1    2    0    0  0.17569561374E-01 -0.48847794799E-02  0.18390608736E-01  0.25899132169E-01  0.00000000000E+00 0.  1.
     999901    1    3    3    0    0 -0.53466581824E-01  0.50358974802E-01  0.96176987924E-01  0.88828188922E+00  0.88000000000E+00 0. -1.
        -11    1    4    4    0    0  0.26728546960E-01 -0.38948272730E-01 -0.75250361920E-01  0.88849655381E-01  0.51100000000E-03 0.  1.
         11    1    4    4    0    0  0.91684734911E-02 -0.65259225920E-02 -0.39317234740E-01  0.40899323227E-01  0.51100000000E-03 0. -1.
</event>
<event>
 8    1  0.9952977E+004  0.1043930E+01  0.7957747E-01            NaN
         13   -1    0    0    0    0  0.00000000000E+00  0.00000000000E+00  0.74505805969E-08  0.10566000000E+00  0.10566000000E+00 0. -1.
     999900   -1    0    0    0    0 -0.00000000000E+00 -0.00000000000E+00 -0.74505805969E-08  0.93827000000E+00  0.93827000000E+00 0.  1.
     999902    2    1    2    0    0  0.91358458817E-02 -0.13211639917E-01 -0.17551835704E-01  0.10201376053E+01  0.10198601157E+01 0.  0.
     999903    2    3    3    0    0 -0.69737345980E-01  0.40195656763E-01  0.96993080386E-01  0.12761653690E+00  0.19983358064E-01 0.  0.
         14    1    1    2    0    0 -0.91358458817E-02  0.13211639917E-01  0.17551835704E-01  0.23792394706E-01  0.00000000000E+00 0.  1.
     999901    1    3    3    0    0  0.78873191862E-01 -0.53407296680E-01 -0.11454491609E+00  0.89252106840E+00  0.88000000000E+00 0.  1.
        -11    1    4    4    0    0 -0.50898384563E-01  0.28405651648E-01  0.82734732581E-01  0.10120683620E+00  0.51100000000E-03 0.  1.
         11    1    4    4    0    0 -0.18838961416E-01  0.11790005115E-01  0.14258347805E-01  0.26409700699E-01  0.51100000000E-03 0. -1.
</event>
<event>
 8    1  0.9952977E+004  0.1043930E+01  0.7957747E-01            NaN
         13   -1    0    0    0    0  0.00000000000E+00  0.00000000000E+00  0.74505805969E-08  0.10566000000E+00  0.10566000000E+00 0. -1.
     999900   -1    0    0    0    0 -0.00000000000E+00 -0.00000000000E+00 -0.74505805969E-08  0.93827000000E+00  0.93827000000E+00 0.  1.
     999902    2    1    2    0    0  0.50342006618E-02  0.15762446419E-01 -0.16930494508E-01  0.10202563958E+01  0.10199817026E+01 0.  0.
     999903    2    3    3    0    0 -0.24147701229E-02  0.12177529936E+00  0.45682199279E-01  0.13165380654E+00  0.20268369333E-01 0.  0.
         14    1    1    2    0    0 -0.50342006618E-02 -0.15762446419E-01  0.16930494508E-01  0.23673604240E-01  0.00000000000E+00 0. -1.
     999901    1    3    3    0    0  0.74489707847E-02 -0.10601285294E+00 -0.62612693787E-01  0.88860258923E+00  0.88000000000E+00 0.  1.
        -11    1    4    4    0    0  0.34890939235E-02  0.17635818064E-01  0.53031327869E-03  0.17992726541E-01  0.51100000000E-03 0.  1.
         11    1    4    4    0    0 -0.59038640463E-02  0.10413948130E+00  0.45151886000E-01  0.11366107999E+00  0.51100000000E-03 0. -1.
</event>
<event>
 8    1  0.9952977E+004  0.1043930E+01  0.7957747E-01            NaN
         13   -1    0    0    0    0  0.00000000000E+00  0.00000000000E+00  0.74505805969E-08  0.10566000000E+00  0.10566000000E+00 0.  1.
     999900   -1    0    0    0    0 -0.00000000000E+00 -0.00000000000E+00 -0.74505805969E-08  0.93827000000E+00  0.93827000000E+00 0.  1.
     999902    2    1    2    0    0 -0.18783139682E-02  0.15339391869E-01 -0.17532137167E-01  0.10205590599E+01  0.10202914260E+01 0.  0.
     999903    2    3    3    0    0  0.12696613627E+00 -0.11028718554E-01 -0.21258872112E-01  0.13077815534E+00  0.20222608152E-01 0.  0.
         14    1    1    2    0    0  0.18783139682E-02 -0.15339391869E-01  0.17532137167E-01  0.23370940074E-01  0.00000000000E+00 0. -1.
     999901    1    3    3    0    0 -0.12884445024E+00  0.26368110424E-01  0.37267349448E-02  0.88978090458E+00  0.88000000000E+00 0. -1.
        -11    1    4    4    0    0  0.10073135124E+00 -0.19539211450E-02 -0.11769870325E-01  0.10143674826E+00  0.51100000000E-03 0.  1.
         11    1    4    4    0    0  0.26234785030E-01 -0.90747974092E-02 -0.94890017871E-02  0.29341407081E-01  0.51100000000E-03 0. -1.
</event>
<event>
 8    1  0.9952977E+004  0.1043930E+01  0.7957747E-01            NaN
         13   -1    0    0    0    0  0.00000000000E+00  0.00000000000E+00  0.74505805969E-08  0.10566000000E+00  0.10566000000E+00 0. -1.
     999900   -1    0    0    0    0 -0.00000000000E+00 -0.00000000000E+00 -0.74505805969E-08  0.93827000000E+00  0.93827000000E+00 0. -1.
     999902    2    1    2    0    0 -0.16098410302E-01  0.12954727183E-01  0.49580008346E-03  0.10232604671E+01  0.10230516869E+01 0.  0.
     999903    2    3    3    0    0 -0.37990190353E-01 -0.75285825130E-01 -0.10063662008E+00  0.13281484190E+00  0.20021061434E-01 0.  0.
         14    1    1    2    0    0  0.16098410302E-01 -0.12954727183E-01 -0.49580008346E-03  0.20669532853E-01  0.00000000000E+00 0.  1.
     999901    1    3    3    0    0  0.21891780051E-01  0.88240552313E-01  0.10113242016E+00  0.89044562524E+00  0.88000000000E+00 0.  1.
        -11    1    4    4    0    0 -0.34313771030E-01 -0.60510769500E-01 -0.70479713932E-01  0.99028477241E-01  0.51100000000E-03 0. -1.
         11    1    4    4    0    0 -0.36764193235E-02 -0.14775055630E-01 -0.30156906145E-01  0.33786364663E-01  0.51100000000E-03 0.  1.
</event>
<event>
 8    1  0.9952977E+004  0.1043930E+01  0.7957747E-01            NaN
         13   -1    0    0    0    0  0.00000000000E+00  0.00000000000E+00  0.74505805969E-08  0.10566000000E+00  0.10566000000E+00 0. -1.
     999900   -1    0    0    0    0 -0.00000000000E+00 -0.00000000000E+00 -0.74505805969E-08  0.93827000000E+00  0.93827000000E+00 0. -1.
     999902    2    1    2    0    0 -0.78324699831E-02 -0.21896128550E-01 -0.72301035616E-02  0.10195771269E+01  0.10192862479E+01 0.  0.
     999903    2    3    3    0    0 -0.18016302597E-01  0.49848865364E-01 -0.11753737568E+00  0.12973514716E+00  0.14376271731E-01 0.  0.
         14    1    1    2    0    0  0.78324699831E-02  0.21896128550E-01  0.72301035616E-02  0.24352873117E-01  0.00000000000E+00 0.  1.
     999901    1    3    3    0    0  0.10183832614E-01 -0.71744993914E-01  0.11030727212E+00  0.88984197972E+00  0.88000000000E+00 0.  1.
        -11    1    4    4    0    0 -0.13777933757E-01  0.33127025848E-01 -0.62641594073E-01  0.72190454558E-01  0.51100000000E-03 0. -1.
         11    1    4    4    0    0 -0.42383688393E-02  0.16721839515E-01 -0.54895781608E-01  0.57544692601E-01  0.51100000000E-03 0.  1.
</event>
<event>
 8    1  0.9952977E+004  0.1043930E+01  0.7957747E-01            NaN
         13   -1    0    0    0    0  0.00000000000E+00  0.00000000000E+00  0.74505805969E-08  0.10566000000E+00  0.10566000000E+00 0. -1.
     999900   -1    0    0    0    0 -0.00000000000E+00 -0.00000000000E+00 -0.74505805969E-08  0.93827000000E+00  0.93827000000E+00 0.  1.
     999902    2    1    2    0    0  0.25217301617E-02  0.24401182750E-01 -0.19254619401E-03  0.10193981041E+01  0.10191028803E+01 0.  0.
     999903    2    3    3    0    0  0.26424879640E-02  0.69180831155E-01 -0.10997852629E+00  0.13144642021E+00  0.19746265405E-01 0.  0.
         14    1    1    2    0    0 -0.25217301617E-02 -0.24401182750E-01  0.19254619401E-03  0.24531895904E-01  0.00000000000E+00 0. -1.
     999901    1    3    3    0    0 -0.12075780231E-03 -0.44779648406E-01  0.10978598010E+00  0.88795168389E+00  0.88000000000E+00 0. -1.
        -11    1    4    4    0    0  0.66015707507E-02  0.31018440632E-01 -0.35089248997E-01  0.47299481095E-01  0.51100000000E-03 0.  1.
         11    1    4    4    0    0 -0.39590827866E-02  0.38162390523E-01 -0.74889277298E-01  0.84146939113E-01  0.51100000000E-03 0. -1.
</event>
<event>
 8    1  0.9952977E+004  0.1043930E+01  0.7957747E-01            NaN
         13   -1    0    0    0    0  0.00000000000E+00  0.00000000000E+00  0.74505805969E-08  0.10566000000E+00  0.10566000000E+00 0.  1.
     999900   -1    0    0    0    0 -0.00000000000E+00 -0.00000000000E+00 -0.74505805969E-08  0.93827000000E+00  0.93827000000E+00 0.  1.
     999902    2    1    2    0    0  0.17276584613E-01  0.77314903520E-02  0.63539094343E-02  0.10239643173E+01  0.10237696492E+01 0.  0.
     999903    2    3    3    0    0  0.65158891395E-01 -0.59119911325E-01 -0.98875382396E-01  0.13388846155E+00  0.20222112859E-01 0.  0.
         14    1    1    2    0    0 -0.17276584613E-01 -0.77314903520E-02 -0.63539094343E-02  0.19965682659E-01  0.00000000000E+00 0. -1.
     999901    1    3    3    0    0 -0.47882306782E-01  0.66851401677E-01  0.10522929183E+00  0.89007585579E+00  0.88000000000E+00 0. -1.
        -11    1    4    4    0    0  0.31760488485E-01 -0.41947535546E-01 -0.54557748022E-01  0.75796657957E-01  0.51100000000E-03 0.  1.
         11    1    4    4    0    0  0.33398402910E-01 -0.17172375779E-01 -0.44317634373E-01  0.58091803590E-01  0.51100000000E-03 0. -1.
</event>
<event>
 8    1  0.9952977E+004  0.1043930E+01  0.7957747E-01            NaN
         13   -1    0    0    0    0  0.00000000000E+00  0.00000000000E+00  0.74505805969E-08  0.10566000000E+00  0.10566000000E+00 0.  1.
     999900   -1    0    0    0    0 -0.00000000000E+00 -0.00000000000E+00 -0.74505805969E-08  0.93827000000E+00  0.93827000000E+00 0. -1.
     999902    2    1    2    0    0 -0.65439630155E-02 -0.90612419599E-02 -0.20651981547E-01  0.10204473703E+01  0.10201771422E+01 0.  0.
     999903    2    3    3    0    0 -0.96304686201E-01 -0.82184390346E-01  0.29257136748E-01  0.13146204847E+00  0.19935484387E-01 0.  0.
         14    1    1    2    0    0  0.65439630155E-02  0.90612419599E-02  0.20651981547E-01  0.23482629742E-01  0.00000000000E+00 0.  1.
     999901    1    3    3    0    0  0.89760723186E-01  0.73123148386E-01 -0.49909118295E-01  0.88898532178E+00  0.88000000000E+00 0. -1.
        -11    1    4    4    0    0 -0.57235113924E-01 -0.61235579145E-01  0.19911738416E-01  0.86153310249E-01  0.51100000000E-03 0. -1.
         11    1    4    4    0    0 -0.39069572277E-01 -0.20948811201E-01  0.93453983322E-02  0.45308738226E-01  0.51100000000E-03 0.  1.
</event>
<event>
 8    1  0.9952977E+004  0.1043930E+01  0.7957747E-01            NaN
         13   -1    0    0    0    0  0.00000000000E+00  0.00000000000E+00  0.74505805969E-08  0.10566000000E+00  0.10566000000E+00 0. -1.
     999900   -1    0    0    0    0 -0.00000000000E+00 -0.00000000000E+00 -0.74505805969E-08  0.93827000000E+00  0.93827000000E+00 0. -1.
     999902    2    1    2    0    0  0.19497602595E-01  0.61250913389E-02  0.12899532690E-01  0.10197624351E+01  0.10194760187E+01 0.  0.
     999903    2    3    3    0    0  0.69422180690E-01 -0.50260846649E-01  0.98894421852E-01  0.13236908460E+00  0.19896633052E-01 0.  0.
         14    1    1    2    0    0 -0.19497602595E-01 -0.61250913389E-02 -0.12899532690E-01  0.24167564927E-01  0.00000000000E+00 0.  1.
     999901    1    3    3    0    0 -0.49924578095E-01  0.56385937988E-01 -0.85994889162E-01  0.88739335047E+00  0.88000000000E+00 0. -1.
        -11    1    4    4    0    0  0.85242545690E-02 -0.15833159907E-01  0.18671676571E-01  0.25927678175E-01  0.51100000000E-03 0. -1.
         11    1    4    4    0    0  0.60897926121E-01 -0.34427686742E-01  0.80222745281E-01  0.10644140642E+00  0.51100000000E-03 0.  1.
</event>
<event>
 8    1  0.9952977E+004  0.1043930E+01  0.7957747E-01            NaN
         13   -1    0    0    0    0  0.00000000000E+00  0.00000000000E+00  0.74505805969E-08  0.10566000000E+00  0.10566000000E+00 0.  1.
     999900   -1    0    0    0    0 -0.00000000000E+00 -0.00000000000E+00 -0.74505805969E-08  0.93827000000E+00  0.93827000000E+00 0.  1.
     999902    2    1    2    0    0  0.73042014327E-02  0.69894984045E-02  0.20950763836E-01  0.10206676065E+01  0.10204024814E+01 0.  0.
     999903    2    3    3    0    0  0.31231580008E-01 -0.10875186454E+00  0.64239306463E-01  0.13171176930E+00  0.20467585285E-01 0.  0.
         14    1    1    2    0    0 -0.73042014327E-02 -0.69894984045E-02 -0.20950763836E-01  0.23262393510E-01  0.00000000000E+00 0. -1.
     999901    1    3    3    0    0 -0.23927378575E-01  0.11574136295E+00 -0.43288542627E-01  0.88895583718E+00  0.88000000000E+00 0.  1.
        -11    1    4    4    0    0  0.10370439191E-01 -0.55256802153E-01  0.21768333495E-01  0.60290809062E-01  0.51100000000E-03 0. -1.
         11    1    4    4    0    0  0.20861140817E-01 -0.53495062390E-01  0.42470972968E-01  0.71420960243E-01  0.51100000000E-03 0.  1.
</event>
<event>
 8    1  0.9952977E+004  0.1043930E+01  0.7957747E-01            NaN
         13   -1    0    0    0    0  0.00000000000E+00  0.00000000000E+00  0.74505805969E-08  0.10566000000E+00  0.10566000000E+00 0.  1.
     999900   -1    0    0    0    0 -0.00000000000E+00 -0.00000000000E+00 -0.74505805969E-08  0.93827000000E+00  0.93827000000E+00 0. -1.
     999902    2    1    2    0    0  0.71070512972E-02  0.24294723890E-02  0.24629001697E-01  0.10181812090E+01  0.10178555762E+01 0.  0.
     999903    2    3    3    0    0 -0.89445430515E-02 -0.66294056123E-01  0.11119722188E+00  0.13112166544E+00  0.18792612016E-01 0.  0.
         14    1    1    2    0    0 -0.71070512972E-02 -0.24294723890E-02 -0.24629001697E-01  0.25748791017E-01  0.00000000000E+00 0. -1.
     999901    1    3    3    0    0  0.16051594349E-01  0.68723528512E-01 -0.86568220178E-01  0.88705954355E+00  0.88000000000E+00 0. -1.
        -11    1    4    4    0    0  0.36221175895E-02 -0.41489120540E-01  0.68320015238E-01  0.80014701538E-01  0.51100000000E-03 0.  1.
         11    1    4    4    0    0 -0.12566660641E-01 -0.24804935583E-01  0.42877206637E-01  0.51106963899E-01  0.51100000000E-03 0. -1.
</event>
<event>
 8    1  0.9952977E+004  0.1043930E+01  0.7957747E-01            NaN
         13   -1    0    0    0    0  0.00000000000E+00  0.00000000000E+00  0.74505805969E-08  0.10566000000E+00  0.10566000000E+00 0.  1.
     999900   -1    0    0    0    0 -0.00000000000E+00 -0.00000000000E+00 -0.74505805969E-08  0.93827000000E+00  0.93827000000E+00 0.  1.
     999902    2    1    2    0    0  0.49399304640E-02  0.82571773994E-02  0.21799924086E-01  0.10201010138E+01  0.10198226600E+01 0.  0.
     999903    2    3    3    0    0  0.86383361109E-02  0.13115353875E-01 -0.12527993014E+00  0.12787359686E+00  0.20247531183E-01 0.  0.
         14    1    1    2    0    0 -0.49399304640E-02 -0.82571773994E-02 -0.21799924086E-01  0.23828986167E-01  0.00000000000E+00 0. -1.
     999901    1    3    3    0    0 -0.36984056469E-02 -0.48581764752E-02  0.14707985423E+00  0.89222741698E+00  0.88000000000E+00 0. -1.
        -11    1    4    4    0    0 -0.54866908196E-02  0.18653344394E-02 -0.55086994868E-01  0.55393333293E-01  0.51100000000E-03 0. -1.
         11    1    4    4    0    0  0.14125026930E-01  0.11250019435E-01 -0.70192935274E-01  0.72480263565E-01  0.51100000000E-03 0.  1.
</event>
<event>
 7    1  0.9952977E+004  0.1043930E+01  0.7957747E-01            NaN
         13   -1    0    0    0    0  0.00000000000E+00  0.00000000000E+00  0.74505805969E-08  0.10566000000E+00  0.10566000000E+00 0.  1.
     999900   -1    0    0    0    0 -0.00000000000E+00 -0.00000000000E+00 -0.74505805969E-08  0.93827000000E+00  0.93827000000E+00 0.  1.
     999903    2    1    2    0    0  0.34586673461E-01 -0.10250903126E+00 -0.21874014998E-01  0.11207760043E+00  0.19457042812E-01 0.  0.
         14    1    1    2    0    0 -0.25331950868E-01 -0.53840331611E-02  0.36907419978E-01  0.45087173312E-01  0.00000000000E+00 0.  1.
     999901    1    1    2    0    0 -0.92547225929E-02  0.10789306442E+00 -0.15033404980E-01  0.88676522626E+00  0.88000000000E+00 0.  1.
        -11    1    3    3    0    0  0.69717918284E-02 -0.48872617868E-01 -0.13393105378E-01  0.51154423575E-01  0.51100000000E-03 0. -1.
         11    1    3    3    0    0  0.27614881632E-01 -0.53636413389E-01 -0.84809096204E-02  0.60923176853E-01  0.51100000000E-03 0.  1.
</event>
<event>
 8    1  0.9952977E+004  0.1043930E+01  0.7957747E-01            NaN
         13   -1    0    0    0    0  0.00000000000E+00  0.00000000000E+00  0.74505805969E-08  0.10566000000E+00  0.10566000000E+00 0. -1.
     999900   -1    0    0    0    0 -0.00000000000E+00 -0.00000000000E+00 -0.74505805969E-08  0.93827000000E+00  0.93827000000E+00 0. -1.
     999902    2    1    2    0    0  0.20334253530E-01 -0.15677718470E-02  0.19470426752E-01  0.10157335943E+01  0.10153421578E+01 0.  0.
     999903    2    3    3    0    0  0.60957913572E-01  0.43741612723E-01 -0.98843663278E-01  0.12573278197E+00  0.20235285563E-01 0.  0.
         14    1    1    2    0    0 -0.20334253530E-01  0.15677718470E-02 -0.19470426752E-01  0.28196405677E-01  0.00000000000E+00 0.  1.
     999901    1    3    3    0    0 -0.40623660042E-01 -0.45309384570E-01  0.11831409003E+00  0.89000081235E+00  0.88000000000E+00 0.  1.
        -11    1    4    4    0    0  0.88880671291E-02 -0.53452664633E-03 -0.16134511650E-01  0.18435483265E-01  0.51100000000E-03 0.  1.
         11    1    4    4    0    0  0.52069846442E-01  0.44276139369E-01 -0.82709151628E-01  0.10729729871E+00  0.51100000000E-03 0. -1.
</event>
<event>
 8    1  0.9952977E+004  0.1043930E+01  0.7957747E-01            NaN
         13   -1    0    0    0    0  0.00000000000E+00  0.00000000000E+00  0.74505805969E-08  0.10566000000E+00  0.10566000000E+00 0.  1.
     999900   -1    0    0    0    0 -0.00000000000E+00 -0.00000000000E+00 -0.74505805969E-08  0.93827000000E+00  0.93827000000E+00 0. -1.
     999902    2    1    2    0    0 -0.14344660527E-01 -0.10347189641E-01 -0.12257454933E-01  0.10224107337E+01  0.10221842445E+01 0.  0.
     999903    2    3    3    0    0 -0.15759266380E-01 -0.10199191206E+00  0.81064963373E-01  0.13274235169E+00  0.19957430749E-01 0.  0.
         14    1    1    2    0    0  0.14344660527E-01  0.10347189641E-01  0.12257454933E-01  0.21519266264E-01  0.00000000000E+00 0.  1.
     999901    1    3    3    0    0  0.14146058529E-02  0.91644722421E-01 -0.93322418305E-01  0.88966838205E+00  0.88000000000E+00 0. -1.
        -11    1    4    4    0    0 -0.13899432661E-01 -0.36779087244E-01  0.24008560059E-01  0.46071331258E-01  0.51100000000E-03 0.  1.
         11    1    4    4    0    0 -0.18598337188E-02 -0.65212824819E-01  0.57056403314E-01  0.86671020430E-01  0.51100000000E-03 0. -1.
</event>
<event>
 8    1  0.9952977E+004  0.1043930E+01  0.7957747E-01            NaN
         13   -1    0    0    0    0  0.00000000000E+00  0.00000000000E+00  0.74505805969E-08  0.10566000000E+00  0.10566000000E+00 0.  1.
     999900   -1    0    0    0    0 -0.00000000000E+00 -0.00000000000E+00 -0.74505805969E-08  0.93827000000E+00  0.93827000000E+00 0. -1.
     999902    2    1    2    0    0 -0.73348126220E-02 -0.37102105278E-02  0.19334220245E-01  0.10229210207E+01  0.10227052544E+01 0.  0.
     999903    2    3    3    0    0  0.60668953727E-01  0.10001125638E+00  0.60653987070E-01  0.13326379567E+00  0.19933884213E-01 0.  0.
         14    1    1    2    0    0  0.73348126220E-02  0.37102105278E-02 -0.19334220245E-01  0.21008979291E-01  0.00000000000E+00 0. -1.
     999901    1    3    3    0    0 -0.68003766349E-01 -0.10372146691E+00 -0.41319766824E-01  0.88965722504E+00  0.88000000000E+00 0.  1.
        -11    1    4    4    0    0  0.40743472293E-01  0.75777776950E-01  0.52694907980E-01  0.10089259865E+00  0.51100000000E-03 0.  1.
         11    1    4    4    0    0  0.19925481433E-01  0.24233479429E-01  0.79590790898E-02  0.32371197021E-01  0.51100000000E-03 0. -1.
</event>
<event>
 8    1  0.9952977E+004  0.1043930E+01  0.7957747E-01            NaN
         13   -1    0    0    0    0  0.00000000000E+00  0.00000000000E+00  0.74505805969E-08  0.10566000000E+00  0.10566000000E+00 0.  1.
     999900   -1    0    0    0    0 -0.00000000000E+00 -0.00000000000E+00 -0.74505805969E-08  0.93827000000E+00  0.93827000000E+00 0.  1.
     999902    2    1    2    0    0  0.10829591767E-01 -0.17358579994E-01  0.26616578432E-02  0.10232978702E+01  0.10230898526E+01 0.  0.
     999903    2    3    3    0    0 -0.86212170709E-01 -0.41130769429E-01 -0.90235956711E-01  0.13278555281E+00  0.19110117176E-01 0.  0.
         14    1    1    2    0    0 -0.10829591767E-01  0.17358579994E-01 -0.26616578432E-02  0.20632129791E-01  0.00000000000E+00 0. -1.
     999901    1    3    3    0    0  0.97041762476E-01  0.23772189435E-01  0.92897614554E-01  0.89051231740E+00  0.88000000000E+00 0.  1.
        -11    1    4    4    0    0 -0.50923689365E-02 -0.55373403155E-02 -0.21086097470E-02  0.78295411884E-02  0.51100000000E-03 0.  1.
         11    1    4    4    0    0 -0.81119801772E-01 -0.35593429114E-01 -0.88127346964E-01  0.12495601162E+00  0.51100000000E-03 0. -1.
</event>
<event>
 8    1  0.9952977E+004  0.1043930E+01  0.7957747E-01            NaN
         13   -1    0    0    0    0  0.00000000000E+00  0.00000000000E+00  0.74505805969E-08  0.10566000000E+00  0.10566000000E+00 0.  1.
     999900   -1    0    0    0    0 -0.00000000000E+00 -0.00000000000E+00 -0.74505805969E-08  0.93827000000E+00  0.93827000000E+00 0.  1.
     999902    2    1    2    0    0  0.88129053763E-02 -0.15169787777E-01 -0.16146607955E-01  0.10200867051E+01  0.10198080129E+01 0.  0.
     999903    2    3    3    0    0  0.98664139021E-01  0.15499379311E-01  0.80015910903E-01  0.12977155191E+00  0.21523628873E-01 0.  0.
         14    1    1    2    0    0 -0.88129053763E-02  0.15169787777E-01  0.16146607955E-01  0.23843294882E-01  0.00000000000E+00 0. -1.
     999901    1    3    3    0    0 -0.89851233645E-01 -0.30669167088E-01 -0.96162518858E-01  0.89031515321E+00  0.88000000000E+00 0.  1.
        -11    1    4    4    0    0  0.67107822894E-01  0.20564824837E-01  0.55924460501E-01  0.89745074057E-01  0.51100000000E-03 0. -1.
         11    1    4    4    0    0  0.31556316127E-01 -0.50654455265E-02  0.24091450402E-01  0.40026477854E-01  0.51100000000E-03 0.  1.
</event>
<event>
 8    1  0.9952977E+004  0.1043930E+01  0.7957747E-01            NaN
         13   -1    0    0    0    0  0.00000000000E+00  0.00000000000E+00  0.74505805969E-08  0.10566000000E+00  0.10566000000E+00 0. -1.
     999900   -1    0    0    0    0 -0.00000000000E+00 -0.00000000000E+00 -0.74505805969E-08  0.93827000000E+00  0.93827000000E+00 0. -1.
     999902    2    1    2    0    0 -0.12489196760E-01 -0.16394423393E-01 -0.11177462204E-01  0.10204844713E+01  0.10202151064E+01 0.  0.
     999903    2    3    3    0    0 -0.60671553356E-01  0.10705636368E+00 -0.37633020345E-01  0.13016905930E+00  0.19637652277E-01 0.  0.
         14    1    1    2    0    0  0.12489196760E-01  0.16394423393E-01  0.11177462204E-01  0.23445528687E-01  0.00000000000E+00 0. -1.
     999901    1    3    3    0    0  0.48182356597E-01 -0.12345078707E+00  0.26455558141E-01  0.89031541202E+00  0.88000000000E+00 0. -1.
        -11    1    4    4    0    0 -0.45890969283E-01  0.69322851513E-01 -0.32716778958E-01  0.89343648627E-01  0.51100000000E-03 0.  1.
         11    1    4    4    0    0 -0.14780584074E-01  0.37733512167E-01 -0.49162413874E-02  0.40825410670E-01  0.51100000000E-03 0. -1.
</event>
<event>
 8    1  0.9952977E+004  0.1043930E+01  0.7957747E-01            NaN
         13   -1    0    0    0    0  0.00000000000E+00  0.00000000000E+00  0.74505805969E-08  0.10566000000E+00  0.10566000000E+00 0. -1.
     999900   -1    0    0    0    0 -0.00000000000E+00 -0.00000000000E+00 -0.74505805969E-08  0.93827000000E+00  0.93827000000E+00 0.  1.
     999902    2    1    2    0    0 -0.12391437645E-01 -0.19033487490E-01  0.77063882013E-02  0.10199464683E+01  0.10196644489E+01 0.  0.
     999903    2    3    3    0    0 -0.57318096309E-01  0.42659020408E-01 -0.10625050710E+00  0.12932278562E+00  0.18167455400E-01 0.  0.
         14    1    1    2    0    0  0.12391437645E-01  0.19033487490E-01 -0.77063882013E-02  0.23983531685E-01  0.00000000000E+00 0.  1.
     999901    1    3    3    0    0  0.44926658664E-01 -0.61692507899E-01  0.11395689530E+00  0.89062368269E+00  0.88000000000E+00 0. -1.
        -11    1    4    4    0    0 -0.24469439364E-01  0.94742105570E-02 -0.47576005737E-01  0.54334625897E-01  0.51100000000E-03 0.  1.
         11    1    4    4    0    0 -0.32848656944E-01  0.33184809852E-01 -0.58674501360E-01  0.74988159724E-01  0.51100000000E-03 0. -1.
</event>
<event>
 8    1  0.9952977E+004  0.1043930E+01  0.7957747E-01            NaN
         13   -1    0    0    0    0  0.00000000000E+00  0.00000000000E+00  0.74505805969E-08  0.10566000000E+00  0.10566000000E+00 0. -1.
     999900   -1    0    0    0    0 -0.00000000000E+00 -0.00000000000E+00 -0.74505805969E-08  0.93827000000E+00  0.93827000000E+00 0.  1.
     999902    2    1    2    0    0 -0.64166572066E-02  0.20789093563E-01 -0.53524041491E-02  0.10215244620E+01  0.10212787173E+01 0.  0.
     999903    2    3    3    0    0  0.21932938006E-01 -0.50263448842E-01  0.11606741250E+00  0.12989957724E+00  0.19869269297E-01 0.  0.
         14    1    1    2    0    0  0.64166572066E-02 -0.20789093563E-01  0.53524041491E-02  0.22405537955E-01  0.00000000000E+00 0.  1.
     999901    1    3    3    0    0 -0.28349595213E-01  0.71052542405E-01 -0.12141981665E+00  0.89162488481E+00  0.88000000000E+00 0.  1.
        -11    1    4    4    0    0 -0.28158267071E-02 -0.12902302967E-01  0.32238120316E-01  0.34841868842E-01  0.51100000000E-03 0.  1.
         11    1    4    4    0    0  0.24748764714E-01 -0.37361145875E-01  0.83829292187E-01  0.95057708397E-01  0.51100000000E-03 0. -1.
</event>
<event>
 8    1  0.9952977E+004  0.1043930E+01  0.7957747E-01            NaN
         13   -1    0    0    0    0  0.00000000000E+00  0.00000000000E+00  0.74505805969E-08  0.10566000000E+00  0.10566000000E+00 0.  1.
     999900   -1    0    0    0    0 -0.00000000000E+00 -0.00000000000E+00 -0.74505805969E-08  0.93827000000E+00  0.93827000000E+00 0. -1.
     999902    2    1    2    0    0 -0.24805647449E-01  0.12679833880E-01  0.34865420714E-03  0.10160692769E+01  0.10156872331E+01 0.  0.
     999903    2    3    3    0    0  0.96497857702E-01 -0.19880016084E-01  0.73064007821E-01  0.12418239682E+00  0.19387286035E-01 0.  0.
         14    1    1    2    0    0  0.24805647449E-01 -0.12679833880E-01 -0.34865420714E-03  0.27860723112E-01  0.00000000000E+00 0.  1.
     999901    1    3    3    0    0 -0.12130350515E+00  0.32559849964E-01 -0.72715353614E-01  0.89188688007E+00  0.88000000000E+00 0.  1.
        -11    1    4    4    0    0  0.35439171121E-01 -0.16568750013E-01  0.25345738927E-01  0.46616798791E-01  0.51100000000E-03 0.  1.
         11    1    4    4    0    0  0.61058686581E-01 -0.33112660714E-02  0.47718268894E-01  0.77565598026E-01  0.51100000000E-03 0. -1.
</event>
<event>
 7    1  0.9952977E+004  0.1043930E+01  0.7957747E-01            NaN
         13   -1    0    0    0    0  0.00000000000E+00  0.00000000000E+00  0.74505805969E-08  0.10566000000E+00  0.10566000000E+00 0.  1.
     999900   -1    0    0    0    0 -0.00000000000E+00 -0.00000000000E+00 -0.74505805969E-08  0.93827000000E+00  0.93827000000E+00 0.  1.
     999902    2    1    2    0    0  0.18242198212E-01  0.12670311351E-01 -0.84840827665E-02  0.10201540827E+01  0.10198769818E+01 0.  0.
         14    1    1    2    0    0 -0.18242198212E-01 -0.12670311351E-01  0.84840827665E-02  0.23775917347E-01  0.00000000000E+00 0.  1.
     999901    1    3    3    0    0 -0.74778631001E-01 -0.19311490665E-01 -0.77772508209E-01  0.88679949276E+00  0.88000000000E+00 0.  1.
        -11    1    3    3    0    0  0.11315327256E-01  0.23227457163E-01  0.36851885213E-01  0.45009709641E-01  0.51100000000E-03 0. -1.
         11    1    3    3    0    0  0.81705501956E-01  0.87543448534E-02  0.32436540230E-01  0.88344880252E-01  0.51100000000E-03 0.  1.
</event>
<event>
 8    1  0.9952977E+004  0.1043930E+01  0.7957747E-01            NaN
         13   -1    0    0    0    0  0.00000000000E+00  0.00000000000E+00  0.74505805969E-08  0.10566000000E+00  0.10566000000E+00 0.  1.
     999900   -1    0    0    0    0 -0.00000000000E+00 -0.00000000000E+00 -0.74505805969E-08  0.93827000000E+00  0.93827000000E+00 0. -1.
     999902    2    1    2    0    0 -0.18646780161E-01  0.14408249445E-01  0.78341716560E-03  0.10203521756E+01  0.10200797265E+01 0.  0.
     999903    2    3    3    0    0 -0.85244101429E-01  0.80948001757E-01 -0.59413322281E-01  0.13328600595E+00  0.20398056316E-01 0.  0.
         14    1    1    2    0    0  0.18646780161E-01 -0.14408249445E-01 -0.78341716560E-03  0.23577824431E-01  0.00000000000E+00 0.  1.
     999901    1    3    3    0    0  0.66597321268E-01 -0.66539752312E-01  0.60196739447E-01  0.88706616962E+00  0.88000000000E+00 0.  1.
        -11    1    4    4    0    0 -0.90844633294E-02  0.18763104785E-01 -0.80288717325E-02  0.22345144382E-01  0.51100000000E-03 0.  1.
         11    1    4    4    0    0 -0.76159638100E-01  0.62184896972E-01 -0.51384450549E-01  0.11094086157E+00  0.51100000000E-03 0. -1.
</event>
<event>
 8    1  0.9952977E+004  0.1043930E+01  0.7957747E-01            NaN
         13   -1    0    0    0    0  0.00000000000E+00  0.00000000000E+00  0.74505805969E-08  0.10566000000E+00  0.10566000000E+00 0.  1.
     999900   -1    0    0    0    0 -0.00000000000E+00 -0.00000000000E+00 -0.74505805969E-08  0.93827000000E+00  0.93827000000E+00 0. -1.
     999902    2    1    2    0    0 -0.11871716044E-02  0.81664663797E-02 -0.22237400423E-01  0.10202107562E+01  0.10199349903E+01 0.  0.
     999903    2    3    3    0    0  0.10915195178E+00  0.62154869067E-01 -0.34133914932E-01  0.13159891920E+00  0.19384918357E-01 0.  0.
         14    1    1    2    0    0  0.11871716044E-02 -0.81664663797E-02  0.22237400423E-01  0.23719243815E-01  0.00000000000E+00 0.  1.
     999901    1    3    3    0    0 -0.11033912338E+00 -0.53988402687E-01  0.11896514509E-01  0.88861183699E+00  0.88000000000E+00 0.  1.
        -11    1    4    4    0    0  0.79406536253E-01  0.54165844238E-01 -0.22921997315E-01  0.98818094313E-01  0.51100000000E-03 0. -1.
         11    1    4    4    0    0  0.29745415527E-01  0.79890248295E-02 -0.11211917617E-01  0.32780824887E-01  0.51100000000E-03 0.  1.
</event>
<event>
 8    1  0.9952977E+004  0.1043930E+01  0.7957747E-01            NaN
         13   -1    0    0    0    0  0.00000000000E+00  0.00000000000E+00  0.74505805969E-08  0.10566000000E+00  0.10566000000E+00 0. -1.
     999900   -1    0    0    0    0 -0.00000000000E+00 -0.00000000000E+00 -0.74505805969E-08  0.93827000000E+00  0.93827000000E+00 0. -1.
     999902    2    1    2    0    0  0.15349996220E-01 -0.17472047513E-01  0.63467844428E-03  0.10206641958E+01  0.10203989920E+01 0.  0.
     999903    2    3    3    0    0  0.66585399964E-01  0.47062027675E-01 -0.10047413041E+00  0.13105040056E+00  0.20753473614E-01 0.  0.
         14    1    1    2    0    0 -0.15349996220E-01  0.17472047513E-01 -0.63467844428E-03  0.23265804198E-01  0.00000000000E+00 0. -1.
     999901    1    3    3    0    0 -0.51235403744E-01 -0.64534075188E-01  0.10110880886E+00  0.88961379524E+00  0.88000000000E+00 0. -1.
        -11    1    4    4    0    0  0.51817635560E-01  0.44330933820E-01 -0.74164591170E-01  0.10075190694E+00  0.51100000000E-03 0.  1.
         11    1    4    4    0    0  0.14767764404E-01  0.27310938551E-02 -0.26309539244E-01  0.30298493616E-01  0.51100000000E-03 0. -1.
</event>
<event>
 8    1  0.9952977E+004  0.1043930E+01  0.7957747E-01            NaN
         13   -1    0    0    0    0  0.00000000000E+00  0.00000000000E+00  0.74505805969E-08  0.10566000000E+00  0.10566000000E+00 0.  1.
     999900   -1    0    0    0    0 -0.00000000000E+00 -0.00000000000E+00 -0.74505805969E-08  0.93827000000E+00  0.93827000000E+00 0.  1.
     999902    2    1    2    0    0 -0.16986379641E-01 -0.78245599841E-02 -0.14248160873E-01  0.10204189192E+01  0.10201480283E+01 0.  0.
     999903    2    3    3    0    0  0.45571596810E-01 -0.12065775119E+00  0.79856393171E-02  0.13073404728E+00  0.19813059402E-01 0.  0.
         14    1    1    2    0    0  0.16986379641E-01  0.78245599841E-02  0.14248160873E-01  0.23511080803E-01  0.00000000000E+00 0. -1.
     999901    1    3    3    0    0 -0.62557976452E-01  0.11283319121E+00 -0.22233800190E-01  0.88968487192E+00  0.88000000000E+00 0.  1.
        -11    1    4    4    0    0  0.19847540522E-01 -0.45496291698E-01  0.12410785365E-01  0.51167627827E-01  0.51100000000E-03 0. -1.
         11    1    4    4    0    0  0.25724056289E-01 -0.75161459494E-01 -0.44251460475E-02  0.79566419448E-01  0.51100000000E-03 0.  1.
</event>
<event>
 8    1  0.9952977E+004  0.1043930E+01  0.7957747E-01            NaN
         13   -1    0    0    0    0  0.00000000000E+00  0.00000000000E+00  0.74505805969E-08  0.10566000000E+00  0.10566000000E+00 0.  1.
     999900   -1    0    0    0    0 -0.00000000000E+00 -0.00000000000E+00 -0.74505805969E-08  0.93827000000E+00  0.93827000000E+00 0.  1.
     999902    2    1    2    0    0 -0.18133568157E-01 -0.27117809200E-02 -0.15249983388E-01  0.10200816868E+01  0.10198028759E+01 0.  0.
     999903    2    3    3    0    0 -0.47058109499E-01 -0.32398544998E-02 -0.12297243833E+00  0.13304108160E+00  0.18781546215E-01 0.  0.
         14    1    1    2    0    0  0.18133568157E-01  0.27117809200E-02  0.15249983388E-01  0.23848313215E-01  0.00000000000E+00 0.  1.
     999901    1    3    3    0    0  0.28924541343E-01  0.52807357982E-03  0.10772245494E+00  0.88704060519E+00  0.88000000000E+00 0. -1.
        -11    1    4    4    0    0 -0.16720043050E-01  0.21958547442E-02 -0.67528877393E-01  0.69604540230E-01  0.51100000000E-03 0.  1.
         11    1    4    4    0    0 -0.30338066449E-01 -0.54357092440E-02 -0.55443560932E-01  0.63436541368E-01  0.51100000000E-03 0. -1.
</event>
<event>
 8    1  0.9952977E+004  0.1043930E+01  0.7957747E-01            NaN
         13   -1    0    0    0    0  0.00000000000E+00  0.00000000000E+00  0.74505805969E-08  0.10566000000E+00  0.10566000000E+00 0.  1.
     999900   -1    0    0    0    0 -0.00000000000E+00 -0.00000000000E+00 -0.74505805969E-08  0.93827000000E+00  0.93827000000E+00 0. -1.
     999902    2    1    2    0    0  0.11258848501E-01  0.11354235185E-01  0.17190663799E-01  0.10204523671E+01  0.10201822554E+01 0.  0.
     999903    2    3    3    0    0  0.59700946536E-01  0.50841041967E-01 -0.10201040917E+00  0.13021939724E+00  0.20048772380E-01 0.  0.
         14    1    1    2    0    0 -0.11258848501E-01 -0.11354235185E-01 -0.17190663799E-01  0.23477632932E-01  0.00000000000E+00 0. -1.
     999901    1    3    3    0    0 -0.48442098035E-01 -0.39486806782E-01  0.11920107297E+00  0.89023296983E+00  0.88000000000E+00 0.  1.
        -11    1    4    4    0    0  0.15903872396E-01  0.26251595940E-01 -0.39698648260E-01  0.50182897896E-01  0.51100000000E-03 0. -1.
         11    1    4    4    0    0  0.43797074140E-01  0.24589446027E-01 -0.62311760906E-01  0.80036499345E-01  0.51100000000E-03 0.  1.
</event>
<event>
 8    1  0.9952977E+004  0.1043930E+01  0.7957747E-01            NaN
         13   -1    0    0    0    0  0.00000000000E+00  0.00000000000E+00  0.74505805969E-08  0.10566000000E+00  0.10566000000E+00 0. -1.
     999900   -1    0    0    0    0 -0.00000000000E+00 -0.00000000000E+00 -0.74505805969E-08  0.93827000000E+00  0.93827000000E+00 0.  1.
     999902    2    1    2    0    0 -0.22336776197E-01 -0.20622982509E-01  0.80233248600E-02  0.10124877876E+01  0.10119994601E+01 0.  0.
     999903    2    3    3    0    0  0.10440753241E+00 -0.42937037924E-01 -0.41095936933E-01  0.12177193016E+00  0.19874729973E-01 0.  0.
         14    1    1    2    0    0  0.22336776197E-01  0.20622982509E-01 -0.80233248600E-02  0.31442212394E-01  0.00000000000E+00 0. -1.
     999901    1    3    3    0    0 -0.12674430861E+00  0.22314055415E-01  0.49119261793E-01  0.89071585745E+00  0.88000000000E+00 0. -1.
        -11    1    4    4    0    0  0.15773567308E-01 -0.14343322257E-01 -0.10265860114E-01  0.23668234490E-01  0.51100000000E-03 0. -1.
         11    1    4    4    0    0  0.88633965104E-01 -0.28593715667E-01 -0.30830076819E-01  0.98103695666E-01  0.51100000000E-03 0.  1.
</event>
<event>
 8    1  0.9952977E+004  0.1043930E+01  0.7957747E-01            NaN
         13   -1    0    0    0    0  0.00000000000E+00  0.00000000000E+00  0.74505805969E-08  0.10566000000E+00  0.10566000000E+00 0. -1.
     999900   -1    0    0    0    0 -0.00000000000E+00 -0.00000000000E+00 -0.74505805969E-08  0.93827000000E+00  0.93827000000E+00 0.  1.
     999902    2    1    2    0    0  0.37363305429E-04  0.10716018731E-01  0.20028226859E-01  0.10212151519E+01  0.10209624979E+01 0.  0.
     999903    2    3    3    0    0 -0.15350331824E-01  0.48305460279E-01 -0.11769542959E+00  0.12957758381E+00  0.19211608434E-01 0.  0.
         14    1    1    2    0    0 -0.37363305429E-04 -0.10716018731E-01 -0.20028226859E-01  0.22714848108E-01  0.00000000000E+00 0.  1.
     999901    1    3    3    0    0  0.15387695129E-01 -0.37589441548E-01  0.13772365645E+00  0.89163756809E+00  0.88000000000E+00 0. -1.
        -11    1    4    4    0    0 -0.86692650328E-02  0.39117535582E-01 -0.71092018882E-01  0.81606825792E-01  0.51100000000E-03 0. -1.
         11    1    4    4    0    0 -0.66810667908E-02  0.91879246968E-02 -0.46603410708E-01  0.47970758013E-01  0.51100000000E-03 0.  1.
</event>
<event>
 8    1  0.9952977E+004  0.1043930E+01  0.7957747E-01            NaN
         13   -1    0    0    0    0  0.00000000000E+00  0.00000000000E+00  0.74505805969E-08  0.10566000000E+00  0.10566000000E+00 0.  1.
     999900   -1    0    0    0    0 -0.00000000000E+00 -0.00000000000E+00 -0.74505805969E-08  0.93827000000E+00  0.93827000000E+00 0. -1.
     999902    2    1    2    0    0  0.96452902248E-02  0.21719226585E-01 -0.12613545593E-02  0.10201319446E+01  0.10198543214E+01 0.  0.
     999903    2    3    3    0    0  0.24240192883E-01 -0.31945694776E-01  0.12182464235E+00  0.12982688584E+00  0.20141063440E-01 0.  0.
         14    1    1    2    0    0 -0.96452902248E-02 -0.21719226585E-01  0.12613545593E-02  0.23798055431E-01  0.00000000000E+00 0. -1.
     999901    1    3    3    0    0 -0.14594902658E-01  0.53664921361E-01 -0.12308599691E+00  0.89030505873E+00  0.88000000000E+00 0. -1.
        -11    1    4    4    0    0  0.16423820739E-01 -0.24078065110E-01  0.10915887290E+00  0.11298413942E+00  0.51100000000E-03 0.  1.
         11    1    4    4    0    0  0.78163721439E-02 -0.78676296660E-02  0.12665769455E-01  0.16842746419E-01  0.51100000000E-03 0. -1.
</event>
<event>
 8    1  0.9952977E+004  0.1043930E+01  0.7957747E-01            NaN
         13   -1    0    0    0    0  0.00000000000E+00  0.00000000000E+00  0.74505805969E-08  0.10566000000E+00  0.10566000000E+00 0. -1.
     999900   -1    0    0    0    0 -0.00000000000E+00 -0.00000000000E+00 -0.74505805969E-08  0.93827000000E+00  0.93827000000E+00 0.  1.
     999902    2    1    2    0    0  0.17722203123E-01 -0.13425508458E-01  0.35096087296E-02  0.10214213769E+01  0.10211733404E+01 0.  0.
     999903    2    3    3    0    0 -0.45600887972E-01  0.11910564639E+00  0.56932614923E-02  0.12924477486E+00  0.20154468906E-01 0.  0.
         14    1    1    2    0    0 -0.17722203123E-01  0.13425508458E-01 -0.35096087296E-02  0.22508623110E-01  0.00000000000E+00 0.  1.
     999901    1    3    3    0    0  0.63323091095E-01 -0.13253115485E+00 -0.21836527627E-02  0.89217660203E+00  0.88000000000E+00 0. -1.
        -11    1    4    4    0    0 -0.24661275144E-01  0.37633731173E-01  0.22125011249E-02  0.45051442773E-01  0.51100000000E-03 0.  1.
         11    1    4    4    0    0 -0.20939612829E-01  0.81471915214E-01  0.34807603674E-02  0.84193332086E-01  0.51100000000E-03 0. -1.
</event>
<event>
 8    1  0.9952977E+004  0.1043930E+01  0.7957747E-01            NaN
         13   -1    0    0    0    0  0.00000000000E+00  0.00000000000E+00  0.74505805969E-08  0.10566000000E+00  0.10566000000E+00 0.  1.
     999900   -1    0    0    0    0 -0.00000000000E+00 -0.00000000000E+00 -0.74505805969E-08  0.93827000000E+00  0.93827000000E+00 0.  1.
     999902    2    1    2    0    0 -0.47141392142E-02 -0.23298230234E-01 -0.20992326101E-02  0.10200671121E+01  0.10197879563E+01 0.  0.
     999903    2    3    3    0    0 -0.89061192782E-01  0.80903662191E-01  0.41513817660E-01  0.12884628764E+00  0.20016747136E-01 0.  0.
         14    1    1    2    0    0  0.47141392142E-02  0.23298230234E-01  0.20992326101E-02  0.23862887883E-01  0.00000000000E+00 0. -1.
     999901    1    3    3    0    0  0.84347053568E-01 -0.10420189242E+00 -0.43613050270E-01  0.89122082448E+00  0.88000000000E+00 0.  1.
        -11    1    4    4    0    0 -0.26345618408E-01  0.28777577751E-01  0.44656030604E-02  0.39273952210E-01  0.51100000000E-03 0. -1.
         11    1    4    4    0    0 -0.62715574373E-01  0.52126084440E-01  0.37048214600E-01  0.89572335428E-01  0.51100000000E-03 0.  1.
</event>
<event>
 8    1  0.9952977E+004  0.1043930E+01  0.7957747E-01            NaN
         13   -1    0    0    0    0  0.00000000000E+00  0.00000000000E+00  0.74505805969E-08  0.10566000000E+00  0.10566000000E+00 0. -1.
     999900   -1    0    0    0    0 -0.00000000000E+00 -0.00000000000E+00 -0.74505805969E-08  0.93827000000E+00  0.93827000000E+00 0.  1.
     999902    2    1    2    0    0  0.10518511912E-01 -0.54046343591E-02  0.20199691083E-01  0.10205232342E+01  0.10202547696E+01 0.  0.
     999903    2    3    3    0    0 -0.10488920830E+00 -0.67306805839E-01 -0.28532208491E-01  0.12949819597E+00  0.20585036040E-01 0.  0.
         14    1    1    2    0    0 -0.10518511912E-01  0.54046343591E-02 -0.20199691083E-01  0.23406765801E-01  0.00000000000E+00 0.  1.
     999901    1    3    3    0    0  0.11540772021E+00  0.61902171480E-01  0.48731899574E-01  0.89102503823E+00  0.88000000000E+00 0. -1.
        -11    1    4    4    0    0 -0.44367243126E-01 -0.40574445244E-01 -0.12268467506E-01  0.61363786433E-01  0.51100000000E-03 0. -1.
         11    1    4    4    0    0 -0.60521965170E-01 -0.26732360594E-01 -0.16263740985E-01  0.68134409536E-01  0.51100000000E-03 0.  1.
</event>
<event>
 7    1  0.9952977E+004  0.1043930E+01  0.7957747E-01            NaN
         13   -1    0    0    0    0  0.00000000000E+00  0.00000000000E+00  0.74505805969E-08  0.10566000000E+00  0.10566000000E+00 0. -1.
     999900   -1    0    0    0    0 -0.00000000000E+00 -0.00000000000E+00 -0.74505805969E-08  0.93827000000E+00  0.93827000000E+00 0.  1.
     999903    2    1    2    0    0  0.80700815921E-01 -0.48903163380E-01 -0.61030754481E-01  0.11417556057E+00  0.20178319077E-01 0.  0.
         14    1    1    2    0    0  0.30846937713E-02 -0.12328654261E-01 -0.36173438971E-01  0.38340953804E-01  0.00000000000E+00 0.  1.
     999901    1    1    2    0    0 -0.83785509692E-01  0.61231817641E-01  0.97204193453E-01  0.89141348562E+00  0.88000000000E+00 0.  1.
        -11    1    3    3    0    0  0.57586672368E-01 -0.34147574066E-01 -0.31893677017E-01  0.74160295332E-01  0.51100000000E-03 0. -1.
         11    1    3    3    0    0  0.23114143552E-01 -0.14755589315E-01 -0.29137077465E-01  0.40015265242E-01  0.51100000000E-03 0.  1.
</event>
<event>
 8    1  0.9952977E+004  0.1043930E+01  0.7957747E-01            NaN
         13   -1    0    0    0    0  0.00000000000E+00  0.00000000000E+00  0.74505805969E-08  0.10566000000E+00  0.10566000000E+00 0. -1.
     999900   -1    0    0    0    0 -0.00000000000E+00 -0.00000000000E+00 -0.74505805969E-08  0.93827000000E+00  0.93827000000E+00 0. -1.
     999902    2    1    2    0    0 -0.19972776663E-01 -0.12950566416E-01  0.25779047609E-02  0.10199868471E+01  0.10197057878E+01 0.  0.
     999903    2    3    3    0    0  0.64697545224E-01 -0.11152191134E+00  0.22198092780E-02  0.13044454811E+00  0.19696281637E-01 0.  0.
         14    1    1    2    0    0  0.19972776663E-01  0.12950566416E-01 -0.25779047609E-02  0.23943152906E-01  0.00000000000E+00 0.  1.
     999901    1    3    3    0    0 -0.84670321887E-01  0.98571344929E-01  0.35809548297E-03  0.88954229898E+00  0.88000000000E+00 0. -1.
        -11    1    4    4    0    0  0.41633770413E-01 -0.52308644375E-01 -0.15558097361E-04  0.66856760901E-01  0.51100000000E-03 0.  1.
         11    1    4    4    0    0  0.23063774811E-01 -0.59213266970E-01  0.22353673753E-02  0.63587787209E-01  0.51100000000E-03 0. -1.
</event>
<event>
 8    1  0.9952977E+004  0.1043930E+01  0.7957747E-01            NaN
         13   -1    0    0    0    0  0.00000000000E+00  0.00000000000E+00  0.74505805969E-08  0.10566000000E+00  0.10566000000E+00 0. -1.
     999900   -1    0    0    0    0 -0.00000000000E+00 -0.00000000000E+00 -0.74505805969E-08  0.93827000000E+00  0.93827000000E+00 0. -1.
     999902    2    1    2    0    0  0.21935426238E-01 -0.51310311426E-02 -0.56678325617E-02  0.10207003911E+01  0.10204360213E+01 0.  0.
     999903    2    3    3    0    0  0.10063991963E+00 -0.76266814678E-01  0.36837540763E-01  0.13331017041E+00  0.21669718035E-01 0.  0.
         14    1    1    2    0    0 -0.21935426238E-01  0.51310311426E-02  0.56678325617E-02  0.23229608924E-01  0.00000000000E+00 0. -1.
     999901    1    3    3    0    0 -0.78704493393E-01  0.71135783535E-01 -0.42505373325E-01  0.88739022067E+00  0.88000000000E+00 0. -1.
        -11    1    4    4    0    0  0.71020541838E-01 -0.44753493037E-01  0.16659876625E-01  0.85583906852E-01  0.51100000000E-03 0. -1.
         11    1    4    4    0    0  0.29619377793E-01 -0.31513321641E-01  0.20177664139E-01  0.47726263553E-01  0.51100000000E-03 0.  1.
</event>
<event>
 8    1  0.9952977E+004  0.1043930E+01  0.7957747E-01            NaN
         13   -1    0    0    0    0  0.00000000000E+00  0.00000000000E+00  0.74505805969E-08  0.10566000000E+00  0.10566000000E+00 0. -1.
     999900   -1    0    0    0    0 -0.00000000000E+00 -0.00000000000E+00 -0.74505805969E-08  0.93827000000E+00  0.93827000000E+00 0.  1.
     999902    2    1    2    0    0  0.10411831417E-01  0.10390452417E-01  0.14471106482E-01  0.10232955468E+01  0.10230874818E+01 0.  0.
     999903    2    3    3    0    0 -0.10353482424E+00  0.49469805985E-01  0.65770980376E-01  0.13360868435E+00  0.18940357427E-01 0.  0.
         14    1    1    2    0    0 -0.10411831417E-01 -0.10390452417E-01 -0.14471106482E-01  0.20634453172E-01  0.00000000000E+00 0. -1.
     999901    1    3    3    0    0  0.11394665565E+00 -0.39079353568E-01 -0.51299873893E-01  0.88968686248E+00  0.88000000000E+00 0.  1.
        -11    1    4    4    0    0 -0.45853487638E-01  0.13207838496E-01  0.21394870732E-01  0.52297140849E-01  0.51100000000E-03 0.  1.
         11    1    4    4    0    0 -0.57681336598E-01  0.36261967489E-01  0.44376109643E-01  0.81311543498E-01  0.51100000000E-03 0. -1.
</event>
<event>
 8    1  0.9952977E+004  0.1043930E+01  0.7957747E-01            NaN
         13   -1    0    0    0    0  0.00000000000E+00  0.00000000000E+00  0.74505805969E-08  0.10566000000E+00  0.10566000000E+00 0.  1.
     999900   -1    0    0    0    0 -0.00000000000E+00 -0.00000000000E+00 -0.74505805969E-08  0.93827000000E+00  0.93827000000E+00 0. -1.
     999902    2    1    2    0    0  0.11991792904E-01 -0.22004163237E-01  0.50579880109E-02  0.10183649938E+01  0.10180440517E+01 0.  0.
     999903    2    3    3    0    0  0.77672876197E-01  0.98481548797E-01  0.11303406342E-01  0.12770803589E+00  0.21210475857E-01 0.  0.
         14    1    1    2    0    0 -0.11991792904E-01  0.22004163237E-01 -0.50579880109E-02  0.25565006152E-01  0.00000000000E+00 0.  1.
     999901    1    3    3    0    0 -0.65681083293E-01 -0.12048571203E+00 -0.62454183311E-02  0.89065695796E+00  0.88000000000E+00 0.  1.
        -11    1    4    4    0    0  0.11831746524E-01  0.17368163609E-01 -0.58858184408E-02  0.21829963644E-01  0.51100000000E-03 0. -1.
         11    1    4    4    0    0  0.65841129673E-01  0.81113385188E-01  0.17189224783E-01  0.10587807225E+00  0.51100000000E-03 0.  1.
</event>
<event>
 8    1  0.9952977E+004  0.1043930E+01  0.7957747E-01            NaN
         13   -1    0    0    0    0  0.00000000000E+00  0.00000000000E+00  0.74505805969E-08  0.10566000000E+00  0.10566000000E+00 0.  1.
     999900   -1    0    0    0    0 -0.00000000000E+00 -0.00000000000E+00 -0.74505805969E-08  0.93827000000E+00  0.93827000000E+00 0.  1.
     999902    2    1    2    0    0  0.86548791793E-02  0.42456343100E-03 -0.20244119568E-01  0.10219092924E+01  0.10216720072E+01 0.  0.
     999903    2    3    3    0    0 -0.78814666008E-01  0.17169936606E-01  0.99153504345E-01  0.12939199760E+00  0.20107543805E-01 0.  0.
         14    1    1    2    0    0 -0.86548791793E-02 -0.42456343100E-03  0.20244119568E-01  0.22020707636E-01  0.00000000000E+00 0.  1.
     999901    1    3    3    0    0  0.87469545188E-01 -0.16745373175E-01 -0.11939762391E+00  0.89251729476E+00  0.88000000000E+00 0.  1.
        -11    1    4    4    0    0 -0.73653577835E-01  0.15818989294E-01  0.81688481480E-01  0.11112317075E+00  0.51100000000E-03 0.  1.
         11    1    4    4    0    0 -0.51610881738E-02  0.13509473127E-02  0.17465022865E-01  0.18268826849E-01  0.51100000000E-03 0. -1.
</event>
<event>
 8    1  0.9952977E+004  0.1043930E+01  0.7957747E-01            NaN
         13   -1    0    0    0    0  0.00000000000E+00  0.00000000000E+00  0.74505805969E-08  0.10566000000E+00  0.10566000000E+00 0.  1.
     999900   -1    0    0    0    0 -0.00000000000E+00 -0.00000000000E+00 -0.74505805969E-08  0.93827000000E+00  0.93827000000E+00 0. -1.
     999902    2    1    2    0    0 -0.32270807717E-02  0.23577980191E-01 -0.44715075409E-03  0.10201280013E+01  0.10198502850E+01 0.  0.
     999903    2    3    3    0    0  0.84734967742E-01  0.88605890511E-01 -0.44860703839E-01  0.13224370993E+00  0.21092592888E-01 0.  0.
         14    1    1    2    0    0  0.32270807717E-02 -0.23577980191E-01  0.44715075409E-03  0.23801998740E-01  0.00000000000E+00 0. -1.
     999901    1    3    3    0    0 -0.87962048514E-01 -0.65027910320E-01  0.44413553085E-01  0.88788429133E+00  0.88000000000E+00 0.  1.
        -11    1    4    4    0    0  0.62203739018E-01  0.51134152916E-01 -0.25953204963E-01  0.84603999380E-01  0.51100000000E-03 0. -1.
         11    1    4    4    0    0  0.22531228724E-01  0.37471737595E-01 -0.18907498876E-01  0.47639710546E-01  0.51100000000E-03 0.  1.
</event>
<event>
 8    1  0.9952977E+004  0.1043930E+01  0.7957747E-01            NaN
         13   -1    0    0    0    0  0.00000000000E+00  0.00000000000E+00  0.74505805969E-08  0.10566000000E+00  0.10566000000E+00 0.  1.
     999900   -1    0    0    0    0 -0.00000000000E+00 -0.00000000000E+00 -0.74505805969E-08  0.93827000000E+00  0.93827000000E+00 0. -1.
     999902    2    1    2    0    0 -0.44530938839E-02  0.15307856696E-01  0.15731843506E-01  0.10215324238E+01  0.10212868556E+01 0.  0.
     999903    2    3    3    0    0 -0.13047065838E+00  0.73147543371E-02 -0.24724146367E-02  0.13233294598E+00  0.20731556364E-01 0.  0.
         14    1    1    2    0    0  0.44530938839E-02 -0.15307856696E-01 -0.15731843506E-01  0.22397576249E-01  0.00000000000E+00 0. -1.
     999901    1    3    3    0    0  0.12601756450E+00  0.79931023586E-02  0.18204258142E-01  0.88919947777E+00  0.88000000000E+00 0.  1.
        -11    1    4    4    0    0 -0.74416543057E-01  0.78416758774E-02  0.81624829406E-02  0.75274172263E-01  0.51100000000E-03 0.  1.
         11    1    4    4    0    0 -0.56054115324E-01 -0.52692154029E-03 -0.10634897577E-01  0.57058773721E-01  0.51100000000E-03 0. -1.
</event>
<event>
 8    1  0.9952977E+004  0.1043930E+01  0.7957747E-01            NaN
         13   -1    0    0    0    0  0.00000000000E+00  0.00000000000E+00  0.74505805969E-08  0.10566000000E+00  0.10566000000E+00 0. -1.
     999900   -1    0    0    0    0 -0.00000000000E+00 -0.00000000000E+00 -0.74505805969E-08  0.93827000000E+00  0.93827000000E+00 0. -1.
     999902    2    1    2    0    0  0.69739624579E-03 -0.44956156087E-02 -0.24041640988E-01  0.10194617058E+01  0.10191680294E+01 0.  0.
     999903    2    3    3    0    0 -0.93432151714E-01 -0.60305618268E-01 -0.67762525132E-01  0.13160662530E+00  0.19031800831E-01 0.  0.
         14    1    1    2    0    0 -0.69739624579E-03  0.44956156087E-02  0.24041640988E-01  0.24468294232E-01  0.00000000000E+00 0. -1.
     999901    1    3    3    0    0  0.94129547959E-01  0.55810002660E-01  0.43720884144E-01  0.88785508046E+00  0.88000000000E+00 0.  1.
        -11    1    4    4    0    0 -0.20277698176E-01 -0.13355261270E-01 -0.24546924864E-01  0.34530576134E-01  0.51100000000E-03 0. -1.
         11    1    4    4    0    0 -0.73154453538E-01 -0.46950356999E-01 -0.43215600268E-01  0.97076049169E-01  0.51100000000E-03 0.  1.
</event>
<event>
 8    1  0.9952977E+004  0.1043930E+01  0.7957747E-01            NaN
         13   -1    0    0    0    0  0.00000000000E+00  0.00000000000E+00  0.74505805969E-08  0.10566000000E+00  0.10566000000E+00 0. -1.
     999900   -1    0    0    0    0 -0.00000000000E+00 -0.00000000000E+00 -0.74505805969E-08  0.93827000000E+00  0.93827000000E+00 0. -1.
     999902    2    1    2    0    0 -0.31955970008E-02  0.25316040801E-01  0.16650760663E-01  0.10134609732E+01  0.10130028542E+01 0.  0.
     999903    2    3    3    0    0 -0.42855099204E-01 -0.60636534119E-01  0.98158794006E-01  0.12463912339E+00  0.19657401656E-01 0.  0.
         14    1    1    2    0    0  0.31955970008E-02 -0.25316040801E-01 -0.16650760663E-01  0.30469026776E-01  0.00000000000E+00 0. -1.
     999901    1    3    3    0    0  0.39659502204E-01  0.85952574920E-01 -0.81508033343E-01  0.88882184984E+00  0.88000000000E+00 0.  1.
        -11    1    4    4    0    0 -0.43619484937E-01 -0.54228161363E-01  0.93940684569E-01  0.11691221617E+00  0.51100000000E-03 0.  1.
         11    1    4    4    0    0  0.76438573282E-03 -0.64083727561E-02  0.42181094366E-02  0.77269072176E-02  0.51100000000E-03 0. -1.
</event>
<event>
 8    1  0.9994819E+004  0.1043930E+01  0.7957747E-01            NaN
         13   -1    0    0    0    0  0.00000000000E+00  0.00000000000E+00  0.74505805969E-08  0.10566000000E+00  0.10566000000E+00 0.  1.
     999900   -1    0    0    0    0 -0.00000000000E+00 -0.00000000000E+00 -0.74505805969E-08  0.93827000000E+00  0.93827000000E+00 0. -1.
     999902    2    1    2    0    0 -0.18380757648E-01 -0.82699476068E-02 -0.11625624729E-01  0.10206620083E+01  0.10203967541E+01 0.  0.
     999903    2    3    3    0    0 -0.13090858519E+00  0.11712698303E-01  0.60286935968E-02  0.13309595838E+00  0.20098358436E-01 0.  0.
         14    1    1    2    0    0  0.18380757648E-01  0.82699476068E-02  0.11625624729E-01  0.23267991651E-01  0.00000000000E+00 0.  1.
     999901    1    3    3    0    0  0.11252782754E+00 -0.19982645910E-01 -0.17654318326E-01  0.88756604997E+00  0.88000000000E+00 0. -1.
        -11    1    4    4    0    0 -0.49670532017E-01  0.85187829763E-02  0.11205043500E-01  0.51628921498E-01  0.51100000000E-03 0.  1.
         11    1    4    4    0    0 -0.81238053172E-01  0.31939153267E-02 -0.51763499034E-02  0.81467036878E-01  0.51100000000E-03 0. -1.
</event>
<event>
 8    1  0.9952977E+004  0.1043930E+01  0.7957747E-01            NaN
         13   -1    0    0    0    0  0.00000000000E+00  0.00000000000E+00  0.74505805969E-08  0.10566000000E+00  0.10566000000E+00 0.  1.
     999900   -1    0    0    0    0 -0.00000000000E+00 -0.00000000000E+00 -0.74505805969E-08  0.93827000000E+00  0.93827000000E+00 0.  1.
     999902    2    1    2    0    0 -0.15155936708E-01 -0.75236401118E-02 -0.17722191795E-01  0.10194272724E+01  0.10191327588E+01 0.  0.
     999903    2    3    3    0    0 -0.95478817514E-01 -0.48249458292E-01 -0.76199737575E-01  0.13290035188E+00  0.20295041336E-01 0.  0.
         14    1    1    2    0    0  0.15155936708E-01  0.75236401118E-02  0.17722191795E-01  0.24502727604E-01  0.00000000000E+00 0.  1.
     999901    1    3    3    0    0  0.80322880806E-01  0.40725818180E-01  0.58477545780E-01  0.88652692052E+00  0.88000000000E+00 0.  1.
        -11    1    4    4    0    0 -0.37691639666E-01 -0.12773643932E-01 -0.38213944718E-01  0.55176012650E-01  0.51100000000E-03 0.  1.
         11    1    4    4    0    0 -0.57787177848E-01 -0.35475814360E-01 -0.37985792857E-01  0.77724339226E-01  0.51100000000E-03 0. -1.
</event>
<event>
 8    1  0.9952977E+004  0.1043930E+01  0.7957747E-01            NaN
         13   -1    0    0    0    0  0.00000000000E+00  0.00000000000E+00  0.74505805969E-08  0.10566000000E+00  0.10566000000E+00 0.  1.
     999900   -1    0    0    0    0 -0.00000000000E+00 -0.00000000000E+00 -0.74505805969E-08  0.93827000000E+00  0.93827000000E+00 0.  1.
     999902    2    1    2    0    0 -0.23112949979E-01 -0.50513894999E-02 -0.21350163723E-02  0.10201753523E+01  0.10198987529E+01 0.  0.
     999903    2    3    3    0    0 -0.81447568505E-01 -0.94393542452E-01 -0.40673197019E-01  0.13289290607E+00  0.21502749969E-01 0.  0.
         14    1    1    2    0    0  0.23112949979E-01  0.50513894999E-02  0.21350163723E-02  0.23754647703E-01  0.00000000000E+00 0.  1.
     999901    1    3    3    0    0  0.58334618526E-01  0.89342152953E-01  0.38538180646E-01  0.88728244623E+00  0.88000000000E+00 0. -1.
        -11    1    4    4    0    0 -0.49654785462E-01 -0.72527352078E-01 -0.26978635864E-01  0.91945214300E-01  0.51100000000E-03 0.  1.
         11    1    4    4    0    0 -0.31792783043E-01 -0.21866190375E-01 -0.13694561155E-01  0.40947691771E-01  0.51100000000E-03 0. -1.
</event>
<event>
 8    1  0.9952977E+004  0.1043930E+01  0.7957747E-01            NaN
         13   -1    0    0    0    0  0.00000000000E+00  0.00000000000E+00  0.74505805969E-08  0.10566000000E+00  0.10566000000E+00 0.  1.
     999900   -1    0    0    0    0 -0.00000000000E+00 -0.00000000000E+00 -0.74505805969E-08  0.93827000000E+00  0.93827000000E+00 0.  1.
     999902    2    1    2    0    0  0.23759485362E-01 -0.10134100652E-01  0.51460605923E-02  0.10175919082E+01  0.10172509998E+01 0.  0.
     999903    2    3    3    0    0  0.94120487994E-02  0.97121660157E-01 -0.78900805112E-01  0.12698900970E+00  0.19485071278E-01 0.  0.
         14    1    1    2    0    0 -0.23759485362E-01  0.10134100652E-01 -0.51460605923E-02  0.26338091812E-01  0.00000000000E+00 0.  1.
     999901    1    3    3    0    0  0.14347436562E-01 -0.10725576081E+00  0.84046865704E-01  0.89060289849E+00  0.88000000000E+00 0. -1.
        -11    1    4    4    0    0 -0.58115625405E-02  0.38232172023E-01 -0.30412408854E-01  0.49200091159E-01  0.51100000000E-03 0. -1.
         11    1    4    4    0    0  0.15223611340E-01  0.58889488135E-01 -0.48488396257E-01  0.77788918540E-01  0.51100000000E-03 0.  1.
</event>
<event>
 8    1  0.9952977E+004  0.1043930E+01  0.7957747E-01            NaN
         13   -1    0    0    0    0  0.00000000000E+00  0.00000000000E+00  0.74505805969E-08  0.10566000000E+00  0.10566000000E+00 0.  1.
     999900   -1    0    0    0    0 -0.00000000000E+00 -0.00000000000E+00 -0.74505805969E-08  0.93827000000E+00  0.93827000000E+00 0. -1.
     999902    2    1    2    0    0  0.16242325624E-02  0.16994947472E-01 -0.14482361101E-01  0.10215423884E+01  0.10212970411E+01 0.  0.
     999903    2    3    3    0    0  0.46164621305E-01  0.65699742217E-01  0.10197536917E+00  0.13141969672E+00  0.20604183617E-01 0.  0.
         14    1    1    2    0    0 -0.16242325624E-02 -0.16994947472E-01  0.14482361101E-01  0.22387611620E-01  0.00000000000E+00 0.  1.
     999901    1    3    3    0    0 -0.44540388742E-01 -0.48704794745E-01 -0.11645773027E+00  0.89012269166E+00  0.88000000000E+00 0. -1.
        -11    1    4    4    0    0  0.20416332203E-01  0.34869926387E-01  0.66557831013E-01  0.77864911077E-01  0.51100000000E-03 0.  1.
         11    1    4    4    0    0  0.25748289101E-01  0.30829815830E-01  0.35417538156E-01  0.53554785648E-01  0.51100000000E-03 0. -1.
</event>
<event>
 8    1  0.9952977E+004  0.1043930E+01  0.7957747E-01            NaN
         13   -1    0    0    0    0  0.00000000000E+00  0.00000000000E+00  0.74505805969E-08  0.10566000000E+00  0.10566000000E+00 0. -1.
     999900   -1    0    0    0    0 -0.00000000000E+00 -0.00000000000E+00 -0.74505805969E-08  0.93827000000E+00  0.93827000000E+00 0.  1.
     999902    2    1    2    0    0  0.18110977614E-01  0.78813931955E-02 -0.13352173810E-01  0.10200887665E+01  0.10198101231E+01 0.  0.
     999903    2    3    3    0    0  0.10157349423E+00 -0.16277469039E-03 -0.83924740348E-01  0.13329048761E+00  0.20144250271E-01 0.  0.
         14    1    1    2    0    0 -0.18110977614E-01 -0.78813931955E-02  0.13352173810E-01  0.23841233489E-01  0.00000000000E+00 0. -1.
     999901    1    3    3    0    0 -0.83462516615E-01  0.80441678859E-02  0.70572566537E-01  0.88679827890E+00  0.88000000000E+00 0.  1.
        -11    1    4    4    0    0  0.15943461042E-01 -0.74794994960E-03 -0.23785669928E-01  0.28649129028E-01  0.51100000000E-03 0.  1.
         11    1    4    4    0    0  0.85630033186E-01  0.58517525922E-03 -0.60139070420E-01  0.10464135858E+00  0.51100000000E-03 0. -1.
</event>
<event>
 8    1  0.9952977E+004  0.1043930E+01  0.7957747E-01            NaN
         13   -1    0    0    0    0  0.00000000000E+00  0.00000000000E+00  0.74505805969E-08  0.10566000000E+00  0.10566000000E+00 0. -1.
     999900   -1    0    0    0    0 -0.00000000000E+00 -0.00000000000E+00 -0.74505805969E-08  0.93827000000E+00  0.93827000000E+00 0. -1.
     999902    2    1    2    0    0 -0.63960784591E-03 -0.82899527703E-02 -0.24308169061E-01  0.10182391554E+01  0.10179150053E+01 0.  0.
     999903    2    3    3    0    0  0.12421282355E+00  0.27311365439E-01 -0.41706186736E-02  0.12848576008E+00  0.17789330098E-01 0.  0.
         14    1    1    2    0    0  0.63960784591E-03  0.82899527703E-02  0.24308169061E-01  0.25690844638E-01  0.00000000000E+00 0. -1.
     999901    1    3    3    0    0 -0.12485243140E+00 -0.35601318209E-01 -0.20137550387E-01  0.88975339528E+00  0.88000000000E+00 0. -1.
        -11    1    4    4    0    0  0.93909513604E-01  0.12868366148E-01 -0.47540689109E-02  0.94907607097E-01  0.51100000000E-03 0. -1.
         11    1    4    4    0    0  0.30303309949E-01  0.14442999291E-01  0.58345023726E-03  0.33578152980E-01  0.51100000000E-03 0.  1.
</event>
<event>
 8    1  0.9952977E+004  0.1043930E+01  0.7957747E-01            NaN
         13   -1    0    0    0    0  0.00000000000E+00  0.00000000000E+00  0.74505805969E-08  0.10566000000E+00  0.10566000000E+00 0.  1.
     999900   -1    0    0    0    0 -0.00000000000E+00 -0.00000000000E+00 -0.74505805969E-08  0.93827000000E+00  0.93827000000E+00 0. -1.
     999902    2    1    2    0    0 -0.23191300582E-01  0.22038970877E-04  0.55580862230E-02  0.10200819554E+01  0.10198031509E+01 0.  0.
     999903    2    3    3    0    0 -0.15932965204E-01 -0.10076939421E+00  0.78947551531E-01  0.13126385813E+00  0.24272502281E-01 0.  0.
         14    1    1    2    0    0  0.23191300582E-01 -0.22038970877E-04 -0.55580862230E-02  0.23848044592E-01  0.00000000000E+00 0.  1.
     999901    1    3    3    0    0 -0.72583353785E-02  0.10079143319E+00 -0.73389465308E-01  0.88881809728E+00  0.88000000000E+00 0. -1.
        -11    1    4    4    0    0  0.22124322301E-02 -0.56700039381E-01  0.49007698160E-01  0.74978696455E-01  0.51100000000E-03 0.  1.
         11    1    4    4    0    0 -0.18145397434E-01 -0.44069354834E-01  0.29939853371E-01  0.56285161672E-01  0.51100000000E-03 0. -1.
</event>
<event>
 8    1  0.9952977E+004  0.1043930E+01  0.7957747E-01            NaN
         13   -1    0    0    0    0  0.00000000000E+00  0.00000000000E+00  0.74505805969E-08  0.10566000000E+00  0.10566000000E+00 0.  1.
     999900   -1    0    0    0    0 -0.00000000000E+00 -0.00000000000E+00 -0.74505805969E-08  0.93827000000E+00  0.93827000000E+00 0.  1.
     999902    2    1    2    0    0  0.39688270707E-02 -0.21366620193E-01  0.87835151625E-02  0.10204899875E+01  0.10202207508E+01 0.  0.
     999903    2    3    3    0    0 -0.57603399140E-01 -0.73050881184E-01  0.92530575417E-01  0.13286620912E+00  0.20903093155E-01 0.  0.
         14    1    1    2    0    0 -0.39688270707E-02  0.21366620193E-01 -0.87835151625E-02  0.23440012488E-01  0.00000000000E+00 0. -1.
     999901    1    3    3    0    0  0.61572226211E-01  0.51684260991E-01 -0.83747060255E-01  0.88762377840E+00  0.88000000000E+00 0.  1.
        -11    1    4    4    0    0 -0.50006562231E-01 -0.67049198848E-01  0.72827167063E-01  0.11090675685E+00  0.51100000000E-03 0.  1.
         11    1    4    4    0    0 -0.75968369087E-02 -0.60016823362E-02  0.19703408354E-01  0.21959452262E-01  0.51100000000E-03 0. -1.
</event>
<event>
 8    1  0.9952977E+004  0.1043930E+01  0.7957747E-01            NaN
         13   -1    0    0    0    0  0.00000000000E+00  0.00000000000E+00  0.74505805969E-08  0.10566000000E+00  0.10566000000E+00 0.  1.
     999900   -1    0    0    0    0 -0.00000000000E+00 -0.00000000000E+00 -0.74505805969E-08  0.93827000000E+00  0.93827000000E+00 0. -1.
     999902    2    1    2    0    0  0.39064515572E-02  0.75040879749E-02 -0.24642733650E-01  0.10178755182E+01  0.10175420063E+01 0.  0.
     999903    2    3    3    0    0 -0.19062598250E-01 -0.60455192470E-01 -0.11255104347E+00  0.13059094605E+00  0.19184495156E-01 0.  0.
         14    1    1    2    0    0 -0.39064515572E-02 -0.75040879749E-02  0.24642733650E-01  0.26054481800E-01  0.00000000000E+00 0.  1.
     999901    1    3    3    0    0  0.22969049807E-01  0.67959280445E-01  0.87908309820E-01  0.88728457215E+00  0.88000000000E+00 0. -1.
        -11    1    4    4    0    0 -0.51924744992E-03 -0.32885900424E-01 -0.52305085575E-01  0.61788632957E-01  0.51100000000E-03 0. -1.
         11    1    4    4    0    0 -0.18543350800E-01 -0.27569292046E-01 -0.60245957895E-01  0.68802313089E-01  0.51100000000E-03 0.  1.
</event>
<event>
 8    1  0.9952977E+004  0.1043930E+01  0.7957747E-01            NaN
         13   -1    0    0    0    0  0.00000000000E+00  0.00000000000E+00  0.74505805969E-08  0.10566000000E+00  0.10566000000E+00 0.  1.
     999900   -1    0    0    0    0 -0.00000000000E+00 -0.00000000000E+00 -0.74505805969E-08  0.93827000000E+00  0.93827000000E+00 0.  1.
     999902    2    1    2    0    0 -0.14476691737E-02  0.43923131161E-02 -0.23316914807E-01  0.10201588688E+01  0.10198818809E+01 0.  0.
     999903    2    3    3    0    0 -0.84806896608E-01 -0.44828482601E-01  0.84382851655E-01  0.12832329698E+00  0.12024987778E-01 0.  0.
         14    1    1    2    0    0  0.14476691737E-02 -0.43923131161E-02  0.23316914807E-01  0.23771131161E-01  0.00000000000E+00 0.  1.
     999901    1    3    3    0    0  0.83359227434E-01  0.49220795717E-01 -0.10769976646E+00  0.89183557185E+00  0.88000000000E+00 0.  1.
        -11    1    4    4    0    0 -0.79305008334E-01 -0.38150585196E-01  0.77126939501E-01  0.11701955997E+00  0.51100000000E-03 0. -1.
         11    1    4    4    0    0 -0.55018882742E-02 -0.66778974044E-02  0.72559121542E-02  0.11303737015E-01  0.51100000000E-03 0.  1.
</event>
<event>
 8    1  0.9952977E+004  0.1043930E+01  0.7957747E-01            NaN
         13   -1    0    0    0    0  0.00000000000E+00  0.00000000000E+00  0.74505805969E-08  0.10566000000E+00  0.10566000000E+00 0. -1.
     999900   -1    0    0    0    0 -0.00000000000E+00 -0.00000000000E+00 -0.74505805969E-08  0.93827000000E+00  0.93827000000E+00 0.  1.
     999902    2    1    2    0    0 -0.18805352484E-01 -0.72342701620E-02 -0.13326681082E-01  0.10197726745E+01  0.10194865037E+01 0.  0.
     999903    2    3    3    0    0 -0.51371972429E-01  0.72094461265E-01 -0.95667922662E-01  0.13177846707E+00  0.19404176342E-01 0.  0.
         14    1    1    2    0    0  0.18805352484E-01  0.72342701620E-02  0.13326681082E-01  0.24157325504E-01  0.00000000000E+00 0. -1.
     999901    1    3    3    0    0  0.32566619945E-01 -0.79328731427E-01  0.82341241580E-01  0.88799420743E+00  0.88000000000E+00 0. -1.
        -11    1    4    4    0    0 -0.34911875513E-01  0.55036114289E-01 -0.80723237040E-01  0.10375121709E+00  0.51100000000E-03 0.  1.
         11    1    4    4    0    0 -0.16460096916E-01  0.17058346976E-01 -0.14944685622E-01  0.28027249979E-01  0.51100000000E-03 0. -1.
</event>
<event>
 8    1  0.9952977E+004  0.1043930E+01  0.7957747E-01            NaN
         13   -1    0    0    0    0  0.00000000000E+00  0.00000000000E+00  0.74505805969E-08  0.10566000000E+00  0.10566000000E+00 0.  1.
     999900   -1    0    0    0    0 -0.00000000000E+00 -0.00000000000E+00 -0.74505805969E-08  0.93827000000E+00  0.93827000000E+00 0.  1.
     999902    2    1    2    0    0 -0.74101006127E-02  0.21696375312E-01 -0.77345781090E-02  0.10197335955E+01  0.10194464870E+01 0.  0.
     999903    2    3    3    0    0 -0.10203461237E+00  0.66104401911E-01  0.46990551884E-01  0.13185933023E+00  0.19947855268E-01 0.  0.
         14    1    1    2    0    0  0.74101006127E-02 -0.21696375312E-01  0.77345781090E-02  0.24196404512E-01  0.00000000000E+00 0.  1.
     999901    1    3    3    0    0  0.94624511755E-01 -0.44408026599E-01 -0.54725129993E-01  0.88787426526E+00  0.88000000000E+00 0.  1.
        -11    1    4    4    0    0 -0.43663900702E-01  0.39128743219E-01  0.26727488059E-01  0.64437679267E-01  0.51100000000E-03 0.  1.
         11    1    4    4    0    0 -0.58370711666E-01  0.26975658693E-01  0.20263063825E-01  0.67421650965E-01  0.51100000000E-03 0. -1.
</event>
<event>
 8    1  0.9952977E+004  0.1043930E+01  0.7957747E-01            NaN
         13   -1    0    0    0    0  0.00000000000E+00  0.00000000000E+00  0.74505805969E-08  0.10566000000E+00  0.10566000000E+00 0. -1.
     999900   -1    0    0    0    0 -0.00000000000E+00 -0.00000000000E+00 -0.74505805969E-08  0.93827000000E+00  0.93827000000E+00 0. -1.
     999902    2    1    2    0    0  0.11707057782E-01  0.18044664031E-01 -0.10678398082E-02  0.10223938587E+01  0.10221670103E+01 0.  0.
     999903    2    3    3    0    0 -0.61436448790E-01  0.28352595256E-03  0.11466047346E+00  0.13163099848E+00  0.20129032816E-01 0.  0.
         14    1    1    2    0    0 -0.11707057782E-01 -0.18044664031E-01  0.10678398082E-02  0.21536141338E-01  0.00000000000E+00 0. -1.
     999901    1    3    3    0    0  0.73143506572E-01  0.17761138078E-01 -0.11572831326E+00  0.89076286018E+00  0.88000000000E+00 0. -1.
        -11    1    4    4    0    0 -0.36865118439E-01  0.30094523424E-02  0.86951895585E-01  0.94493317371E-01  0.51100000000E-03 0.  1.
         11    1    4    4    0    0 -0.24571330351E-01 -0.27259263899E-02  0.27708577871E-01  0.37137681114E-01  0.51100000000E-03 0. -1.
</event>
<event>
 8    1  0.9952977E+004  0.1043930E+01  0.7957747E-01            NaN
         13   -1    0    0    0    0  0.00000000000E+00  0.00000000000E+00  0.74505805969E-08  0.10566000000E+00  0.10566000000E+00 0.  1.
     999900   -1    0    0    0    0 -0.00000000000E+00 -0.00000000000E+00 -0.74505805969E-08  0.93827000000E+00  0.93827000000E+00 0. -1.
     999902    2    1    2    0    0  0.74209111188E-02 -0.13617383158E-01 -0.17520624501E-01  0.10205318093E+01  0.10202635436E+01 0.  0.
     999903    2    3    3    0    0 -0.64861584581E-01 -0.92342682299E-01 -0.67107963154E-01  0.13267971796E+00  0.19137207507E-01 0.  0.
         14    1    1    2    0    0 -0.74209111188E-02  0.13617383158E-01  0.17520624501E-01  0.23398190717E-01  0.00000000000E+00 0.  1.
     999901    1    3    3    0    0  0.72282495700E-01  0.78725299140E-01  0.49587338653E-01  0.88785209132E+00  0.88000000000E+00 0.  1.
        -11    1    4    4    0    0 -0.35553103318E-01 -0.45570897648E-01 -0.23756730177E-01  0.62492985348E-01  0.51100000000E-03 0. -1.
         11    1    4    4    0    0 -0.29308481263E-01 -0.46771784651E-01 -0.43351232977E-01  0.70186732613E-01  0.51100000000E-03 0.  1.
</event>
<event>
 8    1  0.9952977E+004  0.1043930E+01  0.7957747E-01            NaN
         13   -1    0    0    0    0  0.00000000000E+00  0.00000000000E+00  0.74505805969E-08  0.10566000000E+00  0.10566000000E+00 0.  1.
     999900   -1    0    0    0    0 -0.00000000000E+00 -0.00000000000E+00 -0.74505805969E-08  0.93827000000E+00  0.93827000000E+00 0.  1.
     999902    2    1    2    0    0  0.12514707322E-01  0.10107739877E-01 -0.17138601629E-01  0.10204243417E+01  0.10201535773E+01 0.  0.
     999903    2    3    3    0    0  0.22342576817E-01 -0.12596846927E+00 -0.98137319582E-02  0.12988126280E+00  0.20139193241E-01 0.  0.
         14    1    1    2    0    0 -0.12514707322E-01 -0.10107739877E-01  0.17138601629E-01  0.23505658267E-01  0.00000000000E+00 0.  1.
     999901    1    3    3    0    0 -0.98278694946E-02  0.13607620914E+00 -0.73248696708E-02  0.89054307893E+00  0.88000000000E+00 0. -1.
        -11    1    4    4    0    0  0.24560116808E-01 -0.12335040594E+00 -0.10905533878E-01  0.12624465839E+00  0.51100000000E-03 0. -1.
         11    1    4    4    0    0 -0.22175399907E-02 -0.26180633269E-02  0.10918019200E-02  0.36366044088E-02  0.51100000000E-03 0.  1.
</event>
<event>
 8    1  0.9952977E+004  0.1043930E+01  0.7957747E-01            NaN
         13   -1    0    0    0    0  0.00000000000E+00  0.00000000000E+00  0.74505805969E-08  0.10566000000E+00  0.10566000000E+00 0.  1.
     999900   -1    0    0    0    0 -0.00000000000E+00 -0.00000000000E+00 -0.74505805969E-08  0.93827000000E+00  0.93827000000E+00 0.  1.
     999902    2    1    2    0    0  0.19101652110E-02 -0.23340436839E-01 -0.94865864826E-02  0.10186630246E+01  0.10183496146E+01 0.  0.
     999903    2    3    3    0    0 -0.25494894175E-01 -0.33931410626E-02  0.12368073835E+00  0.12799896431E+00  0.20622967547E-01 0.  0.
         14    1    1    2    0    0 -0.19101652110E-02  0.23340436839E-01  0.94865864826E-02  0.25266975404E-01  0.00000000000E+00 0.  1.
     999901    1    3    3    0    0  0.27405059386E-01 -0.19947295777E-01 -0.13316732483E+00  0.89066406029E+00  0.88000000000E+00 0.  1.
        -11    1    4    4    0    0 -0.12978394582E-01  0.34123841204E-02  0.95272040149E-01  0.96213854753E-01  0.51100000000E-03 0. -1.
         11    1    4    4    0    0 -0.12516499593E-01 -0.68055251829E-02  0.28408698197E-01  0.31785109554E-01  0.51100000000E-03 0.  1.
</event>
<event>
 8    1  0.9952977E+004  0.1043930E+01  0.7957747E-01            NaN
         13   -1    0    0    0    0  0.00000000000E+00  0.00000000000E+00  0.74505805969E-08  0.10566000000E+00  0.10566000000E+00 0.  1.
     999900   -1    0    0    0    0 -0.00000000000E+00 -0.00000000000E+00 -0.74505805969E-08  0.93827000000E+00  0.93827000000E+00 0.  1.
     999902    2    1    2    0    0  0.64743586431E-02  0.17360345084E-01  0.14898505946E-01  0.10201547107E+01  0.10198776247E+01 0.  0.
     999903    2    3    3    0    0 -0.90055239724E-01  0.55678623568E-01  0.76186599747E-01  0.13193036728E+00  0.19777980311E-01 0.  0.
         14    1    1    2    0    0 -0.64743586431E-02 -0.17360345084E-01 -0.14898505946E-01  0.23775289288E-01  0.00000000000E+00 0. -1.
     999901    1    3    3    0    0  0.96529598367E-01 -0.38318278483E-01 -0.61288093801E-01  0.88822434343E+00  0.88000000000E+00 0.  1.
        -11    1    4    4    0    0 -0.41352684893E-01  0.24878504710E-01  0.22808011385E-01  0.53380249613E-01  0.51100000000E-03 0.  1.
         11    1    4    4    0    0 -0.48702554831E-01  0.30800118858E-01  0.53378588362E-01  0.78550117665E-01  0.51100000000E-03 0. -1.
</event>
<event>
 8    1  0.9952977E+004  0.1043930E+01  0.7957747E-01            NaN
         13   -1    0    0    0    0  0.00000000000E+00  0.00000000000E+00  0.74505805969E-08  0.10566000000E+00  0.10566000000E+00 0.  1.
     999900   -1    0    0    0    0 -0.00000000000E+00 -0.00000000000E+00 -0.74505805969E-08  0.93827000000E+00  0.93827000000E+00 0. -1.
     999902    2    1    2    0    0 -0.14458164243E-01 -0.19721070038E-01 -0.12659751750E-02  0.10194440487E+01  0.10191499432E+01 0.  0.
     999903    2    3    3    0    0  0.32715644284E-01 -0.10286274699E+00  0.71667369595E-01  0.13126772646E+00  0.21070027183E-01 0.  0.
         14    1    1    2    0    0  0.14458164243E-01  0.19721070038E-01  0.12659751750E-02  0.24485951275E-01  0.00000000000E+00 0. -1.
     999901    1    3    3    0    0 -0.47173808527E-01  0.83141676951E-01 -0.72933344770E-01  0.88817632227E+00  0.88000000000E+00 0.  1.
        -11    1    4    4    0    0  0.14468088060E-01 -0.18981933966E-01  0.19419251363E-01  0.30773492387E-01  0.51100000000E-03 0. -1.
         11    1    4    4    0    0  0.18247556224E-01 -0.83880813023E-01  0.52248118232E-01  0.10049423407E+00  0.51100000000E-03 0.  1.
</event>
<event>
 8    1  0.9952977E+004  0.1043930E+01  0.7957747E-01            NaN
         13   -1    0    0    0    0  0.00000000000E+00  0.00000000000E+00  0.74505805969E-08  0.10566000000E+00  0.10566000000E+00 0.  1.
     999900   -1    0    0    0    0 -0.00000000000E+00 -0.00000000000E+00 -0.74505805969E-08  0.93827000000E+00  0.93827000000E+00 0.  1.
     999902    2    1    2    0    0  0.17334312796E-01  0.12491033599E-01  0.11651563551E-01  0.10195935407E+01  0.10193030584E+01 0.  0.
     999903    2    3    3    0    0 -0.77878292994E-01  0.69801474490E-02  0.10185711998E+00  0.12985602173E+00  0.19338110340E-01 0.  0.
         14    1    1    2    0    0 -0.17334312796E-01 -0.12491033599E-01 -0.11651563551E-01  0.24336459349E-01  0.00000000000E+00 0.  1.
     999901    1    3    3    0    0  0.95212605789E-01  0.55108861496E-02 -0.90205556424E-01  0.88973751892E+00  0.88000000000E+00 0.  1.
        -11    1    4    4    0    0 -0.29587024894E-01  0.64811605507E-02  0.53686828340E-01  0.61643605852E-01  0.51100000000E-03 0. -1.
         11    1    4    4    0    0 -0.48291268099E-01  0.49898689837E-03  0.48170291636E-01  0.68212415877E-01  0.51100000000E-03 0.  1.
</event>
<event>
 8    1  0.9952977E+004  0.1043930E+01  0.7957747E-01            NaN
         13   -1    0    0    0    0  0.00000000000E+00  0.00000000000E+00  0.74505805969E-08  0.10566000000E+00  0.10566000000E+00 0. -1.
     999900   -1    0    0    0    0 -0.00000000000E+00 -0.00000000000E+00 -0.74505805969E-08  0.93827000000E+00  0.93827000000E+00 0. -1.
     999902    2    1    2    0    0 -0.72837562479E-03  0.79930201672E-02 -0.22114714749E-01  0.10204038547E+01  0.10201326126E+01 0.  0.
     999903    2    3    3    0    0  0.45367543258E-01 -0.11992828950E+00  0.52602586889E-03  0.12967308827E+00  0.19334541994E-01 0.  0.
         14    1    1    2    0    0  0.72837562479E-03 -0.79930201672E-02  0.22114714749E-01  0.23526145261E-01  0.00000000000E+00 0. -1.
     999901    1    3    3    0    0 -0.46095918883E-01  0.12792130967E+00 -0.22640740618E-01  0.89073076647E+00  0.88000000000E+00 0. -1.
        -11    1    4    4    0    0  0.28305433566E-01 -0.92315973279E-01 -0.52446553525E-02  0.96701623681E-01  0.51100000000E-03 0. -1.
         11    1    4    4    0    0  0.17062109693E-01 -0.27612316219E-01  0.57706812214E-02  0.32971464586E-01  0.51100000000E-03 0.  1.
</event>
<event>
 8    1  0.9952977E+004  0.1043930E+01  0.7957747E-01            NaN
         13   -1    0    0    0    0  0.00000000000E+00  0.00000000000E+00  0.74505805969E-08  0.10566000000E+00  0.10566000000E+00 0.  1.
     999900   -1    0    0    0    0 -0.00000000000E+00 -0.00000000000E+00 -0.74505805969E-08  0.93827000000E+00  0.93827000000E+00 0. -1.
     999902    2    1    2    0    0 -0.71727070561E-02 -0.32799890440E-02 -0.22170754413E-01  0.10203981406E+01  0.10201267651E+01 0.  0.
     999903    2    3    3    0    0  0.74378704561E-01 -0.10178655780E+00  0.28668835424E-01  0.12970243460E+00  0.10398287119E-01 0.  0.
         14    1    1    2    0    0  0.71727070561E-02  0.32799890440E-02  0.22170754413E-01  0.23531859380E-01  0.00000000000E+00 0.  1.
     999901    1    3    3    0    0 -0.81551411617E-01  0.98506568760E-01 -0.50839589838E-01  0.89069570602E+00  0.88000000000E+00 0. -1.
        -11    1    4    4    0    0  0.39359781339E-01 -0.45134547280E-01  0.13150352950E-01  0.61314864829E-01  0.51100000000E-03 0.  1.
         11    1    4    4    0    0  0.35018923221E-01 -0.56652010524E-01  0.15518482474E-01  0.68387569772E-01  0.51100000000E-03 0. -1.
</event>
<event>
 8    1  0.9952977E+004  0.1043930E+01  0.7957747E-01            NaN
         13   -1    0    0    0    0  0.00000000000E+00  0.00000000000E+00  0.74505805969E-08  0.10566000000E+00  0.10566000000E+00 0.  1.
     999900   -1    0    0    0    0 -0.00000000000E+00 -0.00000000000E+00 -0.74505805969E-08  0.93827000000E+00  0.93827000000E+00 0. -1.
     999902    2    1    2    0    0  0.19566059756E-01 -0.84176547015E-02 -0.97902266680E-02  0.10204878127E+01  0.10202185255E+01 0.  0.
     999903    2    3    3    0    0  0.24242063082E-01  0.55511153963E-01 -0.11543480383E+00  0.13185429196E+00  0.19778638379E-01 0.  0.
         14    1    1    2    0    0 -0.19566059756E-01  0.84176547015E-02  0.97902266680E-02  0.23442187254E-01  0.00000000000E+00 0. -1.
     999901    1    3    3    0    0 -0.46760033260E-02 -0.63928808664E-01  0.10564457716E+00  0.88863352079E+00  0.88000000000E+00 0.  1.
        -11    1    4    4    0    0  0.14998866612E-01  0.51481289008E-01 -0.97311033742E-01  0.11110799938E+00  0.51100000000E-03 0. -1.
         11    1    4    4    0    0  0.92431964696E-02  0.40298649541E-02 -0.18123770087E-01  0.20746292577E-01  0.51100000000E-03 0.  1.
</event>
<event>
 8    1  0.9952977E+004  0.1043930E+01  0.7957747E-01            NaN
         13   -1    0    0    0    0  0.00000000000E+00  0.00000000000E+00  0.74505805969E-08  0.10566000000E+00  0.10566000000E+00 0.  1.
     999900   -1    0    0    0    0 -0.00000000000E+00 -0.00000000000E+00 -0.74505805969E-08  0.93827000000E+00  0.93827000000E+00 0.  1.
     999902    2    1    2    0    0 -0.13036135647E-01 -0.16382000782E-01  0.39206850818E-02  0.10226301748E+01  0.10224083293E+01 0.  0.
     999903    2    3    3    0    0  0.96983171779E-01  0.83074340052E-01 -0.15718106711E-01  0.13000399667E+00  0.18625216437E-01 0.  0.
         14    1    1    2    0    0  0.13036135647E-01  0.16382000782E-01 -0.39206850818E-02  0.21299825204E-01  0.00000000000E+00 0.  1.
     999901    1    3    3    0    0 -0.11001930743E+00 -0.99456340834E-01  0.19638791793E-01  0.89262617813E+00  0.88000000000E+00 0. -1.
        -11    1    4    4    0    0  0.64495268588E-01  0.66194827587E-01 -0.10380759917E-01  0.93002237430E-01  0.51100000000E-03 0. -1.
         11    1    4    4    0    0  0.32487903191E-01  0.16879512465E-01 -0.53373467936E-02  0.37001759237E-01  0.51100000000E-03 0.  1.
</event>
<event>
 8    1  0.9952977E+004  0.1043930E+01  0.7957747E-01            NaN
         13   -1    0    0    0    0  0.00000000000E+00  0.00000000000E+00  0.74505805969E-08  0.10566000000E+00  0.10566000000E+00 0. -1.
     999900   -1    0    0    0    0 -0.00000000000E+00 -0.00000000000E+00 -0.74505805969E-08  0.93827000000E+00  0.93827000000E+00 0.  1.
     999902    2    1    2    0    0 -0.10813381757E-01 -0.19808984920E-01 -0.19265649022E-02  0.10212796852E+01  0.10210284808E+01 0.  0.
     999903    2    3    3    0    0  0.12621120813E+00 -0.31650015929E-01  0.73781415389E-02  0.13054822970E+00  0.75769874578E-02 0.  0.
         14    1    1    2    0    0  0.10813381757E-01  0.19808984920E-01  0.19265649022E-02  0.22650314808E-01  0.00000000000E+00 0. -1.
     999901    1    3    3    0    0 -0.13702458988E+00  0.11841031009E-01 -0.93047064411E-02  0.89073145550E+00  0.88000000000E+00 0.  1.
        -11    1    4    4    0    0  0.96395375157E-01 -0.21269188097E-01  0.40567012703E-02  0.98798606570E-01  0.51100000000E-03 0.  1.
         11    1    4    4    0    0  0.29815832970E-01 -0.10380827832E-01  0.33214402686E-02  0.31749623126E-01  0.51100000000E-03 0. -1.
</event>
<event>
 8    1  0.9952977E+004  0.1043930E+01  0.7957747E-01            NaN
         13   -1    0    0    0    0  0.00000000000E+00  0.00000000000E+00  0.74505805969E-08  0.10566000000E+00  0.10566000000E+00 0. -1.
     999900   -1    0    0    0    0 -0.00000000000E+00 -0.00000000000E+00 -0.74505805969E-08  0.93827000000E+00  0.93827000000E+00 0.  1.
     999902    2    1    2    0    0 -0.46878217461E-02 -0.11425609731E-01  0.22461577048E-01  0.10182971563E+01  0.10179744869E+01 0.  0.
     999903    2    3    3    0    0 -0.56317922112E-01 -0.49747738375E-01 -0.10088253419E+00  0.12737178204E+00  0.19993482207E-01 0.  0.
         14    1    1    2    0    0  0.46878217461E-02  0.11425609731E-01 -0.22461577048E-01  0.25632843657E-01  0.00000000000E+00 0.  1.
     999901    1    3    3    0    0  0.51630100366E-01  0.38322128644E-01  0.12334411123E+00  0.89092537431E+00  0.88000000000E+00 0. -1.
        -11    1    4    4    0    0 -0.22407742112E-01 -0.33083593438E-01 -0.52859990879E-01  0.66265155383E-01  0.51100000000E-03 0. -1.
         11    1    4    4    0    0 -0.33910180000E-01 -0.16664144937E-01 -0.48022543308E-01  0.61106626653E-01  0.51100000000E-03 0.  1.
</event>
<event>
 8    1  0.9952977E+004  0.1043930E+01  0.7957747E-01            NaN
         13   -1    0    0    0    0  0.00000000000E+00  0.00000000000E+00  0.74505805969E-08  0.10566000000E+00  0.10566000000E+00 0.  1.
     999900   -1    0    0    0    0 -0.00000000000E+00 -0.00000000000E+00 -0.74505805969E-08  0.93827000000E+00  0.93827000000E+00 0. -1.
     999902    2    1    2    0    0 -0.96391577919E-02 -0.20966324796E-01  0.15845825543E-02  0.10207996943E+01  0.10205376058E+01 0.  0.
     999903    2    3    3    0    0 -0.63902878926E-01 -0.11583847178E+00 -0.14238445000E-02  0.13403347580E+00  0.21466621068E-01 0.  0.
         14    1    1    2    0    0  0.96391577919E-02  0.20966324796E-01 -0.15845825543E-02  0.23130305667E-01  0.00000000000E+00 0.  1.
     999901    1    3    3    0    0  0.54263721134E-01  0.94872146989E-01  0.30084270543E-02  0.88676621854E+00  0.88000000000E+00 0. -1.
        -11    1    4    4    0    0 -0.52535565711E-01 -0.89410517199E-01  0.73169210509E-02  0.10396165017E+00  0.51100000000E-03 0. -1.
         11    1    4    4    0    0 -0.11367313215E-01 -0.26427954586E-01 -0.87407655509E-02  0.30071825630E-01  0.51100000000E-03 0.  1.
</event>
<event>
 8    1  0.9952977E+004  0.1043930E+01  0.7957747E-01            NaN
         13   -1    0    0    0    0  0.00000000000E+00  0.00000000000E+00  0.74505805969E-08  0.10566000000E+00  0.10566000000E+00 0.  1.
     999900   -1    0    0    0    0 -0.00000000000E+00 -0.00000000000E+00 -0.74505805969E-08  0.93827000000E+00  0.93827000000E+00 0. -1.
     999902    2    1    2    0    0 -0.11283374262E-01  0.47108315225E-02  0.19485478084E-01  0.10209258629E+01  0.10206666582E+01 0.  0.
     999903    2    3    3    0    0 -0.20833605827E-01 -0.12296051044E+00 -0.31404612355E-01  0.13020650204E+00  0.20350853444E-01 0.  0.
         14    1    1    2    0    0  0.11283374262E-01 -0.47108315225E-02 -0.19485478084E-01  0.23004137118E-01  0.00000000000E+00 0. -1.
     999901    1    3    3    0    0  0.95502315642E-02  0.12767134196E+00  0.50890090438E-01  0.89071936085E+00  0.88000000000E+00 0. -1.
        -11    1    4    4    0    0 -0.13225529285E-01 -0.96796962856E-01 -0.16298789415E-01  0.99047858636E-01  0.51100000000E-03 0. -1.
         11    1    4    4    0    0 -0.76080765412E-02 -0.26163547584E-01 -0.15105822939E-01  0.31158643400E-01  0.51100000000E-03 0.  1.
</event>
<event>
 8    1  0.9952977E+004  0.1043930E+01  0.7957747E-01            NaN
         13   -1    0    0    0    0  0.00000000000E+00  0.00000000000E+00  0.74505805969E-08  0.10566000000E+00  0.10566000000E+00 0. -1.
     999900   -1    0    0    0    0 -0.00000000000E+00 -0.00000000000E+00 -0.74505805969E-08  0.93827000000E+00  0.93827000000E+00 0. -1.
     999902    2    1    2    0    0  0.45762952453E-02 -0.17824202748E-01  0.15064182741E-01  0.10201481943E+01  0.10198709546E+01 0.  0.
     999903    2    3    3    0    0 -0.39343782558E-01 -0.97425081332E-01  0.79158276555E-01  0.13314575574E+00  0.20547015028E-01 0.  0.
         14    1    1    2    0    0 -0.45762952453E-02  0.17824202748E-01 -0.15064182741E-01  0.23781805722E-01  0.00000000000E+00 0.  1.
     999901    1    3    3    0    0  0.43920077804E-01  0.79600878584E-01 -0.64094093814E-01  0.88700243854E+00  0.88000000000E+00 0.  1.
        -11    1    4    4    0    0 -0.15794620958E-01 -0.17139321697E-01  0.19367211067E-01  0.30308025091E-01  0.51100000000E-03 0.  1.
         11    1    4    4    0    0 -0.23549161600E-01 -0.80285759635E-01  0.59791065488E-01  0.10283773065E+00  0.51100000000E-03 0. -1.
</event>
<event>
 8    1  0.9952977E+004  0.1043930E+01  0.7957747E-01            NaN
         13   -1    0    0    0    0  0.00000000000E+00  0.00000000000E+00  0.74505805969E-08  0.10566000000E+00  0.10566000000E+00 0. -1.
     999900   -1    0    0    0    0 -0.00000000000E+00 -0.00000000000E+00 -0.74505805969E-08  0.93827000000E+00  0.93827000000E+00 0.  1.
     999902    2    1    2    0    0  0.14475897252E-01 -0.22238432162E-01  0.50587278943E-02  0.10169172217E+01  0.10165583827E+01 0.  0.
     999903    2    3    3    0    0 -0.10030769069E+00 -0.40234834746E-01 -0.63044018634E-01  0.12667167875E+00  0.19765909359E-01 0.  0.
         14    1    1    2    0    0 -0.14475897252E-01  0.22238432162E-01 -0.50587278943E-02  0.27012778350E-01  0.00000000000E+00 0.  1.
     999901    1    3    3    0    0  0.11478358795E+00  0.17996402584E-01  0.68102746529E-01  0.89024554290E+00  0.88000000000E+00 0. -1.
        -11    1    4    4    0    0 -0.13759599074E-01  0.59128235878E-03 -0.11665393570E-01  0.18055988194E-01  0.51100000000E-03 0. -1.
         11    1    4    4    0    0 -0.86548091619E-01 -0.40826117104E-01 -0.51378625065E-01  0.10861569056E+00  0.51100000000E-03 0.  1.
</event>
<event>
 8    1  0.9952977E+004  0.1043930E+01  0.7957747E-01            NaN
         13   -1    0    0    0    0  0.00000000000E+00  0.00000000000E+00  0.74505805969E-08  0.10566000000E+00  0.10566000000E+00 0. -1.
     999900   -1    0    0    0    0 -0.00000000000E+00 -0.00000000000E+00 -0.74505805969E-08  0.93827000000E+00  0.93827000000E+00 0.  1.
     999902    2    1    2    0    0 -0.10241843538E-02 -0.12735122965E-01 -0.20030760682E-01  0.10201715555E+01  0.10198948666E+01 0.  0.
     999903    2    3    3    0    0  0.64129629469E-01 -0.33246632141E-01  0.10449821529E+00  0.12878319609E+00  0.21149152990E-01 0.  0.
         14    1    1    2    0    0  0.10241843538E-02  0.12735122965E-01  0.20030760682E-01  0.23758444478E-01  0.00000000000E+00 0. -1.
     999901    1    3    3    0    0 -0.65153813822E-01  0.20511509177E-01 -0.12452897598E+00  0.89138835943E+00  0.88000000000E+00 0.  1.
        -11    1    4    4    0    0  0.51293522588E-01 -0.33662387727E-01  0.77210577792E-01  0.98620060084E-01  0.51100000000E-03 0.  1.
         11    1    4    4    0    0  0.12836106881E-01  0.41575558613E-03  0.27287637502E-01  0.30163136011E-01  0.51100000000E-03 0. -1.
</event>
<event>
 7    1  0.9952977E+004  0.1043930E+01  0.7957747E-01            NaN
         13   -1    0    0    0    0  0.00000000000E+00  0.00000000000E+00  0.74505805969E-08  0.10566000000E+00  0.10566000000E+00 0. -1.
     999900   -1    0    0    0    0 -0.00000000000E+00 -0.00000000000E+00 -0.74505805969E-08  0.93827000000E+00  0.93827000000E+00 0.  1.
     999902    2    1    2    0    0 -0.15196842290E-01 -0.15047351388E-01  0.76539389676E-02  0.10212154764E+01  0.10209628297E+01 0.  0.
         14    1    1    2    0    0  0.15196842290E-01  0.15047351388E-01 -0.76539389676E-02  0.22714523572E-01  0.00000000000E+00 0. -1.
     999901    1    3    3    0    0  0.66841058733E-02  0.38419662937E-01 -0.10677074295E+00  0.88731095977E+00  0.88000000000E+00 0.  1.
        -11    1    3    3    0    0 -0.17568240800E-01 -0.35934347105E-01  0.37304771020E-01  0.54697600025E-01  0.51100000000E-03 0.  1.
         11    1    3    3    0    0 -0.43127073637E-02 -0.17532667219E-01  0.77119910901E-01  0.79206916636E-01  0.51100000000E-03 0. -1.
</event>
<event>
 8    1  0.9952977E+004  0.1043930E+01  0.7957747E-01            NaN
         13   -1    0    0    0    0  0.00000000000E+00  0.00000000000E+00  0.74505805969E-08  0.10566000000E+00  0.10566000000E+00 0.  1.
     999900   -1    0    0    0    0 -0.00000000000E+00 -0.00000000000E+00 -0.74505805969E-08  0.93827000000E+00  0.93827000000E+00 0. -1.
     999902    2    1    2    0    0  0.14160331429E-02 -0.57330564114E-02  0.21875110664E-01  0.10212718105E+01  0.10210204294E+01 0.  0.
     999903    2    3    3    0    0  0.96903192661E-01  0.54695363813E-01  0.69051664328E-01  0.13279276243E+00  0.21999405400E-01 0.  0.
         14    1    1    2    0    0 -0.14160331429E-02  0.57330564114E-02 -0.21875110664E-01  0.22658189518E-01  0.00000000000E+00 0. -1.
     999901    1    3    3    0    0 -0.95487159518E-01 -0.60428420224E-01 -0.47176553665E-01  0.88847904805E+00  0.88000000000E+00 0. -1.
        -11    1    4    4    0    0  0.27934531751E-01  0.16664178795E-01  0.90107269536E-02  0.33756291862E-01  0.51100000000E-03 0. -1.
         11    1    4    4    0    0  0.68968660910E-01  0.38031185018E-01  0.60040937375E-01  0.99036470573E-01  0.51100000000E-03 0.  1.
</event>
<event>
 8    1  0.9952977E+004  0.1043930E+01  0.7957747E-01            NaN
         13   -1    0    0    0    0  0.00000000000E+00  0.00000000000E+00  0.74505805969E-08  0.10566000000E+00  0.10566000000E+00 0.  1.
     999900   -1    0    0    0    0 -0.00000000000E+00 -0.00000000000E+00 -0.74505805969E-08  0.93827000000E+00  0.93827000000E+00 0. -1.
     999902    2    1    2    0    0  0.10341298706E-02 -0.21804716224E-02  0.23528023008E-01  0.10202785360E+01  0.10200043624E+01 0.  0.
     999903    2    3    3    0    0  0.77358163739E-01 -0.25473806851E-03  0.10649654729E+00  0.13308473386E+00  0.19638773226E-01 0.  0.
         14    1    1    2    0    0 -0.10341298706E-02  0.21804716224E-02 -0.23528023008E-01  0.23651463966E-01  0.00000000000E+00 0. -1.
     999901    1    3    3    0    0 -0.76324033869E-01 -0.19257335539E-02 -0.82968524279E-01  0.88719380217E+00  0.88000000000E+00 0. -1.
        -11    1    4    4    0    0  0.43070411628E-01  0.16644317542E-02  0.74890460401E-01  0.86409911879E-01  0.51100000000E-03 0. -1.
         11    1    4    4    0    0  0.34287752111E-01 -0.19191698227E-02  0.31606086885E-01  0.46674821980E-01  0.51100000000E-03 0.  1.
</event>
<event>
 8    1  0.9952977E+004  0.1043930E+01  0.7957747E-01            NaN
         13   -1    0    0    0    0  0.00000000000E+00  0.00000000000E+00  0.74505805969E-08  0.10566000000E+00  0.10566000000E+00 0.  1.
     999900   -1    0    0    0    0 -0.00000000000E+00 -0.00000000000E+00 -0.74505805969E-08  0.93827000000E+00  0.93827000000E+00 0. -1.
     999902    2    1    2    0    0  0.18445724436E-01  0.24653193243E-02  0.96181719963E-02  0.10229816879E+01  0.10227671787E+01 0.  0.
     999903    2    3    3    0    0  0.86968801028E-01 -0.99131351335E-01 -0.15192349338E-01  0.13414376253E+00  0.19316945364E-01 0.  0.
         14    1    1    2    0    0 -0.18445724436E-01 -0.24653193243E-02 -0.96181719963E-02  0.20948312149E-01  0.00000000000E+00 0. -1.
     999901    1    3    3    0    0 -0.68523076592E-01  0.10159667066E+00  0.24810521335E-01  0.88883792532E+00  0.88000000000E+00 0. -1.
        -11    1    4    4    0    0  0.47463210094E-01 -0.56132249960E-01  0.11010014330E-02  0.73519107198E-01  0.51100000000E-03 0.  1.
         11    1    4    4    0    0  0.39505590934E-01 -0.42999101376E-01 -0.16293350771E-01  0.60624655335E-01  0.51100000000E-03 0. -1.
</event>
<event>
 8    1  0.9952977E+004  0.1043930E+01  0.7957747E-01            NaN
         13   -1    0    0    0    0  0.00000000000E+00  0.00000000000E+00  0.74505805969E-08  0.10566000000E+00  0.10566000000E+00 0. -1.
     999900   -1    0    0    0    0 -0.00000000000E+00 -0.00000000000E+00 -0.74505805969E-08  0.93827000000E+00  0.93827000000E+00 0.  1.
     999902    2    1    2    0    0 -0.19665075392E-01  0.17260389380E-01  0.13966706822E-01  0.10142701765E+01  0.10138364196E+01 0.  0.
     999903    2    3    3    0    0 -0.10298482505E+00  0.71627826158E-01 -0.14134911553E-01  0.12821842866E+00  0.22444376834E-01 0.  0.
         14    1    1    2    0    0  0.19665075392E-01 -0.17260389380E-01 -0.13966706822E-01  0.29659823518E-01  0.00000000000E+00 0.  1.
     999901    1    3    3    0    0  0.83319749662E-01 -0.54367436778E-01  0.28101618375E-01  0.88605174782E+00  0.88000000000E+00 0. -1.
        -11    1    4    4    0    0 -0.76876883973E-02  0.42650985714E-03  0.24772236451E-02  0.81043335038E-02  0.51100000000E-03 0. -1.
         11    1    4    4    0    0 -0.95297136657E-01  0.71201316301E-01 -0.16612135198E-01  0.12011409515E+00  0.51100000000E-03 0.  1.
</event>
<event>
 8    1  0.9952977E+004  0.1043930E+01  0.7957747E-01            NaN
         13   -1    0    0    0    0  0.00000000000E+00  0.00000000000E+00  0.74505805969E-08  0.10566000000E+00  0.10566000000E+00 0. -1.
     999900   -1    0    0    0    0 -0.00000000000E+00 -0.00000000000E+00 -0.74505805969E-08  0.93827000000E+00  0.93827000000E+00 0. -1.
     999902    2    1    2    0    0  0.20100100252E-01  0.13777215874E-01 -0.47300169458E-02  0.10191066487E+01  0.10188042809E+01 0.  0.
     999903    2    3    3    0    0  0.66085070640E-01  0.28719419754E-01  0.10748190190E+00  0.13066452812E+00  0.18133340567E-01 0.  0.
         14    1    1    2    0    0 -0.20100100252E-01 -0.13777215874E-01  0.47300169458E-02  0.24823351258E-01  0.00000000000E+00 0. -1.
     999901    1    3    3    0    0 -0.45984970388E-01 -0.14942203879E-01 -0.11221191885E+00  0.88844212062E+00  0.88000000000E+00 0. -1.
        -11    1    4    4    0    0  0.44879314655E-01  0.13487133918E-01  0.80267766106E-01  0.92947463988E-01  0.51100000000E-03 0. -1.
         11    1    4    4    0    0  0.21205755985E-01  0.15232285836E-01  0.27214135799E-01  0.37717064135E-01  0.51100000000E-03 0.  1.
</event>
<event>
 8    1  0.9952977E+004  0.1043930E+01  0.7957747E-01            NaN
         13   -1    0    0    0    0  0.00000000000E+00  0.00000000000E+00  0.74505805969E-08  0.10566000000E+00  0.10566000000E+00 0. -1.
     999900   -1    0    0    0    0 -0.00000000000E+00 -0.00000000000E+00 -0.74505805969E-08  0.93827000000E+00  0.93827000000E+00 0. -1.
     999902    2    1    2    0    0 -0.21665542603E-01  0.32516589543E-02 -0.78079407433E-02  0.10206720345E+01  0.10204070114E+01 0.  0.
     999903    2    3    3    0    0  0.12621440603E+00  0.81035098483E-02  0.53727698808E-02  0.12822273574E+00  0.20407355111E-01 0.  0.
         14    1    1    2    0    0  0.21665542603E-01 -0.32516589543E-02  0.78079407433E-02  0.23257965536E-01  0.00000000000E+00 0. -1.
     999901    1    3    3    0    0 -0.14787994863E+00 -0.48518508940E-02 -0.13180710624E-01  0.89244929873E+00  0.88000000000E+00 0.  1.
        -11    1    4    4    0    0  0.70515921893E-01  0.24152573756E-02  0.12899535991E-01  0.71728570726E-01  0.51100000000E-03 0. -1.
         11    1    4    4    0    0  0.55698484136E-01  0.56882524727E-02 -0.75267661103E-02  0.56494165012E-01  0.51100000000E-03 0.  1.
</event>
<event>
 8    1  0.9952977E+004  0.1043930E+01  0.7957747E-01            NaN
         13   -1    0    0    0    0  0.00000000000E+00  0.00000000000E+00  0.74505805969E-08  0.10566000000E+00  0.10566000000E+00 0.  1.
     999900   -1    0    0    0    0 -0.00000000000E+00 -0.00000000000E+00 -0.74505805969E-08  0.93827000000E+00  0.93827000000E+00 0.  1.
     999902    2    1    2    0    0 -0.85552854929E-02  0.21715005186E-01  0.79925746990E-03  0.10205767738E+01  0.10203095501E+01 0.  0.
     999903    2    3    3    0    0  0.47430321253E-01 -0.10354480369E+00 -0.55665336955E-01  0.12815722098E+00  0.18827687216E-01 0.  0.
         14    1    1    2    0    0  0.85552854929E-02 -0.21715005186E-01 -0.79925746990E-03  0.23353226171E-01  0.00000000000E+00 0. -1.
     999901    1    3    3    0    0 -0.55985606745E-01  0.12525980888E+00  0.56464594425E-01  0.89241955285E+00  0.88000000000E+00 0. -1.
        -11    1    4    4    0    0  0.35102751055E-01 -0.75074414334E-01 -0.30875681091E-01  0.88441730100E-01  0.51100000000E-03 0. -1.
         11    1    4    4    0    0  0.12327570197E-01 -0.28470389356E-01 -0.24789655864E-01  0.39715490881E-01  0.51100000000E-03 0.  1.
</event>
<event>
 8    1  0.9952977E+004  0.1043930E+01  0.7957747E-01            NaN
         13   -1    0    0    0    0  0.00000000000E+00  0.00000000000E+00  0.74505805969E-08  0.10566000000E+00  0.10566000000E+00 0. -1.
     999900   -1    0    0    0    0 -0.00000000000E+00 -0.00000000000E+00 -0.74505805969E-08  0.93827000000E+00  0.93827000000E+00 0. -1.
     999902    2    1    2    0    0  0.48475122268E-02 -0.16650966939E-01 -0.16102599777E-01  0.10202646922E+01  0.10199901937E+01 0.  0.
     999903    2    3    3    0    0  0.90237006661E-01 -0.51184174876E-01  0.76724363481E-01  0.13060141131E+00  0.20188203396E-01 0.  0.
         14    1    1    2    0    0 -0.48475122268E-02  0.16650966939E-01  0.16102599777E-01  0.23665307824E-01  0.00000000000E+00 0. -1.
     999901    1    3    3    0    0 -0.85389494434E-01  0.34533207937E-01 -0.92826963258E-01  0.88966328086E+00  0.88000000000E+00 0. -1.
        -11    1    4    4    0    0  0.73053504903E-01 -0.39542401454E-01  0.70423436310E-01  0.10890425884E+00  0.51100000000E-03 0. -1.
         11    1    4    4    0    0  0.17183501758E-01 -0.11641773422E-01  0.63009271706E-02  0.21697152470E-01  0.51100000000E-03 0.  1.
</event>
<event>
 7    1  0.1175313E+005  0.1043930E+01  0.7957747E-01            NaN
         13   -1    0    0    0    0  0.00000000000E+00  0.00000000000E+00  0.74505805969E-08  0.10566000000E+00  0.10566000000E+00 0. -1.
     999900   -1    0    0    0    0 -0.00000000000E+00 -0.00000000000E+00 -0.74505805969E-08  0.93827000000E+00  0.93827000000E+00 0.  1.
     999903    2    1    2    0    0 -0.89984471941E-01 -0.26494107022E-01 -0.19776995360E-01  0.98321515632E-01  0.21836849436E-01 0.  0.
         14    1    1    2    0    0  0.34180649673E-01  0.49701815027E-01  0.19954358447E-01  0.63535530612E-01  0.00000000000E+00 0. -1.
     999901    1    1    2    0    0  0.55803822268E-01 -0.23207708005E-01 -0.17736308662E-03  0.88207295376E+00  0.88000000000E+00 0. -1.
        -11    1    3    3    0    0 -0.62199668233E-01 -0.23051480663E-01 -0.46589579115E-02  0.66499146603E-01  0.51100000000E-03 0.  1.
         11    1    3    3    0    0 -0.27784803708E-01 -0.34426263587E-02 -0.15118037448E-01  0.31822369030E-01  0.51100000000E-03 0. -1.
</event>
<event>
 8    1  0.9952977E+004  0.1043930E+01  0.7957747E-01            NaN
         13   -1    0    0    0    0  0.00000000000E+00  0.00000000000E+00  0.74505805969E-08  0.10566000000E+00  0.10566000000E+00 0.  1.
     999900   -1    0    0    0    0 -0.00000000000E+00 -0.00000000000E+00 -0.74505805969E-08  0.93827000000E+00  0.93827000000E+00 0.  1.
     999902    2    1    2    0    0  0.23399702235E-01  0.12890395126E-02 -0.34707805109E-02  0.10202392000E+01  0.10199641029E+01 0.  0.
     999903    2    3    3    0    0  0.11870231658E+00  0.57405886401E-01 -0.12926839465E-02  0.13331393093E+00  0.19627974723E-01 0.  0.
         14    1    1    2    0    0 -0.23399702235E-01 -0.12890395126E-02  0.34707805109E-02  0.23690800006E-01  0.00000000000E+00 0.  1.
     999901    1    3    3    0    0 -0.95302614348E-01 -0.56116846888E-01 -0.21780965643E-02  0.88692526907E+00  0.88000000000E+00 0.  1.
        -11    1    4    4    0    0  0.23345654325E-01  0.78696319571E-02 -0.72674792528E-02  0.25691011243E-01  0.51100000000E-03 0. -1.
         11    1    4    4    0    0  0.95356662258E-01  0.49536254444E-01  0.59747953062E-02  0.10762291968E+00  0.51100000000E-03 0.  1.
</event>
<event>
 8    1  0.9952977E+004  0.1043930E+01  0.7957747E-01            NaN
         13   -1    0    0    0    0  0.00000000000E+00  0.00000000000E+00  0.74505805969E-08  0.10566000000E+00  0.10566000000E+00 0. -1.
     999900   -1    0    0    0    0 -0.00000000000E+00 -0.00000000000E+00 -0.74505805969E-08  0.93827000000E+00  0.93827000000E+00 0.  1.
     999902    2    1    2    0    0 -0.96392140342E-02  0.16211812632E-01 -0.14940960770E-01  0.10198682124E+01  0.10195843275E+01 0.  0.
     999903    2    3    3    0    0 -0.19564073995E-01  0.65457139224E-01 -0.11247482161E+00  0.13305568479E+00  0.19642802546E-01 0.  0.
         14    1    1    2    0    0  0.96392140342E-02 -0.16211812632E-01  0.14940960770E-01  0.24061787647E-01  0.00000000000E+00 0. -1.
     999901    1    3    3    0    0  0.99248599608E-02 -0.49245326591E-01  0.97533860839E-01  0.88681252757E+00  0.88000000000E+00 0. -1.
        -11    1    4    4    0    0  0.16735512991E-02  0.10817777529E-01 -0.29424486075E-01  0.31398830972E-01  0.51100000000E-03 0.  1.
         11    1    4    4    0    0 -0.21237625294E-01  0.54639361695E-01 -0.83050335534E-01  0.10165685382E+00  0.51100000000E-03 0. -1.
</event>
<event>
 8    1  0.9952977E+004  0.1043930E+01  0.7957747E-01            NaN
         13   -1    0    0    0    0  0.00000000000E+00  0.00000000000E+00  0.74505805969E-08  0.10566000000E+00  0.10566000000E+00 0. -1.
     999900   -1    0    0    0    0 -0.00000000000E+00 -0.00000000000E+00 -0.74505805969E-08  0.93827000000E+00  0.93827000000E+00 0.  1.
     999902    2    1    2    0    0 -0.17071891044E-01  0.14483283168E-01  0.10698720971E-01  0.10191171488E+01  0.10188150398E+01 0.  0.
     999903    2    3    3    0    0  0.11042103617E+00 -0.46195793366E-01  0.38905109829E-01  0.12741540650E+00  0.19855016700E-01 0.  0.
         14    1    1    2    0    0  0.17071891044E-01 -0.14483283168E-01 -0.10698720971E-01  0.24812851218E-01  0.00000000000E+00 0.  1.
     999901    1    3    3    0    0 -0.12749292722E+00  0.60679076535E-01 -0.28206388858E-01  0.89170174228E+00  0.88000000000E+00 0. -1.
        -11    1    4    4    0    0  0.36266710161E-01 -0.96188554602E-02  0.42622402468E-02  0.37765387052E-01  0.51100000000E-03 0. -1.
         11    1    4    4    0    0  0.74154326012E-01 -0.36576937906E-01  0.34642869582E-01  0.89650019446E-01  0.51100000000E-03 0.  1.
</event>
<event>
 7    1  0.9952977E+004  0.1043930E+01  0.7957747E-01            NaN
         13   -1    0    0    0    0  0.00000000000E+00  0.00000000000E+00  0.74505805969E-08  0.10566000000E+00  0.10566000000E+00 0.  1.
     999900   -1    0    0    0    0 -0.00000000000E+00 -0.00000000000E+00 -0.74505805969E-08  0.93827000000E+00  0.93827000000E+00 0.  1.
     999902    2    1    2    0    0 -0.22767181931E-01  0.15748144368E-02 -0.34067987762E-02  0.10208555359E+01  0.10205947258E+01 0.  0.
         14    1    1    2    0    0  0.22767181931E-01 -0.15748144368E-02  0.34067987762E-02  0.23074464056E-01  0.00000000000E+00 0.  1.
     999901    1    3    3    0    0 -0.97878958262E-01 -0.85007693935E-01 -0.39343865730E-01  0.89036764220E+00  0.88000000000E+00 0.  1.
        -11    1    3    3    0    0  0.66783921650E-01  0.43610595517E-01  0.12198208030E-01  0.80690976152E-01  0.51100000000E-03 0.  1.
         11    1    3    3    0    0  0.83278546815E-02  0.42971912855E-01  0.23738858924E-01  0.49796917596E-01  0.51100000000E-03 0. -1.
</event>
<event>
 8    1  0.1331704E+005  0.1043930E+01  0.7957747E-01            NaN
         13   -1    0    0    0    0  0.00000000000E+00  0.00000000000E+00  0.74505805969E-08  0.10566000000E+00  0.10566000000E+00 0. -1.
     999900   -1    0    0    0    0 -0.00000000000E+00 -0.00000000000E+00 -0.74505805969E-08  0.93827000000E+00  0.93827000000E+00 0. -1.
     999902    2    1    2    0    0  0.31547526411E-01  0.85667749718E-03 -0.94941646053E-02  0.10109736731E+01  0.10104363653E+01 0.  0.
     999903    2    3    3    0    0  0.96259550254E-01 -0.74471820267E-02  0.75746804332E-01  0.12445090247E+00  0.20714420696E-01 0.  0.
         14    1    1    2    0    0 -0.31547526411E-01 -0.85667749718E-03  0.94941646053E-02  0.32956326867E-01  0.00000000000E+00 0. -1.
     999901    1    3    3    0    0 -0.64712023842E-01  0.83038595239E-02 -0.85240968937E-01  0.88652277066E+00  0.88000000000E+00 0. -1.
        -11    1    4    4    0    0  0.39798421460E-01 -0.68340148398E-02  0.43788481317E-01  0.59567695327E-01  0.51100000000E-03 0.  1.
         11    1    4    4    0    0  0.56461128794E-01 -0.61316718687E-03  0.31958323015E-01  0.64883207147E-01  0.51100000000E-03 0. -1.
</event>
<event>
 8    1  0.9952977E+004  0.1043930E+01  0.7957747E-01            NaN
         13   -1    0    0    0    0  0.00000000000E+00  0.00000000000E+00  0.74505805969E-08  0.10566000000E+00  0.10566000000E+00 0. -1.
     999900   -1    0    0    0    0 -0.00000000000E+00 -0.00000000000E+00 -0.74505805969E-08  0.93827000000E+00  0.93827000000E+00 0. -1.
     999902    2    1    2    0    0 -0.80002048395E-02 -0.22281555343E-01 -0.20656005149E-03  0.10202548305E+01  0.10199801005E+01 0.  0.
     999903    2    3    3    0    0 -0.79071653245E-01  0.45147029200E-01  0.90702854307E-01  0.13016366298E+00  0.20615304727E-01 0.  0.
         14    1    1    2    0    0  0.80002048395E-02  0.22281555343E-01  0.20656005149E-03  0.23675169546E-01  0.00000000000E+00 0.  1.
     999901    1    3    3    0    0  0.71071448406E-01 -0.67428584543E-01 -0.90909414358E-01  0.89009116747E+00  0.88000000000E+00 0.  1.
        -11    1    4    4    0    0 -0.24582352350E-01  0.10137215945E-01  0.14997302547E-01  0.30532530175E-01  0.51100000000E-03 0. -1.
         11    1    4    4    0    0 -0.54489300895E-01  0.35009813255E-01  0.75705551760E-01  0.99631132807E-01  0.51100000000E-03 0.  1.
</event>
<event>
 8    1  0.9952977E+004  0.1043930E+01  0.7957747E-01            NaN
         13   -1    0    0    0    0  0.00000000000E+00  0.00000000000E+00  0.74505805969E-08  0.10566000000E+00  0.10566000000E+00 0.  1.
     999900   -1    0    0    0    0 -0.00000000000E+00 -0.00000000000E+00 -0.74505805969E-08  0.93827000000E+00  0.93827000000E+00 0. -1.
     999902    2    1    2    0    0  0.25262363831E-01  0.26542600141E-01 -0.94239907145E-02  0.10060947222E+01  0.10053830522E+01 0.  0.
     999903    2    3    3    0    0  0.97858106117E-02  0.82275699248E-01  0.83716701968E-01  0.11929097235E+00  0.18889074086E-01 0.  0.
         14    1    1    2    0    0 -0.25262363831E-01 -0.26542600141E-01  0.94239907145E-02  0.37835277844E-01  0.00000000000E+00 0. -1.
     999901    1    3    3    0    0  0.15476553219E-01 -0.55733099106E-01 -0.93140692682E-01  0.88680374981E+00  0.88000000000E+00 0. -1.
        -11    1    4    4    0    0  0.60439740154E-02  0.10909537427E-01  0.64835972873E-02  0.14065766369E-01  0.51100000000E-03 0.  1.
         11    1    4    4    0    0  0.37418365963E-02  0.71366161821E-01  0.77233104681E-01  0.10522520598E+00  0.51100000000E-03 0. -1.
</event>
<event>
 8    1  0.9952977E+004  0.1043930E+01  0.7957747E-01            NaN
         13   -1    0    0    0    0  0.00000000000E+00  0.00000000000E+00  0.74505805969E-08  0.10566000000E+00  0.10566000000E+00 0. -1.
     999900   -1    0    0    0    0 -0.00000000000E+00 -0.00000000000E+00 -0.74505805969E-08  0.93827000000E+00  0.93827000000E+00 0.  1.
     999902    2    1    2    0    0  0.14266710498E-01  0.18673802695E-02 -0.18095640274E-01  0.10208112125E+01  0.10205493880E+01 0.  0.
     999903    2    3    3    0    0 -0.47295966698E-01  0.99963927468E-01  0.64209298964E-01  0.12941511717E+00  0.19893295771E-01 0.  0.
         14    1    1    2    0    0 -0.14266710498E-01 -0.18673802695E-02  0.18095640274E-01  0.23118787477E-01  0.00000000000E+00 0. -1.
     999901    1    3    3    0    0  0.61562677196E-01 -0.98096547199E-01 -0.82304939238E-01  0.89139609536E+00  0.88000000000E+00 0.  1.
        -11    1    4    4    0    0 -0.30707894259E-01  0.73573632811E-01  0.36414862765E-01  0.87649059128E-01  0.51100000000E-03 0. -1.
         11    1    4    4    0    0 -0.16588072439E-01  0.26390294657E-01  0.27794436199E-01  0.41766058037E-01  0.51100000000E-03 0.  1.
</event>
<event>
 8    1  0.9952977E+004  0.1043930E+01  0.7957747E-01            NaN
         13   -1    0    0    0    0  0.00000000000E+00  0.00000000000E+00  0.74505805969E-08  0.10566000000E+00  0.10566000000E+00 0. -1.
     999900   -1    0    0    0    0 -0.00000000000E+00 -0.00000000000E+00 -0.74505805969E-08  0.93827000000E+00  0.93827000000E+00 0.  1.
     999902    2    1    2    0    0 -0.64497117801E-02 -0.21395210620E-01 -0.70197340272E-02  0.10205071376E+01  0.10202382993E+01 0.  0.
     999903    2    3    3    0    0 -0.38551456131E-01  0.56125279580E-01 -0.10963148293E+00  0.13058066901E+00  0.19899429448E-01 0.  0.
         14    1    1    2    0    0  0.64497117801E-02  0.21395210620E-01  0.70197340272E-02  0.23422862450E-01  0.00000000000E+00 0. -1.
     999901    1    3    3    0    0  0.32101744351E-01 -0.77520490200E-01  0.10261174890E+00  0.88992646854E+00  0.88000000000E+00 0. -1.
        -11    1    4    4    0    0 -0.34095844434E-03  0.12371603697E-01 -0.25400711816E-01  0.28260044452E-01  0.51100000000E-03 0. -1.
         11    1    4    4    0    0 -0.38210497686E-01  0.43753675883E-01 -0.84230771115E-01  0.10232062456E+00  0.51100000000E-03 0.  1.
</event>
<event>
 8    1  0.9952977E+004  0.1043930E+01  0.7957747E-01            NaN
         13   -1    0    0    0    0  0.00000000000E+00  0.00000000000E+00  0.74505805969E-08  0.10566000000E+00  0.10566000000E+00 0. -1.
     999900   -1    0    0    0    0 -0.00000000000E+00 -0.00000000000E+00 -0.74505805969E-08  0.93827000000E+00  0.93827000000E+00 0.  1.
     999902    2    1    2    0    0  0.13009532472E-01  0.20192847657E-01  0.12469369089E-01  0.10168655547E+01  0.10165053233E+01 0.  0.
     999903    2    3    3    0    0  0.84456859688E-01  0.84661422239E-01 -0.46028208969E-01  0.12968863647E+00  0.20000721111E-01 0.  0.
         14    1    1    2    0    0 -0.13009532472E-01 -0.20192847657E-01 -0.12469369089E-01  0.27064445258E-01  0.00000000000E+00 0.  1.
     999901    1    3    3    0    0 -0.71447327216E-01 -0.64468574582E-01  0.58497578058E-01  0.88717691827E+00  0.88000000000E+00 0. -1.
        -11    1    4    4    0    0  0.59978378926E-01  0.70271186436E-01 -0.39893718048E-01  0.10063406701E+00  0.51100000000E-03 0. -1.
         11    1    4    4    0    0  0.24478480762E-01  0.14390235803E-01 -0.61344909211E-02  0.29054569464E-01  0.51100000000E-03 0.  1.
</event>
<event>
 8    1  0.9952977E+004  0.1043930E+01  0.7957747E-01            NaN
         13   -1    0    0    0    0  0.00000000000E+00  0.00000000000E+00  0.74505805969E-08  0.10566000000E+00  0.10566000000E+00 0.  1.
     999900   -1    0    0    0    0 -0.00000000000E+00 -0.00000000000E+00 -0.74505805969E-08  0.93827000000E+00  0.93827000000E+00 0.  1.
     999902    2    1    2    0    0 -0.95689182389E-02 -0.16037863915E-01  0.14528578760E-01  0.10202687051E+01  0.10199943008E+01 0.  0.
     999903    2    3    3    0    0  0.93594883331E-01 -0.34622653347E-01  0.82721546169E-01  0.13142763655E+00  0.21717254374E-01 0.  0.
         14    1    1    2    0    0  0.95689182389E-02  0.16037863915E-01 -0.14528578760E-01  0.23661294893E-01  0.00000000000E+00 0.  1.
     999901    1    3    3    0    0 -0.10316380157E+00  0.18584789433E-01 -0.68192967408E-01  0.88884106856E+00  0.88000000000E+00 0.  1.
        -11    1    4    4    0    0  0.80404854436E-01 -0.26289101339E-01  0.59411506296E-01  0.10337333151E+00  0.51100000000E-03 0. -1.
         11    1    4    4    0    0  0.13190028896E-01 -0.83335520088E-02  0.23310039873E-01  0.28054305039E-01  0.51100000000E-03 0.  1.
</event>
<event>
 8    1  0.9952977E+004  0.1043930E+01  0.7957747E-01            NaN
         13   -1    0    0    0    0  0.00000000000E+00  0.00000000000E+00  0.74505805969E-08  0.10566000000E+00  0.10566000000E+00 0. -1.
     999900   -1    0    0    0    0 -0.00000000000E+00 -0.00000000000E+00 -0.74505805969E-08  0.93827000000E+00  0.93827000000E+00 0. -1.
     999902    2    1    2    0    0 -0.10418131575E-02  0.34904861846E-02 -0.23541293663E-01  0.10201085522E+01  0.10198303765E+01 0.  0.
     999903    2    3    3    0    0 -0.79677939817E-01 -0.86610415823E-01  0.49684350209E-01  0.12900597230E+00  0.18001889120E-01 0.  0.
         14    1    1    2    0    0  0.10418131575E-02 -0.34904861846E-02  0.23541293663E-01  0.23821447810E-01  0.00000000000E+00 0. -1.
     999901    1    3    3    0    0  0.78636126659E-01  0.90100902007E-01 -0.73225643872E-01  0.89110257989E+00  0.88000000000E+00 0. -1.
        -11    1    4    4    0    0 -0.29150082089E-01 -0.29244208112E-01  0.26715310388E-01  0.49182516446E-01  0.51100000000E-03 0.  1.
         11    1    4    4    0    0 -0.50527857728E-01 -0.57366207711E-01  0.22969039822E-01  0.79823455857E-01  0.51100000000E-03 0. -1.
</event>
<event>
 8    1  0.9952977E+004  0.1043930E+01  0.7957747E-01            NaN
         13   -1    0    0    0    0  0.00000000000E+00  0.00000000000E+00  0.74505805969E-08  0.10566000000E+00  0.10566000000E+00 0. -1.
     999900   -1    0    0    0    0 -0.00000000000E+00 -0.00000000000E+00 -0.74505805969E-08  0.93827000000E+00  0.93827000000E+00 0.  1.
     999902    2    1    2    0    0  0.86722017660E-02  0.17669545193E-01 -0.13779048797E-01  0.10199033045E+01  0.10196202570E+01 0.  0.
     999903    2    3    3    0    0  0.30988848410E-01 -0.11695002966E+00  0.36635859810E-01  0.12796041078E+00  0.19851003499E-01 0.  0.
         14    1    1    2    0    0 -0.86722017660E-02 -0.17669545193E-01  0.13779048797E-01  0.24026695497E-01  0.00000000000E+00 0. -1.
     999901    1    3    3    0    0 -0.22316646644E-01  0.13461957485E+00 -0.50414908606E-01  0.89194289372E+00  0.88000000000E+00 0. -1.
        -11    1    4    4    0    0  0.15703020014E-01 -0.85173872813E-01  0.32264180223E-01  0.92425169159E-01  0.51100000000E-03 0. -1.
         11    1    4    4    0    0  0.15285828396E-01 -0.31776156847E-01  0.43716795863E-02  0.35535241622E-01  0.51100000000E-03 0.  1.
</event>
<event>
 8    1  0.9952977E+004  0.1043930E+01  0.7957747E-01            NaN
         13   -1    0    0    0    0  0.00000000000E+00  0.00000000000E+00  0.74505805969E-08  0.10566000000E+00  0.10566000000E+00 0.  1.
     999900   -1    0    0    0    0 -0.00000000000E+00 -0.00000000000E+00 -0.74505805969E-08  0.93827000000E+00  0.93827000000E+00 0.  1.
     999902    2    1    2    0    0 -0.12107314772E-01  0.19752903159E-01 -0.25040543285E-04  0.10207618132E+01  0.10204988556E+01 0.  0.
     999903    2    3    3    0    0 -0.93060610334E-01  0.94040348319E-01  0.40825022226E-02  0.13391970068E+00  0.20345886509E-01 0.  0.
         14    1    1    2    0    0  0.12107314772E-01 -0.19752903159E-01  0.25040543285E-04  0.23168186836E-01  0.00000000000E+00 0.  1.
     999901    1    3    3    0    0  0.80953295562E-01 -0.74287445159E-01 -0.41075427658E-02  0.88684211249E+00  0.88000000000E+00 0.  1.
        -11    1    4    4    0    0 -0.20660383719E-01  0.27259020438E-01  0.87581472555E-02  0.35311073546E-01  0.51100000000E-03 0.  1.
         11    1    4    4    0    0 -0.72400226615E-01  0.66781327881E-01 -0.46756450329E-02  0.98608627133E-01  0.51100000000E-03 0. -1.
</event>
<event>
 8    1  0.9952977E+004  0.1043930E+01  0.7957747E-01            NaN
         13   -1    0    0    0    0  0.00000000000E+00  0.00000000000E+00  0.74505805969E-08  0.10566000000E+00  0.10566000000E+00 0. -1.
     999900   -1    0    0    0    0 -0.00000000000E+00 -0.00000000000E+00 -0.74505805969E-08  0.93827000000E+00  0.93827000000E+00 0. -1.
     999902    2    1    2    0    0 -0.12686976350E-01 -0.20171358163E-01 -0.39665430017E-03  0.10200972412E+01  0.10198187981E+01 0.  0.
     999903    2    3    3    0    0 -0.21491933299E-01  0.11687675299E+00 -0.45147828937E-01  0.12832239308E+00  0.17499472032E-01 0.  0.
         14    1    1    2    0    0  0.12686976350E-01  0.20171358163E-01  0.39665430017E-03  0.23832758835E-01  0.00000000000E+00 0.  1.
     999901    1    3    3    0    0  0.88049569488E-02 -0.13704811116E+00  0.44751174637E-01  0.89177484808E+00  0.88000000000E+00 0.  1.
        -11    1    4    4    0    0 -0.22470792413E-02  0.14889296770E-01  0.17955268973E-03  0.15067643598E-01  0.51100000000E-03 0.  1.
         11    1    4    4    0    0 -0.19244854058E-01  0.10198745622E+00 -0.45327381627E-01  0.11325474949E+00  0.51100000000E-03 0. -1.
</event>
<event>
 8    1  0.9952977E+004  0.1043930E+01  0.7957747E-01            NaN
         13   -1    0    0    0    0  0.00000000000E+00  0.00000000000E+00  0.74505805969E-08  0.10566000000E+00  0.10566000000E+00 0. -1.
     999900   -1    0    0    0    0 -0.00000000000E+00 -0.00000000000E+00 -0.74505805969E-08  0.93827000000E+00  0.93827000000E+00 0. -1.
     999902    2    1    2    0    0  0.13647945272E-01 -0.34597427921E-02  0.16214254949E-01  0.10224558692E+01  0.10222303391E+01 0.  0.
     999903    2    3    3    0    0 -0.55623085032E-01  0.11638539184E+00  0.20392168038E-01  0.13162547743E+00  0.16429813410E-01 0.  0.
         14    1    1    2    0    0 -0.13647945272E-01  0.34597427921E-02 -0.16214254949E-01  0.21474130806E-01  0.00000000000E+00 0.  1.
     999901    1    3    3    0    0  0.69271030304E-01 -0.11984513463E+00 -0.41779130890E-02  0.89083039177E+00  0.88000000000E+00 0.  1.
        -11    1    4    4    0    0 -0.37391680396E-01  0.70249360910E-01  0.52485327400E-02  0.79755367769E-01  0.51100000000E-03 0. -1.
         11    1    4    4    0    0 -0.18231404636E-01  0.46136030931E-01  0.15143635298E-01  0.51870109660E-01  0.51100000000E-03 0.  1.
</event>
<event>
 8    1  0.9952977E+004  0.1043930E+01  0.7957747E-01            NaN
         13   -1    0    0    0    0  0.00000000000E+00  0.00000000000E+00  0.74505805969E-08  0.10566000000E+00  0.10566000000E+00 0. -1.
     999900   -1    0    0    0    0 -0.00000000000E+00 -0.00000000000E+00 -0.74505805969E-08  0.93827000000E+00  0.93827000000E+00 0. -1.
     999902    2    1    2    0    0 -0.22026039591E-01  0.27197409336E-02  0.83102103511E-02  0.10202318354E+01  0.10199565652E+01 0.  0.
     999903    2    3    3    0    0 -0.52094300635E-01 -0.10533519351E+00  0.56221105151E-01  0.13182009354E+00  0.20159495198E-01 0.  0.
         14    1    1    2    0    0  0.22026039591E-01 -0.27197409336E-02 -0.83102103511E-02  0.23698164631E-01  0.00000000000E+00 0.  1.
     999901    1    3    3    0    0  0.30068261044E-01  0.10805493444E+00 -0.47910894800E-01  0.88841174183E+00  0.88000000000E+00 0.  1.
        -11    1    4    4    0    0 -0.20419045884E-01 -0.51471659252E-01  0.36378218291E-01  0.66256358397E-01  0.51100000000E-03 0. -1.
         11    1    4    4    0    0 -0.31675254750E-01 -0.53863534255E-01  0.19842886860E-01  0.65563735143E-01  0.51100000000E-03 0.  1.
</event>
<event>
 8    1  0.9952977E+004  0.1043930E+01  0.7957747E-01            NaN
         13   -1    0    0    0    0  0.00000000000E+00  0.00000000000E+00  0.74505805969E-08  0.10566000000E+00  0.10566000000E+00 0. -1.
     999900   -1    0    0    0    0 -0.00000000000E+00 -0.00000000000E+00 -0.74505805969E-08  0.93827000000E+00  0.93827000000E+00 0.  1.
     999902    2    1    2    0    0 -0.17658655987E-02 -0.23852563045E-01  0.16677815419E-02  0.10199540842E+01  0.10196722460E+01 0.  0.
     999903    2    3    3    0    0 -0.46241620066E-01 -0.24531333529E-01  0.11857544030E+00  0.13110879158E+00  0.19730849824E-01 0.  0.
         14    1    1    2    0    0  0.17658655987E-02  0.23852563045E-01 -0.16677815419E-02  0.23975915840E-01  0.00000000000E+00 0. -1.
     999901    1    3    3    0    0  0.44475754468E-01  0.67877048458E-03 -0.11690765876E+00  0.88884529258E+00  0.88000000000E+00 0.  1.
        -11    1    4    4    0    0  0.83013607786E-03 -0.31411993732E-02  0.14852432686E-01  0.15212236427E-01  0.51100000000E-03 0.  1.
         11    1    4    4    0    0 -0.47071756144E-01 -0.21390134156E-01  0.10372300762E+00  0.11589655515E+00  0.51100000000E-03 0. -1.
</event>
<event>
 8    1  0.9952977E+004  0.1043930E+01  0.7957747E-01            NaN
         13   -1    0    0    0    0  0.00000000000E+00  0.00000000000E+00  0.74505805969E-08  0.10566000000E+00  0.10566000000E+00 0. -1.
     999900   -1    0    0    0    0 -0.00000000000E+00 -0.00000000000E+00 -0.74505805969E-08  0.93827000000E+00  0.93827000000E+00 0. -1.
     999902    2    1    2    0    0  0.20566024206E-01  0.55918101199E-02 -0.85185040159E-02  0.10209779935E+01  0.10207199756E+01 0.  0.
     999903    2    3    3    0    0 -0.84540892982E-01 -0.24744738812E-01  0.91462157780E-01  0.12858575744E+00  0.20236255200E-01 0.  0.
         14    1    1    2    0    0 -0.20566024206E-01 -0.55918101199E-02  0.85185040159E-02  0.22952006507E-01  0.00000000000E+00 0. -1.
     999901    1    3    3    0    0  0.10510691719E+00  0.30336548932E-01 -0.99980661795E-01  0.89239223606E+00  0.88000000000E+00 0. -1.
        -11    1    4    4    0    0 -0.53401017149E-01 -0.16709832713E-01  0.71257549821E-01  0.90602354657E-01  0.51100000000E-03 0. -1.
         11    1    4    4    0    0 -0.31139875833E-01 -0.80349060989E-02  0.20204607959E-01  0.37983402779E-01  0.51100000000E-03 0.  1.
</event>
<event>
 8    1  0.9952977E+004  0.1043930E+01  0.7957747E-01            NaN
         13   -1    0    0    0    0  0.00000000000E+00  0.00000000000E+00  0.74505805969E-08  0.10566000000E+00  0.10566000000E+00 0. -1.
     999900   -1    0    0    0    0 -0.00000000000E+00 -0.00000000000E+00 -0.74505805969E-08  0.93827000000E+00  0.93827000000E+00 0. -1.
     999902    2    1    2    0    0  0.15263641031E-01  0.60180785909E-02 -0.17473172544E-01  0.10199611084E+01  0.10196794373E+01 0.  0.
     999903    2    3    3    0    0 -0.74678528616E-01  0.10392734365E+00  0.61825776061E-02  0.12966036559E+00  0.19894992979E-01 0.  0.
         14    1    1    2    0    0 -0.15263641031E-01 -0.60180785909E-02  0.17473172544E-01  0.23968891634E-01  0.00000000000E+00 0.  1.
     999901    1    3    3    0    0  0.89942169646E-01 -0.97909265059E-01 -0.23655750150E-01  0.89030074277E+00  0.88000000000E+00 0.  1.
        -11    1    4    4    0    0 -0.29529169257E-01  0.44855300878E-01  0.12173021912E-01  0.55067353644E-01  0.51100000000E-03 0.  1.
         11    1    4    4    0    0 -0.45149359358E-01  0.59072042772E-01 -0.59904443056E-02  0.74593011950E-01  0.51100000000E-03 0. -1.
</event>
<event>
 8    1  0.9952977E+004  0.1043930E+01  0.7957747E-01            NaN
         13   -1    0    0    0    0  0.00000000000E+00  0.00000000000E+00  0.74505805969E-08  0.10566000000E+00  0.10566000000E+00 0. -1.
     999900   -1    0    0    0    0 -0.00000000000E+00 -0.00000000000E+00 -0.74505805969E-08  0.93827000000E+00  0.93827000000E+00 0. -1.
     999902    2    1    2    0    0 -0.66990589241E-02  0.18723262835E-01  0.13569221525E-01  0.10198559116E+01  0.10195717329E+01 0.  0.
     999903    2    3    3    0    0  0.64089277769E-01 -0.98407353546E-01  0.48634352876E-01  0.12858707818E+00  0.19439486591E-01 0.  0.
         14    1    1    2    0    0  0.66990589241E-02 -0.18723262835E-01 -0.13569221525E-01  0.24074088445E-01  0.00000000000E+00 0. -1.
     999901    1    3    3    0    0 -0.70788336694E-01  0.11713061638E+00 -0.35065131351E-01  0.89126883337E+00  0.88000000000E+00 0. -1.
        -11    1    4    4    0    0  0.30821626543E-01 -0.30648447759E-01  0.20037459774E-01  0.47865028235E-01  0.51100000000E-03 0.  1.
         11    1    4    4    0    0  0.33267651227E-01 -0.67758905786E-01  0.28596893102E-01  0.80722049947E-01  0.51100000000E-03 0. -1.
</event>
<event>
 8    1  0.9952977E+004  0.1043930E+01  0.7957747E-01            NaN
         13   -1    0    0    0    0  0.00000000000E+00  0.00000000000E+00  0.74505805969E-08  0.10566000000E+00  0.10566000000E+00 0. -1.
     999900   -1    0    0    0    0 -0.00000000000E+00 -0.00000000000E+00 -0.74505805969E-08  0.93827000000E+00  0.93827000000E+00 0. -1.
     999902    2    1    2    0    0 -0.10488518533E-01  0.17699605023E-01  0.11214128047E-01  0.10204983610E+01  0.10202293189E+01 0.  0.
     999903    2    3    3    0    0  0.91568192030E-01 -0.79918688449E-01 -0.35777609677E-01  0.12800011068E+00  0.18228012078E-01 0.  0.
         14    1    1    2    0    0  0.10488518533E-01 -0.17699605023E-01 -0.11214128047E-01  0.23431639013E-01  0.00000000000E+00 0.  1.
     999901    1    3    3    0    0 -0.10205671056E+00  0.97618293472E-01  0.46991737723E-01  0.89249825031E+00  0.88000000000E+00 0.  1.
        -11    1    4    4    0    0  0.13640131511E-01 -0.21627054735E-01 -0.69698013777E-02  0.26507016739E-01  0.51100000000E-03 0.  1.
         11    1    4    4    0    0  0.77928060519E-01 -0.58291633714E-01 -0.28807808299E-01  0.10149309394E+00  0.51100000000E-03 0. -1.
</event>
<event>
 8    1  0.9952977E+004  0.1043930E+01  0.7957747E-01            NaN
         13   -1    0    0    0    0  0.00000000000E+00  0.00000000000E+00  0.74505805969E-08  0.10566000000E+00  0.10566000000E+00 0.  1.
     999900   -1    0    0    0    0 -0.00000000000E+00 -0.00000000000E+00 -0.74505805969E-08  0.93827000000E+00  0.93827000000E+00 0.  1.
     999902    2    1    2    0    0 -0.82739616146E-02 -0.19778634101E-01 -0.68564756907E-02  0.10214208004E+01  0.10211727510E+01 0.  0.
     999903    2    3    3    0    0  0.95087512177E-01  0.79275772330E-01  0.30430769293E-01  0.12907237723E+00  0.20183255277E-01 0.  0.
         14    1    1    2    0    0  0.82739616146E-02  0.19778634101E-01  0.68564756907E-02  0.22509199599E-01  0.00000000000E+00 0.  1.
     999901    1    3    3    0    0 -0.10336147379E+00 -0.99054406431E-01 -0.37287244983E-01  0.89234842317E+00  0.88000000000E+00 0. -1.
        -11    1    4    4    0    0  0.41219174893E-01  0.47349164687E-01  0.16733534725E-01  0.64971040324E-01  0.51100000000E-03 0. -1.
         11    1    4    4    0    0  0.53868337284E-01  0.31926607643E-01  0.13697234568E-01  0.64101336906E-01  0.51100000000E-03 0.  1.
</event>
<event>
 8    1  0.9952977E+004  0.1043930E+01  0.7957747E-01            NaN
         13   -1    0    0    0    0  0.00000000000E+00  0.00000000000E+00  0.74505805969E-08  0.10566000000E+00  0.10566000000E+00 0. -1.
     999900   -1    0    0    0    0 -0.00000000000E+00 -0.00000000000E+00 -0.74505805969E-08  0.93827000000E+00  0.93827000000E+00 0.  1.
     999902    2    1    2    0    0  0.12887716350E-01  0.15353375016E-01 -0.11793983022E-01  0.10206723692E+01  0.10204073538E+01 0.  0.
     999903    2    3    3    0    0  0.12836234063E+00 -0.15256414139E-01  0.19459652446E-01  0.13205088743E+00  0.18684489098E-01 0.  0.
         14    1    1    2    0    0 -0.12887716350E-01 -0.15353375016E-01  0.11793983022E-01  0.23257630847E-01  0.00000000000E+00 0. -1.
     999901    1    3    3    0    0 -0.11547462428E+00  0.30609789155E-01 -0.31253635468E-01  0.88862148172E+00  0.88000000000E+00 0.  1.
        -11    1    4    4    0    0  0.10458627781E+00 -0.61196252703E-02  0.11692561598E-01  0.10541686980E+00  0.51100000000E-03 0. -1.
         11    1    4    4    0    0  0.23776062821E-01 -0.91367888686E-02  0.77670908481E-02  0.26634017634E-01  0.51100000000E-03 0.  1.
</event>
<event>
 8    1  0.9952977E+004  0.1043930E+01  0.7957747E-01            NaN
         13   -1    0    0    0    0  0.00000000000E+00  0.00000000000E+00  0.74505805969E-08  0.10566000000E+00  0.10566000000E+00 0. -1.
     999900   -1    0    0    0    0 -0.00000000000E+00 -0.00000000000E+00 -0.74505805969E-08  0.93827000000E+00  0.93827000000E+00 0. -1.
     999902    2    1    2    0    0 -0.21024768856E-01 -0.19158391024E-02 -0.83839066145E-02  0.10212143394E+01  0.10209616672E+01 0.  0.
     999903    2    3    3    0    0  0.10733442567E+00  0.26599753976E-01 -0.64435513899E-01  0.12968138741E+00  0.20906959181E-01 0.  0.
         14    1    1    2    0    0  0.21024768856E-01  0.19158391024E-02  0.83839066145E-02  0.22715660568E-01  0.00000000000E+00 0. -1.
     999901    1    3    3    0    0 -0.12835919453E+00 -0.28515593078E-01  0.56051607285E-01  0.89153295203E+00  0.88000000000E+00 0.  1.
        -11    1    4    4    0    0  0.90981704281E-01  0.30052328336E-01 -0.55089659867E-01  0.11052576486E+00  0.51100000000E-03 0. -1.
         11    1    4    4    0    0  0.16352721391E-01 -0.34525743595E-02 -0.93458540322E-02  0.19155622548E-01  0.51100000000E-03 0.  1.
</event>
<event>
 8    1  0.9952977E+004  0.1043930E+01  0.7957747E-01            NaN
         13   -1    0    0    0    0  0.00000000000E+00  0.00000000000E+00  0.74505805969E-08  0.10566000000E+00  0.10566000000E+00 0. -1.
     999900   -1    0    0    0    0 -0.00000000000E+00 -0.00000000000E+00 -0.74505805969E-08  0.93827000000E+00  0.93827000000E+00 0. -1.
     999902    2    1    2    0    0  0.27016737758E-02  0.19806108299E-01 -0.12918608497E-01  0.10201293401E+01  0.10198516554E+01 0.  0.
     999903    2    3    3    0    0  0.17771240509E-01  0.61191244231E-01 -0.11526897315E+00  0.13310317448E+00  0.19218052100E-01 0.  0.
         14    1    1    2    0    0 -0.27016737758E-02 -0.19806108299E-01  0.12918608497E-01  0.23800659920E-01  0.00000000000E+00 0.  1.
     999901    1    3    3    0    0 -0.15069566733E-01 -0.41385135932E-01  0.10235036465E+00  0.88702616560E+00  0.88000000000E+00 0.  1.
        -11    1    4    4    0    0  0.12709718265E-01  0.25820758822E-01 -0.35552371243E-01  0.45743641596E-01  0.51100000000E-03 0.  1.
         11    1    4    4    0    0  0.50615222443E-02  0.35370485409E-01 -0.79716601903E-01  0.87359532882E-01  0.51100000000E-03 0. -1.
</event>
<event>
 8    1  0.9952977E+004  0.1043930E+01  0.7957747E-01            NaN
         13   -1    0    0    0    0  0.00000000000E+00  0.00000000000E+00  0.74505805969E-08  0.10566000000E+00  0.10566000000E+00 0.  1.
     999900   -1    0    0    0    0 -0.00000000000E+00 -0.00000000000E+00 -0.74505805969E-08  0.93827000000E+00  0.93827000000E+00 0. -1.
     999902    2    1    2    0    0  0.30577169529E-01  0.46728180809E-02 -0.12497386413E-01  0.10105685973E+01  0.10100177754E+01 0.  0.
     999903    2    3    3    0    0  0.98447585076E-01  0.61833934409E-01  0.40233315924E-01  0.12453568958E+00  0.19366357896E-01 0.  0.
         14    1    1    2    0    0 -0.30577169529E-01 -0.46728180809E-02  0.12497386413E-01  0.33361402734E-01  0.00000000000E+00 0.  1.
     999901    1    3    3    0    0 -0.67870415547E-01 -0.57161116328E-01 -0.52730702338E-01  0.88603290768E+00  0.88000000000E+00 0. -1.
        -11    1    4    4    0    0  0.79416592416E-01  0.53413473462E-01  0.25548632012E-01  0.99060527037E-01  0.51100000000E-03 0. -1.
         11    1    4    4    0    0  0.19030992660E-01  0.84204609471E-02  0.14684683912E-01  0.25475162547E-01  0.51100000000E-03 0.  1.
</event>
<event>
 8    1  0.9952977E+004  0.1043930E+01  0.7957747E-01            NaN
         13   -1    0    0    0    0  0.00000000000E+00  0.00000000000E+00  0.74505805969E-08  0.10566000000E+00  0.10566000000E+00 0.  1.
     999900   -1    0    0    0    0 -0.00000000000E+00 -0.00000000000E+00 -0.74505805969E-08  0.93827000000E+00  0.93827000000E+00 0. -1.
     999902    2    1    2    0    0  0.60473006149E-02  0.18878509747E-01  0.12693055983E-01  0.10203910611E+01  0.10201195204E+01 0.  0.
     999903    2    3    3    0    0 -0.22512341991E-01 -0.95412288998E-01  0.82555904649E-01  0.12979639600E+00  0.20525997839E-01 0.  0.
         14    1    1    2    0    0 -0.60473006149E-02 -0.18878509747E-01 -0.12693055983E-01  0.23538938914E-01  0.00000000000E+00 0. -1.
     999901    1    3    3    0    0  0.28559642606E-01  0.11429079874E+00 -0.69862848666E-01  0.89059466509E+00  0.88000000000E+00 0. -1.
        -11    1    4    4    0    0 -0.20620690404E-01 -0.53765874906E-01  0.56239957716E-01  0.80493329798E-01  0.51100000000E-03 0. -1.
         11    1    4    4    0    0 -0.18916515868E-02 -0.41646414092E-01  0.26315946933E-01  0.49303066198E-01  0.51100000000E-03 0.  1.
</event>
<event>
 8    1  0.9952977E+004  0.1043930E+01  0.7957747E-01            NaN
         13   -1    0    0    0    0  0.00000000000E+00  0.00000000000E+00  0.74505805969E-08  0.10566000000E+00  0.10566000000E+00 0. -1.
     999900   -1    0    0    0    0 -0.00000000000E+00 -0.00000000000E+00 -0.74505805969E-08  0.93827000000E+00  0.93827000000E+00 0.  1.
     999902    2    1    2    0    0 -0.14236282148E-01 -0.17688223733E-02 -0.20200000084E-01  0.10191541960E+01  0.10188529996E+01 0.  0.
     999903    2    3    3    0    0  0.52974156910E-01  0.38742743326E-01 -0.11152219383E+00  0.13095479654E+00  0.20117096224E-01 0.  0.
         14    1    1    2    0    0  0.14236282148E-01  0.17688223733E-02  0.20200000084E-01  0.24775804031E-01  0.00000000000E+00 0. -1.
     999901    1    3    3    0    0 -0.67210439057E-01 -0.40511565699E-01  0.91322193743E-01  0.88819939943E+00  0.88000000000E+00 0. -1.
        -11    1    4    4    0    0  0.18173174327E-01  0.14826255029E-01 -0.59447964206E-01  0.63909339479E-01  0.51100000000E-03 0.  1.
         11    1    4    4    0    0  0.34800982583E-01  0.23916488296E-01 -0.52074229621E-01  0.67045457063E-01  0.51100000000E-03 0. -1.
</event>
<event>
 8    1  0.9952977E+004  0.1043930E+01  0.7957747E-01            NaN
         13   -1    0    0    0    0  0.00000000000E+00  0.00000000000E+00  0.74505805969E-08  0.10566000000E+00  0.10566000000E+00 0.  1.
     999900   -1    0    0    0    0 -0.00000000000E+00 -0.00000000000E+00 -0.74505805969E-08  0.93827000000E+00  0.93827000000E+00 0. -1.
     999902    2    1    2    0    0 -0.18854734538E-01  0.11651437480E-01 -0.30225016612E-02  0.10215605448E+01  0.10213155997E+01 0.  0.
     999903    2    3    3    0    0 -0.51291490135E-01  0.10368457859E-01  0.11997814016E+00  0.13241323021E+00  0.20004687947E-01 0.  0.
         14    1    1    2    0    0  0.18854734538E-01 -0.11651437480E-01  0.30225016612E-02  0.22369455204E-01  0.00000000000E+00 0.  1.
     999901    1    3    3    0    0  0.32436755598E-01  0.12829796212E-02 -0.12300064182E+00  0.88914731459E+00  0.88000000000E+00 0. -1.
        -11    1    4    4    0    0 -0.35674604124E-01  0.16401557698E-01  0.84926233968E-01  0.93565029853E-01  0.51100000000E-03 0. -1.
         11    1    4    4    0    0 -0.15616886011E-01 -0.60330998391E-02  0.35051906189E-01  0.38848200355E-01  0.51100000000E-03 0.  1.
</event>
<event>
 8    1  0.9952977E+004  0.1043930E+01  0.7957747E-01            NaN
         13   -1    0    0    0    0  0.00000000000E+00  0.00000000000E+00  0.74505805969E-08  0.10566000000E+00  0.10566000000E+00 0. -1.
     999900   -1    0    0    0    0 -0.00000000000E+00 -0.00000000000E+00 -0.74505805969E-08  0.93827000000E+00  0.93827000000E+00 0.  1.
     999902    2    1    2    0    0 -0.10235300490E-01  0.20712952257E-01  0.16366297641E-02  0.10207682573E+01  0.10205054477E+01 0.  0.
     999903    2    3    3    0    0  0.80589802814E-01  0.53976166661E-01 -0.85839391207E-01  0.13115727769E+00  0.20632196271E-01 0.  0.
         14    1    1    2    0    0  0.10235300490E-01 -0.20712952257E-01 -0.16366297641E-02  0.23161742687E-01  0.00000000000E+00 0.  1.
     999901    1    3    3    0    0 -0.90825103304E-01 -0.33263214404E-01  0.87476020971E-01  0.88961097962E+00  0.88000000000E+00 0. -1.
        -11    1    4    4    0    0  0.56729522596E-01  0.28494742850E-01 -0.47393353556E-01  0.79224871009E-01  0.51100000000E-03 0.  1.
         11    1    4    4    0    0  0.23860280217E-01  0.25481423812E-01 -0.38446037651E-01  0.51932406680E-01  0.51100000000E-03 0. -1.
</event>
<event>
 8    1  0.9952977E+004  0.1043930E+01  0.7957747E-01            NaN
         13   -1    0    0    0    0  0.00000000000E+00  0.00000000000E+00  0.74505805969E-08  0.10566000000E+00  0.10566000000E+00 0. -1.
     999900   -1    0    0    0    0 -0.00000000000E+00 -0.00000000000E+00 -0.74505805969E-08  0.93827000000E+00  0.93827000000E+00 0.  1.
     999902    2    1    2    0    0  0.72629794610E-02 -0.16748963122E-01 -0.14311458113E-01  0.10207330935E+01  0.10204694762E+01 0.  0.
     999903    2    3    3    0    0  0.93641560535E-01  0.75555550660E-01 -0.47820338696E-01  0.13106786008E+00  0.20362123130E-01 0.  0.
         14    1    1    2    0    0 -0.72629794610E-02  0.16748963122E-01  0.14311458113E-01  0.23196906467E-01  0.00000000000E+00 0. -1.
     999901    1    3    3    0    0 -0.86378581074E-01 -0.92304513783E-01  0.33508880583E-01  0.88966523345E+00  0.88000000000E+00 0. -1.
        -11    1    4    4    0    0  0.24626440134E-01  0.17561588873E-01 -0.21643043785E-01  0.37196147955E-01  0.51100000000E-03 0. -1.
         11    1    4    4    0    0  0.69015120401E-01  0.57993961787E-01 -0.26177294912E-01  0.93871712127E-01  0.51100000000E-03 0.  1.
</event>
<event>
 8    1  0.9952977E+004  0.1043930E+01  0.7957747E-01            NaN
         13   -1    0    0    0    0  0.00000000000E+00  0.00000000000E+00  0.74505805969E-08  0.10566000000E+00  0.10566000000E+00 0. -1.
     999900   -1    0    0    0    0 -0.00000000000E+00 -0.00000000000E+00 -0.74505805969E-08  0.93827000000E+00  0.93827000000E+00 0. -1.
     999902    2    1    2    0    0  0.42284139427E-02  0.86031028143E-02 -0.19668791832E-01  0.10220495467E+01  0.10218153071E+01 0.  0.
     999903    2    3    3    0    0  0.18439982760E-01 -0.79647082972E-01  0.96707972304E-01  0.12989842994E+00  0.28939236423E-01 0.  0.
         14    1    1    2    0    0 -0.42284139427E-02 -0.86031028143E-02  0.19668791832E-01  0.21880453254E-01  0.00000000000E+00 0. -1.
     999901    1    3    3    0    0 -0.14211568818E-01  0.88250185786E-01 -0.11637676414E+00  0.89215111680E+00  0.88000000000E+00 0. -1.
        -11    1    4    4    0    0  0.20182212303E-01 -0.27405078553E-01  0.44421884964E-01  0.55963604322E-01  0.51100000000E-03 0.  1.
         11    1    4    4    0    0 -0.17422295428E-02 -0.52242004419E-01  0.52286087340E-01  0.73934825622E-01  0.51100000000E-03 0. -1.
</event>
<event>
 7    1  0.9952977E+004  0.1043930E+01  0.7957747E-01            NaN
         13   -1    0    0    0    0  0.00000000000E+00  0.00000000000E+00  0.74505805969E-08  0.10566000000E+00  0.10566000000E+00 0. -1.
     999900   -1    0    0    0    0 -0.00000000000E+00 -0.00000000000E+00 -0.74505805969E-08  0.93827000000E+00  0.93827000000E+00 0.  1.
     999903    2    1    2    0    0 -0.14601596674E-01 -0.27728710119E-02  0.94252844984E-01  0.97628711676E-01  0.20660859536E-01 0.  0.
         14    1    1    2    0    0 -0.42667458143E-01 -0.40262395663E-01 -0.43888757472E-02  0.58828859578E-01  0.00000000000E+00 0.  1.
     999901    1    1    2    0    0  0.57269054817E-01  0.43035266675E-01 -0.89863969237E-01  0.88747242875E+00  0.88000000000E+00 0.  1.
        -11    1    3    3    0    0 -0.15609652464E-01  0.58543243274E-02  0.58394179217E-01  0.60729528656E-01  0.51100000000E-03 0. -1.
         11    1    3    3    0    0  0.10080557901E-02 -0.86271953393E-02  0.35858665767E-01  0.36899183020E-01  0.51100000000E-03 0.  1.
</event>
<event>
 8    1  0.9952977E+004  0.1043930E+01  0.7957747E-01            NaN
         13   -1    0    0    0    0  0.00000000000E+00  0.00000000000E+00  0.74505805969E-08  0.10566000000E+00  0.10566000000E+00 0.  1.
     999900   -1    0    0    0    0 -0.00000000000E+00 -0.00000000000E+00 -0.74505805969E-08  0.93827000000E+00  0.93827000000E+00 0. -1.
     999902    2    1    2    0    0 -0.20412327889E-01  0.32399933232E-02  0.10636027695E-01  0.10206859519E+01  0.10204212496E+01 0.  0.
     999903    2    3    3    0    0  0.43796916957E-01 -0.96039779461E-01 -0.71365524788E-01  0.12900015802E+00  0.20154241927E-01 0.  0.
         14    1    1    2    0    0  0.20412327889E-01 -0.32399933232E-02 -0.10636027695E-01  0.23244048092E-01  0.00000000000E+00 0. -1.
     999901    1    3    3    0    0 -0.64209244846E-01  0.99279772784E-01  0.82001552484E-01  0.89168579389E+00  0.88000000000E+00 0.  1.
        -11    1    4    4    0    0  0.34433903900E-01 -0.54120317598E-01 -0.47855155400E-01  0.80031740791E-01  0.51100000000E-03 0.  1.
         11    1    4    4    0    0  0.93630130578E-02 -0.41919461863E-01 -0.23510369389E-01  0.48968417232E-01  0.51100000000E-03 0. -1.
</event>
<event>
 8    1  0.9952977E+004  0.1043930E+01  0.7957747E-01            NaN
         13   -1    0    0    0    0  0.00000000000E+00  0.00000000000E+00  0.74505805969E-08  0.10566000000E+00  0.10566000000E+00 0.  1.
     999900   -1    0    0    0    0 -0.00000000000E+00 -0.00000000000E+00 -0.74505805969E-08  0.93827000000E+00  0.93827000000E+00 0.  1.
     999902    2    1    2    0    0  0.26297494152E-02 -0.22673075918E-01 -0.75432584601E-02  0.10198907674E+01  0.10196074209E+01 0.  0.
     999903    2    3    3    0    0  0.68188649469E-01  0.76465998485E-01 -0.76113036887E-01  0.12925709418E+00  0.20431866534E-01 0.  0.
         14    1    1    2    0    0 -0.26297494152E-02  0.22673075918E-01  0.75432584601E-02  0.24039232553E-01  0.00000000000E+00 0.  1.
     999901    1    3    3    0    0 -0.65558900054E-01 -0.99139074402E-01  0.68569778427E-01  0.89063367327E+00  0.88000000000E+00 0. -1.
        -11    1    4    4    0    0  0.40163529237E-01  0.37772275448E-01 -0.51776478598E-01  0.75636755154E-01  0.51100000000E-03 0.  1.
         11    1    4    4    0    0  0.28025120232E-01  0.38693723037E-01 -0.24336558289E-01  0.53620339022E-01  0.51100000000E-03 0. -1.
</event>
<event>
 8    1  0.9952977E+004  0.1043930E+01  0.7957747E-01            NaN
         13   -1    0    0    0    0  0.00000000000E+00  0.00000000000E+00  0.74505805969E-08  0.10566000000E+00  0.10566000000E+00 0.  1.
     999900   -1    0    0    0    0 -0.00000000000E+00 -0.00000000000E+00 -0.74505805969E-08  0.93827000000E+00  0.93827000000E+00 0. -1.
     999902    2    1    2    0    0  0.11834559908E-01  0.15335339218E-01 -0.15022760262E-01  0.10194164780E+01  0.10191217016E+01 0.  0.
     999903    2    3    3    0    0  0.33957769968E-01 -0.11987093543E+00 -0.25669547027E-01  0.12875182322E+00  0.19898116368E-01 0.  0.
         14    1    1    2    0    0 -0.11834559908E-01 -0.15335339218E-01  0.15022760262E-01  0.24513522045E-01  0.00000000000E+00 0.  1.
     999901    1    3    3    0    0 -0.22123210060E-01  0.13520627465E+00  0.10646786764E-01  0.89066465474E+00  0.88000000000E+00 0.  1.
        -11    1    4    4    0    0  0.42754358473E-02 -0.30685254160E-01  0.11390080219E-02  0.31006815942E-01  0.51100000000E-03 0. -1.
         11    1    4    4    0    0  0.29682334121E-01 -0.89185681272E-01 -0.26808555048E-01  0.97745007277E-01  0.51100000000E-03 0.  1.
</event>
<event>
 8    1  0.9952977E+004  0.1043930E+01  0.7957747E-01            NaN
         13   -1    0    0    0    0  0.00000000000E+00  0.00000000000E+00  0.74505805969E-08  0.10566000000E+00  0.10566000000E+00 0.  1.
     999900   -1    0    0    0    0 -0.00000000000E+00 -0.00000000000E+00 -0.74505805969E-08  0.93827000000E+00  0.93827000000E+00 0. -1.
     999902    2    1    2    0    0  0.11618377280E-01 -0.20570261505E-01 -0.73537393708E-03  0.10202939444E+01  0.10200201321E+01 0.  0.
     999903    2    3    3    0    0 -0.87400046400E-01  0.12129257426E-01 -0.92451341062E-01  0.12940353286E+00  0.20301154062E-01 0.  0.
         14    1    1    2    0    0 -0.11618377280E-01  0.20570261505E-01  0.73537393708E-03  0.23636055589E-01  0.00000000000E+00 0. -1.
     999901    1    3    3    0    0  0.99018423680E-01 -0.32699518931E-01  0.91715967125E-01  0.89089041155E+00  0.88000000000E+00 0.  1.
        -11    1    4    4    0    0 -0.37454675362E-01  0.87929092490E-03 -0.26412355672E-01  0.45842115049E-01  0.51100000000E-03 0.  1.
         11    1    4    4    0    0 -0.49945371038E-01  0.11249966501E-01 -0.66038985390E-01  0.83561417812E-01  0.51100000000E-03 0. -1.
</event>
<event>
 8    1  0.9952977E+004  0.1043930E+01  0.7957747E-01            NaN
         13   -1    0    0    0    0  0.00000000000E+00  0.00000000000E+00  0.74505805969E-08  0.10566000000E+00  0.10566000000E+00 0. -1.
     999900   -1    0    0    0    0 -0.00000000000E+00 -0.00000000000E+00 -0.74505805969E-08  0.93827000000E+00  0.93827000000E+00 0.  1.
     999902    2    1    2    0    0 -0.72675597120E-02  0.62808572757E-02 -0.14889729563E-01  0.10262107833E+01  0.10260577962E+01 0.  0.
     999903    2    3    3    0    0  0.40477157086E-01  0.95464642278E-01 -0.89175593299E-01  0.13730601059E+00  0.12196554088E-01 0.  0.
         14    1    1    2    0    0  0.72675597120E-02 -0.62808572757E-02  0.14889729563E-01  0.17719216651E-01  0.00000000000E+00 0. -1.
     999901    1    3    3    0    0 -0.47744716798E-01 -0.89183785003E-01  0.74285863737E-01  0.88890477276E+00  0.88000000000E+00 0. -1.
        -11    1    4    4    0    0  0.22957638559E-01  0.40323183418E-01 -0.36133328969E-01  0.58812336058E-01  0.51100000000E-03 0. -1.
         11    1    4    4    0    0  0.17519518527E-01  0.55141458861E-01 -0.53042264330E-01  0.78493674528E-01  0.51100000000E-03 0.  1.
</event>
<event>
 8    1  0.9952977E+004  0.1043930E+01  0.7957747E-01            NaN
         13   -1    0    0    0    0  0.00000000000E+00  0.00000000000E+00  0.74505805969E-08  0.10566000000E+00  0.10566000000E+00 0. -1.
     999900   -1    0    0    0    0 -0.00000000000E+00 -0.00000000000E+00 -0.74505805969E-08  0.93827000000E+00  0.93827000000E+00 0. -1.
     999902    2    1    2    0    0 -0.78884484075E-02  0.14205417896E-01  0.17172229278E-01  0.10202887865E+01  0.10200148533E+01 0.  0.
     999903    2    3    3    0    0 -0.37773205276E-01 -0.12051346934E+00  0.21117018638E-01  0.12952628247E+00  0.19514559874E-01 0.  0.
         14    1    1    2    0    0  0.78884484075E-02 -0.14205417896E-01 -0.17172229278E-01  0.23641213468E-01  0.00000000000E+00 0. -1.
     999901    1    3    3    0    0  0.29884756869E-01  0.13471888723E+00 -0.39447893600E-02  0.89076250406E+00  0.88000000000E+00 0. -1.
        -11    1    4    4    0    0 -0.31688364444E-01 -0.84418166658E-01  0.22341313863E-01  0.92897657285E-01  0.51100000000E-03 0.  1.
         11    1    4    4    0    0 -0.60848408326E-02 -0.36095302680E-01 -0.12242952251E-02  0.36628625190E-01  0.51100000000E-03 0. -1.
</event>
<event>
 8    1  0.9952977E+004  0.1043930E+01  0.7957747E-01            NaN
         13   -1    0    0    0    0  0.00000000000E+00  0.00000000000E+00  0.74505805969E-08  0.10566000000E+00  0.10566000000E+00 0. -1.
     999900   -1    0    0    0    0 -0.00000000000E+00 -0.00000000000E+00 -0.74505805969E-08  0.93827000000E+00  0.93827000000E+00 0.  1.
     999902    2    1    2    0    0  0.11771104622E-01  0.17291169713E-01 -0.72337744183E-02  0.10217969716E+01  0.10215572330E+01 0.  0.
     999903    2    3    3    0    0  0.55847213353E-01  0.11687063541E+00  0.28148001062E-01  0.13437900728E+00  0.22085084897E-01 0.  0.
         14    1    1    2    0    0 -0.11771104622E-01 -0.17291169713E-01  0.72337744183E-02  0.22133028405E-01  0.00000000000E+00 0.  1.
     999901    1    3    3    0    0 -0.44076108731E-01 -0.99579465693E-01 -0.35381775480E-01  0.88741796431E+00  0.88000000000E+00 0.  1.
        -11    1    4    4    0    0  0.32282025199E-01  0.50437657303E-01  0.46137154359E-02  0.60063582280E-01  0.51100000000E-03 0. -1.
         11    1    4    4    0    0  0.23565188154E-01  0.66432978103E-01  0.23534285626E-01  0.74315425002E-01  0.51100000000E-03 0.  1.
</event>
<event>
 8    1  0.9952977E+004  0.1043930E+01  0.7957747E-01            NaN
         13   -1    0    0    0    0  0.00000000000E+00  0.00000000000E+00  0.74505805969E-08  0.10566000000E+00  0.10566000000E+00 0. -1.
     999900   -1    0    0    0    0 -0.00000000000E+00 -0.00000000000E+00 -0.74505805969E-08  0.93827000000E+00  0.93827000000E+00 0. -1.
     999902    2    1    2    0    0 -0.24818156692E-01  0.17053260629E-01 -0.12608447070E-01  0.10112845174E+01  0.10107574623E+01 0.  0.
     999903    2    3    3    0    0 -0.64277575693E-01  0.77256030058E-01  0.70597720168E-01  0.12443352341E+00  0.19989065457E-01 0.  0.
         14    1    1    2    0    0  0.24818156692E-01 -0.17053260629E-01  0.12608447070E-01  0.32645482646E-01  0.00000000000E+00 0.  1.
     999901    1    3    3    0    0  0.39459419001E-01 -0.60202769428E-01 -0.83206167238E-01  0.88685099394E+00  0.88000000000E+00 0.  1.
        -11    1    4    4    0    0 -0.32532264279E-01  0.28642132052E-01  0.39104506040E-01  0.58379306790E-01  0.51100000000E-03 0.  1.
         11    1    4    4    0    0 -0.31745311414E-01  0.48613898006E-01  0.31493214128E-01  0.66054216619E-01  0.51100000000E-03 0. -1.
</event>
<event>
 8    1  0.9952977E+004  0.1043930E+01  0.7957747E-01            NaN
         13   -1    0    0    0    0  0.00000000000E+00  0.00000000000E+00  0.74505805969E-08  0.10566000000E+00  0.10566000000E+00 0. -1.
     999900   -1    0    0    0    0 -0.00000000000E+00 -0.00000000000E+00 -0.74505805969E-08  0.93827000000E+00  0.93827000000E+00 0.  1.
     999902    2    1    2    0    0 -0.14168755348E-01 -0.13639929130E-01 -0.13901025484E-01  0.10198459845E+01  0.10195615686E+01 0.  0.
     999903    2    3    3    0    0 -0.81026227959E-01  0.23260170173E-01  0.97169413071E-01  0.12958300012E+00  0.15606855871E-01 0.  0.
         14    1    1    2    0    0  0.14168755348E-01  0.13639929130E-01  0.13901025484E-01  0.24084015535E-01  0.00000000000E+00 0. -1.
     999901    1    3    3    0    0  0.66857472610E-01 -0.36900099303E-01 -0.11107043855E+00  0.89026298434E+00  0.88000000000E+00 0. -1.
        -11    1    4    4    0    0 -0.25828621934E-01  0.15086209096E-01  0.32827613830E-01  0.44414240584E-01  0.51100000000E-03 0. -1.
         11    1    4    4    0    0 -0.55197606024E-01  0.81739610771E-02  0.64341799241E-01  0.85168759537E-01  0.51100000000E-03 0.  1.
</event>
<event>
 8    1  0.9952977E+004  0.1043930E+01  0.7957747E-01            NaN
         13   -1    0    0    0    0  0.00000000000E+00  0.00000000000E+00  0.74505805969E-08  0.10566000000E+00  0.10566000000E+00 0.  1.
     999900   -1    0    0    0    0 -0.00000000000E+00 -0.00000000000E+00 -0.74505805969E-08  0.93827000000E+00  0.93827000000E+00 0.  1.
     999902    2    1    2    0    0 -0.17750513590E-01 -0.98673106302E-02  0.11956069660E-01  0.10203632405E+01  0.10200910501E+01 0.  0.
     999903    2    3    3    0    0 -0.10236974441E+00  0.31004354230E-01 -0.73387057491E-01  0.13125449767E+00  0.20031185669E-01 0.  0.
         14    1    1    2    0    0  0.17750513590E-01  0.98673106302E-02 -0.11956069660E-01  0.23566759504E-01  0.00000000000E+00 0. -1.
     999901    1    3    3    0    0  0.84619230824E-01 -0.40871664861E-01  0.85343127151E-01  0.88910874282E+00  0.88000000000E+00 0. -1.
        -11    1    4    4    0    0 -0.74504437005E-01  0.24603971489E-01 -0.42781063835E-01  0.89368602374E-01  0.51100000000E-03 0.  1.
         11    1    4    4    0    0 -0.27865307410E-01  0.64003827410E-02 -0.30605993656E-01  0.41885895298E-01  0.51100000000E-03 0. -1.
</event>
<event>
 8    1  0.9952977E+004  0.1043930E+01  0.7957747E-01            NaN
         13   -1    0    0    0    0  0.00000000000E+00  0.00000000000E+00  0.74505805969E-08  0.10566000000E+00  0.10566000000E+00 0. -1.
     999900   -1    0    0    0    0 -0.00000000000E+00 -0.00000000000E+00 -0.74505805969E-08  0.93827000000E+00  0.93827000000E+00 0. -1.
     999902    2    1    2    0    0  0.65450711690E-02 -0.99631255113E-02 -0.20771043508E-01  0.10199813450E+01  0.10197001550E+01 0.  0.
     999903    2    3    3    0    0 -0.12311920368E+00 -0.35818763007E-01 -0.61282727676E-02  0.12998373329E+00  0.20417960138E-01 0.  0.
         14    1    1    2    0    0 -0.65450711690E-02  0.99631255113E-02  0.20771043508E-01  0.23948654972E-01  0.00000000000E+00 0. -1.
     999901    1    3    3    0    0  0.12966427485E+00  0.25855637495E-01 -0.14642770740E-01  0.88999761174E+00  0.88000000000E+00 0. -1.
        -11    1    4    4    0    0 -0.26391843403E-01 -0.41502164579E-02 -0.89026479541E-02  0.28165083995E-01  0.51100000000E-03 0. -1.
         11    1    4    4    0    0 -0.96727360273E-01 -0.31668546549E-01  0.27743751865E-02  0.10181864930E+00  0.51100000000E-03 0.  1.
</event>
<event>
 8    1  0.9952977E+004  0.1043930E+01  0.7957747E-01            NaN
         13   -1    0    0    0    0  0.00000000000E+00  0.00000000000E+00  0.74505805969E-08  0.10566000000E+00  0.10566000000E+00 0.  1.
     999900   -1    0    0    0    0 -0.00000000000E+00 -0.00000000000E+00 -0.74505805969E-08  0.93827000000E+00  0.93827000000E+00 0.  1.
     999902    2    1    2    0    0  0.19606119629E-01 -0.81891057424E-02 -0.83053684267E-02  0.10211168344E+01  0.10208619637E+01 0.  0.
     999903    2    3    3    0    0  0.28192644843E-01 -0.12145569576E+00 -0.40926388574E-01  0.13321640092E+00  0.22920055346E-01 0.  0.
         14    1    1    2    0    0 -0.19606119629E-01  0.81891057424E-02  0.83053684267E-02  0.22813165595E-01  0.00000000000E+00 0.  1.
     999901    1    3    3    0    0 -0.85865252149E-02  0.11326659001E+00  0.32621020147E-01  0.88790043349E+00  0.88000000000E+00 0.  1.
        -11    1    4    4    0    0  0.78388876241E-02 -0.81737301425E-01 -0.25192720560E-01  0.85891611312E-01  0.51100000000E-03 0.  1.
         11    1    4    4    0    0  0.20353757219E-01 -0.39718394332E-01 -0.15733668014E-01  0.47324789608E-01  0.51100000000E-03 0. -1.
</event>
<event>
 8    1  0.9952977E+004  0.1043930E+01  0.7957747E-01            NaN
         13   -1    0    0    0    0  0.00000000000E+00  0.00000000000E+00  0.74505805969E-08  0.10566000000E+00  0.10566000000E+00 0. -1.
     999900   -1    0    0    0    0 -0.00000000000E+00 -0.00000000000E+00 -0.74505805969E-08  0.93827000000E+00  0.93827000000E+00 0. -1.
     999902    2    1    2    0    0 -0.14636604317E-01  0.18914261089E-01  0.78057833594E-02  0.10187723031E+01  0.10184616320E+01 0.  0.
     999903    2    3    3    0    0  0.51692076224E-01 -0.71004180374E-01  0.90843736797E-01  0.12782891452E+00  0.19338627076E-01 0.  0.
         14    1    1    2    0    0  0.14636604317E-01 -0.18914261089E-01 -0.78057833594E-02  0.25157696881E-01  0.00000000000E+00 0. -1.
     999901    1    3    3    0    0 -0.66328680542E-01  0.89918441463E-01 -0.83037953438E-01  0.89094338860E+00  0.88000000000E+00 0.  1.
        -11    1    4    4    0    0  0.27355107068E-01 -0.29359786579E-01  0.53213818550E-01  0.66650360512E-01  0.51100000000E-03 0.  1.
         11    1    4    4    0    0  0.24336969156E-01 -0.41644393795E-01  0.37629918247E-01  0.61178554008E-01  0.51100000000E-03 0. -1.
</event>
<event>
 8    1  0.9952977E+004  0.1043930E+01  0.7957747E-01            NaN
         13   -1    0    0    0    0  0.00000000000E+00  0.00000000000E+00  0.74505805969E-08  0.10566000000E+00  0.10566000000E+00 0.  1.
     999900   -1    0    0    0    0 -0.00000000000E+00 -0.00000000000E+00 -0.74505805969E-08  0.93827000000E+00  0.93827000000E+00 0.  1.
     999902    2    1    2    0    0  0.23507245404E-01  0.91537551077E-02  0.23636706279E-01  0.10093601330E+01  0.10087679626E+01 0.  0.
     999903    2    3    3    0    0  0.29056938486E-01 -0.41261350089E-01  0.11105049036E+00  0.12357593155E+00  0.19798857643E-01 0.  0.
         14    1    1    2    0    0 -0.23507245404E-01 -0.91537551077E-02 -0.23636706279E-01  0.34569866977E-01  0.00000000000E+00 0.  1.
     999901    1    3    3    0    0 -0.55496930820E-02  0.50415105197E-01 -0.87413784085E-01  0.88578420147E+00  0.88000000000E+00 0.  1.
        -11    1    4    4    0    0  0.27968974011E-01 -0.36903043261E-01  0.81967765535E-01  0.94143899521E-01  0.51100000000E-03 0.  1.
         11    1    4    4    0    0  0.10879644746E-02 -0.43583068275E-02  0.29082724829E-01  0.29432032033E-01  0.51100000000E-03 0. -1.
</event>
<event>
 8    1  0.9952977E+004  0.1043930E+01  0.7957747E-01            NaN
         13   -1    0    0    0    0  0.00000000000E+00  0.00000000000E+00  0.74505805969E-08  0.10566000000E+00  0.10566000000E+00 0.  1.
     999900   -1    0    0    0    0 -0.00000000000E+00 -0.00000000000E+00 -0.74505805969E-08  0.93827000000E+00  0.93827000000E+00 0. -1.
     999902    2    1    2    0    0 -0.50123217352E-02 -0.23373056793E-01  0.30474820710E-02  0.10198320686E+01  0.10195473200E+01 0.  0.
     999903    2    3    3    0    0  0.13591719845E-01  0.68486095416E-01 -0.10565155851E+00  0.12820451423E+00  0.19976624802E-01 0.  0.
         14    1    1    2    0    0  0.50123217352E-02  0.23373056793E-01 -0.30474820710E-02  0.24097931447E-01  0.00000000000E+00 0. -1.
     999901    1    3    3    0    0 -0.18604041580E-01 -0.91859152209E-01  0.10869904058E+00  0.89162755433E+00  0.88000000000E+00 0.  1.
        -11    1    4    4    0    0  0.35012992500E-02  0.57528790755E-01 -0.81420878758E-01  0.99756911946E-01  0.51100000000E-03 0.  1.
         11    1    4    4    0    0  0.10090420595E-01  0.10957304660E-01 -0.24230679756E-01  0.28447602283E-01  0.51100000000E-03 0. -1.
</event>
<event>
 8    1  0.9952977E+004  0.1043930E+01  0.7957747E-01            NaN
         13   -1    0    0    0    0  0.00000000000E+00  0.00000000000E+00  0.74505805969E-08  0.10566000000E+00  0.10566000000E+00 0.  1.
     999900   -1    0    0    0    0 -0.00000000000E+00 -0.00000000000E+00 -0.74505805969E-08  0.93827000000E+00  0.93827000000E+00 0.  1.
     999902    2    1    2    0    0 -0.16735066074E-02  0.10746321681E-01 -0.21667409333E-01  0.10196862239E+01  0.10193979765E+01 0.  0.
     999903    2    3    3    0    0 -0.15331099468E-01  0.99260698257E-01  0.79101579784E-01  0.12941900900E+00  0.20111964993E-01 0.  0.
         14    1    1    2    0    0  0.16735066074E-02 -0.10746321681E-01  0.21667409333E-01  0.24243776135E-01  0.00000000000E+00 0.  1.
     999901    1    3    3    0    0  0.13657592860E-01 -0.88514376575E-01 -0.10076898912E+00  0.89026721487E+00  0.88000000000E+00 0.  1.
        -11    1    4    4    0    0 -0.18791140138E-01  0.94454707396E-01  0.72572174606E-01  0.12058930444E+00  0.51100000000E-03 0.  1.
         11    1    4    4    0    0  0.34600406702E-02  0.48059908609E-02  0.65294051781E-02  0.88297045576E-02  0.51100000000E-03 0. -1.
</event>
<event>
 8    1  0.9952977E+004  0.1043930E+01  0.7957747E-01            NaN
         13   -1    0    0    0    0  0.00000000000E+00  0.00000000000E+00  0.74505805969E-08  0.10566000000E+00  0.10566000000E+00 0. -1.
     999900   -1    0    0    0    0 -0.00000000000E+00 -0.00000000000E+00 -0.74505805969E-08  0.93827000000E+00  0.93827000000E+00 0. -1.
     999902    2    1    2    0    0  0.20890537813E-01 -0.52985272251E-02 -0.50026775953E-02  0.10218049973E+01  0.10215654344E+01 0.  0.
     999903    2    3    3    0    0  0.62622081427E-01 -0.76189742706E-01 -0.88430710731E-01  0.13403964381E+00  0.20499598443E-01 0.  0.
         14    1    1    2    0    0 -0.20890537813E-01  0.52985272251E-02  0.50026775953E-02  0.22125002689E-01  0.00000000000E+00 0.  1.
     999901    1    3    3    0    0 -0.41731543614E-01  0.70891215481E-01  0.83428033136E-01  0.88776535350E+00  0.88000000000E+00 0.  1.
        -11    1    4    4    0    0  0.32466313799E-01 -0.24100803391E-01 -0.32585051233E-01  0.51932234119E-01  0.51100000000E-03 0.  1.
         11    1    4    4    0    0  0.30155767627E-01 -0.52088939316E-01 -0.55845659499E-01  0.82107409690E-01  0.51100000000E-03 0. -1.
</event>
<event>
 8    1  0.9952977E+004  0.1043930E+01  0.7957747E-01            NaN
         13   -1    0    0    0    0  0.00000000000E+00  0.00000000000E+00  0.74505805969E-08  0.10566000000E+00  0.10566000000E+00 0.  1.
     999900   -1    0    0    0    0 -0.00000000000E+00 -0.00000000000E+00 -0.74505805969E-08  0.93827000000E+00  0.93827000000E+00 0. -1.
     999902    2    1    2    0    0 -0.21080990472E-01  0.78360244976E-02  0.43127178443E-02  0.10210299787E+01  0.10207731415E+01 0.  0.
     999903    2    3    3    0    0  0.11670550560E+00 -0.44438140314E-01 -0.23344744624E-01  0.12834714477E+00  0.18250729253E-01 0.  0.
         14    1    1    2    0    0  0.21080990472E-01 -0.78360244976E-02 -0.43127178443E-02  0.22900021275E-01  0.00000000000E+00 0.  1.
     999901    1    3    3    0    0 -0.13778649607E+00  0.52274164811E-01  0.27657462468E-01  0.89268283395E+00  0.88000000000E+00 0. -1.
        -11    1    4    4    0    0  0.58570609317E-01 -0.12592528258E-01 -0.11770514117E-01  0.61056483417E-01  0.51100000000E-03 0. -1.
         11    1    4    4    0    0  0.58134896279E-01 -0.31845612055E-01 -0.11574230507E-01  0.67290661353E-01  0.51100000000E-03 0.  1.
</event>
<event>
 8    1  0.9952977E+004  0.1043930E+01  0.7957747E-01            NaN
         13   -1    0    0    0    0  0.00000000000E+00  0.00000000000E+00  0.74505805969E-08  0.10566000000E+00  0.10566000000E+00 0. -1.
     999900   -1    0    0    0    0 -0.00000000000E+00 -0.00000000000E+00 -0.74505805969E-08  0.93827000000E+00  0.93827000000E+00 0. -1.
     999902    2    1    2    0    0 -0.10589050133E-01  0.13658409299E-01  0.13332723254E-01  0.10221024569E+01  0.10218693609E+01 0.  0.
     999903    2    3    3    0    0 -0.56245065005E-01 -0.10484613422E+00  0.53735031192E-01  0.13206866823E+00  0.19961471708E-01 0.  0.
         14    1    1    2    0    0  0.10589050133E-01 -0.13658409299E-01 -0.13332723254E-01  0.21827543074E-01  0.00000000000E+00 0.  1.
     999901    1    3    3    0    0  0.45656014872E-01  0.11850454352E+00 -0.40402307937E-01  0.89003378869E+00  0.88000000000E+00 0. -1.
        -11    1    4    4    0    0 -0.32259559780E-01 -0.39782298055E-01  0.20517186069E-01  0.55177227920E-01  0.51100000000E-03 0. -1.
         11    1    4    4    0    0 -0.23985505224E-01 -0.65063836167E-01  0.33217845123E-01  0.76891440312E-01  0.51100000000E-03 0.  1.
</event>
<event>
 8    1  0.9952977E+004  0.1043930E+01  0.7957747E-01            NaN
         13   -1    0    0    0    0  0.00000000000E+00  0.00000000000E+00  0.74505805969E-08  0.10566000000E+00  0.10566000000E+00 0. -1.
     999900   -1    0    0    0    0 -0.00000000000E+00 -0.00000000000E+00 -0.74505805969E-08  0.93827000000E+00  0.93827000000E+00 0. -1.
     999902    2    1    2    0    0 -0.14743575944E-01 -0.17971130374E-01  0.38982629524E-02  0.10203602946E+01  0.10200880353E+01 0.  0.
     999903    2    3    3    0    0  0.61450404437E-01 -0.33474014917E-01 -0.10782670233E+00  0.12989506230E+00  0.18694052387E-01 0.  0.
         14    1    1    2    0    0  0.14743575944E-01  0.17971130374E-01 -0.38982629524E-02  0.23569705399E-01  0.00000000000E+00 0. -1.
     999901    1    3    3    0    0 -0.76193980380E-01  0.15502884543E-01  0.11172496528E+00  0.89046523230E+00  0.88000000000E+00 0.  1.
        -11    1    4    4    0    0  0.41687951697E-01 -0.17885631780E-01 -0.54398286711E-01  0.70832308017E-01  0.51100000000E-03 0. -1.
         11    1    4    4    0    0  0.19762452740E-01 -0.15588383137E-01 -0.53428415615E-01  0.59062754281E-01  0.51100000000E-03 0.  1.
</event>
<event>
 8    1  0.9952977E+004  0.1043930E+01  0.7957747E-01            NaN
         13   -1    0    0    0    0  0.00000000000E+00  0.00000000000E+00  0.74505805969E-08  0.10566000000E+00  0.10566000000E+00 0. -1.
     999900   -1    0    0    0    0 -0.00000000000E+00 -0.00000000000E+00 -0.74505805969E-08  0.93827000000E+00  0.93827000000E+00 0. -1.
     999902    2    1    2    0    0 -0.12613844763E-02 -0.17140271868E-01  0.16558835885E-01  0.10200642284E+01  0.10197850043E+01 0.  0.
     999903    2    3    3    0    0 -0.11917926546E+00  0.16414431958E-01 -0.43691930302E-01  0.12952467301E+00  0.19862659745E-01 0.  0.
         14    1    1    2    0    0  0.12613844763E-02  0.17140271868E-01 -0.16558835885E-01  0.23865771648E-01  0.00000000000E+00 0.  1.
     999901    1    3    3    0    0  0.11791788098E+00 -0.33554703825E-01  0.60250766187E-01  0.89053955534E+00  0.88000000000E+00 0.  1.
        -11    1    4    4    0    0 -0.29939699923E-01  0.53077321746E-02 -0.22159480248E-02  0.30491461083E-01  0.51100000000E-03 0.  1.
         11    1    4    4    0    0 -0.89239565538E-01  0.11106699783E-01 -0.41475982277E-01  0.99033211926E-01  0.51100000000E-03 0. -1.
</event>
<event>
 8    1  0.9952977E+004  0.1043930E+01  0.7957747E-01            NaN
         13   -1    0    0    0    0  0.00000000000E+00  0.00000000000E+00  0.74505805969E-08  0.10566000000E+00  0.10566000000E+00 0.  1.
     999900   -1    0    0    0    0 -0.00000000000E+00 -0.00000000000E+00 -0.74505805969E-08  0.93827000000E+00  0.93827000000E+00 0.  1.
     999902    2    1    2    0    0 -0.15362643947E-01 -0.17615262343E-02  0.17805402830E-01  0.10203472484E+01  0.10200746841E+01 0.  0.
     999903    2    3    3    0    0  0.10511414545E+00  0.21931330867E-01 -0.66347883625E-01  0.12784638907E+00  0.20314789905E-01 0.  0.
         14    1    1    2    0    0  0.15362643947E-01  0.17615262343E-02 -0.17805402830E-01  0.23582751614E-01  0.00000000000E+00 0. -1.
     999901    1    3    3    0    0 -0.12047678940E+00 -0.23692857102E-01  0.84153286455E-01  0.89250085932E+00  0.88000000000E+00 0. -1.
        -11    1    4    4    0    0  0.81447198664E-01  0.15927569862E-01 -0.40711083220E-01  0.92439099249E-01  0.51100000000E-03 0.  1.
         11    1    4    4    0    0  0.23666946788E-01  0.60037610048E-02 -0.25636800404E-01  0.35407289820E-01  0.51100000000E-03 0. -1.
</event>
<event>
 8    1  0.9952977E+004  0.1043930E+01  0.7957747E-01            NaN
         13   -1    0    0    0    0  0.00000000000E+00  0.00000000000E+00  0.74505805969E-08  0.10566000000E+00  0.10566000000E+00 0. -1.
     999900   -1    0    0    0    0 -0.00000000000E+00 -0.00000000000E+00 -0.74505805969E-08  0.93827000000E+00  0.93827000000E+00 0.  1.
     999902    2    1    2    0    0  0.21796018386E-01  0.23589097717E-02 -0.11920151475E-01  0.10189756240E+01  0.10186700159E+01 0.  0.
     999903    2    3    3    0    0  0.45262046901E-01 -0.77898272136E-01  0.90312865864E-01  0.12911975946E+00  0.19967594998E-01 0.  0.
         14    1    1    2    0    0 -0.21796018386E-01 -0.23589097717E-02  0.11920151475E-01  0.24954376049E-01  0.00000000000E+00 0. -1.
     999901    1    3    3    0    0 -0.23466028515E-01  0.80257181908E-01 -0.10223301734E+00  0.88985586450E+00  0.88000000000E+00 0.  1.
        -11    1    4    4    0    0  0.87425066090E-02 -0.10695487647E-01  0.24887081843E-01  0.28468453444E-01  0.51100000000E-03 0. -1.
         11    1    4    4    0    0  0.36519540292E-01 -0.67202784489E-01  0.65425784021E-01  0.10065130601E+00  0.51100000000E-03 0.  1.
</event>
<event>
 8    1  0.9952977E+004  0.1043930E+01  0.7957747E-01            NaN
         13   -1    0    0    0    0  0.00000000000E+00  0.00000000000E+00  0.74505805969E-08  0.10566000000E+00  0.10566000000E+00 0. -1.
     999900   -1    0    0    0    0 -0.00000000000E+00 -0.00000000000E+00 -0.74505805969E-08  0.93827000000E+00  0.93827000000E+00 0.  1.
     999902    2    1    2    0    0 -0.18449321205E-01  0.87498621366E-02  0.75818460610E-02  0.10221487712E+01  0.10219166739E+01 0.  0.
     999903    2    3    3    0    0 -0.85050522847E-01  0.57865188342E-01 -0.82958042241E-01  0.13364131103E+00  0.19899542254E-01 0.  0.
         14    1    1    2    0    0  0.18449321205E-01 -0.87498621366E-02 -0.75818460610E-02  0.21781228846E-01  0.00000000000E+00 0.  1.
     999901    1    3    3    0    0  0.66601201642E-01 -0.49115326206E-01  0.90539888302E-01  0.88850746013E+00  0.88000000000E+00 0. -1.
        -11    1    4    4    0    0 -0.66699008411E-01  0.40035592307E-01 -0.52463656007E-01  0.93831245846E-01  0.51100000000E-03 0.  1.
         11    1    4    4    0    0 -0.18351514437E-01  0.17829596035E-01 -0.30494386235E-01  0.39810065181E-01  0.51100000000E-03 0. -1.
</event>
<event>
 8    1  0.9952977E+004  0.1043930E+01  0.7957747E-01            NaN
         13   -1    0    0    0    0  0.00000000000E+00  0.00000000000E+00  0.74505805969E-08  0.10566000000E+00  0.10566000000E+00 0. -1.
     999900   -1    0    0    0    0 -0.00000000000E+00 -0.00000000000E+00 -0.74505805969E-08  0.93827000000E+00  0.93827000000E+00 0. -1.
     999902    2    1    2    0    0  0.24018199502E-01  0.36943554758E-02 -0.40879992472E-03  0.10196258998E+01  0.10193361988E+01 0.  0.
     999903    2    3    3    0    0  0.77038989555E-01 -0.95826896095E-01  0.42183333588E-01  0.13140871152E+00  0.19261773153E-01 0.  0.
         14    1    1    2    0    0 -0.24018199502E-01 -0.36943554758E-02  0.40879992472E-03  0.24304100211E-01  0.00000000000E+00 0.  1.
     999901    1    3    3    0    0 -0.53020790053E-01  0.99521251571E-01 -0.42592133512E-01  0.88821718826E+00  0.88000000000E+00 0.  1.
        -11    1    4    4    0    0  0.53213814236E-01 -0.52947850494E-01  0.20825076226E-01  0.77904620006E-01  0.51100000000E-03 0.  1.
         11    1    4    4    0    0  0.23825175319E-01 -0.42879045601E-01  0.21358257362E-01  0.53504091518E-01  0.51100000000E-03 0. -1.
</event>
<event>
 8    1  0.9952977E+004  0.1043930E+01  0.7957747E-01            NaN
         13   -1    0    0    0    0  0.00000000000E+00  0.00000000000E+00  0.74505805969E-08  0.10566000000E+00  0.10566000000E+00 0. -1.
     999900   -1    0    0    0    0 -0.00000000000E+00 -0.00000000000E+00 -0.74505805969E-08  0.93827000000E+00  0.93827000000E+00 0.  1.
     999902    2    1    2    0    0 -0.60968429522E-02  0.22905458681E-01 -0.49170833087E-02  0.10197223723E+01  0.10194349941E+01 0.  0.
     999903    2    3    3    0    0 -0.56773721272E-02  0.24871069068E-02  0.12786456322E+00  0.12952685966E+00  0.19734299844E-01 0.  0.
         14    1    1    2    0    0  0.60968429522E-02 -0.22905458681E-01  0.49170833087E-02  0.24207627716E-01  0.00000000000E+00 0.  1.
     999901    1    3    3    0    0 -0.41947082498E-03  0.20418351774E-01 -0.13278164653E+00  0.89019551263E+00  0.88000000000E+00 0.  1.
        -11    1    4    4    0    0 -0.46853880298E-02  0.10338320668E-01  0.96863549061E-01  0.97527647326E-01  0.51100000000E-03 0.  1.
         11    1    4    4    0    0 -0.99198409738E-03 -0.78512137615E-02  0.31001014159E-01  0.31999212332E-01  0.51100000000E-03 0. -1.
</event>
<event>
 8    1  0.9952977E+004  0.1043930E+01  0.7957747E-01            NaN
         13   -1    0    0    0    0  0.00000000000E+00  0.00000000000E+00  0.74505805969E-08  0.10566000000E+00  0.10566000000E+00 0. -1.
     999900   -1    0    0    0    0 -0.00000000000E+00 -0.00000000000E+00 -0.74505805969E-08  0.93827000000E+00  0.93827000000E+00 0.  1.
     999902    2    1    2    0    0  0.17480906752E-01  0.50867800301E-02  0.15185428391E-01  0.10202223078E+01  0.10199468137E+01 0.  0.
     999903    2    3    3    0    0  0.87926117829E-02  0.77602265209E-01 -0.10143535494E+00  0.12952910075E+00  0.19729042602E-01 0.  0.
         14    1    1    2    0    0 -0.17480906752E-01 -0.50867800301E-02 -0.15185428391E-01  0.23707692156E-01  0.00000000000E+00 0.  1.
     999901    1    3    3    0    0  0.86882949689E-02 -0.72515485178E-01  0.11662078333E+00  0.89069320709E+00  0.88000000000E+00 0. -1.
        -11    1    4    4    0    0  0.14377548800E-01  0.56578718461E-01 -0.67813128385E-01  0.89480426880E-01  0.51100000000E-03 0.  1.
         11    1    4    4    0    0 -0.55849370167E-02  0.21023546747E-01 -0.33622226553E-01  0.40048673870E-01  0.51100000000E-03 0. -1.
</event>
<event>
 8    1  0.9952977E+004  0.1043930E+01  0.7957747E-01            NaN
         13   -1    0    0    0    0  0.00000000000E+00  0.00000000000E+00  0.74505805969E-08  0.10566000000E+00  0.10566000000E+00 0.  1.
     999900   -1    0    0    0    0 -0.00000000000E+00 -0.00000000000E+00 -0.74505805969E-08  0.93827000000E+00  0.93827000000E+00 0.  1.
     999902    2    1    2    0    0  0.19017975679E-01 -0.92446193806E-02  0.16281978157E-02  0.10227215721E+01  0.10225016463E+01 0.  0.
     999903    2    3    3    0    0  0.39039269776E-01  0.12257316730E+00  0.23399676680E-01  0.13241219979E+00  0.20909324669E-01 0.  0.
         14    1    1    2    0    0 -0.19017975679E-01  0.92446193806E-02 -0.16281978157E-02  0.21208427913E-01  0.00000000000E+00 0. -1.
     999901    1    3    3    0    0 -0.20021294097E-01 -0.13181778668E+00 -0.21771478864E-01  0.89030937229E+00  0.88000000000E+00 0.  1.
        -11    1    4    4    0    0  0.17723385310E-01  0.27478352463E-01  0.88284126649E-02  0.33873001522E-01  0.51100000000E-03 0. -1.
         11    1    4    4    0    0  0.21315884466E-01  0.95094814839E-01  0.14571264015E-01  0.98539198270E-01  0.51100000000E-03 0.  1.
</event>
<event>
 8    1  0.9952977E+004  0.1043930E+01  0.7957747E-01            NaN
         13   -1    0    0    0    0  0.00000000000E+00  0.00000000000E+00  0.74505805969E-08  0.10566000000E+00  0.10566000000E+00 0.  1.
     999900   -1    0    0    0    0 -0.00000000000E+00 -0.00000000000E+00 -0.74505805969E-08  0.93827000000E+00  0.93827000000E+00 0. -1.
     999902    2    1    2    0    0  0.53318227016E-02 -0.19537742716E-01 -0.93840213572E-02  0.10216093463E+01  0.10213654806E+01 0.  0.
     999903    2    3    3    0    0  0.40708562628E-01 -0.97682821262E-02  0.12344117977E+00  0.13088520825E+00  0.11857759844E-01 0.  0.
         14    1    1    2    0    0 -0.53318227016E-02  0.19537742716E-01  0.93840213572E-02  0.22320653677E-01  0.00000000000E+00 0.  1.
     999901    1    3    3    0    0 -0.35376739927E-01 -0.97694605898E-02 -0.13282520113E+00  0.89072413807E+00  0.88000000000E+00 0. -1.
        -11    1    4    4    0    0  0.90461058610E-02  0.17946527680E-02  0.36126860981E-01  0.37288926173E-01  0.51100000000E-03 0.  1.
         11    1    4    4    0    0  0.31662456767E-01 -0.11562934894E-01  0.87314318791E-01  0.93596282078E-01  0.51100000000E-03 0. -1.
</event>
<event>
 8    1  0.9952977E+004  0.1043930E+01  0.7957747E-01            NaN
         13   -1    0    0    0    0  0.00000000000E+00  0.00000000000E+00  0.74505805969E-08  0.10566000000E+00  0.10566000000E+00 0. -1.
     999900   -1    0    0    0    0 -0.00000000000E+00 -0.00000000000E+00 -0.74505805969E-08  0.93827000000E+00  0.93827000000E+00 0.  1.
     999902    2    1    2    0    0 -0.96306890130E-02  0.62859214147E-02 -0.20469783883E-01  0.10204507532E+01  0.10201806039E+01 0.  0.
     999903    2    3    3    0    0 -0.16650062397E-01  0.12260497112E+00  0.37011821135E-01  0.13090956367E+00  0.21406434397E-01 0.  0.
         14    1    1    2    0    0  0.96306890130E-02 -0.62859214147E-02  0.20469783883E-01  0.23479246817E-01  0.00000000000E+00 0. -1.
     999901    1    3    3    0    0  0.70193733845E-02 -0.11631904971E+00 -0.57481605018E-01  0.88954118951E+00  0.88000000000E+00 0.  1.
        -11    1    4    4    0    0 -0.12058878360E-01  0.64658907388E-01  0.30214858902E-01  0.72383628476E-01  0.51100000000E-03 0.  1.
         11    1    4    4    0    0 -0.45911840378E-02  0.57946063737E-01  0.67969622333E-02  0.58525935192E-01  0.51100000000E-03 0. -1.
</event>
<event>
 8    1  0.9952977E+004  0.1043930E+01  0.7957747E-01            NaN
         13   -1    0    0    0    0  0.00000000000E+00  0.00000000000E+00  0.74505805969E-08  0.10566000000E+00  0.10566000000E+00 0.  1.
     999900   -1    0    0    0    0 -0.00000000000E+00 -0.00000000000E+00 -0.74505805969E-08  0.93827000000E+00  0.93827000000E+00 0.  1.
     999902    2    1    2    0    0 -0.17012768357E-01 -0.16027080645E-01 -0.32253547192E-02  0.10203354135E+01  0.10200625723E+01 0.  0.
     999903    2    3    3    0    0 -0.12523328933E+00 -0.80037305415E-02 -0.39301393310E-01  0.13293610319E+00  0.19492859106E-01 0.  0.
         14    1    1    2    0    0  0.17012768357E-01  0.16027080645E-01  0.32253547192E-02  0.23594586545E-01  0.00000000000E+00 0.  1.
     999901    1    3    3    0    0  0.10822052097E+00 -0.80233501035E-02  0.36076038591E-01  0.88739931027E+00  0.88000000000E+00 0. -1.
        -11    1    4    4    0    0 -0.50386703794E-01  0.22780012054E-02 -0.76281324048E-02  0.51014299306E-01  0.51100000000E-03 0.  1.
         11    1    4    4    0    0 -0.74846585532E-01 -0.10281731747E-01 -0.31673260905E-01  0.81921803880E-01  0.51100000000E-03 0. -1.
</event>
<event>
 8    1  0.9952977E+004  0.1043930E+01  0.7957747E-01            NaN
         13   -1    0    0    0    0  0.00000000000E+00  0.00000000000E+00  0.74505805969E-08  0.10566000000E+00  0.10566000000E+00 0. -1.
     999900   -1    0    0    0    0 -0.00000000000E+00 -0.00000000000E+00 -0.74505805969E-08  0.93827000000E+00  0.93827000000E+00 0.  1.
     999902    2    1    2    0    0 -0.10817070154E-01  0.15854114981E-01  0.12531490026E-01  0.10210083899E+01  0.10207510627E+01 0.  0.
     999903    2    3    3    0    0 -0.13674898315E-01  0.67471037317E-02 -0.12742940966E+00  0.12989663578E+00  0.20058795795E-01 0.  0.
         14    1    1    2    0    0  0.10817070154E-01 -0.15854114981E-01 -0.12531490026E-01  0.22921610127E-01  0.00000000000E+00 0.  1.
     999901    1    3    3    0    0  0.28578281617E-02  0.91070112490E-02  0.13996089969E+00  0.89111175409E+00  0.88000000000E+00 0. -1.
        -11    1    4    4    0    0 -0.14469421800E-01  0.83950519999E-02 -0.56131721567E-01  0.58573648960E-01  0.51100000000E-03 0.  1.
         11    1    4    4    0    0  0.79452348497E-03 -0.16479482682E-02 -0.71297688093E-01  0.71322986824E-01  0.51100000000E-03 0. -1.
</event>
<event>
 8    1  0.9952977E+004  0.1043930E+01  0.7957747E-01            NaN
         13   -1    0    0    0    0  0.00000000000E+00  0.00000000000E+00  0.74505805969E-08  0.10566000000E+00  0.10566000000E+00 0.  1.
     999900   -1    0    0    0    0 -0.00000000000E+00 -0.00000000000E+00 -0.74505805969E-08  0.93827000000E+00  0.93827000000E+00 0. -1.
     999902    2    1    2    0    0  0.51898188314E-02 -0.17236498466E-01 -0.14418633238E-01  0.10208664339E+01  0.10206058728E+01 0.  0.
     999903    2    3    3    0    0  0.89836275150E-03  0.12315203036E+00  0.28505147613E-01  0.12869503408E+00  0.24137910379E-01 0.  0.
         14    1    1    2    0    0 -0.51898188314E-02  0.17236498466E-01  0.14418633238E-01  0.23063566145E-01  0.00000000000E+00 0.  1.
     999901    1    3    3    0    0  0.42914560799E-02 -0.14038852883E+00 -0.42923780851E-01  0.89217139978E+00  0.88000000000E+00 0. -1.
        -11    1    4    4    0    0  0.10449836899E-01  0.76588161582E-01  0.11198400706E-01  0.78106407453E-01  0.51100000000E-03 0.  1.
         11    1    4    4    0    0 -0.95514741479E-02  0.46563868779E-01  0.17306746907E-01  0.50588626623E-01  0.51100000000E-03 0. -1.
</event>
<event>
 7    1  0.9952977E+004  0.1043930E+01  0.7957747E-01            NaN
         13   -1    0    0    0    0  0.00000000000E+00  0.00000000000E+00  0.74505805969E-08  0.10566000000E+00  0.10566000000E+00 0.  1.
     999900   -1    0    0    0    0 -0.00000000000E+00 -0.00000000000E+00 -0.74505805969E-08  0.93827000000E+00  0.93827000000E+00 0. -1.
     999903    2    1    2    0    0 -0.59158073453E-01 -0.40918670463E-01  0.83213978799E-01  0.11159600687E+00  0.18843758529E-01 0.  0.
         14    1    1    2    0    0 -0.32755224092E-01 -0.59142245319E-02  0.22275149913E-01  0.40050781026E-01  0.00000000000E+00 0.  1.
     999901    1    1    2    0    0  0.91913297545E-01  0.46832894995E-01 -0.10548912871E+00  0.89228321210E+00  0.88000000000E+00 0. -1.
        -11    1    3    3    0    0 -0.53213769776E-01 -0.36722114497E-01  0.81625572231E-01  0.10413075506E+00  0.51100000000E-03 0. -1.
         11    1    3    3    0    0 -0.59443036765E-02 -0.41965559662E-02  0.15884065680E-02  0.74652518109E-02  0.51100000000E-03 0.  1.
</event>
<event>
 8    1  0.9952977E+004  0.1043930E+01  0.7957747E-01            NaN
         13   -1    0    0    0    0  0.00000000000E+00  0.00000000000E+00  0.74505805969E-08  0.10566000000E+00  0.10566000000E+00 0. -1.
     999900   -1    0    0    0    0 -0.00000000000E+00 -0.00000000000E+00 -0.74505805969E-08  0.93827000000E+00  0.93827000000E+00 0. -1.
     999902    2    1    2    0    0  0.55797726159E-02 -0.16242626609E-01  0.17112862041E-01  0.10196852721E+01  0.10193970019E+01 0.  0.
     999903    2    3    3    0    0 -0.73061805567E-01 -0.62959670440E-01  0.88046237619E-01  0.13210512152E+00  0.19941806321E-01 0.  0.
         14    1    1    2    0    0 -0.55797726159E-02  0.16242626609E-01 -0.17112862041E-01  0.24244727856E-01  0.00000000000E+00 0.  1.
     999901    1    3    3    0    0  0.78641578183E-01  0.46717043831E-01 -0.70933375578E-01  0.88758015062E+00  0.88000000000E+00 0. -1.
        -11    1    4    4    0    0 -0.36260217844E-01 -0.23180938621E-01  0.49536550735E-01  0.65622330751E-01  0.51100000000E-03 0. -1.
         11    1    4    4    0    0 -0.36801587723E-01 -0.39778731819E-01  0.38509686884E-01  0.66482790773E-01  0.51100000000E-03 0.  1.
</event>
<event>
 8    1  0.9952977E+004  0.1043930E+01  0.7957747E-01            NaN
         13   -1    0    0    0    0  0.00000000000E+00  0.00000000000E+00  0.74505805969E-08  0.10566000000E+00  0.10566000000E+00 0. -1.
     999900   -1    0    0    0    0 -0.00000000000E+00 -0.00000000000E+00 -0.74505805969E-08  0.93827000000E+00  0.93827000000E+00 0. -1.
     999902    2    1    2    0    0 -0.29568544703E-02 -0.29089799320E-01 -0.65302639108E-02  0.10139699640E+01  0.10135272488E+01 0.  0.
     999903    2    3    3    0    0  0.32885658630E-01 -0.10038065453E+00  0.68289813437E-01  0.12719766187E+00  0.18920999387E-01 0.  0.
         14    1    1    2    0    0  0.29568544703E-02  0.29089799320E-01  0.65302639108E-02  0.29960036041E-01  0.00000000000E+00 0.  1.
     999901    1    3    3    0    0 -0.35842513100E-01  0.71290855212E-01 -0.74820077347E-01  0.88677230209E+00  0.88000000000E+00 0.  1.
        -11    1    4    4    0    0  0.13847721570E-01 -0.36396624955E-01  0.36021454567E-01  0.53049788038E-01  0.51100000000E-03 0.  1.
         11    1    4    4    0    0  0.19037937060E-01 -0.63984029577E-01  0.32268358870E-01  0.74147873830E-01  0.51100000000E-03 0. -1.
</event>
<event>
 8    1  0.9952977E+004  0.1043930E+01  0.7957747E-01            NaN
         13   -1    0    0    0    0  0.00000000000E+00  0.00000000000E+00  0.74505805969E-08  0.10566000000E+00  0.10566000000E+00 0.  1.
     999900   -1    0    0    0    0 -0.00000000000E+00 -0.00000000000E+00 -0.74505805969E-08  0.93827000000E+00  0.93827000000E+00 0.  1.
     999902    2    1    2    0    0  0.16106226152E-01 -0.12964732770E-01 -0.10685009405E-01  0.10206563187E+01  0.10203909332E+01 0.  0.
     999903    2    3    3    0    0 -0.10867643925E-01  0.10562211678E+00  0.69950615269E-01  0.12864032413E+00  0.19521966560E-01 0.  0.
         14    1    1    2    0    0 -0.16106226152E-01  0.12964732770E-01  0.10685009405E-01  0.23273681330E-01  0.00000000000E+00 0.  1.
     999901    1    3    3    0    0  0.26973870078E-01 -0.11858684955E+00 -0.80635624674E-01  0.89201599454E+00  0.88000000000E+00 0.  1.
        -11    1    4    4    0    0 -0.16480588692E-01  0.84025381228E-01  0.56243306844E-01  0.10244728000E+00  0.51100000000E-03 0.  1.
         11    1    4    4    0    0  0.56129447664E-02  0.21596735548E-01  0.13707308425E-01  0.26193044125E-01  0.51100000000E-03 0. -1.
</event>
<event>
 8    1  0.9952977E+004  0.1043930E+01  0.7957747E-01            NaN
         13   -1    0    0    0    0  0.00000000000E+00  0.00000000000E+00  0.74505805969E-08  0.10566000000E+00  0.10566000000E+00 0.  1.
     999900   -1    0    0    0    0 -0.00000000000E+00 -0.00000000000E+00 -0.74505805969E-08  0.93827000000E+00  0.93827000000E+00 0.  1.
     999902    2    1    2    0    0  0.12198429082E-01 -0.30551526045E-02  0.19915560095E-01  0.10203765467E+01  0.10201046671E+01 0.  0.
     999903    2    3    3    0    0 -0.54733141885E-01  0.97268415846E-01  0.65938354990E-01  0.13095946160E+00  0.18591728850E-01 0.  0.
         14    1    1    2    0    0 -0.12198429082E-01  0.30551526045E-02 -0.19915560095E-01  0.23553453323E-01  0.00000000000E+00 0. -1.
     999901    1    3    3    0    0  0.66931570968E-01 -0.10032356845E+00 -0.46022794895E-01  0.88941708508E+00  0.88000000000E+00 0.  1.
        -11    1    4    4    0    0 -0.13998307358E-01  0.30483932502E-01  0.10771015574E-01  0.35234906658E-01  0.51100000000E-03 0. -1.
         11    1    4    4    0    0 -0.40734834527E-01  0.66784483345E-01  0.55167339416E-01  0.95724554942E-01  0.51100000000E-03 0.  1.
</event>
<event>
 8    1  0.9952977E+004  0.1043930E+01  0.7957747E-01            NaN
         13   -1    0    0    0    0  0.00000000000E+00  0.00000000000E+00  0.74505805969E-08  0.10566000000E+00  0.10566000000E+00 0.  1.
     999900   -1    0    0    0    0 -0.00000000000E+00 -0.00000000000E+00 -0.74505805969E-08  0.93827000000E+00  0.93827000000E+00 0.  1.
     999902    2    1    2    0    0 -0.72430461588E-03  0.21994203391E-01 -0.10662011633E-01  0.10194770228E+01  0.10191837185E+01 0.  0.
     999903    2    3    3    0    0  0.60160080629E-02  0.13004305368E+00 -0.18153334447E-01  0.13281129903E+00  0.19023917438E-01 0.  0.
         14    1    1    2    0    0  0.72430461588E-03 -0.21994203391E-01  0.10662011633E-01  0.24452977161E-01  0.00000000000E+00 0.  1.
     999901    1    3    3    0    0 -0.67403126788E-02 -0.10804885029E+00  0.74913228141E-02  0.88666572381E+00  0.88000000000E+00 0. -1.
        -11    1    4    4    0    0  0.52476264456E-02  0.24013488167E-01  0.27438111923E-02  0.24738124790E-01  0.51100000000E-03 0.  1.
         11    1    4    4    0    0  0.76838161728E-03  0.10602956551E+00 -0.20897145639E-01  0.10807317424E+00  0.51100000000E-03 0. -1.
</event>
<event>
 8    1  0.9952977E+004  0.1043930E+01  0.7957747E-01            NaN
         13   -1    0    0    0    0  0.00000000000E+00  0.00000000000E+00  0.74505805969E-08  0.10566000000E+00  0.10566000000E+00 0.  1.
     999900   -1    0    0    0    0 -0.00000000000E+00 -0.00000000000E+00 -0.74505805969E-08  0.93827000000E+00  0.93827000000E+00 0. -1.
     999902    2    1    2    0    0  0.18796407598E-02  0.23040601645E-01  0.72897429914E-02  0.10196907193E+01  0.10194025801E+01 0.  0.
     999903    2    3    3    0    0 -0.37470455122E-01  0.88904397906E-01  0.88530766830E-01  0.13262444581E+00  0.21059913955E-01 0.  0.
         14    1    1    2    0    0 -0.18796407598E-02 -0.23040601645E-01 -0.72897429914E-02  0.24239280650E-01  0.00000000000E+00 0. -1.
     999901    1    3    3    0    0  0.39350095882E-01 -0.65863796261E-01 -0.81241023839E-01  0.88706627354E+00  0.88000000000E+00 0. -1.
        -11    1    4    4    0    0  0.14212325443E-02  0.12298926152E-01  0.15652544969E-01  0.19963636228E-01  0.51100000000E-03 0. -1.
         11    1    4    4    0    0 -0.38891687666E-01  0.76605471754E-01  0.72878221861E-01  0.11266080958E+00  0.51100000000E-03 0.  1.
</event>
<event>
 8    1  0.9952977E+004  0.1043930E+01  0.7957747E-01            NaN
         13   -1    0    0    0    0  0.00000000000E+00  0.00000000000E+00  0.74505805969E-08  0.10566000000E+00  0.10566000000E+00 0. -1.
     999900   -1    0    0    0    0 -0.00000000000E+00 -0.00000000000E+00 -0.74505805969E-08  0.93827000000E+00  0.93827000000E+00 0.  1.
     999902    2    1    2    0    0 -0.45331019077E-02 -0.22070710105E-01  0.10731260770E-01  0.10189735336E+01  0.10186678737E+01 0.  0.
     999903    2    3    3    0    0  0.38674469574E-02 -0.61658913397E-01  0.11473848693E+00  0.13192488885E+00  0.20554249378E-01 0.  0.
         14    1    1    2    0    0  0.45331019077E-02  0.22070710105E-01 -0.10731260770E-01  0.24956466400E-01  0.00000000000E+00 0. -1.
     999901    1    3    3    0    0 -0.84005488651E-02  0.39588203292E-01 -0.10400722616E+00  0.88704864475E+00  0.88000000000E+00 0.  1.
        -11    1    4    4    0    0 -0.66463214040E-02 -0.33512816829E-01  0.71797923977E-01  0.79514058433E-01  0.51100000000E-03 0. -1.
         11    1    4    4    0    0  0.10513768361E-01 -0.28146096568E-01  0.42940562953E-01  0.52410830416E-01  0.51100000000E-03 0.  1.
</event>
<event>
 8    1  0.9952977E+004  0.1043930E+01  0.7957747E-01            NaN
         13   -1    0    0    0    0  0.00000000000E+00  0.00000000000E+00  0.74505805969E-08  0.10566000000E+00  0.10566000000E+00 0. -1.
     999900   -1    0    0    0    0 -0.00000000000E+00 -0.00000000000E+00 -0.74505805969E-08  0.93827000000E+00  0.93827000000E+00 0.  1.
     999902    2    1    2    0    0 -0.11954929575E-01 -0.13534456754E-01 -0.15401767070E-01  0.10201957149E+01  0.10199195951E+01 0.  0.
     999903    2    3    3    0    0  0.33975066951E-01 -0.11540675548E+00 -0.51679421366E-01  0.13238740336E+00  0.19561124469E-01 0.  0.
         14    1    1    2    0    0  0.11954929575E-01  0.13534456754E-01  0.15401767070E-01  0.23734285110E-01  0.00000000000E+00 0. -1.
     999901    1    3    3    0    0 -0.45929996527E-01  0.10187229872E+00  0.36277654297E-01  0.88780831153E+00  0.88000000000E+00 0.  1.
        -11    1    4    4    0    0  0.18570388329E-01 -0.85512548000E-01 -0.30646026389E-01  0.92718365185E-01  0.51100000000E-03 0. -1.
         11    1    4    4    0    0  0.15404678622E-01 -0.29894207478E-01 -0.21033394978E-01  0.39669038172E-01  0.51100000000E-03 0.  1.
</event>
<event>
 8    1  0.9952977E+004  0.1043930E+01  0.7957747E-01            NaN
         13   -1    0    0    0    0  0.00000000000E+00  0.00000000000E+00  0.74505805969E-08  0.10566000000E+00  0.10566000000E+00 0.  1.
     999900   -1    0    0    0    0 -0.00000000000E+00 -0.00000000000E+00 -0.74505805969E-08  0.93827000000E+00  0.93827000000E+00 0. -1.
     999902    2    1    2    0    0 -0.14040230839E-01 -0.16493957216E-01 -0.81551253232E-02  0.10207851350E+01  0.10205227127E+01 0.  0.
     999903    2    3    3    0    0 -0.92017762927E-01  0.88515656419E-01  0.18461456697E-01  0.13071999306E+00  0.21085565601E-01 0.  0.
         14    1    1    2    0    0  0.14040230839E-01  0.16493957216E-01  0.81551253232E-02  0.23144864996E-01  0.00000000000E+00 0.  1.
     999901    1    3    3    0    0  0.77977532088E-01 -0.10500961363E+00 -0.26616582020E-01  0.89006514194E+00  0.88000000000E+00 0. -1.
        -11    1    4    4    0    0 -0.61968521198E-01  0.59763052373E-01  0.23765464017E-02  0.86125659023E-01  0.51100000000E-03 0.  1.
         11    1    4    4    0    0 -0.30049241728E-01  0.28752604046E-01  0.16084910295E-01  0.44594334036E-01  0.51100000000E-03 0. -1.
</event>
<event>
 8    1  0.9952977E+004  0.1043930E+01  0.7957747E-01            NaN
         13   -1    0    0    0    0  0.00000000000E+00  0.00000000000E+00  0.74505805969E-08  0.10566000000E+00  0.10566000000E+00 0.  1.
     999900   -1    0    0    0    0 -0.00000000000E+00 -0.00000000000E+00 -0.74505805969E-08  0.93827000000E+00  0.93827000000E+00 0.  1.
     999902    2    1    2    0    0 -0.21283689615E-02  0.18967399745E-01  0.13909664563E-01  0.10203128246E+01  0.10200394546E+01 0.  0.
     999903    2    3    3    0    0  0.88881643860E-01 -0.83465246228E-01  0.38553899529E-01  0.12936804080E+00  0.19577866783E-01 0.  0.
         14    1    1    2    0    0  0.21283689615E-02 -0.18967399745E-01 -0.13909664563E-01  0.23617175441E-01  0.00000000000E+00 0.  1.
     999901    1    3    3    0    0 -0.91010012822E-01  0.10243264597E+00 -0.24644234965E-01  0.89094478376E+00  0.88000000000E+00 0.  1.
        -11    1    4    4    0    0  0.65088703946E-01 -0.49022354518E-01  0.28355502347E-01  0.86278770611E-01  0.51100000000E-03 0.  1.
         11    1    4    4    0    0  0.23792939914E-01 -0.34442891711E-01  0.10198397181E-01  0.43089270187E-01  0.51100000000E-03 0. -1.
</event>
<event>
 8    1  0.1002303E+005  0.1043930E+01  0.7957747E-01            NaN
         13   -1    0    0    0    0  0.00000000000E+00  0.00000000000E+00  0.74505805969E-08  0.10566000000E+00  0.10566000000E+00 0.  1.
     999900   -1    0    0    0    0 -0.00000000000E+00 -0.00000000000E+00 -0.74505805969E-08  0.93827000000E+00  0.93827000000E+00 0.  1.
     999902    2    1    2    0    0  0.95881270539E-02  0.20776674960E-01 -0.37321037016E-02  0.10207452852E+01  0.10204819480E+01 0.  0.
     999903    2    3    3    0    0 -0.40028164557E-01 -0.11296431184E+00 -0.41975099452E-01  0.12843874892E+00  0.19272092370E-01 0.  0.
         14    1    1    2    0    0 -0.95881270539E-02 -0.20776674960E-01  0.37321037016E-02  0.23184714810E-01  0.00000000000E+00 0. -1.
     999901    1    3    3    0    0  0.49616291610E-01  0.13374098680E+00  0.38242995751E-01  0.89230653627E+00  0.88000000000E+00 0. -1.
        -11    1    4    4    0    0 -0.26389727635E-01 -0.45933729240E-01 -0.18771560990E-01  0.56204606836E-01  0.51100000000E-03 0.  1.
         11    1    4    4    0    0 -0.13638436922E-01 -0.67030582596E-01 -0.23203538462E-01  0.72234142086E-01  0.51100000000E-03 0. -1.
</event>
<event>
 8    1  0.9952977E+004  0.1043930E+01  0.7957747E-01            NaN
         13   -1    0    0    0    0  0.00000000000E+00  0.00000000000E+00  0.74505805969E-08  0.10566000000E+00  0.10566000000E+00 0.  1.
     999900   -1    0    0    0    0 -0.00000000000E+00 -0.00000000000E+00 -0.74505805969E-08  0.93827000000E+00  0.93827000000E+00 0. -1.
     999902    2    1    2    0    0 -0.30937753276E-03  0.17901036533E-01 -0.15537449037E-01  0.10202244069E+01  0.10199489621E+01 0.  0.
     999903    2    3    3    0    0 -0.87579045601E-02 -0.33091987643E-01 -0.12576824566E+00  0.13184245373E+00  0.19824239000E-01 0.  0.
         14    1    1    2    0    0  0.30937753276E-03 -0.17901036533E-01  0.15537449037E-01  0.23705593138E-01  0.00000000000E+00 0.  1.
     999901    1    3    3    0    0  0.84485270274E-02  0.50993024177E-01  0.11023079662E+00  0.88838195313E+00  0.88000000000E+00 0.  1.
        -11    1    4    4    0    0 -0.75658804565E-02 -0.30839773968E-01 -0.81068212761E-01  0.87066930845E-01  0.51100000000E-03 0. -1.
         11    1    4    4    0    0 -0.11920241036E-02 -0.22522136752E-02 -0.44700032896E-01  0.44775522887E-01  0.51100000000E-03 0.  1.
</event>
<event>
 8    1  0.9952977E+004  0.1043930E+01  0.7957747E-01            NaN
         13   -1    0    0    0    0  0.00000000000E+00  0.00000000000E+00  0.74505805969E-08  0.10566000000E+00  0.10566000000E+00 0. -1.
     999900   -1    0    0    0    0 -0.00000000000E+00 -0.00000000000E+00 -0.74505805969E-08  0.93827000000E+00  0.93827000000E+00 0. -1.
     999902    2    1    2    0    0  0.15373360166E-01 -0.12723365339E-01  0.18392928217E-01  0.10167910237E+01  0.10164287785E+01 0.  0.
     999903    2    3    3    0    0  0.21995187179E-01 -0.11909620269E+00  0.42646746017E-01  0.13002877999E+00  0.20519379298E-01 0.  0.
         14    1    1    2    0    0 -0.15373360166E-01  0.12723365339E-01 -0.18392928217E-01  0.27138976340E-01  0.00000000000E+00 0.  1.
     999901    1    3    3    0    0 -0.66218270124E-02  0.10637283735E+00 -0.24253817800E-01  0.88676224367E+00  0.88000000000E+00 0. -1.
        -11    1    4    4    0    0  0.19950093363E-01 -0.10917863506E+00  0.32415053193E-01  0.11562429404E+00  0.51100000000E-03 0.  1.
         11    1    4    4    0    0  0.20450938162E-02 -0.99175676268E-02  0.10231692825E-01  0.14404485947E-01  0.51100000000E-03 0. -1.
</event>
<event>
 8    1  0.9952977E+004  0.1043930E+01  0.7957747E-01            NaN
         13   -1    0    0    0    0  0.00000000000E+00  0.00000000000E+00  0.74505805969E-08  0.10566000000E+00  0.10566000000E+00 0. -1.
     999900   -1    0    0    0    0 -0.00000000000E+00 -0.00000000000E+00 -0.74505805969E-08  0.93827000000E+00  0.93827000000E+00 0. -1.
     999902    2    1    2    0    0 -0.46556729351E-02  0.13553438541E-01  0.19958609866E-01  0.10193593448E+01  0.10190631761E+01 0.  0.
     999903    2    3    3    0    0 -0.10918369362E+00 -0.59712845708E-01 -0.27487092570E-01  0.12888466795E+00  0.19209749616E-01 0.  0.
         14    1    1    2    0    0  0.46556729351E-02 -0.13553438541E-01 -0.19958609866E-01  0.24570655151E-01  0.00000000000E+00 0.  1.
     999901    1    3    3    0    0  0.10452802068E+00  0.73266284249E-01  0.47445702436E-01  0.89047467690E+00  0.88000000000E+00 0.  1.
        -11    1    4    4    0    0 -0.71281209869E-01 -0.28339272636E-01 -0.17273784786E-01  0.78630592111E-01  0.51100000000E-03 0.  1.
         11    1    4    4    0    0 -0.37902483750E-01 -0.31373573072E-01 -0.10213307784E-01  0.50254075841E-01  0.51100000000E-03 0. -1.
</event>
<event>
 8    1  0.9952977E+004  0.1043930E+01  0.7957747E-01            NaN
         13   -1    0    0    0    0  0.00000000000E+00  0.00000000000E+00  0.74505805969E-08  0.10566000000E+00  0.10566000000E+00 0. -1.
     999900   -1    0    0    0    0 -0.00000000000E+00 -0.00000000000E+00 -0.74505805969E-08  0.93827000000E+00  0.93827000000E+00 0. -1.
     999902    2    1    2    0    0  0.18616378447E-01  0.69043935965E-02 -0.13291553981E-01  0.10200363690E+01  0.10197564848E+01 0.  0.
     999903    2    3    3    0    0  0.10911650472E+00 -0.64025161185E-01 -0.33361157745E-01  0.13232917421E+00  0.19809357236E-01 0.  0.
         14    1    1    2    0    0 -0.18616378447E-01 -0.69043935965E-02  0.13291553981E-01  0.23893631048E-01  0.00000000000E+00 0. -1.
     999901    1    3    3    0    0 -0.90500126276E-01  0.70929554781E-01  0.20069603764E-01  0.88770719474E+00  0.88000000000E+00 0.  1.
        -11    1    4    4    0    0  0.47844229810E-01 -0.39459315272E-01 -0.17338748822E-01  0.64397214378E-01  0.51100000000E-03 0.  1.
         11    1    4    4    0    0  0.61272274912E-01 -0.24565845913E-01 -0.16022408923E-01  0.67931959835E-01  0.51100000000E-03 0. -1.
</event>
<event>
 8    1  0.9952977E+004  0.1043930E+01  0.7957747E-01            NaN
         13   -1    0    0    0    0  0.00000000000E+00  0.00000000000E+00  0.74505805969E-08  0.10566000000E+00  0.10566000000E+00 0.  1.
     999900   -1    0    0    0    0 -0.00000000000E+00 -0.00000000000E+00 -0.74505805969E-08  0.93827000000E+00  0.93827000000E+00 0. -1.
     999902    2    1    2    0    0  0.14138109008E-01 -0.15834654783E-01 -0.10336364556E-01  0.10203193488E+01  0.10200461316E+01 0.  0.
     999903    2    3    3    0    0 -0.11868020587E+00 -0.92591167138E-02 -0.46996155635E-01  0.12957365963E+00  0.20247768241E-01 0.  0.
         14    1    1    2    0    0 -0.14138109008E-01  0.15834654783E-01  0.10336364556E-01  0.23610651212E-01  0.00000000000E+00 0. -1.
     999901    1    3    3    0    0  0.13281831488E+00 -0.65755380693E-02  0.36659791079E-01  0.89074568916E+00  0.88000000000E+00 0.  1.
        -11    1    4    4    0    0 -0.72092057650E-01  0.61843138948E-03 -0.36478358991E-01  0.80799622705E-01  0.51100000000E-03 0.  1.
         11    1    4    4    0    0 -0.46588148218E-01 -0.98775481033E-02 -0.10517796645E-01  0.48774036927E-01  0.51100000000E-03 0. -1.
</event>
<event>
 8    1  0.9952977E+004  0.1043930E+01  0.7957747E-01            NaN
         13   -1    0    0    0    0  0.00000000000E+00  0.00000000000E+00  0.74505805969E-08  0.10566000000E+00  0.10566000000E+00 0. -1.
     999900   -1    0    0    0    0 -0.00000000000E+00 -0.00000000000E+00 -0.74505805969E-08  0.93827000000E+00  0.93827000000E+00 0.  1.
     999902    2    1    2    0    0  0.14300409649E-01 -0.15736956310E-01 -0.99322501316E-02  0.10204608052E+01  0.10201908899E+01 0.  0.
     999903    2    3    3    0    0  0.92727510815E-01  0.56367039132E-02  0.90326147087E-01  0.13104560987E+00  0.19595288323E-01 0.  0.
         14    1    1    2    0    0 -0.14300409649E-01  0.15736956310E-01  0.99322501316E-02  0.23469194761E-01  0.00000000000E+00 0. -1.
     999901    1    3    3    0    0 -0.78427101165E-01 -0.21373660224E-01 -0.10025839722E+00  0.88941519537E+00  0.88000000000E+00 0.  1.
        -11    1    4    4    0    0  0.20656040881E-01 -0.23158243715E-02  0.31156180642E-01  0.37456692067E-01  0.51100000000E-03 0. -1.
         11    1    4    4    0    0  0.72071469934E-01  0.79525282847E-02  0.59169966445E-01  0.93588917798E-01  0.51100000000E-03 0.  1.
</event>
<event>
 8    1  0.9952977E+004  0.1043930E+01  0.7957747E-01            NaN
         13   -1    0    0    0    0  0.00000000000E+00  0.00000000000E+00  0.74505805969E-08  0.10566000000E+00  0.10566000000E+00 0.  1.
     999900   -1    0    0    0    0 -0.00000000000E+00 -0.00000000000E+00 -0.74505805969E-08  0.93827000000E+00  0.93827000000E+00 0. -1.
     999902    2    1    2    0    0 -0.91043795321E-02  0.35523286599E-02 -0.22026088381E-01  0.10198331675E+01  0.10195484453E+01 0.  0.
     999903    2    3    3    0    0  0.74430449517E-01  0.72451409937E-01 -0.78168769425E-01  0.13142045280E+00  0.19284197766E-01 0.  0.
         14    1    1    2    0    0  0.91043795321E-02 -0.35523286599E-02  0.22026088381E-01  0.24096832467E-01  0.00000000000E+00 0.  1.
     999901    1    3    3    0    0 -0.83534829049E-01 -0.68899081277E-01  0.56142681044E-01  0.88841271473E+00  0.88000000000E+00 0. -1.
        -11    1    4    4    0    0  0.56137359851E-01  0.42034333238E-01 -0.50838634141E-01  0.86620529808E-01  0.51100000000E-03 0.  1.
         11    1    4    4    0    0  0.18293089665E-01  0.30417076699E-01 -0.27330135284E-01  0.44799922992E-01  0.51100000000E-03 0. -1.
</event>
<event>
 8    1  0.9952977E+004  0.1043930E+01  0.7957747E-01            NaN
         13   -1    0    0    0    0  0.00000000000E+00  0.00000000000E+00  0.74505805969E-08  0.10566000000E+00  0.10566000000E+00 0.  1.
     999900   -1    0    0    0    0 -0.00000000000E+00 -0.00000000000E+00 -0.74505805969E-08  0.93827000000E+00  0.93827000000E+00 0. -1.
     999902    2    1    2    0    0  0.82287948881E-02 -0.13843052689E-01  0.17088088593E-01  0.10204492431E+01  0.10201790587E+01 0.  0.
     999903    2    3    3    0    0  0.29390664019E-01  0.11882077560E+00  0.37720827608E-01  0.13001495245E+00  0.22334707937E-01 0.  0.
         14    1    1    2    0    0 -0.82287948881E-02  0.13843052689E-01 -0.17088088593E-01  0.23480756905E-01  0.00000000000E+00 0. -1.
     999901    1    3    3    0    0 -0.21161869131E-01 -0.13266382829E+00 -0.20632739015E-01  0.89043429065E+00  0.88000000000E+00 0. -1.
        -11    1    4    4    0    0  0.26465885853E-01  0.90269295502E-01  0.37607464438E-01  0.10130928549E+00  0.51100000000E-03 0. -1.
         11    1    4    4    0    0  0.29247781654E-02  0.28551480100E-01  0.11336317010E-03  0.28705666956E-01  0.51100000000E-03 0.  1.
</event>
<event>
 8    1  0.9952977E+004  0.1043930E+01  0.7957747E-01            NaN
         13   -1    0    0    0    0  0.00000000000E+00  0.00000000000E+00  0.74505805969E-08  0.10566000000E+00  0.10566000000E+00 0.  1.
     999900   -1    0    0    0    0 -0.00000000000E+00 -0.00000000000E+00 -0.74505805969E-08  0.93827000000E+00  0.93827000000E+00 0.  1.
     999902    2    1    2    0    0 -0.18163792969E-01 -0.42253121400E-02  0.12545757255E-01  0.10214539536E+01  0.10212066425E+01 0.  0.
     999903    2    3    3    0    0  0.45217407287E-01  0.86222215138E-01  0.86072860344E-01  0.13150779418E+00  0.20171225480E-01 0.  0.
         14    1    1    2    0    0  0.18163792969E-01  0.42253121400E-02 -0.12545757255E-01  0.22476046423E-01  0.00000000000E+00 0. -1.
     999901    1    3    3    0    0 -0.63381200256E-01 -0.90447527278E-01 -0.73527103089E-01  0.88994615940E+00  0.88000000000E+00 0.  1.
        -11    1    4    4    0    0  0.46823706968E-01  0.80018865154E-01  0.77802110928E-01  0.12103267286E+00  0.51100000000E-03 0.  1.
         11    1    4    4    0    0 -0.16062996816E-02  0.62033499848E-02  0.82707494157E-02  0.10475121317E-01  0.51100000000E-03 0. -1.
</event>
<event>
 8    1  0.9952977E+004  0.1043930E+01  0.7957747E-01            NaN
         13   -1    0    0    0    0  0.00000000000E+00  0.00000000000E+00  0.74505805969E-08  0.10566000000E+00  0.10566000000E+00 0.  1.
     999900   -1    0    0    0    0 -0.00000000000E+00 -0.00000000000E+00 -0.74505805969E-08  0.93827000000E+00  0.93827000000E+00 0.  1.
     999902    2    1    2    0    0  0.14990005285E-01  0.10757375360E-01 -0.15578545476E-01  0.10197822783E+01  0.10194963378E+01 0.  0.
     999903    2    3    3    0    0 -0.66371892144E-02  0.76561483400E-01 -0.10601868176E+00  0.13243942777E+00  0.19862732055E-01 0.  0.
         14    1    1    2    0    0 -0.14990005285E-01 -0.10757375360E-01  0.15578545476E-01  0.24147721677E-01  0.00000000000E+00 0.  1.
     999901    1    3    3    0    0  0.21627194499E-01 -0.65804108040E-01  0.90440136284E-01  0.88734285055E+00  0.88000000000E+00 0. -1.
        -11    1    4    4    0    0 -0.11954098881E-01  0.27620884540E-01 -0.42324661906E-01  0.51936999040E-01  0.51100000000E-03 0.  1.
         11    1    4    4    0    0  0.53169096666E-02  0.48940598860E-01 -0.63694019854E-01  0.80502428729E-01  0.51100000000E-03 0. -1.
</event>
<event>
 8    1  0.9952977E+004  0.1043930E+01  0.7957747E-01            NaN
         13   -1    0    0    0    0  0.00000000000E+00  0.00000000000E+00  0.74505805969E-08  0.10566000000E+00  0.10566000000E+00 0. -1.
     999900   -1    0    0    0    0 -0.00000000000E+00 -0.00000000000E+00 -0.74505805969E-08  0.93827000000E+00  0.93827000000E+00 0. -1.
     999902    2    1    2    0    0 -0.12302398521E-01 -0.13986778962E-01  0.11796768781E-01  0.10218813549E+01  0.10216434607E+01 0.  0.
     999903    2    3    3    0    0  0.12007532158E+00  0.16307344716E-01 -0.41955190499E-01  0.12984387376E+00  0.20375995690E-01 0.  0.
         14    1    1    2    0    0  0.12302398521E-01  0.13986778962E-01 -0.11796768781E-01  0.22048645055E-01  0.00000000000E+00 0.  1.
     999901    1    3    3    0    0 -0.13237772010E+00 -0.30294123677E-01  0.53751959280E-01  0.89203748118E+00  0.88000000000E+00 0.  1.
        -11    1    4    4    0    0  0.59358739083E-01  0.12991774969E-01 -0.30401835462E-01  0.67946882510E-01  0.51100000000E-03 0.  1.
         11    1    4    4    0    0  0.60716582494E-01  0.33155697467E-02 -0.11553355037E-01  0.61896991253E-01  0.51100000000E-03 0. -1.
</event>
<event>
 8    1  0.9952977E+004  0.1043930E+01  0.7957747E-01            NaN
         13   -1    0    0    0    0  0.00000000000E+00  0.00000000000E+00  0.74505805969E-08  0.10566000000E+00  0.10566000000E+00 0. -1.
     999900   -1    0    0    0    0 -0.00000000000E+00 -0.00000000000E+00 -0.74505805969E-08  0.93827000000E+00  0.93827000000E+00 0. -1.
     999902    2    1    2    0    0  0.20667684690E-01 -0.96478506165E-02 -0.52226108698E-02  0.10205310710E+01  0.10202627883E+01 0.  0.
     999903    2    3    3    0    0  0.10366380763E+00 -0.55393678131E-01  0.59478978381E-01  0.13308116665E+00  0.18926263699E-01 0.  0.
         14    1    1    2    0    0 -0.20667684690E-01  0.96478506165E-02  0.52226108698E-02  0.23398928956E-01  0.00000000000E+00 0.  1.
     999901    1    3    3    0    0 -0.82996122944E-01  0.45745827514E-01 -0.64701589251E-01  0.88744990439E+00  0.88000000000E+00 0. -1.
        -11    1    4    4    0    0  0.59025359293E-01 -0.22785093161E-01  0.37772469915E-01  0.73689715120E-01  0.51100000000E-03 0.  1.
         11    1    4    4    0    0  0.44638448341E-01 -0.32608584969E-01  0.21706508466E-01  0.59391451529E-01  0.51100000000E-03 0. -1.
</event>
<event>
 8    1  0.9952977E+004  0.1043930E+01  0.7957747E-01            NaN
         13   -1    0    0    0    0  0.00000000000E+00  0.00000000000E+00  0.74505805969E-08  0.10566000000E+00  0.10566000000E+00 0.  1.
     999900   -1    0    0    0    0 -0.00000000000E+00 -0.00000000000E+00 -0.74505805969E-08  0.93827000000E+00  0.93827000000E+00 0.  1.
     999902    2    1    2    0    0  0.14075800229E-01  0.93385493040E-02 -0.18576678882E-01  0.10188216418E+01  0.10185122032E+01 0.  0.
     999903    2    3    3    0    0 -0.88017682570E-01 -0.18012803393E-02 -0.93396092472E-01  0.12969559913E+00  0.18648358874E-01 0.  0.
         14    1    1    2    0    0 -0.14075800229E-01 -0.93385493040E-02  0.18576678882E-01  0.25108358240E-01  0.00000000000E+00 0.  1.
     999901    1    3    3    0    0  0.10209348280E+00  0.11139829643E-01  0.74819413590E-01  0.88912604263E+00  0.88000000000E+00 0. -1.
        -11    1    4    4    0    0 -0.22345585088E-01  0.48831113840E-02 -0.15725651918E-01  0.27761973975E-01  0.51100000000E-03 0. -1.
         11    1    4    4    0    0 -0.65672097482E-01 -0.66843917232E-02 -0.77670440554E-01  0.10193362515E+00  0.51100000000E-03 0.  1.
</event>
<event>
 8    1  0.9952977E+004  0.1043930E+01  0.7957747E-01            NaN
         13   -1    0    0    0    0  0.00000000000E+00  0.00000000000E+00  0.74505805969E-08  0.10566000000E+00  0.10566000000E+00 0. -1.
     999900   -1    0    0    0    0 -0.00000000000E+00 -0.00000000000E+00 -0.74505805969E-08  0.93827000000E+00  0.93827000000E+00 0.  1.
     999902    2    1    2    0    0 -0.20769093072E-01 -0.23576248439E-03 -0.73669330982E-02  0.10218917942E+01  0.10216541277E+01 0.  0.
     999903    2    3    3    0    0  0.10195975712E+00  0.59723585961E-01  0.49429989774E-01  0.12954467309E+00  0.19385552475E-01 0.  0.
         14    1    1    2    0    0  0.20769093072E-01  0.23576248439E-03  0.73669330982E-02  0.22038205786E-01  0.00000000000E+00 0. -1.
     999901    1    3    3    0    0 -0.12272885019E+00 -0.59959348445E-01 -0.56796922872E-01  0.89234712113E+00  0.88000000000E+00 0. -1.
        -11    1    4    4    0    0  0.58222037670E-01  0.39552807360E-01  0.38198397871E-01  0.80085010841E-01  0.51100000000E-03 0. -1.
         11    1    4    4    0    0  0.43737719448E-01  0.20170778601E-01  0.11231591903E-01  0.49459662247E-01  0.51100000000E-03 0.  1.
</event>
<event>
 8    1  0.9952977E+004  0.1043930E+01  0.7957747E-01            NaN
         13   -1    0    0    0    0  0.00000000000E+00  0.00000000000E+00  0.74505805969E-08  0.10566000000E+00  0.10566000000E+00 0.  1.
     999900   -1    0    0    0    0 -0.00000000000E+00 -0.00000000000E+00 -0.74505805969E-08  0.93827000000E+00  0.93827000000E+00 0. -1.
     999902    2    1    2    0    0 -0.17107566844E-02  0.20902670421E-01 -0.97245975815E-02  0.10208125582E+01  0.10205507644E+01 0.  0.
     999903    2    3    3    0    0  0.46593726260E-01 -0.30837786062E-02 -0.12168763549E+00  0.13208065558E+00  0.21376012933E-01 0.  0.
         14    1    1    2    0    0  0.17107566844E-02 -0.20902670421E-01  0.97245975815E-02  0.23117441841E-01  0.00000000000E+00 0.  1.
     999901    1    3    3    0    0 -0.48304482944E-01  0.23986449027E-01  0.11196303791E+00  0.88873190258E+00  0.88000000000E+00 0.  1.
        -11    1    4    4    0    0  0.18140098145E-01  0.14071285856E-03 -0.22865899604E-01  0.29192352534E-01  0.51100000000E-03 0. -1.
         11    1    4    4    0    0  0.28453628115E-01 -0.32244914648E-02 -0.98821735887E-01  0.10288830304E+00  0.51100000000E-03 0.  1.
</event>
<event>
 8    1  0.9952977E+004  0.1043930E+01  0.7957747E-01            NaN
         13   -1    0    0    0    0  0.00000000000E+00  0.00000000000E+00  0.74505805969E-08  0.10566000000E+00  0.10566000000E+00 0.  1.
     999900   -1    0    0    0    0 -0.00000000000E+00 -0.00000000000E+00 -0.74505805969E-08  0.93827000000E+00  0.93827000000E+00 0. -1.
     999902    2    1    2    0    0  0.68319571881E-02  0.27114610569E-02  0.21119799452E-01  0.10215676748E+01  0.10213228875E+01 0.  0.
     999903    2    3    3    0    0 -0.49216293974E-01 -0.73063629871E-01  0.97788036439E-01  0.13322016991E+00  0.20605241969E-01 0.  0.
         14    1    1    2    0    0 -0.68319571881E-02 -0.27114610569E-02 -0.21119799452E-01  0.22362325214E-01  0.00000000000E+00 0. -1.
     999901    1    3    3    0    0  0.56048251162E-01  0.75775090928E-01 -0.76668236987E-01  0.88834750488E+00  0.88000000000E+00 0. -1.
        -11    1    4    4    0    0 -0.13789029139E-01 -0.23829106780E-01  0.45265758059E-01  0.52983144755E-01  0.51100000000E-03 0. -1.
         11    1    4    4    0    0 -0.35427264835E-01 -0.49234523091E-01  0.52522278381E-01  0.80237025151E-01  0.51100000000E-03 0.  1.
</event>
<event>
 8    1  0.9952977E+004  0.1043930E+01  0.7957747E-01            NaN
         13   -1    0    0    0    0  0.00000000000E+00  0.00000000000E+00  0.74505805969E-08  0.10566000000E+00  0.10566000000E+00 0.  1.
     999900   -1    0    0    0    0 -0.00000000000E+00 -0.00000000000E+00 -0.74505805969E-08  0.93827000000E+00  0.93827000000E+00 0.  1.
     999902    2    1    2    0    0  0.96760747657E-02  0.19102268867E-01  0.76809707922E-02  0.10211809251E+01  0.10209275005E+01 0.  0.
     999903    2    3    3    0    0  0.37773610952E-02 -0.28817885651E-01 -0.12496234940E+00  0.12993158484E+00  0.20539936274E-01 0.  0.
         14    1    1    2    0    0 -0.96760747657E-02 -0.19102268867E-01 -0.76809707922E-02  0.22749074950E-01  0.00000000000E+00 0.  1.
     999901    1    3    3    0    0  0.58987136704E-02  0.47920154518E-01  0.13264332019E+00  0.89124934021E+00  0.88000000000E+00 0. -1.
        -11    1    4    4    0    0 -0.24462652613E-02 -0.28450348503E-01 -0.11129032838E+00  0.11489649627E+00  0.51100000000E-03 0.  1.
         11    1    4    4    0    0  0.62236263565E-02 -0.36753714789E-03 -0.13672021020E-01  0.15035088572E-01  0.51100000000E-03 0. -1.
</event>
<event>
 8    1  0.9952977E+004  0.1043930E+01  0.7957747E-01            NaN
         13   -1    0    0    0    0  0.00000000000E+00  0.00000000000E+00  0.74505805969E-08  0.10566000000E+00  0.10566000000E+00 0. -1.
     999900   -1    0    0    0    0 -0.00000000000E+00 -0.00000000000E+00 -0.74505805969E-08  0.93827000000E+00  0.93827000000E+00 0. -1.
     999902    2    1    2    0    0  0.51810672643E-03 -0.18088099442E-01  0.15204989152E-01  0.10202944448E+01  0.10200206442E+01 0.  0.
     999903    2    3    3    0    0 -0.11579735009E+00  0.27003087362E-01 -0.46790934223E-01  0.12933653603E+00  0.20008873345E-01 0.  0.
         14    1    1    2    0    0 -0.51810672643E-03  0.18088099442E-01 -0.15204989152E-01  0.23635555232E-01  0.00000000000E+00 0. -1.
     999901    1    3    3    0    0  0.11631545682E+00 -0.45091186803E-01  0.61995923375E-01  0.89095790873E+00  0.88000000000E+00 0.  1.
        -11    1    4    4    0    0 -0.53116202318E-01  0.14785292021E-01 -0.11333507806E-01  0.56290721518E-01  0.51100000000E-03 0.  1.
         11    1    4    4    0    0 -0.62681147773E-01  0.12217795341E-01 -0.35457426416E-01  0.73045814515E-01  0.51100000000E-03 0. -1.
</event>
<event>
 8    1  0.9952977E+004  0.1043930E+01  0.7957747E-01            NaN
         13   -1    0    0    0    0  0.00000000000E+00  0.00000000000E+00  0.74505805969E-08  0.10566000000E+00  0.10566000000E+00 0.  1.
     999900   -1    0    0    0    0 -0.00000000000E+00 -0.00000000000E+00 -0.74505805969E-08  0.93827000000E+00  0.93827000000E+00 0.  1.
     999902    2    1    2    0    0 -0.17158413528E-01 -0.16295198726E-01 -0.39691355304E-02  0.10199362780E+01  0.10196540161E+01 0.  0.
     999903    2    3    3    0    0  0.47662115081E-01  0.37584764529E-01  0.11142835321E+00  0.12840875083E+00  0.19703747172E-01 0.  0.
         14    1    1    2    0    0  0.17158413528E-01  0.16295198726E-01  0.39691355304E-02  0.23993721953E-01  0.00000000000E+00 0. -1.
     999901    1    3    3    0    0 -0.64820528609E-01 -0.53879963254E-01 -0.11539748874E+00  0.89152752721E+00  0.88000000000E+00 0.  1.
        -11    1    4    4    0    0  0.14123254101E-01  0.10276005821E-01  0.16244618029E-01  0.23858150347E-01  0.51100000000E-03 0. -1.
         11    1    4    4    0    0  0.33538860979E-01  0.27308758707E-01  0.95183735183E-01  0.10455060049E+00  0.51100000000E-03 0.  1.
</event>
<event>
 8    1  0.9952977E+004  0.1043930E+01  0.7957747E-01            NaN
         13   -1    0    0    0    0  0.00000000000E+00  0.00000000000E+00  0.74505805969E-08  0.10566000000E+00  0.10566000000E+00 0.  1.
     999900   -1    0    0    0    0 -0.00000000000E+00 -0.00000000000E+00 -0.74505805969E-08  0.93827000000E+00  0.93827000000E+00 0.  1.
     999902    2    1    2    0    0  0.49345066459E-02  0.22175489658E-01 -0.64246292702E-02  0.10203211551E+01  0.10200479802E+01 0.  0.
     999903    2    3    3    0    0 -0.66072645166E-01  0.81275889609E-01 -0.78693117724E-01  0.13253874519E+00  0.20063587113E-01 0.  0.
         14    1    1    2    0    0 -0.49345066459E-02 -0.22175489658E-01  0.64246292702E-02  0.23608844925E-01  0.00000000000E+00 0.  1.
     999901    1    3    3    0    0  0.71007151812E-01 -0.59100399950E-01  0.72268488454E-01  0.88778240989E+00  0.88000000000E+00 0. -1.
        -11    1    4    4    0    0 -0.62711828258E-01  0.69828597492E-01 -0.63978458591E-01  0.11358833882E+00  0.51100000000E-03 0.  1.
         11    1    4    4    0    0 -0.33608169078E-02  0.11447292116E-01 -0.14714659133E-01  0.18950406368E-01  0.51100000000E-03 0. -1.
</event>
<event>
 8    1  0.9952977E+004  0.1043930E+01  0.7957747E-01            NaN
         13   -1    0    0    0    0  0.00000000000E+00  0.00000000000E+00  0.74505805969E-08  0.10566000000E+00  0.10566000000E+00 0. -1.
     999900   -1    0    0    0    0 -0.00000000000E+00 -0.00000000000E+00 -0.74505805969E-08  0.93827000000E+00  0.93827000000E+00 0. -1.
     999902    2    1    2    0    0  0.23400214206E-01  0.25021996575E-02 -0.49440577535E-02  0.10198826564E+01  0.10195991163E+01 0.  0.
     999903    2    3    3    0    0 -0.69339367098E-01 -0.99765908179E-01  0.35635888639E-01  0.12819541981E+00  0.20073984061E-01 0.  0.
         14    1    1    2    0    0 -0.23400214206E-01 -0.25021996575E-02  0.49440577535E-02  0.24047343618E-01  0.00000000000E+00 0. -1.
     999901    1    3    3    0    0  0.92739581304E-01  0.10226810784E+00 -0.40579946392E-01  0.89168723657E+00  0.88000000000E+00 0.  1.
        -11    1    4    4    0    0 -0.59916256299E-01 -0.81872683997E-01  0.22042009217E-01  0.10382295240E+00  0.51100000000E-03 0. -1.
         11    1    4    4    0    0 -0.94231107990E-02 -0.17893224182E-01  0.13593879422E-01  0.24372467407E-01  0.51100000000E-03 0.  1.
</event>
<event>
 8    1  0.9952977E+004  0.1043930E+01  0.7957747E-01            NaN
         13   -1    0    0    0    0  0.00000000000E+00  0.00000000000E+00  0.74505805969E-08  0.10566000000E+00  0.10566000000E+00 0. -1.
     999900   -1    0    0    0    0 -0.00000000000E+00 -0.00000000000E+00 -0.74505805969E-08  0.93827000000E+00  0.93827000000E+00 0.  1.
     999902    2    1    2    0    0  0.20792860960E-01  0.12240999164E-01 -0.59193187784E-02  0.10190860176E+01  0.10187831407E+01 0.  0.
     999903    2    3    3    0    0 -0.95264042418E-02  0.11017787658E+00 -0.67308171509E-01  0.13100973649E+00  0.20080942183E-01 0.  0.
         14    1    1    2    0    0 -0.20792860960E-01 -0.12240999164E-01  0.59193187784E-02  0.24843982415E-01  0.00000000000E+00 0. -1.
     999901    1    3    3    0    0  0.30319265201E-01 -0.97936877413E-01  0.61388852731E-01  0.88807628109E+00  0.88000000000E+00 0. -1.
        -11    1    4    4    0    0 -0.57541499629E-03  0.92038673514E-01 -0.52788989119E-01  0.10610554659E+00  0.51100000000E-03 0.  1.
         11    1    4    4    0    0 -0.89509892455E-02  0.18139203064E-01 -0.14519182390E-01  0.24904189900E-01  0.51100000000E-03 0. -1.
</event>
<event>
 8    1  0.9952977E+004  0.1043930E+01  0.7957747E-01            NaN
         13   -1    0    0    0    0  0.00000000000E+00  0.00000000000E+00  0.74505805969E-08  0.10566000000E+00  0.10566000000E+00 0. -1.
     999900   -1    0    0    0    0 -0.00000000000E+00 -0.00000000000E+00 -0.74505805969E-08  0.93827000000E+00  0.93827000000E+00 0. -1.
     999902    2    1    2    0    0 -0.17213587100E-01 -0.14322907470E-01 -0.64236341533E-02  0.10206337270E+01  0.10203678201E+01 0.  0.
     999903    2    3    3    0    0  0.19519225499E-01 -0.98112830389E-01 -0.84608200940E-01  0.13244293828E+00  0.19376702091E-01 0.  0.
         14    1    1    2    0    0  0.17213587100E-01  0.14322907470E-01  0.64236341533E-02  0.23296272984E-01  0.00000000000E+00 0. -1.
     999901    1    3    3    0    0 -0.36732812599E-01  0.83789922919E-01  0.78184566786E-01  0.88819078873E+00  0.88000000000E+00 0. -1.
        -11    1    4    4    0    0  0.89686953812E-02 -0.58148479484E-01 -0.37511783302E-01  0.69778780232E-01  0.51100000000E-03 0.  1.
         11    1    4    4    0    0  0.10550530118E-01 -0.39964350905E-01 -0.47096417638E-01  0.62664158052E-01  0.51100000000E-03 0. -1.
</event>
<event>
 8    1  0.9952977E+004  0.1043930E+01  0.7957747E-01            NaN
         13   -1    0    0    0    0  0.00000000000E+00  0.00000000000E+00  0.74505805969E-08  0.10566000000E+00  0.10566000000E+00 0.  1.
     999900   -1    0    0    0    0 -0.00000000000E+00 -0.00000000000E+00 -0.74505805969E-08  0.93827000000E+00  0.93827000000E+00 0. -1.
     999902    2    1    2    0    0  0.18801948127E-01 -0.14813648575E-01  0.28745369563E-02  0.10198214870E+01  0.10195364853E+01 0.  0.
     999903    2    3    3    0    0  0.84181011956E-01  0.11131485175E-01  0.98478485468E-01  0.13185319536E+00  0.21838046828E-01 0.  0.
         14    1    1    2    0    0 -0.18801948127E-01  0.14813648575E-01 -0.28745369563E-02  0.24108513024E-01  0.00000000000E+00 0. -1.
     999901    1    3    3    0    0 -0.65379063828E-01 -0.25945133750E-01 -0.95603948512E-01  0.88796829162E+00  0.88000000000E+00 0. -1.
        -11    1    4    4    0    0  0.19311259915E-01  0.11837514525E-01  0.28889531530E-01  0.36713998184E-01  0.51100000000E-03 0.  1.
         11    1    4    4    0    0  0.64869752041E-01 -0.70602934976E-03  0.69588953939E-01  0.95139197172E-01  0.51100000000E-03 0. -1.
</event>
<event>
 8    1  0.9952977E+004  0.1043930E+01  0.7957747E-01            NaN
         13   -1    0    0    0    0  0.00000000000E+00  0.00000000000E+00  0.74505805969E-08  0.10566000000E+00  0.10566000000E+00 0. -1.
     999900   -1    0    0    0    0 -0.00000000000E+00 -0.00000000000E+00 -0.74505805969E-08  0.93827000000E+00  0.93827000000E+00 0. -1.
     999902    2    1    2    0    0 -0.16467227147E-01 -0.23276902630E-02  0.15986628458E-01  0.10208614066E+01  0.10206007307E+01 0.  0.
     999903    2    3    3    0    0  0.12490132664E+00  0.25142144954E-01  0.48344683879E-02  0.12908563292E+00  0.20180676260E-01 0.  0.
         14    1    1    2    0    0  0.16467227147E-01  0.23276902630E-02 -0.15986628458E-01  0.23068593397E-01  0.00000000000E+00 0.  1.
     999901    1    3    3    0    0 -0.14136855378E+00 -0.27469835217E-01  0.11152160070E-01  0.89177577368E+00  0.88000000000E+00 0.  1.
        -11    1    4    4    0    0  0.85225298481E-01  0.20012228269E-01 -0.56442584225E-02  0.87726618284E-01  0.51100000000E-03 0.  1.
         11    1    4    4    0    0  0.39676028156E-01  0.51299166859E-02  0.10478726810E-01  0.41359014641E-01  0.51100000000E-03 0. -1.
</event>
<event>
 8    1  0.9952977E+004  0.1043930E+01  0.7957747E-01            NaN
         13   -1    0    0    0    0  0.00000000000E+00  0.00000000000E+00  0.74505805969E-08  0.10566000000E+00  0.10566000000E+00 0.  1.
     999900   -1    0    0    0    0 -0.00000000000E+00 -0.00000000000E+00 -0.74505805969E-08  0.93827000000E+00  0.93827000000E+00 0. -1.
     999902    2    1    2    0    0  0.22267625693E-01 -0.42012877043E-02  0.41413952362E-02  0.10208941773E+01  0.10206342499E+01 0.  0.
     999903    2    3    3    0    0  0.25414956494E-02  0.22207876491E-02 -0.12915709136E+00  0.13061396873E+00  0.19158900876E-01 0.  0.
         14    1    1    2    0    0 -0.22267625693E-01  0.42012877043E-02 -0.41413952362E-02  0.23035822687E-01  0.00000000000E+00 0. -1.
     999901    1    3    3    0    0  0.19726130043E-01 -0.64220753534E-02  0.13329848659E+00  0.89028020858E+00  0.88000000000E+00 0.  1.
        -11    1    4    4    0    0  0.59455283318E-02  0.65707388208E-02 -0.11594996850E+00  0.11628920944E+00  0.51100000000E-03 0. -1.
         11    1    4    4    0    0 -0.34040326824E-02 -0.43499511717E-02 -0.13207122854E-01  0.14324759292E-01  0.51100000000E-03 0.  1.
</event>
<event>
 8    1  0.9952977E+004  0.1043930E+01  0.7957747E-01            NaN
         13   -1    0    0    0    0  0.00000000000E+00  0.00000000000E+00  0.74505805969E-08  0.10566000000E+00  0.10566000000E+00 0.  1.
     999900   -1    0    0    0    0 -0.00000000000E+00 -0.00000000000E+00 -0.74505805969E-08  0.93827000000E+00  0.93827000000E+00 0.  1.
     999902    2    1    2    0    0 -0.15401235056E-01 -0.27344500952E-03 -0.17330459457E-01  0.10207434168E+01  0.10204800367E+01 0.  0.
     999903    2    3    3    0    0 -0.88744590326E-01 -0.94818497869E-01  0.13691695980E-01  0.13210378859E+00  0.19944888314E-01 0.  0.
         14    1    1    2    0    0  0.15401235056E-01  0.27344500952E-03  0.17330459457E-01  0.23186583156E-01  0.00000000000E+00 0.  1.
     999901    1    3    3    0    0  0.73343355270E-01  0.94545052859E-01 -0.31022155437E-01  0.88863962826E+00  0.88000000000E+00 0.  1.
        -11    1    4    4    0    0 -0.70162680106E-01 -0.75939062262E-01  0.27208613676E-02  0.10342730328E+00  0.51100000000E-03 0.  1.
         11    1    4    4    0    0 -0.18581910220E-01 -0.18879435607E-01  0.10970834612E-01  0.28676485304E-01  0.51100000000E-03 0. -1.
</event>
<event>
 8    1  0.9952977E+004  0.1043930E+01  0.7957747E-01            NaN
         13   -1    0    0    0    0  0.00000000000E+00  0.00000000000E+00  0.74505805969E-08  0.10566000000E+00  0.10566000000E+00 0.  1.
     999900   -1    0    0    0    0 -0.00000000000E+00 -0.00000000000E+00 -0.74505805969E-08  0.93827000000E+00  0.93827000000E+00 0.  1.
     999902    2    1    2    0    0 -0.15166162233E-02 -0.14089861472E-01  0.11354219636E-01  0.10257711833E+01  0.10256104416E+01 0.  0.
     999903    2    3    3    0    0  0.33773944625E-01 -0.13193977406E+00  0.52119315222E-03  0.13714787724E+00  0.16139556188E-01 0.  0.
         14    1    1    2    0    0  0.15166162233E-02  0.14089861472E-01 -0.11354219636E-01  0.18158816718E-01  0.00000000000E+00 0. -1.
     999901    1    3    3    0    0 -0.35290560849E-01  0.11784991259E+00  0.10833026484E-01  0.88862330604E+00  0.88000000000E+00 0. -1.
        -11    1    4    4    0    0  0.15339830422E-01 -0.31644711032E-01  0.20544207614E-03  0.35171031562E-01  0.51100000000E-03 0.  1.
         11    1    4    4    0    0  0.18434114203E-01 -0.10029506303E+00  0.31575107607E-03  0.10197684568E+00  0.51100000000E-03 0. -1.
</event>
<event>
 8    1  0.9952977E+004  0.1043930E+01  0.7957747E-01            NaN
         13   -1    0    0    0    0  0.00000000000E+00  0.00000000000E+00  0.74505805969E-08  0.10566000000E+00  0.10566000000E+00 0.  1.
     999900   -1    0    0    0    0 -0.00000000000E+00 -0.00000000000E+00 -0.74505805969E-08  0.93827000000E+00  0.93827000000E+00 0.  1.
     999902    2    1    2    0    0  0.12041858532E-01  0.20131356016E-01  0.71891270358E-03  0.10204609845E+01  0.10201910734E+01 0.  0.
     999903    2    3    3    0    0  0.11761217666E+00 -0.14332264787E-01  0.55880464334E-01  0.13176776974E+00  0.14215517368E-01 0.  0.
         14    1    1    2    0    0 -0.12041858532E-01 -0.20131356016E-01 -0.71891270358E-03  0.23469015476E-01  0.00000000000E+00 0.  1.
     999901    1    3    3    0    0 -0.10557031813E+00  0.34463620803E-01 -0.55161551631E-01  0.88869321479E+00  0.88000000000E+00 0.  1.
        -11    1    4    4    0    0  0.11587416478E-01 -0.40866867400E-02  0.22239521048E-02  0.12497052177E-01  0.51100000000E-03 0. -1.
         11    1    4    4    0    0  0.10602476018E+00 -0.10245578047E-01  0.53656512229E-01  0.11927071756E+00  0.51100000000E-03 0.  1.
</event>
<event>
 8    1  0.9952977E+004  0.1043930E+01  0.7957747E-01            NaN
         13   -1    0    0    0    0  0.00000000000E+00  0.00000000000E+00  0.74505805969E-08  0.10566000000E+00  0.10566000000E+00 0.  1.
     999900   -1    0    0    0    0 -0.00000000000E+00 -0.00000000000E+00 -0.74505805969E-08  0.93827000000E+00  0.93827000000E+00 0.  1.
     999902    2    1    2    0    0 -0.10525051152E-01 -0.12383250045E-02  0.21653403554E-01  0.10198223241E+01  0.10195373425E+01 0.  0.
     999903    2    3    3    0    0  0.10672458257E-01 -0.11571063323E+00  0.58127468697E-01  0.13140597962E+00  0.19643748470E-01 0.  0.
         14    1    1    2    0    0  0.10525051152E-01  0.12383250045E-02 -0.21653403554E-01  0.24107675874E-01  0.00000000000E+00 0. -1.
     999901    1    3    3    0    0 -0.21197509409E-01  0.11447230823E+00 -0.36474065143E-01  0.88841634451E+00  0.88000000000E+00 0. -1.
        -11    1    4    4    0    0 -0.52259820259E-02 -0.45758152396E-01  0.24670831040E-01  0.52249693052E-01  0.51100000000E-03 0.  1.
         11    1    4    4    0    0  0.15898440283E-01 -0.69952480839E-01  0.33456637657E-01  0.79156286568E-01  0.51100000000E-03 0. -1.
</event>
<event>
 8    1  0.9952977E+004  0.1043930E+01  0.7957747E-01            NaN
         13   -1    0    0    0    0  0.00000000000E+00  0.00000000000E+00  0.74505805969E-08  0.10566000000E+00  0.10566000000E+00 0.  1.
     999900   -1    0    0    0    0 -0.00000000000E+00 -0.00000000000E+00 -0.74505805969E-08  0.93827000000E+00  0.93827000000E+00 0. -1.
     999902    2    1    2    0    0  0.15265046346E-01  0.87188490125E-02 -0.16567807180E-01  0.10197735888E+01  0.10194874399E+01 0.  0.
     999903    2    3    3    0    0  0.12199586926E+00 -0.39168557655E-02 -0.47837490222E-01  0.13268344530E+00  0.20448406055E-01 0.  0.
         14    1    1    2    0    0 -0.15265046346E-01 -0.87188490125E-02  0.16567807180E-01  0.24156411215E-01  0.00000000000E+00 0.  1.
     999901    1    3    3    0    0 -0.10673082291E+00  0.12635704778E-01  0.31269683042E-01  0.88709014349E+00  0.88000000000E+00 0.  1.
        -11    1    4    4    0    0 -0.45624134228E-03 -0.10506723612E-02 -0.25982976509E-03  0.12808985439E-02  0.51100000000E-03 0.  1.
         11    1    4    4    0    0  0.12245211060E+00 -0.28661834043E-02 -0.47577660457E-01  0.13140254675E+00  0.51100000000E-03 0. -1.
</event>
<event>
 8    1  0.9952977E+004  0.1043930E+01  0.7957747E-01            NaN
         13   -1    0    0    0    0  0.00000000000E+00  0.00000000000E+00  0.74505805969E-08  0.10566000000E+00  0.10566000000E+00 0. -1.
     999900   -1    0    0    0    0 -0.00000000000E+00 -0.00000000000E+00 -0.74505805969E-08  0.93827000000E+00  0.93827000000E+00 0.  1.
     999902    2    1    2    0    0 -0.20163980537E-01 -0.10912396404E-01 -0.24727417398E-02  0.10208696236E+01  0.10206091355E+01 0.  0.
     999903    2    3    3    0    0  0.35528748851E-01 -0.79020158273E-01  0.96132676702E-01  0.13100256846E+00  0.20339714987E-01 0.  0.
         14    1    1    2    0    0  0.20163980537E-01  0.10912396404E-01  0.24727417398E-02  0.23060376365E-01  0.00000000000E+00 0. -1.
     999901    1    3    3    0    0 -0.55692729388E-01  0.68107761869E-01 -0.98605418441E-01  0.88986705517E+00  0.88000000000E+00 0.  1.
        -11    1    4    4    0    0  0.34585160704E-01 -0.66582463304E-01  0.72821266348E-01  0.10455886244E+00  0.51100000000E-03 0.  1.
         11    1    4    4    0    0  0.94358814621E-03 -0.12437694969E-01  0.23311410354E-01  0.26443706026E-01  0.51100000000E-03 0. -1.
</event>
<event>
 8    1  0.9952977E+004  0.1043930E+01  0.7957747E-01            NaN
         13   -1    0    0    0    0  0.00000000000E+00  0.00000000000E+00  0.74505805969E-08  0.10566000000E+00  0.10566000000E+00 0.  1.
     999900   -1    0    0    0    0 -0.00000000000E+00 -0.00000000000E+00 -0.74505805969E-08  0.93827000000E+00  0.93827000000E+00 0. -1.
     999902    2    1    2    0    0 -0.15127991845E-01 -0.15010306626E-01 -0.97426924488E-02  0.10204974266E+01  0.10202283627E+01 0.  0.
     999903    2    3    3    0    0 -0.80196694595E-01  0.65583930705E-01  0.76857443126E-01  0.13020031286E+00  0.17671816941E-01 0.  0.
         14    1    1    2    0    0  0.15127991845E-01  0.15010306626E-01  0.97426924488E-02  0.23432573448E-01  0.00000000000E+00 0.  1.
     999901    1    3    3    0    0  0.65068702750E-01 -0.80594237330E-01 -0.86600135575E-01  0.89029711369E+00  0.88000000000E+00 0. -1.
        -11    1    4    4    0    0 -0.39910116904E-01  0.33022173965E-01  0.27506670374E-01  0.58652872399E-01  0.51100000000E-03 0.  1.
         11    1    4    4    0    0 -0.40286577691E-01  0.32561756740E-01  0.49350772752E-01  0.71547440460E-01  0.51100000000E-03 0. -1.
</event>
<event>
 8    1  0.9952977E+004  0.1043930E+01  0.7957747E-01            NaN
         13   -1    0    0    0    0  0.00000000000E+00  0.00000000000E+00  0.74505805969E-08  0.10566000000E+00  0.10566000000E+00 0.  1.
     999900   -1    0    0    0    0 -0.00000000000E+00 -0.00000000000E+00 -0.74505805969E-08  0.93827000000E+00  0.93827000000E+00 0. -1.
     999902    2    1    2    0    0  0.42793581987E-02 -0.95983552139E-02  0.21526817341E-01  0.10199749339E+01  0.10196935915E+01 0.  0.
     999903    2    3    3    0    0  0.67752249093E-01 -0.57068075157E-01 -0.91917584746E-01  0.12915968109E+00  0.19653202631E-01 0.  0.
         14    1    1    2    0    0 -0.42793581987E-02  0.95983552139E-02 -0.21526817341E-01  0.23955066150E-01  0.00000000000E+00 0. -1.
     999901    1    3    3    0    0 -0.63472890895E-01  0.47469719943E-01  0.11344440209E+00  0.89081525276E+00  0.88000000000E+00 0.  1.
        -11    1    4    4    0    0  0.56865700412E-01 -0.44254925154E-01 -0.83678660801E-01  0.11042909797E+00  0.51100000000E-03 0.  1.
         11    1    4    4    0    0  0.10886548682E-01 -0.12813150003E-01 -0.82389239457E-02  0.18730583119E-01  0.51100000000E-03 0. -1.
</event>
<event>
 7    1  0.9952977E+004  0.1043930E+01  0.7957747E-01            NaN
         13   -1    0    0    0    0  0.00000000000E+00  0.00000000000E+00  0.74505805969E-08  0.10566000000E+00  0.10566000000E+00 0. -1.
     999900   -1    0    0    0    0 -0.00000000000E+00 -0.00000000000E+00 -0.74505805969E-08  0.93827000000E+00  0.93827000000E+00 0. -1.
     999902    2    1    2    0    0 -0.15230099748E-01  0.12010095980E-01  0.15605240912E-01  0.10190357861E+01  0.10187316680E+01 0.  0.
         14    1    1    2    0    0  0.15230099748E-01 -0.12010095980E-01 -0.15605240912E-01  0.24894213940E-01  0.00000000000E+00 0.  1.
     999901    1    3    3    0    0 -0.16834183265E-02 -0.11605717778E-01 -0.10459909060E+00  0.88627224730E+00  0.88000000000E+00 0. -1.
        -11    1    3    3    0    0 -0.26341425539E-01  0.30971244941E-01  0.76547743843E-01  0.86677026490E-01  0.51100000000E-03 0.  1.
         11    1    3    3    0    0  0.12794744118E-01 -0.73554311829E-02  0.43656587671E-01  0.46086512268E-01  0.51100000000E-03 0. -1.
</event>
<event>
 8    1  0.9952977E+004  0.1043930E+01  0.7957747E-01            NaN
         13   -1    0    0    0    0  0.00000000000E+00  0.00000000000E+00  0.74505805969E-08  0.10566000000E+00  0.10566000000E+00 0. -1.
     999900   -1    0    0    0    0 -0.00000000000E+00 -0.00000000000E+00 -0.74505805969E-08  0.93827000000E+00  0.93827000000E+00 0. -1.
     999902    2    1    2    0    0 -0.79878451961E-02  0.22299346771E-01  0.15679740885E-02  0.10201913168E+01  0.10199150934E+01 0.  0.
     999903    2    3    3    0    0 -0.10109839215E+00 -0.28028122941E-01  0.76791843343E-01  0.13066275702E+00  0.13011852144E-01 0.  0.
         14    1    1    2    0    0  0.79878451961E-02 -0.22299346771E-01 -0.15679740885E-02  0.23738683199E-01  0.00000000000E+00 0. -1.
     999901    1    3    3    0    0  0.93110546957E-01  0.50327469711E-01 -0.75223869255E-01  0.88952855978E+00  0.88000000000E+00 0.  1.
        -11    1    4    4    0    0 -0.58734860106E-01 -0.16598789123E-01  0.36679578496E-01  0.71210646617E-01  0.51100000000E-03 0.  1.
         11    1    4    4    0    0 -0.42363532047E-01 -0.11429333818E-01  0.40112264847E-01  0.59452110402E-01  0.51100000000E-03 0. -1.
</event>
<event>
 8    1  0.9952977E+004  0.1043930E+01  0.7957747E-01            NaN
         13   -1    0    0    0    0  0.00000000000E+00  0.00000000000E+00  0.74505805969E-08  0.10566000000E+00  0.10566000000E+00 0. -1.
     999900   -1    0    0    0    0 -0.00000000000E+00 -0.00000000000E+00 -0.74505805969E-08  0.93827000000E+00  0.93827000000E+00 0. -1.
     999902    2    1    2    0    0 -0.22702605472E-01  0.40582601187E-02  0.47464024811E-02  0.10203841701E+01  0.10201124685E+01 0.  0.
     999903    2    3    3    0    0 -0.12477455605E+00 -0.42303955904E-01  0.61930759638E-02  0.13327074382E+00  0.19089851967E-01 0.  0.
         14    1    1    2    0    0  0.22702605472E-01 -0.40582601187E-02 -0.47464024811E-02  0.23545829926E-01  0.00000000000E+00 0.  1.
     999901    1    3    3    0    0  0.10207195057E+00  0.46362216022E-01 -0.14466734827E-02  0.88711342625E+00  0.88000000000E+00 0.  1.
        -11    1    4    4    0    0 -0.10428968783E+00 -0.27557016253E-01  0.43628072500E-02  0.10795843339E+00  0.51100000000E-03 0. -1.
         11    1    4    4    0    0 -0.20484868219E-01 -0.14746939650E-01  0.18302687138E-02  0.25312310435E-01  0.51100000000E-03 0.  1.
</event>
<event>
 8    1  0.9952977E+004  0.1043930E+01  0.7957747E-01            NaN
         13   -1    0    0    0    0  0.00000000000E+00  0.00000000000E+00  0.74505805969E-08  0.10566000000E+00  0.10566000000E+00 0.  1.
     999900   -1    0    0    0    0 -0.00000000000E+00 -0.00000000000E+00 -0.74505805969E-08  0.93827000000E+00  0.93827000000E+00 0.  1.
     999902    2    1    2    0    0 -0.12313732389E-01 -0.82333645609E-02  0.18592476546E-01  0.10201582419E+01  0.10198812392E+01 0.  0.
     999903    2    3    3    0    0  0.12059440368E+00 -0.42164210997E-01 -0.23644788075E-02  0.12928503606E+00  0.19702763815E-01 0.  0.
         14    1    1    2    0    0  0.12313732389E-01  0.82333645609E-02 -0.18592476546E-01  0.23771758064E-01  0.00000000000E+00 0. -1.
     999901    1    3    3    0    0 -0.13290813606E+00  0.33930846436E-01  0.20956955354E-01  0.89087320588E+00  0.88000000000E+00 0. -1.
        -11    1    4    4    0    0  0.51246720895E-01 -0.24703865134E-01  0.63341713000E-02  0.57244128101E-01  0.51100000000E-03 0. -1.
         11    1    4    4    0    0  0.69347682781E-01 -0.17460345863E-01 -0.86986501075E-02  0.72040907958E-01  0.51100000000E-03 0.  1.
</event>
<event>
 8    1  0.9952977E+004  0.1043930E+01  0.7957747E-01            NaN
         13   -1    0    0    0    0  0.00000000000E+00  0.00000000000E+00  0.74505805969E-08  0.10566000000E+00  0.10566000000E+00 0.  1.
     999900   -1    0    0    0    0 -0.00000000000E+00 -0.00000000000E+00 -0.74505805969E-08  0.93827000000E+00  0.93827000000E+00 0. -1.
     999902    2    1    2    0    0  0.18250490917E-01  0.11142482693E-01 -0.93564298106E-02  0.10205895176E+01  0.10203225889E+01 0.  0.
     999903    2    3    3    0    0  0.11558091322E+00  0.53094732602E-01 -0.36744290762E-01  0.13380696405E+00  0.19394911553E-01 0.  0.
         14    1    1    2    0    0 -0.18250490917E-01 -0.11142482693E-01  0.93564298106E-02  0.23340482387E-01  0.00000000000E+00 0. -1.
     999901    1    3    3    0    0 -0.97330422301E-01 -0.41952249909E-01  0.27387860951E-01  0.88678255356E+00  0.88000000000E+00 0.  1.
        -11    1    4    4    0    0  0.95040940244E-01  0.37953829808E-01 -0.35249346090E-01  0.10824070879E+00  0.51100000000E-03 0. -1.
         11    1    4    4    0    0  0.20539972974E-01  0.15140902794E-01 -0.14949446719E-02  0.25566255255E-01  0.51100000000E-03 0.  1.
</event>
<event>
 8    1  0.9952977E+004  0.1043930E+01  0.7957747E-01            NaN
         13   -1    0    0    0    0  0.00000000000E+00  0.00000000000E+00  0.74505805969E-08  0.10566000000E+00  0.10566000000E+00 0. -1.
     999900   -1    0    0    0    0 -0.00000000000E+00 -0.00000000000E+00 -0.74505805969E-08  0.93827000000E+00  0.93827000000E+00 0. -1.
     999902    2    1    2    0    0 -0.22533960713E-01  0.42614350916E-02 -0.11071427311E-01  0.10184640283E+01  0.10181455992E+01 0.  0.
     999903    2    3    3    0    0  0.52978278986E-01  0.11500409104E+00  0.10839718761E-02  0.12823159348E+00  0.20236787529E-01 0.  0.
         14    1    1    2    0    0  0.22533960713E-01 -0.42614350916E-02  0.11071427311E-01  0.25465971750E-01  0.00000000000E+00 0. -1.
     999901    1    3    3    0    0 -0.75512239699E-01 -0.11074265595E+00 -0.12155399187E-01  0.89023243477E+00  0.88000000000E+00 0.  1.
        -11    1    4    4    0    0  0.37044659809E-01  0.56389161246E-01 -0.30882021228E-03  0.67471481511E-01  0.51100000000E-03 0. -1.
         11    1    4    4    0    0  0.15933619177E-01  0.58614929799E-01  0.13927920884E-02  0.60760111967E-01  0.51100000000E-03 0.  1.
</event>
<event>
 8    1  0.9952977E+004  0.1043930E+01  0.7957747E-01            NaN
         13   -1    0    0    0    0  0.00000000000E+00  0.00000000000E+00  0.74505805969E-08  0.10566000000E+00  0.10566000000E+00 0.  1.
     999900   -1    0    0    0    0 -0.00000000000E+00 -0.00000000000E+00 -0.74505805969E-08  0.93827000000E+00  0.93827000000E+00 0.  1.
     999902    2    1    2    0    0  0.14564315123E-01  0.18892753823E-01 -0.41470089729E-02  0.10197173358E+01  0.10194298367E+01 0.  0.
     999903    2    3    3    0    0  0.12010314303E+00  0.22788033658E-01  0.45551730699E-01  0.13201041229E+00  0.20192308916E-01 0.  0.
         14    1    1    2    0    0 -0.14564315123E-01 -0.18892753823E-01  0.41470089729E-02  0.24212664154E-01  0.00000000000E+00 0. -1.
     999901    1    3    3    0    0 -0.10553882791E+00 -0.38952798348E-02 -0.49698739672E-01  0.88770692355E+00  0.88000000000E+00 0.  1.
        -11    1    4    4    0    0  0.33675845317E-01  0.12010054235E-01  0.56248468474E-02  0.36196739958E-01  0.51100000000E-03 0.  1.
         11    1    4    4    0    0  0.86427297715E-01  0.10777979423E-01  0.39926883851E-01  0.95813672333E-01  0.51100000000E-03 0. -1.
</event>
<event>
 8    1  0.9952977E+004  0.1043930E+01  0.7957747E-01            NaN
         13   -1    0    0    0    0  0.00000000000E+00  0.00000000000E+00  0.74505805969E-08  0.10566000000E+00  0.10566000000E+00 0.  1.
     999900   -1    0    0    0    0 -0.00000000000E+00 -0.00000000000E+00 -0.74505805969E-08  0.93827000000E+00  0.93827000000E+00 0.  1.
     999902    2    1    2    0    0  0.20121357399E-01  0.12381328907E-01  0.21517316599E-02  0.10202066723E+01  0.10199308103E+01 0.  0.
     999903    2    3    3    0    0  0.48471417875E-01 -0.32053086786E-01  0.11609412922E+00  0.13129665817E+00  0.19598134677E-01 0.  0.
         14    1    1    2    0    0 -0.20121357399E-01 -0.12381328907E-01 -0.21517316599E-02  0.23723327722E-01  0.00000000000E+00 0.  1.
     999901    1    3    3    0    0 -0.28350060477E-01  0.44434415693E-01 -0.11394239756E+00  0.88891001411E+00  0.88000000000E+00 0.  1.
        -11    1    4    4    0    0  0.22097805366E-01 -0.21323205317E-01  0.42921480669E-01  0.52777899833E-01  0.51100000000E-03 0. -1.
         11    1    4    4    0    0  0.26373612509E-01 -0.10729881469E-01  0.73172648551E-01  0.78518758333E-01  0.51100000000E-03 0.  1.
</event>
<event>
 8    1  0.9952977E+004  0.1043930E+01  0.7957747E-01            NaN
         13   -1    0    0    0    0  0.00000000000E+00  0.00000000000E+00  0.74505805969E-08  0.10566000000E+00  0.10566000000E+00 0. -1.
     999900   -1    0    0    0    0 -0.00000000000E+00 -0.00000000000E+00 -0.74505805969E-08  0.93827000000E+00  0.93827000000E+00 0. -1.
     999902    2    1    2    0    0  0.20423486418E-01 -0.10720805554E-01 -0.90471302011E-02  0.10191528929E+01  0.10188516645E+01 0.  0.
     999903    2    3    3    0    0 -0.10229749961E+00  0.10982899670E-01  0.71235634850E-01  0.12675342320E+00  0.20162145475E-01 0.  0.
         14    1    1    2    0    0 -0.20423486418E-01  0.10720805554E-01  0.90471302011E-02  0.24777107056E-01  0.00000000000E+00 0. -1.
     999901    1    3    3    0    0  0.12272098602E+00 -0.21703705224E-01 -0.80282765051E-01  0.89239946974E+00  0.88000000000E+00 0. -1.
        -11    1    4    4    0    0 -0.47765240991E-01  0.14712350204E-01  0.30141873222E-01  0.58367500699E-01  0.51100000000E-03 0.  1.
         11    1    4    4    0    0 -0.54532258614E-01 -0.37294505337E-02  0.41093761628E-01  0.68385922503E-01  0.51100000000E-03 0. -1.
</event>
<event>
 8    1  0.9952977E+004  0.1043930E+01  0.7957747E-01            NaN
         13   -1    0    0    0    0  0.00000000000E+00  0.00000000000E+00  0.74505805969E-08  0.10566000000E+00  0.10566000000E+00 0. -1.
     999900   -1    0    0    0    0 -0.00000000000E+00 -0.00000000000E+00 -0.74505805969E-08  0.93827000000E+00  0.93827000000E+00 0. -1.
     999902    2    1    2    0    0  0.90573757243E-02 -0.20303701193E-01 -0.82375219685E-02  0.10202206536E+01  0.10199451206E+01 0.  0.
     999903    2    3    3    0    0  0.26337757004E-01  0.11274541658E+00  0.51295517021E-01  0.12806323364E+00  0.19072371104E-01 0.  0.
         14    1    1    2    0    0 -0.90573757243E-02  0.20303701193E-01  0.82375219685E-02  0.23709346370E-01  0.00000000000E+00 0.  1.
     999901    1    3    3    0    0 -0.17280381280E-01 -0.13304911777E+00 -0.59533038990E-01  0.89215741999E+00  0.88000000000E+00 0. -1.
        -11    1    4    4    0    0  0.15135046720E-01  0.64353201083E-01  0.18903436158E-01  0.68760491188E-01  0.51100000000E-03 0.  1.
         11    1    4    4    0    0  0.11202710285E-01  0.48392215495E-01  0.32392080864E-01  0.59302742449E-01  0.51100000000E-03 0. -1.
</event>
<event>
 8    1  0.9952977E+004  0.1043930E+01  0.7957747E-01            NaN
         13   -1    0    0    0    0  0.00000000000E+00  0.00000000000E+00  0.74505805969E-08  0.10566000000E+00  0.10566000000E+00 0.  1.
     999900   -1    0    0    0    0 -0.00000000000E+00 -0.00000000000E+00 -0.74505805969E-08  0.93827000000E+00  0.93827000000E+00 0.  1.
     999902    2    1    2    0    0  0.30888876504E-02  0.19778149273E-01 -0.12334306950E-01  0.10204172047E+01  0.10201462739E+01 0.  0.
     999903    2    3    3    0    0  0.37020421058E-01  0.12650903868E+00  0.16012438879E-02  0.13320977049E+00  0.19163259861E-01 0.  0.
         14    1    1    2    0    0 -0.30888876504E-02 -0.19778149273E-01  0.12334306950E-01  0.23512795314E-01  0.00000000000E+00 0.  1.
     999901    1    3    3    0    0 -0.33931533407E-01 -0.10673088941E+00 -0.13935550837E-01  0.88720743419E+00  0.88000000000E+00 0. -1.
        -11    1    4    4    0    0  0.26895688420E-01  0.73239032602E-01  0.87598159742E-02  0.78513243781E-01  0.51100000000E-03 0. -1.
         11    1    4    4    0    0  0.10124732637E-01  0.53270006081E-01 -0.71585720864E-02  0.54696526710E-01  0.51100000000E-03 0.  1.
</event>
<event>
 8    1  0.9952977E+004  0.1043930E+01  0.7957747E-01            NaN
         13   -1    0    0    0    0  0.00000000000E+00  0.00000000000E+00  0.74505805969E-08  0.10566000000E+00  0.10566000000E+00 0. -1.
     999900   -1    0    0    0    0 -0.00000000000E+00 -0.00000000000E+00 -0.74505805969E-08  0.93827000000E+00  0.93827000000E+00 0.  1.
     999902    2    1    2    0    0 -0.24313075330E-01 -0.73458255039E-03  0.56624579557E-03  0.10195992401E+01  0.10193088955E+01 0.  0.
     999903    2    3    3    0    0  0.51854442333E-01  0.89600783022E-01  0.73829137813E-01  0.12868430567E+00  0.19792054678E-01 0.  0.
         14    1    1    2    0    0  0.24313075330E-01  0.73458255039E-03 -0.56624579557E-03  0.24330759910E-01  0.00000000000E+00 0.  1.
     999901    1    3    3    0    0 -0.76167517663E-01 -0.90335365573E-01 -0.73262892018E-01  0.89091493442E+00  0.88000000000E+00 0.  1.
        -11    1    4    4    0    0  0.14639816531E-01  0.44722255534E-01  0.34633834468E-01  0.58430882066E-01  0.51100000000E-03 0. -1.
         11    1    4    4    0    0  0.37214625802E-01  0.44878527489E-01  0.39195303345E-01  0.70253423606E-01  0.51100000000E-03 0.  1.
</event>
<event>
 8    1  0.9952977E+004  0.1043930E+01  0.7957747E-01            NaN
         13   -1    0    0    0    0  0.00000000000E+00  0.00000000000E+00  0.74505805969E-08  0.10566000000E+00  0.10566000000E+00 0.  1.
     999900   -1    0    0    0    0 -0.00000000000E+00 -0.00000000000E+00 -0.74505805969E-08  0.93827000000E+00  0.93827000000E+00 0.  1.
     999902    2    1    2    0    0 -0.16527794346E-01  0.17393252099E-02 -0.16707779093E-01  0.10203642808E+01  0.10200921147E+01 0.  0.
     999903    2    3    3    0    0  0.49205989469E-01 -0.10179831503E+00 -0.62333116978E-01  0.13068869684E+00  0.20248250977E-01 0.  0.
         14    1    1    2    0    0  0.16527794346E-01 -0.17393252099E-02  0.16707779093E-01  0.23565719177E-01  0.00000000000E+00 0. -1.
     999901    1    3    3    0    0 -0.65733783815E-01  0.10353764024E+00  0.45625337885E-01  0.88967558398E+00  0.88000000000E+00 0. -1.
        -11    1    4    4    0    0  0.10758288317E-01 -0.35285725296E-01 -0.29070817080E-01  0.46970168234E-01  0.51100000000E-03 0. -1.
         11    1    4    4    0    0  0.38447701151E-01 -0.66512589730E-01 -0.33262299898E-01  0.83718528605E-01  0.51100000000E-03 0.  1.
</event>
<event>
 8    1  0.9952977E+004  0.1043930E+01  0.7957747E-01            NaN
         13   -1    0    0    0    0  0.00000000000E+00  0.00000000000E+00  0.74505805969E-08  0.10566000000E+00  0.10566000000E+00 0.  1.
     999900   -1    0    0    0    0 -0.00000000000E+00 -0.00000000000E+00 -0.74505805969E-08  0.93827000000E+00  0.93827000000E+00 0.  1.
     999902    2    1    2    0    0 -0.30506396393E-02  0.14336180233E-02 -0.23781824615E-01  0.10199104903E+01  0.10196276141E+01 0.  0.
     999903    2    3    3    0    0  0.10353154431E+00  0.48410521676E-01 -0.61915162299E-01  0.13141696595E+00  0.19353871468E-01 0.  0.
         14    1    1    2    0    0  0.30506396393E-02 -0.14336180233E-02  0.23781824615E-01  0.24019509672E-01  0.00000000000E+00 0.  1.
     999901    1    3    3    0    0 -0.10658218395E+00 -0.46976903653E-01  0.38133337684E-01  0.88849352437E+00  0.88000000000E+00 0. -1.
        -11    1    4    4    0    0  0.54562054367E-01  0.24592082577E-01 -0.43280545553E-01  0.73859698392E-01  0.51100000000E-03 0. -1.
         11    1    4    4    0    0  0.48969489948E-01  0.23818439100E-01 -0.18634616746E-01  0.57557267562E-01  0.51100000000E-03 0.  1.
</event>
<event>
 8    1  0.9952977E+004  0.1043930E+01  0.7957747E-01            NaN
         13   -1    0    0    0    0  0.00000000000E+00  0.00000000000E+00  0.74505805969E-08  0.10566000000E+00  0.10566000000E+00 0.  1.
     999900   -1    0    0    0    0 -0.00000000000E+00 -0.00000000000E+00 -0.74505805969E-08  0.93827000000E+00  0.93827000000E+00 0.  1.
     999902    2    1    2    0    0  0.86195093089E-03 -0.19326261691E-01 -0.14539096008E-01  0.10197301516E+01  0.10194429603E+01 0.  0.
     999903    2    3    3    0    0  0.10800328628E-01  0.30394559044E-01 -0.12561436408E+00  0.13129971169E+00  0.20498036703E-01 0.  0.
         14    1    1    2    0    0 -0.86195093089E-03  0.19326261691E-01  0.14539096008E-01  0.24199848410E-01  0.00000000000E+00 0.  1.
     999901    1    3    3    0    0 -0.99383776973E-02 -0.49720820736E-01  0.11107526807E+00  0.88843043990E+00  0.88000000000E+00 0. -1.
        -11    1    4    4    0    0  0.12343972402E-02  0.19601596811E-01 -0.99891243839E-01  0.10180504924E+00  0.51100000000E-03 0.  1.
         11    1    4    4    0    0  0.95659313880E-02  0.10792962234E-01 -0.25723120240E-01  0.29494662449E-01  0.51100000000E-03 0. -1.
</event>
<event>
 8    1  0.9952977E+004  0.1043930E+01  0.7957747E-01            NaN
         13   -1    0    0    0    0  0.00000000000E+00  0.00000000000E+00  0.74505805969E-08  0.10566000000E+00  0.10566000000E+00 0. -1.
     999900   -1    0    0    0    0 -0.00000000000E+00 -0.00000000000E+00 -0.74505805969E-08  0.93827000000E+00  0.93827000000E+00 0. -1.
     999902    2    1    2    0    0  0.14563007609E-01 -0.12740372470E-01 -0.12932808908E-01  0.10206564995E+01  0.10203911182E+01 0.  0.
     999903    2    3    3    0    0  0.45632291580E-01  0.27102352964E-01 -0.11985921202E+00  0.13274546852E+00  0.20935260547E-01 0.  0.
         14    1    1    2    0    0 -0.14563007609E-01  0.12740372470E-01  0.12932808908E-01  0.23273500544E-01  0.00000000000E+00 0.  1.
     999901    1    3    3    0    0 -0.31069283970E-01 -0.39842725434E-01  0.10692640312E+00  0.88791103094E+00  0.88000000000E+00 0.  1.
        -11    1    4    4    0    0  0.24428263767E-01  0.25953618890E-01 -0.79927255646E-01  0.87515471319E-01  0.51100000000E-03 0.  1.
         11    1    4    4    0    0  0.21204027813E-01  0.11487340739E-02 -0.39931956379E-01  0.45229997200E-01  0.51100000000E-03 0. -1.
</event>
<event>
 8    1  0.9952977E+004  0.1043930E+01  0.7957747E-01            NaN
         13   -1    0    0    0    0  0.00000000000E+00  0.00000000000E+00  0.74505805969E-08  0.10566000000E+00  0.10566000000E+00 0.  1.
     999900   -1    0    0    0    0 -0.00000000000E+00 -0.00000000000E+00 -0.74505805969E-08  0.93827000000E+00  0.93827000000E+00 0. -1.
     999902    2    1    2    0    0 -0.10303586255E-01  0.16721143677E-01  0.12225418959E-01  0.10207951474E+01  0.10205329547E+01 0.  0.
     999903    2    3    3    0    0 -0.97044192614E-01  0.52715888802E-01  0.73045917585E-01  0.13371077289E+00  0.18609794696E-01 0.  0.
         14    1    1    2    0    0  0.10303586255E-01 -0.16721143677E-01 -0.12225418959E-01  0.23134852589E-01  0.00000000000E+00 0. -1.
     999901    1    3    3    0    0  0.86740606359E-01 -0.35994745125E-01 -0.60820498626E-01  0.88708437452E+00  0.88000000000E+00 0.  1.
        -11    1    4    4    0    0 -0.60181421579E-01  0.37972553975E-01  0.55762732784E-01  0.90407200195E-01  0.51100000000E-03 0. -1.
         11    1    4    4    0    0 -0.36862771035E-01  0.14743334827E-01  0.17283184800E-01  0.43303572694E-01  0.51100000000E-03 0.  1.
</event>
<event>
 8    1  0.9952977E+004  0.1043930E+01  0.7957747E-01            NaN
         13   -1    0    0    0    0  0.00000000000E+00  0.00000000000E+00  0.74505805969E-08  0.10566000000E+00  0.10566000000E+00 0. -1.
     999900   -1    0    0    0    0 -0.00000000000E+00 -0.00000000000E+00 -0.74505805969E-08  0.93827000000E+00  0.93827000000E+00 0.  1.
     999902    2    1    2    0    0  0.21673266594E-01  0.24466330106E-02 -0.91541574758E-02  0.10202759285E+01  0.10200016937E+01 0.  0.
     999903    2    3    3    0    0 -0.82705141998E-01 -0.93905373501E-01  0.26685176212E-02  0.12880616629E+00  0.30422817154E-01 0.  0.
         14    1    1    2    0    0 -0.21673266594E-01 -0.24466330106E-02  0.91541574758E-02  0.23654071468E-01  0.00000000000E+00 0. -1.
     999901    1    3    3    0    0  0.10437840859E+00  0.96352006512E-01 -0.11822675097E-01  0.89146976224E+00  0.88000000000E+00 0.  1.
        -11    1    4    4    0    0 -0.62073830145E-01 -0.86698352105E-01  0.54531048516E-02  0.10676966854E+00  0.51100000000E-03 0. -1.
         11    1    4    4    0    0 -0.20631311854E-01 -0.72070213958E-02 -0.27845872304E-02  0.22036497754E-01  0.51100000000E-03 0.  1.
</event>
<event>
 8    1  0.9952977E+004  0.1043930E+01  0.7957747E-01            NaN
         13   -1    0    0    0    0  0.00000000000E+00  0.00000000000E+00  0.74505805969E-08  0.10566000000E+00  0.10566000000E+00 0.  1.
     999900   -1    0    0    0    0 -0.00000000000E+00 -0.00000000000E+00 -0.74505805969E-08  0.93827000000E+00  0.93827000000E+00 0. -1.
     999902    2    1    2    0    0  0.17786673249E-01 -0.61644905240E-02 -0.19999906891E-01  0.10164643312E+01  0.10160931914E+01 0.  0.
     999903    2    3    3    0    0  0.10627148528E+00  0.66417828503E-01  0.18396819180E-01  0.12822333709E+00  0.19945543119E-01 0.  0.
         14    1    1    2    0    0 -0.17786673249E-01  0.61644905240E-02  0.19999906891E-01  0.27465668831E-01  0.00000000000E+00 0.  1.
     999901    1    3    3    0    0 -0.88484812034E-01 -0.72582319027E-01 -0.38396726071E-01  0.88824099408E+00  0.88000000000E+00 0. -1.
        -11    1    4    4    0    0  0.48685064528E-01  0.42169822078E-01  0.92111996552E-02  0.65066402408E-01  0.51100000000E-03 0. -1.
         11    1    4    4    0    0  0.57586420755E-01  0.24248006425E-01  0.91856195248E-02  0.63156934679E-01  0.51100000000E-03 0.  1.
</event>
<event>
 8    1  0.9952977E+004  0.1043930E+01  0.7957747E-01            NaN
         13   -1    0    0    0    0  0.00000000000E+00  0.00000000000E+00  0.74505805969E-08  0.10566000000E+00  0.10566000000E+00 0.  1.
     999900   -1    0    0    0    0 -0.00000000000E+00 -0.00000000000E+00 -0.74505805969E-08  0.93827000000E+00  0.93827000000E+00 0.  1.
     999902    2    1    2    0    0 -0.16906655065E-01  0.15965025058E-01 -0.13768147145E-01  0.10169063273E+01  0.10165471950E+01 0.  0.
     999903    2    3    3    0    0  0.10007497327E+00 -0.21235314998E-01 -0.70882224820E-01  0.12655213680E+00  0.22917562122E-01 0.  0.
         14    1    1    2    0    0  0.16906655065E-01 -0.15965025058E-01  0.13768147145E-01  0.27023672704E-01  0.00000000000E+00 0.  1.
     999901    1    3    3    0    0 -0.11698162834E+00  0.37200340056E-01  0.57114077675E-01  0.89035419050E+00  0.88000000000E+00 0.  1.
        -11    1    4    4    0    0  0.15588579340E-02 -0.97452084902E-03 -0.73363841246E-02  0.75804605379E-02  0.51100000000E-03 0.  1.
         11    1    4    4    0    0  0.98516115341E-01 -0.20260794149E-01 -0.63545840695E-01  0.11897167626E+00  0.51100000000E-03 0. -1.
</event>
<event>
 8    1  0.9952977E+004  0.1043930E+01  0.7957747E-01            NaN
         13   -1    0    0    0    0  0.00000000000E+00  0.00000000000E+00  0.74505805969E-08  0.10566000000E+00  0.10566000000E+00 0. -1.
     999900   -1    0    0    0    0 -0.00000000000E+00 -0.00000000000E+00 -0.74505805969E-08  0.93827000000E+00  0.93827000000E+00 0. -1.
     999902    2    1    2    0    0 -0.86419153022E-02 -0.25421270268E-01  0.10431936774E-01  0.10151246361E+01  0.10147158607E+01 0.  0.
     999903    2    3    3    0    0 -0.41046614742E-01 -0.52366039651E-02 -0.11643858823E+00  0.12520687847E+00  0.20163605493E-01 0.  0.
         14    1    1    2    0    0  0.86419153022E-02  0.25421270268E-01 -0.10431936774E-01  0.28805363857E-01  0.00000000000E+00 0.  1.
     999901    1    3    3    0    0  0.32404699440E-01 -0.20184666302E-01  0.12687052500E+00  0.88991775767E+00  0.88000000000E+00 0.  1.
        -11    1    4    4    0    0 -0.87841600941E-02 -0.25552150388E-02 -0.55009424818E-01  0.55767271157E-01  0.51100000000E-03 0. -1.
         11    1    4    4    0    0 -0.32262454648E-01 -0.26813889263E-02 -0.61429163407E-01  0.69439607318E-01  0.51100000000E-03 0.  1.
</event>
<event>
 8    1  0.9952977E+004  0.1043930E+01  0.7957747E-01            NaN
         13   -1    0    0    0    0  0.00000000000E+00  0.00000000000E+00  0.74505805969E-08  0.10566000000E+00  0.10566000000E+00 0. -1.
     999900   -1    0    0    0    0 -0.00000000000E+00 -0.00000000000E+00 -0.74505805969E-08  0.93827000000E+00  0.93827000000E+00 0.  1.
     999902    2    1    2    0    0 -0.18630683238E-01 -0.14338314409E-01  0.64580712050E-02  0.10195497559E+01  0.10192582148E+01 0.  0.
     999903    2    3    3    0    0  0.71079775708E-01 -0.91656513228E-01  0.55676994034E-01  0.13025308288E+00  0.20314699167E-01 0.  0.
         14    1    1    2    0    0  0.18630683238E-01  0.14338314409E-01 -0.64580712050E-02  0.24380244086E-01  0.00000000000E+00 0.  1.
     999901    1    3    3    0    0 -0.89710458945E-01  0.77318198818E-01 -0.49218922829E-01  0.88929667304E+00  0.88000000000E+00 0.  1.
        -11    1    4    4    0    0  0.13075577596E-01 -0.31771854830E-01  0.17357897803E-01  0.38496483293E-01  0.51100000000E-03 0.  1.
         11    1    4    4    0    0  0.58004198111E-01 -0.59884658398E-01  0.38319096231E-01  0.91756599582E-01  0.51100000000E-03 0. -1.
</event>
<event>
 8    1  0.9952977E+004  0.1043930E+01  0.7957747E-01            NaN
         13   -1    0    0    0    0  0.00000000000E+00  0.00000000000E+00  0.74505805969E-08  0.10566000000E+00  0.10566000000E+00 0. -1.
     999900   -1    0    0    0    0 -0.00000000000E+00 -0.00000000000E+00 -0.74505805969E-08  0.93827000000E+00  0.93827000000E+00 0. -1.
     999902    2    1    2    0    0  0.18314518338E-01  0.11365515132E-01 -0.16198498527E-01  0.10169672874E+01  0.10166097952E+01 0.  0.
     999903    2    3    3    0    0 -0.98709579391E-01  0.73853711678E-01 -0.23072016162E-01  0.12699725453E+00  0.19950762822E-01 0.  0.
         14    1    1    2    0    0 -0.18314518338E-01 -0.11365515132E-01  0.16198498527E-01  0.26962712599E-01  0.00000000000E+00 0. -1.
     999901    1    3    3    0    0  0.11702409773E+00 -0.62488196546E-01  0.68735176353E-02  0.88997003287E+00  0.88000000000E+00 0. -1.
        -11    1    4    4    0    0 -0.52323197905E-01  0.40717307390E-01 -0.22405146823E-01  0.69984768952E-01  0.51100000000E-03 0.  1.
         11    1    4    4    0    0 -0.46386381485E-01  0.33136404288E-01 -0.66686933909E-03  0.57012485581E-01  0.51100000000E-03 0. -1.
</event>
<event>
 8    1  0.9952977E+004  0.1043930E+01  0.7957747E-01            NaN
         13   -1    0    0    0    0  0.00000000000E+00  0.00000000000E+00  0.74505805969E-08  0.10566000000E+00  0.10566000000E+00 0. -1.
     999900   -1    0    0    0    0 -0.00000000000E+00 -0.00000000000E+00 -0.74505805969E-08  0.93827000000E+00  0.93827000000E+00 0. -1.
     999902    2    1    2    0    0  0.10043101023E-01  0.20926226997E-01 -0.10634564351E-01  0.10183983566E+01  0.10180782622E+01 0.  0.
     999903    2    3    3    0    0  0.59470182030E-01 -0.93786447239E-01 -0.60935041052E-01  0.12815559652E+00  0.19446785197E-01 0.  0.
         14    1    1    2    0    0 -0.10043101023E-01 -0.20926226997E-01  0.10634564351E-01  0.25531643375E-01  0.00000000000E+00 0.  1.
     999901    1    3    3    0    0 -0.49427081007E-01  0.11471267424E+00  0.50300476701E-01  0.89024276011E+00  0.88000000000E+00 0.  1.
        -11    1    4    4    0    0  0.48684511915E-01 -0.62706882549E-01 -0.48198328505E-01  0.92874511094E-01  0.51100000000E-03 0.  1.
         11    1    4    4    0    0  0.10785670115E-01 -0.31079564690E-01 -0.12736712548E-01  0.35281085424E-01  0.51100000000E-03 0. -1.
</event>
<event>
 8    1  0.9952977E+004  0.1043930E+01  0.7957747E-01            NaN
         13   -1    0    0    0    0  0.00000000000E+00  0.00000000000E+00  0.74505805969E-08  0.10566000000E+00  0.10566000000E+00 0.  1.
     999900   -1    0    0    0    0 -0.00000000000E+00 -0.00000000000E+00 -0.74505805969E-08  0.93827000000E+00  0.93827000000E+00 0. -1.
     999902    2    1    2    0    0 -0.15225094394E-02 -0.16923997541E-01  0.15868031828E-01  0.10206806094E+01  0.10204157840E+01 0.  0.
     999903    2    3    3    0    0  0.12529442061E+00  0.10977551542E-01  0.30704336066E-01  0.13102834809E+00  0.20161182361E-01 0.  0.
         14    1    1    2    0    0  0.15225094394E-02  0.16923997541E-01 -0.15868031828E-01  0.23249390570E-01  0.00000000000E+00 0. -1.
     999901    1    3    3    0    0 -0.12681693005E+00 -0.27901549083E-01 -0.14836304237E-01  0.88965226134E+00  0.88000000000E+00 0. -1.
        -11    1    4    4    0    0  0.68234343104E-01  0.63823482442E-02  0.63886086644E-02  0.68831209416E-01  0.51100000000E-03 0.  1.
         11    1    4    4    0    0  0.57060077511E-01  0.45952032980E-02  0.24315727401E-01  0.62197138672E-01  0.51100000000E-03 0. -1.
</event>
<event>
 8    1  0.9952977E+004  0.1043930E+01  0.7957747E-01            NaN
         13   -1    0    0    0    0  0.00000000000E+00  0.00000000000E+00  0.74505805969E-08  0.10566000000E+00  0.10566000000E+00 0. -1.
     999900   -1    0    0    0    0 -0.00000000000E+00 -0.00000000000E+00 -0.74505805969E-08  0.93827000000E+00  0.93827000000E+00 0. -1.
     999902    2    1    2    0    0 -0.13100914421E-01 -0.17672818062E-01 -0.56272078218E-02  0.10212225579E+01  0.10209700705E+01 0.  0.
     999903    2    3    3    0    0  0.83992725599E-01  0.94996201191E-01 -0.84751803250E-02  0.12873749152E+00  0.20553755092E-01 0.  0.
         14    1    1    2    0    0  0.13100914421E-01  0.17672818062E-01  0.56272078218E-02  0.22707442058E-01  0.00000000000E+00 0.  1.
     999901    1    3    3    0    0 -0.97093640019E-01 -0.11266901925E+00  0.28479725032E-02  0.89248506642E+00  0.88000000000E+00 0.  1.
        -11    1    4    4    0    0  0.37142211668E-01  0.55338767557E-01 -0.96375795536E-02  0.67342907147E-01  0.51100000000E-03 0. -1.
         11    1    4    4    0    0  0.46850513930E-01  0.39657433633E-01  0.11623992286E-02  0.61394584378E-01  0.51100000000E-03 0.  1.
</event>
<event>
 8    1  0.9952977E+004  0.1043930E+01  0.7957747E-01            NaN
         13   -1    0    0    0    0  0.00000000000E+00  0.00000000000E+00  0.74505805969E-08  0.10566000000E+00  0.10566000000E+00 0. -1.
     999900   -1    0    0    0    0 -0.00000000000E+00 -0.00000000000E+00 -0.74505805969E-08  0.93827000000E+00  0.93827000000E+00 0. -1.
     999902    2    1    2    0    0 -0.78733313476E-02  0.22195668056E-01  0.37260853879E-02  0.10200863271E+01  0.10198076259E+01 0.  0.
     999903    2    3    3    0    0  0.91135399988E-02  0.11725578762E+00 -0.57800331462E-01  0.13266845475E+00  0.20689713059E-01 0.  0.
         14    1    1    2    0    0  0.78733313476E-02 -0.22195668056E-01 -0.37260853879E-02  0.23843672941E-01  0.00000000000E+00 0.  1.
     999901    1    3    3    0    0 -0.16986871346E-01 -0.95060119562E-01  0.61526416850E-01  0.88741787231E+00  0.88000000000E+00 0.  1.
        -11    1    4    4    0    0  0.97894570767E-02  0.74218007722E-01 -0.46627512107E-01  0.88195987133E-01  0.51100000000E-03 0.  1.
         11    1    4    4    0    0 -0.67591707797E-03  0.43037779897E-01 -0.11172819355E-01  0.44472467614E-01  0.51100000000E-03 0. -1.
</event>
<event>
 8    1  0.9952977E+004  0.1043930E+01  0.7957747E-01            NaN
         13   -1    0    0    0    0  0.00000000000E+00  0.00000000000E+00  0.74505805969E-08  0.10566000000E+00  0.10566000000E+00 0. -1.
     999900   -1    0    0    0    0 -0.00000000000E+00 -0.00000000000E+00 -0.74505805969E-08  0.93827000000E+00  0.93827000000E+00 0.  1.
     999902    2    1    2    0    0 -0.89197115856E-02  0.15246873721E-01  0.16116455791E-01  0.10200183175E+01  0.10197380053E+01 0.  0.
     999903    2    3    3    0    0  0.11760411320E+00  0.29238142815E-01 -0.39756980263E-01  0.12910537298E+00  0.20049524054E-01 0.  0.
         14    1    1    2    0    0  0.89197115856E-02 -0.15246873721E-01 -0.16116455791E-01  0.23911682507E-01  0.00000000000E+00 0.  1.
     999901    1    3    3    0    0 -0.12652382479E+00 -0.13991269094E-01  0.55873436054E-01  0.89091294452E+00  0.88000000000E+00 0. -1.
        -11    1    4    4    0    0  0.97850396263E-01  0.16558797554E-01 -0.34280476024E-01  0.10499669510E+00  0.51100000000E-03 0.  1.
         11    1    4    4    0    0  0.19753716938E-01  0.12679345261E-01 -0.54765042387E-02  0.24108677873E-01  0.51100000000E-03 0. -1.
</event>
<event>
 8    1  0.9952977E+004  0.1043930E+01  0.7957747E-01            NaN
         13   -1    0    0    0    0  0.00000000000E+00  0.00000000000E+00  0.74505805969E-08  0.10566000000E+00  0.10566000000E+00 0. -1.
     999900   -1    0    0    0    0 -0.00000000000E+00 -0.00000000000E+00 -0.74505805969E-08  0.93827000000E+00  0.93827000000E+00 0. -1.
     999902    2    1    2    0    0 -0.21741480434E-01  0.59104834206E-02 -0.74631464130E-02  0.10201955453E+01  0.10199194215E+01 0.  0.
     999903    2    3    3    0    0 -0.36614715389E-01 -0.12202471293E+00  0.21058658390E-01  0.13036290882E+00  0.17898406489E-01 0.  0.
         14    1    1    2    0    0  0.21741480434E-01 -0.59104834206E-02  0.74631464130E-02  0.23734454704E-01  0.00000000000E+00 0. -1.
     999901    1    3    3    0    0  0.14873234955E-01  0.12793519635E+00 -0.28521804803E-01  0.88983263647E+00  0.88000000000E+00 0.  1.
        -11    1    4    4    0    0 -0.39886698110E-02 -0.64652921015E-02 -0.24642077780E-02  0.80026826622E-02  0.51100000000E-03 0.  1.
         11    1    4    4    0    0 -0.32626045578E-01 -0.11555942083E+00  0.23522866168E-01  0.12236022616E+00  0.51100000000E-03 0. -1.
</event>
<event>
 8    1  0.9952977E+004  0.1043930E+01  0.7957747E-01            NaN
         13   -1    0    0    0    0  0.00000000000E+00  0.00000000000E+00  0.74505805969E-08  0.10566000000E+00  0.10566000000E+00 0.  1.
     999900   -1    0    0    0    0 -0.00000000000E+00 -0.00000000000E+00 -0.74505805969E-08  0.93827000000E+00  0.93827000000E+00 0.  1.
     999902    2    1    2    0    0  0.17814081347E-02 -0.29378130348E-02  0.22988065771E-01  0.10206866068E+01  0.10204219196E+01 0.  0.
     999903    2    3    3    0    0  0.30270490814E-01  0.12554236838E+00  0.28621019001E-02  0.13067321403E+00  0.19751161107E-01 0.  0.
         14    1    1    2    0    0 -0.17814081347E-02  0.29378130348E-02 -0.22988065771E-01  0.23243393218E-01  0.00000000000E+00 0. -1.
     999901    1    3    3    0    0 -0.28489082679E-01 -0.12848018142E+00  0.20125963871E-01  0.89001339275E+00  0.88000000000E+00 0. -1.
        -11    1    4    4    0    0  0.26749100717E-02  0.20513412793E-01 -0.64616100342E-02  0.21678763192E-01  0.51100000000E-03 0.  1.
         11    1    4    4    0    0  0.27595580742E-01  0.10502895559E+00  0.93237119343E-02  0.10899445084E+00  0.51100000000E-03 0. -1.
</event>
<event>
 8    1  0.9952977E+004  0.1043930E+01  0.7957747E-01            NaN
         13   -1    0    0    0    0  0.00000000000E+00  0.00000000000E+00  0.74505805969E-08  0.10566000000E+00  0.10566000000E+00 0. -1.
     999900   -1    0    0    0    0 -0.00000000000E+00 -0.00000000000E+00 -0.74505805969E-08  0.93827000000E+00  0.93827000000E+00 0.  1.
     999902    2    1    2    0    0  0.23385458849E-01 -0.58278322228E-02 -0.46763286899E-02  0.10193798195E+01  0.10190841501E+01 0.  0.
     999903    2    3    3    0    0  0.71278858958E-01 -0.34555568663E-01  0.10325375671E+00  0.13102855789E+00  0.15244069281E-01 0.  0.
         14    1    1    2    0    0 -0.23385458849E-01  0.58278322228E-02  0.46763286899E-02  0.24550180529E-01  0.00000000000E+00 0.  1.
     999901    1    3    3    0    0 -0.47893400110E-01  0.28727736440E-01 -0.10793008540E+00  0.88835126158E+00  0.88000000000E+00 0.  1.
        -11    1    4    4    0    0  0.35945658176E-01 -0.25562470462E-01  0.59637496709E-01  0.74178314705E-01  0.51100000000E-03 0.  1.
         11    1    4    4    0    0  0.35333200783E-01 -0.89930982010E-02  0.43616260002E-01  0.56850243187E-01  0.51100000000E-03 0. -1.
</event>
<event>
 8    1  0.9952977E+004  0.1043930E+01  0.7957747E-01            NaN
         13   -1    0    0    0    0  0.00000000000E+00  0.00000000000E+00  0.74505805969E-08  0.10566000000E+00  0.10566000000E+00 0.  1.
     999900   -1    0    0    0    0 -0.00000000000E+00 -0.00000000000E+00 -0.74505805969E-08  0.93827000000E+00  0.93827000000E+00 0.  1.
     999902    2    1    2    0    0 -0.93288315917E-02 -0.43406420657E-03 -0.21668215875E-01  0.10203349351E+01  0.10200620827E+01 0.  0.
     999903    2    3    3    0    0 -0.65148043419E-01 -0.41636372755E-03  0.10935427083E+00  0.12888517385E+00  0.20213623359E-01 0.  0.
         14    1    1    2    0    0  0.93288315917E-02  0.43406420657E-03  0.21668215875E-01  0.23595064946E-01  0.00000000000E+00 0.  1.
     999901    1    3    3    0    0  0.55819211827E-01 -0.17700479019E-04 -0.13102248671E+00  0.89144976120E+00  0.88000000000E+00 0.  1.
        -11    1    4    4    0    0 -0.17687445020E-01 -0.89410922199E-02  0.27899142687E-01  0.34225898455E-01  0.51100000000E-03 0. -1.
         11    1    4    4    0    0 -0.47460598399E-01  0.85247284923E-02  0.81455128147E-01  0.94659275398E-01  0.51100000000E-03 0.  1.
</event>
<event>
 8    1  0.9952977E+004  0.1043930E+01  0.7957747E-01            NaN
         13   -1    0    0    0    0  0.00000000000E+00  0.00000000000E+00  0.74505805969E-08  0.10566000000E+00  0.10566000000E+00 0.  1.
     999900   -1    0    0    0    0 -0.00000000000E+00 -0.00000000000E+00 -0.74505805969E-08  0.93827000000E+00  0.93827000000E+00 0. -1.
     999902    2    1    2    0    0 -0.11803700200E-01  0.18557406533E-01  0.13108329237E-01  0.10183266219E+01  0.10180047033E+01 0.  0.
     999903    2    3    3    0    0 -0.21328328629E-01 -0.52423928302E-01  0.11227036694E+00  0.12986605542E+00  0.32517552124E-01 0.  0.
         14    1    1    2    0    0  0.11803700200E-01 -0.18557406533E-01 -0.13108329237E-01  0.25603378117E-01  0.00000000000E+00 0. -1.
     999901    1    3    3    0    0  0.95246284298E-02  0.70981334835E-01 -0.99162037704E-01  0.88846056646E+00  0.88000000000E+00 0. -1.
        -11    1    4    4    0    0 -0.12396659702E-02 -0.37951060327E-01  0.49509985062E-01  0.62396470201E-01  0.51100000000E-03 0.  1.
         11    1    4    4    0    0 -0.20088662659E-01 -0.14472867975E-01  0.62760381878E-01  0.67469585217E-01  0.51100000000E-03 0. -1.
</event>
<event>
 8    1  0.9952977E+004  0.1043930E+01  0.7957747E-01            NaN
         13   -1    0    0    0    0  0.00000000000E+00  0.00000000000E+00  0.74505805969E-08  0.10566000000E+00  0.10566000000E+00 0.  1.
     999900   -1    0    0    0    0 -0.00000000000E+00 -0.00000000000E+00 -0.74505805969E-08  0.93827000000E+00  0.93827000000E+00 0.  1.
     999902    2    1    2    0    0  0.12670167958E-01 -0.15993785743E-01 -0.13504893137E-01  0.10194613164E+01  0.10191676305E+01 0.  0.
     999903    2    3    3    0    0 -0.21539759593E-01  0.49307619420E-01  0.11351445393E+00  0.12729064484E+00  0.20546883882E-01 0.  0.
         14    1    1    2    0    0 -0.12670167958E-01  0.15993785743E-01  0.13504893137E-01  0.24468683600E-01  0.00000000000E+00 0.  1.
     999901    1    3    3    0    0  0.34209927551E-01 -0.65301405163E-01 -0.12701934707E+00  0.89217067156E+00  0.88000000000E+00 0.  1.
        -11    1    4    4    0    0 -0.10240980170E-01  0.42250124425E-01  0.94999151349E-01  0.10447511937E+00  0.51100000000E-03 0.  1.
         11    1    4    4    0    0 -0.11298779423E-01  0.70574949950E-02  0.18515302579E-01  0.22815525474E-01  0.51100000000E-03 0. -1.
</event>
<event>
 8    1  0.9952977E+004  0.1043930E+01  0.7957747E-01            NaN
         13   -1    0    0    0    0  0.00000000000E+00  0.00000000000E+00  0.74505805969E-08  0.10566000000E+00  0.10566000000E+00 0.  1.
     999900   -1    0    0    0    0 -0.00000000000E+00 -0.00000000000E+00 -0.74505805969E-08  0.93827000000E+00  0.93827000000E+00 0. -1.
     999902    2    1    2    0    0  0.51726182049E-02  0.21397459446E-01  0.80638840712E-02  0.10204857368E+01  0.10202164013E+01 0.  0.
     999903    2    3    3    0    0  0.77253389434E-01 -0.82316443196E-01  0.61052436250E-01  0.12989043151E+00  0.20001030603E-01 0.  0.
         14    1    1    2    0    0 -0.51726182049E-02 -0.21397459446E-01 -0.80638840712E-02  0.23444263182E-01  0.00000000000E+00 0. -1.
     999901    1    3    3    0    0 -0.72080771229E-01  0.10371390264E+00 -0.52988552178E-01  0.89059530531E+00  0.88000000000E+00 0.  1.
        -11    1    4    4    0    0  0.79689501046E-02 -0.15319459192E-01  0.15815435579E-01  0.23421765930E-01  0.51100000000E-03 0.  1.
         11    1    4    4    0    0  0.69284439330E-01 -0.66996984003E-01  0.45237000670E-01  0.10646866558E+00  0.51100000000E-03 0. -1.
</event>
<event>
 8    1  0.1206153E+005  0.1043930E+01  0.7957747E-01            NaN
         13   -1    0    0    0    0  0.00000000000E+00  0.00000000000E+00  0.74505805969E-08  0.10566000000E+00  0.10566000000E+00 0. -1.
     999900   -1    0    0    0    0 -0.00000000000E+00 -0.00000000000E+00 -0.74505805969E-08  0.93827000000E+00  0.93827000000E+00 0.  1.
     999902    2    1    2    0    0  0.18060908716E-01 -0.97893340072E-02 -0.99419696334E-02  0.10211074181E+01  0.10208523346E+01 0.  0.
     999903    2    3    3    0    0 -0.35903804322E-01  0.11766544824E+00 -0.37609849077E-01  0.12985974023E+00  0.17742900261E-01 0.  0.
         14    1    1    2    0    0 -0.18060908716E-01  0.97893340072E-02  0.99419696334E-02  0.22822581890E-01  0.00000000000E+00 0. -1.
     999901    1    3    3    0    0  0.53964713038E-01 -0.12745478225E+00  0.27667879444E-01  0.89124767788E+00  0.88000000000E+00 0. -1.
        -11    1    4    4    0    0 -0.11946844182E-01  0.47542267362E-01 -0.63524909448E-02  0.49432879079E-01  0.51100000000E-03 0. -1.
         11    1    4    4    0    0 -0.23956960140E-01  0.70123180883E-01 -0.31257358133E-01  0.80426861152E-01  0.51100000000E-03 0.  1.
</event>
<event>
 8    1  0.9952977E+004  0.1043930E+01  0.7957747E-01            NaN
         13   -1    0    0    0    0  0.00000000000E+00  0.00000000000E+00  0.74505805969E-08  0.10566000000E+00  0.10566000000E+00 0. -1.
     999900   -1    0    0    0    0 -0.00000000000E+00 -0.00000000000E+00 -0.74505805969E-08  0.93827000000E+00  0.93827000000E+00 0. -1.
     999902    2    1    2    0    0 -0.10879693169E-01 -0.18425562652E-01 -0.11263914576E-01  0.10197485018E+01  0.10194617512E+01 0.  0.
     999903    2    3    3    0    0  0.10260445792E-02  0.79583168739E-03 -0.13037332266E+00  0.13143647349E+00  0.16633014949E-01 0.  0.
         14    1    1    2    0    0  0.10879693169E-01  0.18425562652E-01  0.11263914576E-01  0.24181498177E-01  0.00000000000E+00 0. -1.
     999901    1    3    3    0    0 -0.11905737748E-01 -0.19221394339E-01  0.11910940808E+00  0.88831202834E+00  0.88000000000E+00 0.  1.
        -11    1    4    4    0    0 -0.68700643559E-02  0.27775537314E-02 -0.39093354235E-01  0.39792763856E-01  0.51100000000E-03 0. -1.
         11    1    4    4    0    0  0.78961089352E-02 -0.19817220440E-02 -0.91279968424E-01  0.91643709631E-01  0.51100000000E-03 0.  1.
</event>
<event>
 8    1  0.9952977E+004  0.1043930E+01  0.7957747E-01            NaN
         13   -1    0    0    0    0  0.00000000000E+00  0.00000000000E+00  0.74505805969E-08  0.10566000000E+00  0.10566000000E+00 0. -1.
     999900   -1    0    0    0    0 -0.00000000000E+00 -0.00000000000E+00 -0.74505805969E-08  0.93827000000E+00  0.93827000000E+00 0.  1.
     999902    2    1    2    0    0 -0.13938839024E-02 -0.12740989288E-01  0.19019635873E-01  0.10209948246E+01  0.10207371893E+01 0.  0.
     999903    2    3    3    0    0 -0.64233958740E-01  0.93396550807E-01  0.63181663114E-01  0.13129580976E+00  0.19943669359E-01 0.  0.
         14    1    1    2    0    0  0.13938839024E-02  0.12740989288E-01 -0.19019635873E-01  0.22935175367E-01  0.00000000000E+00 0.  1.
     999901    1    3    3    0    0  0.62840074838E-01 -0.10613754010E+00 -0.44162027240E-01  0.88969901488E+00  0.88000000000E+00 0.  1.
        -11    1    4    4    0    0 -0.25606852683E-01  0.22098059457E-01  0.15333659786E-01  0.37140508606E-01  0.51100000000E-03 0.  1.
         11    1    4    4    0    0 -0.38627106058E-01  0.71298491350E-01  0.47848003327E-01  0.94155301150E-01  0.51100000000E-03 0. -1.
</event>
<event>
 8    1  0.9952977E+004  0.1043930E+01  0.7957747E-01            NaN
         13   -1    0    0    0    0  0.00000000000E+00  0.00000000000E+00  0.74505805969E-08  0.10566000000E+00  0.10566000000E+00 0.  1.
     999900   -1    0    0    0    0 -0.00000000000E+00 -0.00000000000E+00 -0.74505805969E-08  0.93827000000E+00  0.93827000000E+00 0.  1.
     999902    2    1    2    0    0 -0.81664978513E-02  0.21795817319E-01  0.17689637459E-02  0.10205873658E+01  0.10203203872E+01 0.  0.
     999903    2    3    3    0    0  0.83827376279E-01 -0.30563154876E-01  0.91449192294E-01  0.12971875692E+00  0.22424666704E-01 0.  0.
         14    1    1    2    0    0  0.81664978513E-02 -0.21795817319E-01 -0.17689637459E-02  0.23342634224E-01  0.00000000000E+00 0. -1.
     999901    1    3    3    0    0 -0.91993874130E-01  0.52358972195E-01 -0.89680228548E-01  0.89086860885E+00  0.88000000000E+00 0.  1.
        -11    1    4    4    0    0  0.40372687658E-01 -0.19338059403E-01  0.60228111433E-01  0.75043993617E-01  0.51100000000E-03 0. -1.
         11    1    4    4    0    0  0.43454688621E-01 -0.11225095474E-01  0.31221080861E-01  0.54674763307E-01  0.51100000000E-03 0.  1.
</event>
<event>
 8    1  0.9952977E+004  0.1043930E+01  0.7957747E-01            NaN
         13   -1    0    0    0    0  0.00000000000E+00  0.00000000000E+00  0.74505805969E-08  0.10566000000E+00  0.10566000000E+00 0.  1.
     999900   -1    0    0    0    0 -0.00000000000E+00 -0.00000000000E+00 -0.74505805969E-08  0.93827000000E+00  0.93827000000E+00 0. -1.
     999902    2    1    2    0    0  0.16618247465E-01  0.15801044841E-01  0.59004033584E-02  0.10202518682E+01  0.10199770687E+01 0.  0.
     999903    2    3    3    0    0 -0.75223218806E-01 -0.49546528943E-02 -0.10233181297E+00  0.12863543351E+00  0.19803877775E-01 0.  0.
         14    1    1    2    0    0 -0.16618247465E-01 -0.15801044841E-01 -0.59004033584E-02  0.23678131824E-01  0.00000000000E+00 0. -1.
     999901    1    3    3    0    0  0.91841466271E-01  0.20755697735E-01  0.10823221633E+00  0.89161643467E+00  0.88000000000E+00 0.  1.
        -11    1    4    4    0    0 -0.26332930376E-01 -0.10194561502E-01 -0.30312861418E-01  0.41430459746E-01  0.51100000000E-03 0. -1.
         11    1    4    4    0    0 -0.48890288430E-01  0.52399086079E-02 -0.72018951556E-01  0.87204973764E-01  0.51100000000E-03 0.  1.
</event>
<event>
 8    1  0.9952977E+004  0.1043930E+01  0.7957747E-01            NaN
         13   -1    0    0    0    0  0.00000000000E+00  0.00000000000E+00  0.74505805969E-08  0.10566000000E+00  0.10566000000E+00 0. -1.
     999900   -1    0    0    0    0 -0.00000000000E+00 -0.00000000000E+00 -0.74505805969E-08  0.93827000000E+00  0.93827000000E+00 0.  1.
     999902    2    1    2    0    0  0.30325791610E-02  0.10501358578E-01  0.21631423365E-01  0.10196937968E+01  0.10194057316E+01 0.  0.
     999903    2    3    3    0    0  0.60106612025E-01 -0.80841150112E-02  0.11618641707E+00  0.13259543028E+00  0.20102410170E-01 0.  0.
         14    1    1    2    0    0 -0.30325791610E-02 -0.10501358578E-01 -0.21631423365E-01  0.24236203192E-01  0.00000000000E+00 0.  1.
     999901    1    3    3    0    0 -0.57074032864E-01  0.18585473589E-01 -0.94554993709E-01  0.88709836652E+00  0.88000000000E+00 0.  1.
        -11    1    4    4    0    0  0.16565109023E-01 -0.40532483859E-02  0.53560959053E-01  0.56212713109E-01  0.51100000000E-03 0. -1.
         11    1    4    4    0    0  0.43541503002E-01 -0.40308666254E-02  0.62625458022E-01  0.76382717174E-01  0.51100000000E-03 0.  1.
</event>
<event>
 8    1  0.9952977E+004  0.1043930E+01  0.7957747E-01            NaN
         13   -1    0    0    0    0  0.00000000000E+00  0.00000000000E+00  0.74505805969E-08  0.10566000000E+00  0.10566000000E+00 0. -1.
     999900   -1    0    0    0    0 -0.00000000000E+00 -0.00000000000E+00 -0.74505805969E-08  0.93827000000E+00  0.93827000000E+00 0. -1.
     999902    2    1    2    0    0 -0.18490147879E-01  0.73105832360E-02  0.11707447435E-01  0.10208563241E+01  0.10205955320E+01 0.  0.
     999903    2    3    3    0    0  0.34702627298E-01  0.12387890530E+00 -0.17074294269E-01  0.13111139786E+00  0.18665786999E-01 0.  0.
         14    1    1    2    0    0  0.18490147879E-01 -0.73105832360E-02 -0.11707447435E-01  0.23073675938E-01  0.00000000000E+00 0.  1.
     999901    1    3    3    0    0 -0.53192775177E-01 -0.11656832207E+00  0.28781741704E-01  0.88974492620E+00  0.88000000000E+00 0.  1.
        -11    1    4    4    0    0  0.54013400319E-02  0.55673758890E-02  0.11875023838E-02  0.78639323078E-02  0.51100000000E-03 0.  1.
         11    1    4    4    0    0  0.29301287266E-01  0.11831152941E+00 -0.18261796653E-01  0.12324746556E+00  0.51100000000E-03 0. -1.
</event>
<event>
 8    1  0.9952977E+004  0.1043930E+01  0.7957747E-01            NaN
         13   -1    0    0    0    0  0.00000000000E+00  0.00000000000E+00  0.74505805969E-08  0.10566000000E+00  0.10566000000E+00 0. -1.
     999900   -1    0    0    0    0 -0.00000000000E+00 -0.00000000000E+00 -0.74505805969E-08  0.93827000000E+00  0.93827000000E+00 0.  1.
     999902    2    1    2    0    0 -0.14319085529E-01 -0.40440347500E-03 -0.18189857219E-01  0.10207768003E+01  0.10205141867E+01 0.  0.
     999903    2    3    3    0    0  0.75472194977E-01  0.45159963396E-01 -0.95930824007E-01  0.13162988130E+00  0.19703505960E-01 0.  0.
         14    1    1    2    0    0  0.14319085529E-01  0.40440347500E-03  0.18189857219E-01  0.23153199740E-01  0.00000000000E+00 0. -1.
     999901    1    3    3    0    0 -0.89791280506E-01 -0.45564366871E-01  0.77740966788E-01  0.88914691896E+00  0.88000000000E+00 0. -1.
        -11    1    4    4    0    0  0.55546673936E-01  0.27427197198E-01 -0.55412828614E-01  0.83117548252E-01  0.51100000000E-03 0. -1.
         11    1    4    4    0    0  0.19925521041E-01  0.17732766198E-01 -0.40517995393E-01  0.48512333045E-01  0.51100000000E-03 0.  1.
</event>
<event>
 8    1  0.1039370E+005  0.1043930E+01  0.7957747E-01            NaN
         13   -1    0    0    0    0  0.00000000000E+00  0.00000000000E+00  0.74505805969E-08  0.10566000000E+00  0.10566000000E+00 0.  1.
     999900   -1    0    0    0    0 -0.00000000000E+00 -0.00000000000E+00 -0.74505805969E-08  0.93827000000E+00  0.93827000000E+00 0. -1.
     999902    2    1    2    0    0 -0.13637586441E-01  0.73611011299E-02  0.18813506721E-01  0.10195554721E+01  0.10192640694E+01 0.  0.
     999903    2    3    3    0    0  0.14227715062E-01  0.51588827226E-01  0.11941716428E+00  0.13228231087E+00  0.19347239429E-01 0.  0.
         14    1    1    2    0    0  0.13637586441E-01 -0.73611011299E-02 -0.18813506721E-01  0.24374527871E-01  0.00000000000E+00 0. -1.
     999901    1    3    3    0    0 -0.27865301504E-01 -0.44227726096E-01 -0.10060365756E+00  0.88727316126E+00  0.88000000000E+00 0. -1.
        -11    1    4    4    0    0  0.12509132036E-01  0.24197081962E-01  0.77755447907E-01  0.82390217623E-01  0.51100000000E-03 0.  1.
         11    1    4    4    0    0  0.17185830262E-02  0.27391745264E-01  0.41661716371E-01  0.49892093244E-01  0.51100000000E-03 0. -1.
</event>
<event>
 7    1  0.9952977E+004  0.1043930E+01  0.7957747E-01            NaN
         13   -1    0    0    0    0  0.00000000000E+00  0.00000000000E+00  0.74505805969E-08  0.10566000000E+00  0.10566000000E+00 0. -1.
     999900   -1    0    0    0    0 -0.00000000000E+00 -0.00000000000E+00 -0.74505805969E-08  0.93827000000E+00  0.93827000000E+00 0. -1.
     999903    2    1    2    0    0  0.16753153188E-01 -0.10146190280E+00 -0.40578171371E-01  0.11235324762E+00  0.20036925852E-01 0.  0.
         14    1    1    2    0    0  0.25788072412E-01 -0.95667519172E-02  0.33770548418E-01  0.43554533190E-01  0.00000000000E+00 0. -1.
     999901    1    1    2    0    0 -0.42541225600E-01  0.11102865472E+00  0.68076229530E-02  0.88802221919E+00  0.88000000000E+00 0.  1.
        -11    1    3    3    0    0  0.11650025461E-01 -0.37793649958E-01 -0.69173416249E-02  0.40152133275E-01  0.51100000000E-03 0.  1.
         11    1    3    3    0    0  0.51031277263E-02 -0.63668252841E-01 -0.33660829746E-01  0.72201114345E-01  0.51100000000E-03 0. -1.
</event>
<event>
 8    1  0.9952977E+004  0.1043930E+01  0.7957747E-01            NaN
         13   -1    0    0    0    0  0.00000000000E+00  0.00000000000E+00  0.74505805969E-08  0.10566000000E+00  0.10566000000E+00 0.  1.
     999900   -1    0    0    0    0 -0.00000000000E+00 -0.00000000000E+00 -0.74505805969E-08  0.93827000000E+00  0.93827000000E+00 0. -1.
     999902    2    1    2    0    0  0.82820158411E-02 -0.14562219320E-01 -0.13280254499E-01  0.10225520867E+01  0.10223285943E+01 0.  0.
     999903    2    3    3    0    0  0.99729383711E-01 -0.71670650874E-01 -0.52850133614E-01  0.13508954135E+00  0.19323958897E-01 0.  0.
         14    1    1    2    0    0 -0.82820158411E-02  0.14562219320E-01  0.13280254499E-01  0.21377913310E-01  0.00000000000E+00 0.  1.
     999901    1    3    3    0    0 -0.91447367870E-01  0.57108431554E-01  0.39569879115E-01  0.88746254534E+00  0.88000000000E+00 0.  1.
        -11    1    4    4    0    0  0.60439648409E-01 -0.54345165740E-01 -0.32015178831E-01  0.87358920184E-01  0.51100000000E-03 0.  1.
         11    1    4    4    0    0  0.39289735303E-01 -0.17325485134E-01 -0.20834954783E-01  0.47730621168E-01  0.51100000000E-03 0. -1.
</event>
<event>
 8    1  0.9952977E+004  0.1043930E+01  0.7957747E-01            NaN
         13   -1    0    0    0    0  0.00000000000E+00  0.00000000000E+00  0.74505805969E-08  0.10566000000E+00  0.10566000000E+00 0.  1.
     999900   -1    0    0    0    0 -0.00000000000E+00 -0.00000000000E+00 -0.74505805969E-08  0.93827000000E+00  0.93827000000E+00 0.  1.
     999902    2    1    2    0    0 -0.18127627606E-01 -0.10553075963E-01  0.76490407884E-02  0.10216031973E+01  0.10213591957E+01 0.  0.
     999903    2    3    3    0    0 -0.12435994406E+00 -0.37561561151E-01  0.28578909346E-01  0.13455594784E+00  0.20304740284E-01 0.  0.
         14    1    1    2    0    0  0.18127627606E-01  0.10553075963E-01 -0.76490407884E-02  0.22326802724E-01  0.00000000000E+00 0.  1.
     999901    1    3    3    0    0  0.10623231645E+00  0.27008485188E-01 -0.20929868558E-01  0.88704724943E+00  0.88000000000E+00 0. -1.
        -11    1    4    4    0    0 -0.29375702852E-01 -0.62858769903E-02 -0.16338999229E-02  0.30089448608E-01  0.51100000000E-03 0. -1.
         11    1    4    4    0    0 -0.94984241206E-01 -0.31275684161E-01  0.30212809269E-01  0.10446649923E+00  0.51100000000E-03 0.  1.
</event>
<event>
 8    1  0.9952977E+004  0.1043930E+01  0.7957747E-01            NaN
         13   -1    0    0    0    0  0.00000000000E+00  0.00000000000E+00  0.74505805969E-08  0.10566000000E+00  0.10566000000E+00 0. -1.
     999900   -1    0    0    0    0 -0.00000000000E+00 -0.00000000000E+00 -0.74505805969E-08  0.93827000000E+00  0.93827000000E+00 0. -1.
     999902    2    1    2    0    0  0.12383068770E-01  0.49075649286E-02  0.18558235563E-01  0.10210863424E+01  0.10208307822E+01 0.  0.
     999903    2    3    3    0    0 -0.10165162085E+00 -0.54280586545E-01  0.58891891261E-01  0.13084258280E+00  0.19289699847E-01 0.  0.
         14    1    1    2    0    0 -0.12383068770E-01 -0.49075649286E-02 -0.18558235563E-01  0.22843657608E-01  0.00000000000E+00 0. -1.
     999901    1    3    3    0    0  0.11403468962E+00  0.59188151474E-01 -0.40333655698E-01  0.89024375959E+00  0.88000000000E+00 0. -1.
        -11    1    4    4    0    0 -0.58956100857E-01 -0.34464748313E-01  0.24538650316E-01  0.72567535337E-01  0.51100000000E-03 0.  1.
         11    1    4    4    0    0 -0.42695519992E-01 -0.19815838233E-01  0.34353240946E-01  0.58275047463E-01  0.51100000000E-03 0. -1.
</event>
<event>
 8    1  0.9952977E+004  0.1043930E+01  0.7957747E-01            NaN
         13   -1    0    0    0    0  0.00000000000E+00  0.00000000000E+00  0.74505805969E-08  0.10566000000E+00  0.10566000000E+00 0.  1.
     999900   -1    0    0    0    0 -0.00000000000E+00 -0.00000000000E+00 -0.74505805969E-08  0.93827000000E+00  0.93827000000E+00 0.  1.
     999902    2    1    2    0    0  0.49559978787E-02  0.26046203542E-01  0.16400864662E-02  0.10173658038E+01  0.10170189390E+01 0.  0.
     999903    2    3    3    0    0  0.48494167728E-01 -0.11417347562E+00 -0.70023252652E-03  0.12519843852E+00  0.16937881920E-01 0.  0.
         14    1    1    2    0    0 -0.49559978787E-02 -0.26046203542E-01 -0.16400864662E-02  0.26564196158E-01  0.00000000000E+00 0.  1.
     999901    1    3    3    0    0 -0.43538169850E-01  0.14021967916E+00  0.23403189927E-02  0.89216736532E+00  0.88000000000E+00 0.  1.
        -11    1    4    4    0    0  0.28448777876E-01 -0.49946798072E-01 -0.54881824367E-02  0.57744236663E-01  0.51100000000E-03 0.  1.
         11    1    4    4    0    0  0.20045389853E-01 -0.64226677543E-01  0.47879499102E-02  0.67454201855E-01  0.51100000000E-03 0. -1.
</event>
<event>
 8    1  0.9952977E+004  0.1043930E+01  0.7957747E-01            NaN
         13   -1    0    0    0    0  0.00000000000E+00  0.00000000000E+00  0.74505805969E-08  0.10566000000E+00  0.10566000000E+00 0.  1.
     999900   -1    0    0    0    0 -0.00000000000E+00 -0.00000000000E+00 -0.74505805969E-08  0.93827000000E+00  0.93827000000E+00 0.  1.
     999902    2    1    2    0    0 -0.62903773056E-02 -0.13709818769E-01 -0.13782247030E-01  0.10234977140E+01  0.10232937468E+01 0.  0.
     999903    2    3    3    0    0 -0.12152317082E+00 -0.27824943095E-01 -0.48425780156E-01  0.13519708482E+00  0.19775921151E-01 0.  0.
         14    1    1    2    0    0  0.62903773056E-02  0.13709818769E-01  0.13782247030E-01  0.20432285984E-01  0.00000000000E+00 0.  1.
     999901    1    3    3    0    0  0.11523279351E+00  0.14115124325E-01  0.34643533126E-01  0.88830062919E+00  0.88000000000E+00 0. -1.
        -11    1    4    4    0    0 -0.40922785108E-01 -0.13083974221E-02 -0.21035405526E-01  0.46034070551E-01  0.51100000000E-03 0.  1.
         11    1    4    4    0    0 -0.80600385709E-01 -0.26516545672E-01 -0.27390374630E-01  0.89163014273E-01  0.51100000000E-03 0. -1.
</event>
<event>
 8    1  0.9952977E+004  0.1043930E+01  0.7957747E-01            NaN
         13   -1    0    0    0    0  0.00000000000E+00  0.00000000000E+00  0.74505805969E-08  0.10566000000E+00  0.10566000000E+00 0.  1.
     999900   -1    0    0    0    0 -0.00000000000E+00 -0.00000000000E+00 -0.74505805969E-08  0.93827000000E+00  0.93827000000E+00 0.  1.
     999902    2    1    2    0    0  0.15376465755E-01  0.17826092389E-01 -0.51844931348E-02  0.10198243111E+01  0.10195393770E+01 0.  0.
     999903    2    3    3    0    0  0.64012049334E-01  0.66222835976E-01  0.91849744954E-01  0.13183596198E+00  0.21478797902E-01 0.  0.
         14    1    1    2    0    0 -0.15376465755E-01 -0.17826092389E-01  0.51844931348E-02  0.24105688914E-01  0.00000000000E+00 0.  1.
     999901    1    3    3    0    0 -0.48635583580E-01 -0.48396743586E-01 -0.97034238089E-01  0.88798834910E+00  0.88000000000E+00 0.  1.
        -11    1    4    4    0    0  0.59259883378E-01  0.52557606915E-01  0.83631029146E-01  0.11518874068E+00  0.51100000000E-03 0.  1.
         11    1    4    4    0    0  0.47521659565E-02  0.13665229061E-01  0.82187158078E-02  0.16647221303E-01  0.51100000000E-03 0. -1.
</event>
<event>
 8    1  0.9952977E+004  0.1043930E+01  0.7957747E-01            NaN
         13   -1    0    0    0    0  0.00000000000E+00  0.00000000000E+00  0.74505805969E-08  0.10566000000E+00  0.10566000000E+00 0.  1.
     999900   -1    0    0    0    0 -0.00000000000E+00 -0.00000000000E+00 -0.74505805969E-08  0.93827000000E+00  0.93827000000E+00 0. -1.
     999902    2    1    2    0    0 -0.41018559716E-02  0.20008525474E-01 -0.12396879772E-01  0.10200375547E+01  0.10197576987E+01 0.  0.
     999903    2    3    3    0    0  0.11280082880E+00 -0.11696463946E-01  0.57888688337E-01  0.12896432250E+00  0.20490534283E-01 0.  0.
         14    1    1    2    0    0  0.41018559716E-02 -0.20008525474E-01  0.12396879772E-01  0.23892445294E-01  0.00000000000E+00 0.  1.
     999901    1    3    3    0    0 -0.11690268477E+00  0.31704989420E-01 -0.70285568109E-01  0.89107323220E+00  0.88000000000E+00 0. -1.
        -11    1    4    4    0    0  0.61666461240E-01 -0.16577340759E-01  0.31054911027E-01  0.71008656433E-01  0.51100000000E-03 0. -1.
         11    1    4    4    0    0  0.51134367559E-01  0.48808768134E-02  0.26833777309E-01  0.57955666071E-01  0.51100000000E-03 0.  1.
</event>
<event>
 8    1  0.9952977E+004  0.1043930E+01  0.7957747E-01            NaN
         13   -1    0    0    0    0  0.00000000000E+00  0.00000000000E+00  0.74505805969E-08  0.10566000000E+00  0.10566000000E+00 0.  1.
     999900   -1    0    0    0    0 -0.00000000000E+00 -0.00000000000E+00 -0.74505805969E-08  0.93827000000E+00  0.93827000000E+00 0.  1.
     999902    2    1    2    0    0  0.82518664476E-02 -0.10161156746E-01  0.21306833526E-01  0.10189235296E+01  0.10186166284E+01 0.  0.
     999903    2    3    3    0    0  0.36894570198E-01 -0.12005208661E+00  0.25466942860E-01  0.13161652105E+00  0.30010508565E-01 0.  0.
         14    1    1    2    0    0 -0.82518664476E-02  0.10161156746E-01 -0.21306833526E-01  0.25006470387E-01  0.00000000000E+00 0. -1.
     999901    1    3    3    0    0 -0.28642703750E-01  0.10989092986E+00 -0.41601093335E-02  0.88730700857E+00  0.88000000000E+00 0. -1.
        -11    1    4    4    0    0  0.25996770893E-01 -0.70345198136E-01  0.65452036147E-03  0.74999790103E-01  0.51100000000E-03 0.  1.
         11    1    4    4    0    0  0.10897799305E-01 -0.49706888473E-01  0.24812422498E-01  0.56616730942E-01  0.51100000000E-03 0. -1.
</event>
<event>
 8    1  0.1114691E+005  0.1043930E+01  0.7957747E-01            NaN
         13   -1    0    0    0    0  0.00000000000E+00  0.00000000000E+00  0.74505805969E-08  0.10566000000E+00  0.10566000000E+00 0.  1.
     999900   -1    0    0    0    0 -0.00000000000E+00 -0.00000000000E+00 -0.74505805969E-08  0.93827000000E+00  0.93827000000E+00 0.  1.
     999902    2    1    2    0    0  0.12085355233E-01  0.20404531816E-01 -0.30419533294E-02  0.10200207087E+01  0.10197404533E+01 0.  0.
     999903    2    3    3    0    0  0.12991062838E+00 -0.40035376132E-02 -0.73636697061E-02  0.13182184242E+00  0.20735834402E-01 0.  0.
         14    1    1    2    0    0 -0.12085355233E-01 -0.20404531816E-01  0.30419533294E-02  0.23909291286E-01  0.00000000000E+00 0. -1.
     999901    1    3    3    0    0 -0.11782527315E+00  0.24408069429E-01  0.43217163767E-02  0.88819886629E+00  0.88000000000E+00 0.  1.
        -11    1    4    4    0    0  0.68397257732E-01 -0.42293967153E-02  0.62609093806E-02  0.68815207397E-01  0.51100000000E-03 0. -1.
         11    1    4    4    0    0  0.61513370651E-01  0.22585910210E-03 -0.13624579087E-01  0.63006635027E-01  0.51100000000E-03 0.  1.
</event>
<event>
 8    1  0.9952977E+004  0.1043930E+01  0.7957747E-01            NaN
         13   -1    0    0    0    0  0.00000000000E+00  0.00000000000E+00  0.74505805969E-08  0.10566000000E+00  0.10566000000E+00 0. -1.
     999900   -1    0    0    0    0 -0.00000000000E+00 -0.00000000000E+00 -0.74505805969E-08  0.93827000000E+00  0.93827000000E+00 0.  1.
     999902    2    1    2    0    0 -0.12273591630E-01 -0.12788266871E-01  0.93662905356E-02  0.10238823513E+01  0.10236860657E+01 0.  0.
     999903    2    3    3    0    0  0.68210921483E-01  0.11020351562E+00 -0.15320167312E-01  0.13134991118E+00  0.14850824104E-01 0.  0.
         14    1    1    2    0    0  0.12273591630E-01  0.12788266871E-01 -0.93662905356E-02  0.20047648727E-01  0.00000000000E+00 0.  1.
     999901    1    3    3    0    0 -0.80484513113E-01 -0.12299178249E+00  0.24686457847E-01  0.89253244009E+00  0.88000000000E+00 0. -1.
        -11    1    4    4    0    0  0.44580192480E-01  0.64548007155E-01 -0.15366048396E-01  0.79938822568E-01  0.51100000000E-03 0. -1.
         11    1    4    4    0    0  0.23630729003E-01  0.45655508467E-01  0.45881084858E-04  0.51411088616E-01  0.51100000000E-03 0.  1.
</event>
<event>
 8    1  0.9952977E+004  0.1043930E+01  0.7957747E-01            NaN
         13   -1    0    0    0    0  0.00000000000E+00  0.00000000000E+00  0.74505805969E-08  0.10566000000E+00  0.10566000000E+00 0.  1.
     999900   -1    0    0    0    0 -0.00000000000E+00 -0.00000000000E+00 -0.74505805969E-08  0.93827000000E+00  0.93827000000E+00 0.  1.
     999902    2    1    2    0    0 -0.18512515092E-01 -0.88377370340E-02  0.10347836891E-02  0.10233900490E+01  0.10231839047E+01 0.  0.
     999903    2    3    3    0    0 -0.12702536868E+00  0.14362497470E-01  0.40186676519E-01  0.13555776696E+00  0.20474706141E-01 0.  0.
         14    1    1    2    0    0  0.18512515092E-01  0.88377370340E-02 -0.10347836891E-02  0.20539951027E-01  0.00000000000E+00 0. -1.
     999901    1    3    3    0    0  0.10851285359E+00 -0.23200234504E-01 -0.39151892830E-01  0.88783228201E+00  0.88000000000E+00 0. -1.
        -11    1    4    4    0    0 -0.26308178997E-01 -0.52907324297E-02  0.88720429427E-02  0.28268116293E-01  0.51100000000E-03 0.  1.
         11    1    4    4    0    0 -0.10071718968E+00  0.19653229900E-01  0.31314633576E-01  0.10728965067E+00  0.51100000000E-03 0. -1.
</event>
<event>
 8    1  0.9952977E+004  0.1043930E+01  0.7957747E-01            NaN
         13   -1    0    0    0    0  0.00000000000E+00  0.00000000000E+00  0.74505805969E-08  0.10566000000E+00  0.10566000000E+00 0.  1.
     999900   -1    0    0    0    0 -0.00000000000E+00 -0.00000000000E+00 -0.74505805969E-08  0.93827000000E+00  0.93827000000E+00 0.  1.
     999902    2    1    2    0    0  0.78816647600E-02 -0.17209679949E-01  0.14502715345E-01  0.10200841937E+01  0.10198054422E+01 0.  0.
     999903    2    3    3    0    0  0.58065968066E-01 -0.11414246938E+00  0.30453758637E-01  0.13319701617E+00  0.20343395435E-01 0.  0.
         14    1    1    2    0    0 -0.78816647600E-02  0.17209679949E-01 -0.14502715345E-01  0.23845806250E-01  0.00000000000E+00 0. -1.
     999901    1    3    3    0    0 -0.50184303306E-01  0.96932789436E-01 -0.15951043292E-01  0.88688717758E+00  0.88000000000E+00 0. -1.
        -11    1    4    4    0    0  0.26534334558E-01 -0.38256680377E-01  0.18732218783E-01  0.50187664275E-01  0.51100000000E-03 0. -1.
         11    1    4    4    0    0  0.31531633508E-01 -0.75885789008E-01  0.11721539854E-01  0.83009351899E-01  0.51100000000E-03 0.  1.
</event>
<event>
 8    1  0.9952977E+004  0.1043930E+01  0.7957747E-01            NaN
         13   -1    0    0    0    0  0.00000000000E+00  0.00000000000E+00  0.74505805969E-08  0.10566000000E+00  0.10566000000E+00 0. -1.
     999900   -1    0    0    0    0 -0.00000000000E+00 -0.00000000000E+00 -0.74505805969E-08  0.93827000000E+00  0.93827000000E+00 0. -1.
     999902    2    1    2    0    0  0.12062917573E-01 -0.18715987158E-01  0.10537366538E-01  0.10192959129E+01  0.10189981942E+01 0.  0.
     999903    2    3    3    0    0 -0.12305438553E+00  0.24250738866E-01 -0.12633584179E-01  0.12764591533E+00  0.20084623873E-01 0.  0.
         14    1    1    2    0    0 -0.12062917573E-01  0.18715987158E-01 -0.10537366538E-01  0.24634087140E-01  0.00000000000E+00 0. -1.
     999901    1    3    3    0    0  0.13511730311E+00 -0.42966726025E-01  0.23170950717E-01  0.89164999753E+00  0.88000000000E+00 0.  1.
        -11    1    4    4    0    0 -0.60866734910E-01  0.10015418654E-01 -0.16099614584E-01  0.63753640995E-01  0.51100000000E-03 0.  1.
         11    1    4    4    0    0 -0.62187650622E-01  0.14235320213E-01  0.34660304046E-02  0.63892274332E-01  0.51100000000E-03 0. -1.
</event>
<event>
 8    1  0.9952977E+004  0.1043930E+01  0.7957747E-01            NaN
         13   -1    0    0    0    0  0.00000000000E+00  0.00000000000E+00  0.74505805969E-08  0.10566000000E+00  0.10566000000E+00 0.  1.
     999900   -1    0    0    0    0 -0.00000000000E+00 -0.00000000000E+00 -0.74505805969E-08  0.93827000000E+00  0.93827000000E+00 0. -1.
     999902    2    1    2    0    0  0.34246886730E-02  0.18883413959E-01 -0.13285380167E-01  0.10205887674E+01  0.10203218212E+01 0.  0.
     999903    2    3    3    0    0 -0.78137602255E-01  0.57921120572E-01 -0.88193472475E-01  0.13278948140E+00  0.19864961365E-01 0.  0.
         14    1    1    2    0    0 -0.34246886730E-02 -0.18883413959E-01  0.13285380167E-01  0.23341232646E-01  0.00000000000E+00 0.  1.
     999901    1    3    3    0    0  0.81562290928E-01 -0.39037706614E-01  0.74908092308E-01  0.88779928595E+00  0.88000000000E+00 0. -1.
        -11    1    4    4    0    0 -0.15218033632E-01  0.15622130130E-01 -0.30587170450E-01  0.37569610253E-01  0.51100000000E-03 0.  1.
         11    1    4    4    0    0 -0.62919568624E-01  0.42298990442E-01 -0.57606302025E-01  0.95219871152E-01  0.51100000000E-03 0. -1.
</event>
<event>
 8    1  0.9952977E+004  0.1043930E+01  0.7957747E-01            NaN
         13   -1    0    0    0    0  0.00000000000E+00  0.00000000000E+00  0.74505805969E-08  0.10566000000E+00  0.10566000000E+00 0. -1.
     999900   -1    0    0    0    0 -0.00000000000E+00 -0.00000000000E+00 -0.74505805969E-08  0.93827000000E+00  0.93827000000E+00 0. -1.
     999902    2    1    2    0    0  0.11786491558E-01  0.82424169147E-02  0.11481898201E-01  0.10255263915E+01  0.10253612470E+01 0.  0.
     999903    2    3    3    0    0  0.51593421423E-01  0.21608779715E-01  0.12377482607E+00  0.13739748589E+00  0.20713306452E-01 0.  0.
         14    1    1    2    0    0 -0.11786491558E-01 -0.82424169147E-02 -0.11481898201E-01  0.18403608508E-01  0.00000000000E+00 0.  1.
     999901    1    3    3    0    0 -0.39806929865E-01 -0.13366362800E-01 -0.11229292787E+00  0.88812890560E+00  0.88000000000E+00 0. -1.
        -11    1    4    4    0    0 -0.33467659545E-03  0.10257061401E-02  0.15648179331E-01  0.15693652185E-01  0.51100000000E-03 0.  1.
         11    1    4    4    0    0  0.51928098019E-01  0.20583073575E-01  0.10812664674E+00  0.12170383370E+00  0.51100000000E-03 0. -1.
</event>
<event>
 8    1  0.9952977E+004  0.1043930E+01  0.7957747E-01            NaN
         13   -1    0    0    0    0  0.00000000000E+00  0.00000000000E+00  0.74505805969E-08  0.10566000000E+00  0.10566000000E+00 0. -1.
     999900   -1    0    0    0    0 -0.00000000000E+00 -0.00000000000E+00 -0.74505805969E-08  0.93827000000E+00  0.93827000000E+00 0.  1.
     999902    2    1    2    0    0  0.52304725951E-02  0.36869390715E-01  0.41009973168E-02  0.10064663110E+01  0.10057688140E+01 0.  0.
     999903    2    3    3    0    0 -0.82752023365E-02  0.11661662505E+00  0.30446465213E-01  0.12236444564E+00  0.19446184738E-01 0.  0.
         14    1    1    2    0    0 -0.52304725951E-02 -0.36869390715E-01 -0.41009973168E-02  0.37463689010E-01  0.00000000000E+00 0.  1.
     999901    1    3    3    0    0  0.13505674932E-01 -0.79747234334E-01 -0.26345467896E-01  0.88410186535E+00  0.88000000000E+00 0.  1.
        -11    1    4    4    0    0 -0.69817208271E-02  0.79572735747E-01  0.11405539607E-01  0.80690223414E-01  0.51100000000E-03 0.  1.
         11    1    4    4    0    0 -0.12934815094E-02  0.37043889302E-01  0.19040925605E-01  0.41674222224E-01  0.51100000000E-03 0. -1.
</event>
<event>
 8    1  0.9952977E+004  0.1043930E+01  0.7957747E-01            NaN
         13   -1    0    0    0    0  0.00000000000E+00  0.00000000000E+00  0.74505805969E-08  0.10566000000E+00  0.10566000000E+00 0.  1.
     999900   -1    0    0    0    0 -0.00000000000E+00 -0.00000000000E+00 -0.74505805969E-08  0.93827000000E+00  0.93827000000E+00 0.  1.
     999902    2    1    2    0    0  0.19285651160E-01 -0.10288156046E-01 -0.10643694716E-01  0.10196180537E+01  0.10193281634E+01 0.  0.
     999903    2    3    3    0    0 -0.69300321120E-01  0.58594403375E-02  0.10493071603E+00  0.12750502063E+00  0.20253581730E-01 0.  0.
         14    1    1    2    0    0 -0.19285651160E-01  0.10288156046E-01  0.10643694716E-01  0.24311946296E-01  0.00000000000E+00 0.  1.
     999901    1    3    3    0    0  0.88585972280E-01 -0.16147596384E-01 -0.11557441074E+00  0.89211303307E+00  0.88000000000E+00 0.  1.
        -11    1    4    4    0    0 -0.41854806166E-01 -0.47432140486E-02  0.51774408240E-01  0.66747084942E-01  0.51100000000E-03 0. -1.
         11    1    4    4    0    0 -0.27445514954E-01  0.10602654386E-01  0.53156307786E-01  0.60757935692E-01  0.51100000000E-03 0.  1.
</event>
<event>
 8    1  0.9952977E+004  0.1043930E+01  0.7957747E-01            NaN
         13   -1    0    0    0    0  0.00000000000E+00  0.00000000000E+00  0.74505805969E-08  0.10566000000E+00  0.10566000000E+00 0.  1.
     999900   -1    0    0    0    0 -0.00000000000E+00 -0.00000000000E+00 -0.74505805969E-08  0.93827000000E+00  0.93827000000E+00 0. -1.
     999902    2    1    2    0    0  0.15977426299E-01  0.14710977857E-01 -0.47997190295E-02  0.10216875109E+01  0.10214453688E+01 0.  0.
     999903    2    3    3    0    0  0.50290409457E-01  0.10213983680E+00  0.67335897475E-01  0.13375466803E+00  0.19862441635E-01 0.  0.
         14    1    1    2    0    0 -0.15977426299E-01 -0.14710977857E-01  0.47997190295E-02  0.22242489146E-01  0.00000000000E+00 0.  1.
     999901    1    3    3    0    0 -0.34312983158E-01 -0.87428858941E-01 -0.72135616504E-01  0.88793284282E+00  0.88000000000E+00 0. -1.
        -11    1    4    4    0    0  0.40796020535E-01  0.66159464686E-01  0.38898963119E-01  0.86918240386E-01  0.51100000000E-03 0.  1.
         11    1    4    4    0    0  0.94943889228E-02  0.35980372112E-01  0.28436934355E-01  0.46836427649E-01  0.51100000000E-03 0. -1.
</event>
<event>
 8    1  0.9952977E+004  0.1043930E+01  0.7957747E-01            NaN
         13   -1    0    0    0    0  0.00000000000E+00  0.00000000000E+00  0.74505805969E-08  0.10566000000E+00  0.10566000000E+00 0.  1.
     999900   -1    0    0    0    0 -0.00000000000E+00 -0.00000000000E+00 -0.74505805969E-08  0.93827000000E+00  0.93827000000E+00 0. -1.
     999902    2    1    2    0    0 -0.12033256868E-01 -0.93139569891E-02  0.15183828347E-01  0.10224335419E+01  0.10222075376E+01 0.  0.
     999903    2    3    3    0    0 -0.12671766655E+00  0.37894772431E-01  0.33407597492E-02  0.13365829689E+00  0.18973635864E-01 0.  0.
         14    1    1    2    0    0  0.12033256868E-01  0.93139569891E-02 -0.15183828347E-01  0.21496458055E-01  0.00000000000E+00 0. -1.
     999901    1    3    3    0    0  0.11468440968E+00 -0.47208729420E-01  0.11843068598E-01  0.88877524506E+00  0.88000000000E+00 0. -1.
        -11    1    4    4    0    0 -0.77350474717E-01  0.25654114021E-01  0.10949731694E-01  0.82227655021E-01  0.51100000000E-03 0.  1.
         11    1    4    4    0    0 -0.49367191830E-01  0.12240658410E-01 -0.76089719449E-02  0.51430641864E-01  0.51100000000E-03 0. -1.
</event>
<event>
 8    1  0.9952977E+004  0.1043930E+01  0.7957747E-01            NaN
         13   -1    0    0    0    0  0.00000000000E+00  0.00000000000E+00  0.74505805969E-08  0.10566000000E+00  0.10566000000E+00 0.  1.
     999900   -1    0    0    0    0 -0.00000000000E+00 -0.00000000000E+00 -0.74505805969E-08  0.93827000000E+00  0.93827000000E+00 0. -1.
     999902    2    1    2    0    0 -0.14353870586E-01 -0.18978989351E-01  0.60810504616E-02  0.10193695682E+01  0.10190736488E+01 0.  0.
     999903    2    3    3    0    0  0.47952588819E-01  0.58114511177E-01 -0.10047727970E+00  0.12741655346E+00  0.21506909912E-01 0.  0.
         14    1    1    2    0    0  0.14353870586E-01  0.18978989351E-01 -0.60810504616E-02  0.24560431843E-01  0.00000000000E+00 0. -1.
     999901    1    3    3    0    0 -0.62306459405E-01 -0.77093500529E-01  0.10655833017E+00  0.89195301470E+00  0.88000000000E+00 0.  1.
        -11    1    4    4    0    0  0.24713765594E-01  0.15307452961E-01 -0.30327644319E-01  0.42013277150E-01  0.51100000000E-03 0.  1.
         11    1    4    4    0    0  0.23238823226E-01  0.42807058217E-01 -0.70149635385E-01  0.85403276305E-01  0.51100000000E-03 0. -1.
</event>
<event>
 8    1  0.9952977E+004  0.1043930E+01  0.7957747E-01            NaN
         13   -1    0    0    0    0  0.00000000000E+00  0.00000000000E+00  0.74505805969E-08  0.10566000000E+00  0.10566000000E+00 0. -1.
     999900   -1    0    0    0    0 -0.00000000000E+00 -0.00000000000E+00 -0.74505805969E-08  0.93827000000E+00  0.93827000000E+00 0.  1.
     999902    2    1    2    0    0 -0.88364176592E-02 -0.14629022100E-01 -0.15223621749E-01  0.10210422473E+01  0.10207856884E+01 0.  0.
     999903    2    3    3    0    0  0.22081703368E-01 -0.11487845257E+00  0.56605501577E-01  0.13190485551E+00  0.22584233670E-01 0.  0.
         14    1    1    2    0    0  0.88364176592E-02  0.14629022100E-01  0.15223621749E-01  0.22887752703E-01  0.00000000000E+00 0. -1.
     999901    1    3    3    0    0 -0.30918121027E-01  0.10024943047E+00 -0.71829123327E-01  0.88913739179E+00  0.88000000000E+00 0.  1.
        -11    1    4    4    0    0  0.23434023448E-01 -0.90847711589E-01  0.36990605931E-01  0.10085150571E+00  0.51100000000E-03 0. -1.
         11    1    4    4    0    0 -0.13523200801E-02 -0.24030740977E-01  0.19614895646E-01  0.31053349799E-01  0.51100000000E-03 0.  1.
</event>
<event>
 8    1  0.9952977E+004  0.1043930E+01  0.7957747E-01            NaN
         13   -1    0    0    0    0  0.00000000000E+00  0.00000000000E+00  0.74505805969E-08  0.10566000000E+00  0.10566000000E+00 0. -1.
     999900   -1    0    0    0    0 -0.00000000000E+00 -0.00000000000E+00 -0.74505805969E-08  0.93827000000E+00  0.93827000000E+00 0. -1.
     999902    2    1    2    0    0 -0.10714620857E-01  0.96688273471E-02  0.16874812877E-01  0.10217253016E+01  0.10214839907E+01 0.  0.
     999903    2    3    3    0    0 -0.11809660713E+00  0.51392300711E-01  0.31720679355E-01  0.13409241634E+00  0.19662081110E-01 0.  0.
         14    1    1    2    0    0  0.10714620857E-01 -0.96688273471E-02 -0.16874812877E-01  0.22204698422E-01  0.00000000000E+00 0.  1.
     999901    1    3    3    0    0  0.10738198627E+00 -0.41723473364E-01 -0.14845866478E-01  0.88763288524E+00  0.88000000000E+00 0. -1.
        -11    1    4    4    0    0 -0.35163757706E-01  0.13624176249E-01  0.18505842707E-01  0.42009943701E-01  0.51100000000E-03 0.  1.
         11    1    4    4    0    0 -0.82932849422E-01  0.37768124462E-01  0.13214836648E-01  0.92082472639E-01  0.51100000000E-03 0. -1.
</event>
<event>
 8    1  0.9952977E+004  0.1043930E+01  0.7957747E-01            NaN
         13   -1    0    0    0    0  0.00000000000E+00  0.00000000000E+00  0.74505805969E-08  0.10566000000E+00  0.10566000000E+00 0. -1.
     999900   -1    0    0    0    0 -0.00000000000E+00 -0.00000000000E+00 -0.74505805969E-08  0.93827000000E+00  0.93827000000E+00 0.  1.
     999902    2    1    2    0    0 -0.22730031062E-01  0.27563412173E-02 -0.24090102994E-02  0.10209070753E+01  0.10206474423E+01 0.  0.
     999903    2    3    3    0    0  0.67620109720E-01 -0.10276933255E+00  0.34159517301E-01  0.12925912185E+00  0.20175059024E-01 0.  0.
         14    1    1    2    0    0  0.22730031062E-01 -0.27563412173E-02  0.24090102994E-02  0.23022924654E-01  0.00000000000E+00 0. -1.
     999901    1    3    3    0    0 -0.90350140783E-01  0.10552567377E+00 -0.36568527600E-01  0.89164795350E+00  0.88000000000E+00 0.  1.
        -11    1    4    4    0    0  0.15973946579E-01 -0.39990930344E-01  0.75653119221E-02  0.43725696616E-01  0.51100000000E-03 0.  1.
         11    1    4    4    0    0  0.51646163142E-01 -0.62778402211E-01  0.26594205379E-01  0.85533425233E-01  0.51100000000E-03 0. -1.
</event>
<event>
 8    1  0.9952977E+004  0.1043930E+01  0.7957747E-01            NaN
         13   -1    0    0    0    0  0.00000000000E+00  0.00000000000E+00  0.74505805969E-08  0.10566000000E+00  0.10566000000E+00 0.  1.
     999900   -1    0    0    0    0 -0.00000000000E+00 -0.00000000000E+00 -0.74505805969E-08  0.93827000000E+00  0.93827000000E+00 0.  1.
     999902    2    1    2    0    0  0.38330739570E-02  0.70895518399E-02  0.24298961196E-01  0.10183293415E+01  0.10180074921E+01 0.  0.
     999903    2    3    3    0    0 -0.12093178006E+00  0.39074139691E-01  0.37694448319E-02  0.12871664840E+00  0.20061979936E-01 0.  0.
         14    1    1    2    0    0 -0.38330739570E-02 -0.70895518399E-02 -0.24298961196E-01  0.25600658516E-01  0.00000000000E+00 0. -1.
     999901    1    3    3    0    0  0.12476485402E+00 -0.31984587851E-01  0.20529516364E-01  0.88961269309E+00  0.88000000000E+00 0.  1.
        -11    1    4    4    0    0 -0.22874711157E-01  0.12375261302E-01  0.73314038000E-02  0.27026100449E-01  0.51100000000E-03 0.  1.
         11    1    4    4    0    0 -0.98057068904E-01  0.26698878389E-01 -0.35619589681E-02  0.10169054795E+00  0.51100000000E-03 0. -1.
</event>
<event>
 8    1  0.9952977E+004  0.1043930E+01  0.7957747E-01            NaN
         13   -1    0    0    0    0  0.00000000000E+00  0.00000000000E+00  0.74505805969E-08  0.10566000000E+00  0.10566000000E+00 0.  1.
     999900   -1    0    0    0    0 -0.00000000000E+00 -0.00000000000E+00 -0.74505805969E-08  0.93827000000E+00  0.93827000000E+00 0. -1.
     999902    2    1    2    0    0 -0.20291176405E-01 -0.12140157618E-01  0.56227897570E-03  0.10202776973E+01  0.10200035040E+01 0.  0.
     999903    2    3    3    0    0  0.44871363811E-01  0.10744934448E+00 -0.50397143909E-01  0.12834458966E+00  0.19330304222E-01 0.  0.
         14    1    1    2    0    0  0.20291176405E-01  0.12140157618E-01 -0.56227897570E-03  0.23652302733E-01  0.00000000000E+00 0.  1.
     999901    1    3    3    0    0 -0.65162540216E-01 -0.11958950210E+00  0.50959422885E-01  0.89193310760E+00  0.88000000000E+00 0. -1.
        -11    1    4    4    0    0  0.30984094061E-01  0.52146437784E-01 -0.30940583532E-01  0.68094389553E-01  0.51100000000E-03 0. -1.
         11    1    4    4    0    0  0.13887269750E-01  0.55302906699E-01 -0.19456560377E-01  0.60250200109E-01  0.51100000000E-03 0.  1.
</event>
<event>
 8    1  0.9952977E+004  0.1043930E+01  0.7957747E-01            NaN
         13   -1    0    0    0    0  0.00000000000E+00  0.00000000000E+00  0.74505805969E-08  0.10566000000E+00  0.10566000000E+00 0.  1.
     999900   -1    0    0    0    0 -0.00000000000E+00 -0.00000000000E+00 -0.74505805969E-08  0.93827000000E+00  0.93827000000E+00 0. -1.
     999902    2    1    2    0    0  0.90382864489E-02  0.25631401835E-02 -0.21544154112E-01  0.10204265771E+01  0.10201558648E+01 0.  0.
     999903    2    3    3    0    0  0.65418394998E-01 -0.10984578310E+00  0.16875013175E-01  0.13065665459E+00  0.20993638273E-01 0.  0.
         14    1    1    2    0    0 -0.90382864489E-02 -0.25631401835E-02  0.21544154112E-01  0.23503422856E-01  0.00000000000E+00 0.  1.
     999901    1    3    3    0    0 -0.56380108550E-01  0.11240892329E+00 -0.38419167287E-01  0.88976992256E+00  0.88000000000E+00 0.  1.
        -11    1    4    4    0    0  0.12646064189E-01 -0.37204588345E-01  0.10312328767E-01  0.40628925398E-01  0.51100000000E-03 0.  1.
         11    1    4    4    0    0  0.52772330809E-01 -0.72641194759E-01  0.65626844078E-02  0.90027729188E-01  0.51100000000E-03 0. -1.
</event>
<event>
 8    1  0.9952977E+004  0.1043930E+01  0.7957747E-01            NaN
         13   -1    0    0    0    0  0.00000000000E+00  0.00000000000E+00  0.74505805969E-08  0.10566000000E+00  0.10566000000E+00 0.  1.
     999900   -1    0    0    0    0 -0.00000000000E+00 -0.00000000000E+00 -0.74505805969E-08  0.93827000000E+00  0.93827000000E+00 0. -1.
     999902    2    1    2    0    0  0.20129895543E-01 -0.14120887471E-01 -0.12487623141E-01  0.10163518766E+01  0.10159776495E+01 0.  0.
     999903    2    3    3    0    0 -0.12045153600E+00  0.13390026930E-02  0.23503484153E-01  0.12433309492E+00  0.19898222818E-01 0.  0.
         14    1    1    2    0    0 -0.20129895543E-01  0.14120887471E-01  0.12487623141E-01  0.27578123382E-01  0.00000000000E+00 0.  1.
     999901    1    3    3    0    0  0.14058143155E+00 -0.15459890164E-01 -0.35991107295E-01  0.89201878170E+00  0.88000000000E+00 0. -1.
        -11    1    4    4    0    0 -0.50105489764E-01  0.10332587750E-01  0.91223455400E-02  0.51969229197E-01  0.51100000000E-03 0. -1.
         11    1    4    4    0    0 -0.70346046238E-01 -0.89935850573E-02  0.14381138613E-01  0.72363865723E-01  0.51100000000E-03 0.  1.
</event>
<event>
 8    1  0.9952977E+004  0.1043930E+01  0.7957747E-01            NaN
         13   -1    0    0    0    0  0.00000000000E+00  0.00000000000E+00  0.74505805969E-08  0.10566000000E+00  0.10566000000E+00 0.  1.
     999900   -1    0    0    0    0 -0.00000000000E+00 -0.00000000000E+00 -0.74505805969E-08  0.93827000000E+00  0.93827000000E+00 0.  1.
     999902    2    1    2    0    0  0.92206213061E-02 -0.22645178652E-01  0.54890955716E-02  0.10188709868E+01  0.10185627784E+01 0.  0.
     999903    2    3    3    0    0  0.97077403693E-01  0.65104264242E-01  0.50637950876E-01  0.12900740281E+00  0.20399028905E-01 0.  0.
         14    1    1    2    0    0 -0.92206213061E-02  0.22645178652E-01 -0.54890955716E-02  0.25059013221E-01  0.00000000000E+00 0. -1.
     999901    1    3    3    0    0 -0.87856782387E-01 -0.87749442894E-01 -0.45148855305E-01  0.88986358397E+00  0.88000000000E+00 0.  1.
        -11    1    4    4    0    0  0.13910776964E-01  0.11761363912E-01  0.55010528783E-03  0.18231926219E-01  0.51100000000E-03 0. -1.
         11    1    4    4    0    0  0.83166626730E-01  0.53342900330E-01  0.50087845588E-01  0.11077547659E+00  0.51100000000E-03 0.  1.
</event>
<event>
 8    1  0.9952977E+004  0.1043930E+01  0.7957747E-01            NaN
         13   -1    0    0    0    0  0.00000000000E+00  0.00000000000E+00  0.74505805969E-08  0.10566000000E+00  0.10566000000E+00 0.  1.
     999900   -1    0    0    0    0 -0.00000000000E+00 -0.00000000000E+00 -0.74505805969E-08  0.93827000000E+00  0.93827000000E+00 0.  1.
     999902    2    1    2    0    0 -0.54894380176E-02  0.23038704129E-01  0.76114594198E-02  0.10190533014E+01  0.10187496164E+01 0.  0.
     999903    2    3    3    0    0 -0.82617447609E-01  0.50868968629E-01 -0.85633783967E-01  0.13033628859E+00  0.15527670386E-01 0.  0.
         14    1    1    2    0    0  0.54894380176E-02 -0.23038704129E-01 -0.76114594198E-02  0.24876698579E-01  0.00000000000E+00 0. -1.
     999901    1    3    3    0    0  0.77128009591E-01 -0.27830264500E-01  0.93245243386E-01  0.88871701283E+00  0.88000000000E+00 0. -1.
        -11    1    4    4    0    0 -0.27984767733E-01  0.98443283948E-02 -0.21631236309E-01  0.36718245218E-01  0.51100000000E-03 0.  1.
         11    1    4    4    0    0 -0.54632679876E-01  0.41024640234E-01 -0.64002547658E-01  0.93618043370E-01  0.51100000000E-03 0. -1.
</event>
<event>
 8    1  0.9952977E+004  0.1043930E+01  0.7957747E-01            NaN
         13   -1    0    0    0    0  0.00000000000E+00  0.00000000000E+00  0.74505805969E-08  0.10566000000E+00  0.10566000000E+00 0.  1.
     999900   -1    0    0    0    0 -0.00000000000E+00 -0.00000000000E+00 -0.74505805969E-08  0.93827000000E+00  0.93827000000E+00 0.  1.
     999902    2    1    2    0    0 -0.11599397978E-01 -0.86038157871E-02 -0.16581087070E-01  0.10219412727E+01  0.10217046837E+01 0.  0.
     999903    2    3    3    0    0 -0.85822217852E-01  0.57112693265E-01  0.78723879538E-01  0.13126135084E+00  0.20119150240E-01 0.  0.
         14    1    1    2    0    0  0.11599397978E-01  0.86038157871E-02  0.16581087070E-01  0.21988727293E-01  0.00000000000E+00 0.  1.
     999901    1    3    3    0    0  0.74222819874E-01 -0.65716509053E-01 -0.95304966608E-01  0.89067992186E+00  0.88000000000E+00 0.  1.
        -11    1    4    4    0    0 -0.55232477510E-01  0.24937723395E-01  0.43835509680E-01  0.74795251520E-01  0.51100000000E-03 0.  1.
         11    1    4    4    0    0 -0.30589740343E-01  0.32174969870E-01  0.34888369858E-01  0.56466099323E-01  0.51100000000E-03 0. -1.
</event>
<event>
 8    1  0.9952977E+004  0.1043930E+01  0.7957747E-01            NaN
         13   -1    0    0    0    0  0.00000000000E+00  0.00000000000E+00  0.74505805969E-08  0.10566000000E+00  0.10566000000E+00 0. -1.
     999900   -1    0    0    0    0 -0.00000000000E+00 -0.00000000000E+00 -0.74505805969E-08  0.93827000000E+00  0.93827000000E+00 0.  1.
     999902    2    1    2    0    0 -0.33156023940E-03  0.22331131568E-01 -0.84686642294E-02  0.10200446982E+01  0.10197650115E+01 0.  0.
     999903    2    3    3    0    0 -0.96359264599E-01 -0.51658501805E-01 -0.67389325828E-01  0.12978213566E+00  0.18664748029E-01 0.  0.
         14    1    1    2    0    0  0.33156023940E-03 -0.22331131568E-01  0.84686642294E-02  0.23885301822E-01  0.00000000000E+00 0. -1.
     999901    1    3    3    0    0  0.96027704360E-01  0.73989633373E-01  0.58920661599E-01  0.89026256251E+00  0.88000000000E+00 0.  1.
        -11    1    4    4    0    0 -0.16602415792E-01 -0.14973503727E-01 -0.20082309190E-01  0.30056717842E-01  0.51100000000E-03 0. -1.
         11    1    4    4    0    0 -0.79756848807E-01 -0.36684998078E-01 -0.47307016638E-01  0.99725417822E-01  0.51100000000E-03 0.  1.
</event>
<event>
 8    1  0.9952977E+004  0.1043930E+01  0.7957747E-01            NaN
         13   -1    0    0    0    0  0.00000000000E+00  0.00000000000E+00  0.74505805969E-08  0.10566000000E+00  0.10566000000E+00 0.  1.
     999900   -1    0    0    0    0 -0.00000000000E+00 -0.00000000000E+00 -0.74505805969E-08  0.93827000000E+00  0.93827000000E+00 0.  1.
     999902    2    1    2    0    0 -0.10372403307E-01 -0.17522190047E-01 -0.11588462405E-01  0.10205012494E+01  0.10202322744E+01 0.  0.
     999903    2    3    3    0    0 -0.11649314299E+00  0.56162191432E-01 -0.61515366656E-02  0.13105166699E+00  0.20294184077E-01 0.  0.
         14    1    1    2    0    0  0.10372403307E-01  0.17522190047E-01  0.11588462405E-01  0.23428750614E-01  0.00000000000E+00 0.  1.
     999901    1    3    3    0    0  0.10612073968E+00 -0.73684381480E-01 -0.54369257392E-02  0.88944958240E+00  0.88000000000E+00 0.  1.
        -11    1    4    4    0    0 -0.44237732600E-01  0.21206134696E-01  0.75001501864E-02  0.49630540075E-01  0.51100000000E-03 0. -1.
         11    1    4    4    0    0 -0.72255410389E-01  0.34956056736E-01 -0.13651686852E-01  0.81421126914E-01  0.51100000000E-03 0.  1.
</event>
<event>
 8    1  0.9952977E+004  0.1043930E+01  0.7957747E-01            NaN
         13   -1    0    0    0    0  0.00000000000E+00  0.00000000000E+00  0.74505805969E-08  0.10566000000E+00  0.10566000000E+00 0.  1.
     999900   -1    0    0    0    0 -0.00000000000E+00 -0.00000000000E+00 -0.74505805969E-08  0.93827000000E+00  0.93827000000E+00 0.  1.
     999902    2    1    2    0    0  0.78577131262E-02 -0.15245761160E-01 -0.10051130011E-01  0.10240503093E+01  0.10238573308E+01 0.  0.
     999903    2    3    3    0    0  0.92145896664E-02 -0.11773763735E+00  0.62486209807E-01  0.13513631373E+00  0.20254307238E-01 0.  0.
         14    1    1    2    0    0 -0.78577131262E-02  0.15245761160E-01  0.10051130011E-01  0.19879690728E-01  0.00000000000E+00 0.  1.
     999901    1    3    3    0    0 -0.13568765402E-02  0.10249187619E+00 -0.72537339818E-01  0.88891399554E+00  0.88000000000E+00 0.  1.
        -11    1    4    4    0    0  0.57466146039E-02 -0.58331025908E-01  0.42342242492E-01  0.72309465377E-01  0.51100000000E-03 0. -1.
         11    1    4    4    0    0  0.34679750624E-02 -0.59406611442E-01  0.20143967315E-01  0.62826848355E-01  0.51100000000E-03 0.  1.
</event>
<event>
 8    1  0.9952977E+004  0.1043930E+01  0.7957747E-01            NaN
         13   -1    0    0    0    0  0.00000000000E+00  0.00000000000E+00  0.74505805969E-08  0.10566000000E+00  0.10566000000E+00 0. -1.
     999900   -1    0    0    0    0 -0.00000000000E+00 -0.00000000000E+00 -0.74505805969E-08  0.93827000000E+00  0.93827000000E+00 0.  1.
     999902    2    1    2    0    0 -0.75617360576E-02  0.20498448097E-01 -0.67629275135E-02  0.10210585458E+01  0.10208023563E+01 0.  0.
     999903    2    3    3    0    0 -0.62281843639E-01  0.11643223090E+00 -0.11735057481E-01  0.13414124252E+00  0.20510215336E-01 0.  0.
         14    1    1    2    0    0  0.75617360576E-02 -0.20498448097E-01  0.67629275135E-02  0.22871454154E-01  0.00000000000E+00 0.  1.
     999901    1    3    3    0    0  0.54720107582E-01 -0.95933782799E-01  0.49721299675E-02  0.88691730332E+00  0.88000000000E+00 0.  1.
        -11    1    4    4    0    0 -0.54127454751E-02  0.68445776219E-02 -0.58836960371E-02  0.10536842813E-01  0.51100000000E-03 0.  1.
         11    1    4    4    0    0 -0.56869098164E-01  0.10958765327E+00 -0.58513614438E-02  0.12360439971E+00  0.51100000000E-03 0. -1.
</event>
<event>
 8    1  0.9952977E+004  0.1043930E+01  0.7957747E-01            NaN
         13   -1    0    0    0    0  0.00000000000E+00  0.00000000000E+00  0.74505805969E-08  0.10566000000E+00  0.10566000000E+00 0. -1.
     999900   -1    0    0    0    0 -0.00000000000E+00 -0.00000000000E+00 -0.74505805969E-08  0.93827000000E+00  0.93827000000E+00 0. -1.
     999902    2    1    2    0    0 -0.41420112897E-03  0.21147892994E-02  0.26450415537E-01  0.10173919447E+01  0.10170457712E+01 0.  0.
     999903    2    3    3    0    0  0.90137719642E-01 -0.26127577778E-01  0.88094745599E-01  0.13015054290E+00  0.19261900048E-01 0.  0.
         14    1    1    2    0    0  0.41420112897E-03 -0.21147892994E-02 -0.26450415537E-01  0.26538055288E-01  0.00000000000E+00 0.  1.
     999901    1    3    3    0    0 -0.90551920771E-01  0.28242367077E-01 -0.61644330061E-01  0.88724140181E+00  0.88000000000E+00 0. -1.
        -11    1    4    4    0    0  0.44683324603E-01 -0.22578303553E-01  0.42556871649E-01  0.65709418918E-01  0.51100000000E-03 0. -1.
         11    1    4    4    0    0  0.45454395039E-01 -0.35492742251E-02  0.45537873949E-01  0.64441123987E-01  0.51100000000E-03 0.  1.
</event>
<event>
 8    1  0.9952977E+004  0.1043930E+01  0.7957747E-01            NaN
         13   -1    0    0    0    0  0.00000000000E+00  0.00000000000E+00  0.74505805969E-08  0.10566000000E+00  0.10566000000E+00 0. -1.
     999900   -1    0    0    0    0 -0.00000000000E+00 -0.00000000000E+00 -0.74505805969E-08  0.93827000000E+00  0.93827000000E+00 0.  1.
     999902    2    1    2    0    0 -0.13438504445E-01  0.17979327618E-01  0.73025033893E-02  0.10203254204E+01  0.10200523454E+01 0.  0.
     999903    2    3    3    0    0 -0.10498834127E+00  0.46493178678E-01 -0.61895192319E-01  0.13241622828E+00  0.22778832555E-01 0.  0.
         14    1    1    2    0    0  0.13438504445E-01 -0.17979327618E-01 -0.73025033893E-02  0.23604579620E-01  0.00000000000E+00 0.  1.
     999901    1    3    3    0    0  0.91549836828E-01 -0.28513851061E-01  0.69197695708E-01  0.88790919210E+00  0.88000000000E+00 0. -1.
        -11    1    4    4    0    0 -0.44710400032E-01  0.29035088938E-01 -0.37033571182E-01  0.64913810365E-01  0.51100000000E-03 0.  1.
         11    1    4    4    0    0 -0.60277941241E-01  0.17458089740E-01 -0.24861621137E-01  0.67502417914E-01  0.51100000000E-03 0. -1.
</event>
<event>
 8    1  0.9952977E+004  0.1043930E+01  0.7957747E-01            NaN
         13   -1    0    0    0    0  0.00000000000E+00  0.00000000000E+00  0.74505805969E-08  0.10566000000E+00  0.10566000000E+00 0. -1.
     999900   -1    0    0    0    0 -0.00000000000E+00 -0.00000000000E+00 -0.74505805969E-08  0.93827000000E+00  0.93827000000E+00 0.  1.
     999902    2    1    2    0    0  0.47275588884E-02  0.18162780966E-02  0.22930645571E-01  0.10204467467E+01  0.10201765042E+01 0.  0.
     999903    2    3    3    0    0  0.12736809530E+00  0.20445676980E-01 -0.12671530021E-01  0.13103386700E+00  0.19200240108E-01 0.  0.
         14    1    1    2    0    0 -0.47275588884E-02 -0.18162780966E-02 -0.22930645571E-01  0.23483253298E-01  0.00000000000E+00 0.  1.
     999901    1    3    3    0    0 -0.12264053641E+00 -0.18629398884E-01  0.35602175592E-01  0.88941287970E+00  0.88000000000E+00 0. -1.
        -11    1    4    4    0    0  0.95112294258E-01  0.68539818233E-02 -0.76068550364E-02  0.95663216287E-01  0.51100000000E-03 0. -1.
         11    1    4    4    0    0  0.32255801042E-01  0.13591695157E-01 -0.50646749848E-02  0.35370650712E-01  0.51100000000E-03 0.  1.
</event>
<event>
 8    1  0.9952977E+004  0.1043930E+01  0.7957747E-01            NaN
         13   -1    0    0    0    0  0.00000000000E+00  0.00000000000E+00  0.74505805969E-08  0.10566000000E+00  0.10566000000E+00 0. -1.
     999900   -1    0    0    0    0 -0.00000000000E+00 -0.00000000000E+00 -0.74505805969E-08  0.93827000000E+00  0.93827000000E+00 0.  1.
     999902    2    1    2    0    0 -0.99109805167E-02  0.16251145048E-01 -0.12450392307E-01  0.10211849012E+01  0.10209315662E+01 0.  0.
     999903    2    3    3    0    0 -0.27741616098E-01 -0.66063690107E-01 -0.10889149674E+00  0.13191860236E+00  0.20276862966E-01 0.  0.
         14    1    1    2    0    0  0.99109805167E-02 -0.16251145048E-01  0.12450392307E-01  0.22745098785E-01  0.00000000000E+00 0. -1.
     999901    1    3    3    0    0  0.17830635581E-01  0.82314835155E-01  0.96441104436E-01  0.88926629885E+00  0.88000000000E+00 0. -1.
        -11    1    4    4    0    0 -0.23944920734E-01 -0.60631266463E-01 -0.10647295536E+00  0.12484494802E+00  0.51100000000E-03 0.  1.
         11    1    4    4    0    0 -0.37966953638E-02 -0.54324236444E-02 -0.24185413842E-02  0.70736543430E-02  0.51100000000E-03 0. -1.
</event>
<event>
 8    1  0.9952977E+004  0.1043930E+01  0.7957747E-01            NaN
         13   -1    0    0    0    0  0.00000000000E+00  0.00000000000E+00  0.74505805969E-08  0.10566000000E+00  0.10566000000E+00 0. -1.
     999900   -1    0    0    0    0 -0.00000000000E+00 -0.00000000000E+00 -0.74505805969E-08  0.93827000000E+00  0.93827000000E+00 0.  1.
     999902    2    1    2    0    0 -0.55304077802E-02 -0.12577930335E-01  0.18609537249E-01  0.10207976716E+01  0.10205355367E+01 0.  0.
     999903    2    3    3    0    0 -0.44228739227E-01  0.64708480725E-01  0.10456638369E+00  0.13239498718E+00  0.21235234445E-01 0.  0.
         14    1    1    2    0    0  0.55304077802E-02  0.12577930335E-01 -0.18609537249E-01  0.23132328425E-01  0.00000000000E+00 0.  1.
     999901    1    3    3    0    0  0.38698331446E-01 -0.77286411060E-01 -0.85956846437E-01  0.88840268440E+00  0.88000000000E+00 0.  1.
        -11    1    4    4    0    0 -0.12524450308E-01  0.37056974613E-01  0.51612019853E-01  0.64762202999E-01  0.51100000000E-03 0.  1.
         11    1    4    4    0    0 -0.31704288919E-01  0.27651506112E-01  0.52954363834E-01  0.67632784181E-01  0.51100000000E-03 0. -1.
</event>
<event>
 8    1  0.9952977E+004  0.1043930E+01  0.7957747E-01            NaN
         13   -1    0    0    0    0  0.00000000000E+00  0.00000000000E+00  0.74505805969E-08  0.10566000000E+00  0.10566000000E+00 0. -1.
     999900   -1    0    0    0    0 -0.00000000000E+00 -0.00000000000E+00 -0.74505805969E-08  0.93827000000E+00  0.93827000000E+00 0.  1.
     999902    2    1    2    0    0 -0.16234629904E-02 -0.20048595838E-01 -0.13018467489E-01  0.10199704023E+01  0.10196889522E+01 0.  0.
     999903    2    3    3    0    0  0.27453125359E-01  0.11016999715E+00  0.54159046233E-01  0.12738138806E+00  0.20042788533E-01 0.  0.
         14    1    1    2    0    0  0.16234629904E-02  0.20048595838E-01  0.13018467489E-01  0.23959597720E-01  0.00000000000E+00 0. -1.
     999901    1    3    3    0    0 -0.29076588349E-01 -0.13021859299E+00 -0.67177513722E-01  0.89258901422E+00  0.88000000000E+00 0. -1.
        -11    1    4    4    0    0  0.19245478745E-01  0.72970077605E-01  0.25328240418E-01  0.79604029807E-01  0.51100000000E-03 0.  1.
         11    1    4    4    0    0  0.82076466136E-02  0.37199919545E-01  0.28830805815E-01  0.47777358257E-01  0.51100000000E-03 0. -1.
</event>
<event>
 8    1  0.9952977E+004  0.1043930E+01  0.7957747E-01            NaN
         13   -1    0    0    0    0  0.00000000000E+00  0.00000000000E+00  0.74505805969E-08  0.10566000000E+00  0.10566000000E+00 0.  1.
     999900   -1    0    0    0    0 -0.00000000000E+00 -0.00000000000E+00 -0.74505805969E-08  0.93827000000E+00  0.93827000000E+00 0. -1.
     999902    2    1    2    0    0  0.13135096802E-01 -0.13674088937E-01  0.11947925824E-01  0.10215187437E+01  0.10212728721E+01 0.  0.
     999903    2    3    3    0    0 -0.79547651135E-01  0.98474780361E-01 -0.10502517827E-01  0.12929036317E+00  0.24095309913E-01 0.  0.
         14    1    1    2    0    0 -0.13135096802E-01  0.13674088937E-01 -0.11947925824E-01  0.22411256273E-01  0.00000000000E+00 0. -1.
     999901    1    3    3    0    0  0.92682747937E-01 -0.11214886930E+00  0.22450443652E-01  0.89222838056E+00  0.88000000000E+00 0.  1.
        -11    1    4    4    0    0 -0.28694300534E-01  0.47552849867E-01 -0.13857243152E-01  0.57244394681E-01  0.51100000000E-03 0. -1.
         11    1    4    4    0    0 -0.50853350602E-01  0.50921930494E-01  0.33547253248E-02  0.72045968490E-01  0.51100000000E-03 0.  1.
</event>
<event>
 8    1  0.9952977E+004  0.1043930E+01  0.7957747E-01            NaN
         13   -1    0    0    0    0  0.00000000000E+00  0.00000000000E+00  0.74505805969E-08  0.10566000000E+00  0.10566000000E+00 0. -1.
     999900   -1    0    0    0    0 -0.00000000000E+00 -0.00000000000E+00 -0.74505805969E-08  0.93827000000E+00  0.93827000000E+00 0.  1.
     999902    2    1    2    0    0  0.21649855074E-01 -0.72621172014E-02 -0.17165084506E-02  0.10210301971E+01  0.10207733649E+01 0.  0.
     999903    2    3    3    0    0 -0.42523727881E-01  0.11992840006E+00  0.12586921638E-01  0.12945840273E+00  0.20247441022E-01 0.  0.
         14    1    1    2    0    0 -0.21649855074E-01  0.72621172014E-02  0.17165084506E-02  0.22899802887E-01  0.00000000000E+00 0.  1.
     999901    1    3    3    0    0  0.64173582955E-01 -0.12719051726E+00 -0.14303430088E-01  0.89157179438E+00  0.88000000000E+00 0.  1.
        -11    1    4    4    0    0 -0.87446722511E-02  0.40440483483E-01 -0.37860072938E-02  0.41551136800E-01  0.51100000000E-03 0. -1.
         11    1    4    4    0    0 -0.33779055630E-01  0.79487916573E-01  0.16372928932E-01  0.87907265929E-01  0.51100000000E-03 0.  1.
</event>
<event>
 8    1  0.9952977E+004  0.1043930E+01  0.7957747E-01            NaN
         13   -1    0    0    0    0  0.00000000000E+00  0.00000000000E+00  0.74505805969E-08  0.10566000000E+00  0.10566000000E+00 0.  1.
     999900   -1    0    0    0    0 -0.00000000000E+00 -0.00000000000E+00 -0.74505805969E-08  0.93827000000E+00  0.93827000000E+00 0. -1.
     999902    2    1    2    0    0 -0.88874277485E-03  0.21906505007E-01 -0.97436403806E-02  0.10199378481E+01  0.10196556235E+01 0.  0.
     999903    2    3    3    0    0 -0.47669449669E-01  0.10173264867E+00  0.66123552659E-01  0.13184073700E+00  0.19691304675E-01 0.  0.
         14    1    1    2    0    0  0.88874277485E-03 -0.21906505007E-01  0.97436403806E-02  0.23992151908E-01  0.00000000000E+00 0.  1.
     999901    1    3    3    0    0  0.46780706894E-01 -0.79826143661E-01 -0.75867193040E-01  0.88809711109E+00  0.88000000000E+00 0. -1.
        -11    1    4    4    0    0 -0.39097099458E-01  0.61218096446E-01  0.41479251269E-01  0.83648239224E-01  0.51100000000E-03 0.  1.
         11    1    4    4    0    0 -0.85723502111E-02  0.40514552222E-01  0.24644301390E-01  0.48192497776E-01  0.51100000000E-03 0. -1.
</event>
<event>
 8    1  0.9952977E+004  0.1043930E+01  0.7957747E-01            NaN
         13   -1    0    0    0    0  0.00000000000E+00  0.00000000000E+00  0.74505805969E-08  0.10566000000E+00  0.10566000000E+00 0.  1.
     999900   -1    0    0    0    0 -0.00000000000E+00 -0.00000000000E+00 -0.74505805969E-08  0.93827000000E+00  0.93827000000E+00 0.  1.
     999902    2    1    2    0    0  0.38164212512E-02 -0.19113968190E-01 -0.13015000367E-01  0.10204928695E+01  0.10202236998E+01 0.  0.
     999903    2    3    3    0    0 -0.84850862335E-01  0.94257895924E-01 -0.84127822827E-02  0.12878874416E+00  0.20773683682E-01 0.  0.
         14    1    1    2    0    0 -0.38164212512E-02  0.19113968190E-01  0.13015000367E-01  0.23437130491E-01  0.00000000000E+00 0. -1.
     999901    1    3    3    0    0  0.88667283587E-01 -0.11337186411E+00 -0.46022180839E-02  0.89170412535E+00  0.88000000000E+00 0.  1.
        -11    1    4    4    0    0 -0.56554412378E-01  0.51018113056E-01  0.14326763935E-02  0.76181120377E-01  0.51100000000E-03 0.  1.
         11    1    4    4    0    0 -0.28296449957E-01  0.43239782867E-01 -0.98454586762E-02  0.52607623783E-01  0.51100000000E-03 0. -1.
</event>
<event>
 8    1  0.9952977E+004  0.1043930E+01  0.7957747E-01            NaN
         13   -1    0    0    0    0  0.00000000000E+00  0.00000000000E+00  0.74505805969E-08  0.10566000000E+00  0.10566000000E+00 0.  1.
     999900   -1    0    0    0    0 -0.00000000000E+00 -0.00000000000E+00 -0.74505805969E-08  0.93827000000E+00  0.93827000000E+00 0.  1.
     999902    2    1    2    0    0 -0.54095826040E-02  0.12175916361E-01 -0.19011021140E-01  0.10207150167E+01  0.10204509836E+01 0.  0.
     999903    2    3    3    0    0 -0.11700559419E+00  0.54743437563E-01  0.17466616975E-01  0.13189766669E+00  0.20118616752E-01 0.  0.
         14    1    1    2    0    0  0.54095826040E-02 -0.12175916361E-01  0.19011021140E-01  0.23214983264E-01  0.00000000000E+00 0. -1.
     999901    1    3    3    0    0  0.11159601159E+00 -0.42567521202E-01 -0.36477638115E-01  0.88881735005E+00  0.88000000000E+00 0.  1.
        -11    1    4    4    0    0 -0.23011503520E-01  0.59206143071E-02 -0.32014091884E-02  0.23981099012E-01  0.51100000000E-03 0.  1.
         11    1    4    4    0    0 -0.93994090675E-01  0.48822823256E-01  0.20668026163E-01  0.10791656768E+00  0.51100000000E-03 0. -1.
</event>
<event>
 8    1  0.9952977E+004  0.1043930E+01  0.7957747E-01            NaN
         13   -1    0    0    0    0  0.00000000000E+00  0.00000000000E+00  0.74505805969E-08  0.10566000000E+00  0.10566000000E+00 0. -1.
     999900   -1    0    0    0    0 -0.00000000000E+00 -0.00000000000E+00 -0.74505805969E-08  0.93827000000E+00  0.93827000000E+00 0.  1.
     999902    2    1    2    0    0 -0.13400243774E-01 -0.31392815131E-02 -0.17953991038E-01  0.10213077230E+01  0.10210571471E+01 0.  0.
     999903    2    3    3    0    0  0.25257055200E-01  0.96512709825E-01  0.80097572862E-01  0.12943384442E+00  0.19618279946E-01 0.  0.
         14    1    1    2    0    0  0.13400243774E-01  0.31392815131E-02  0.17953991038E-01  0.22622276981E-01  0.00000000000E+00 0. -1.
     999901    1    3    3    0    0 -0.38657298974E-01 -0.99651991338E-01 -0.98051563901E-01  0.89187387860E+00  0.88000000000E+00 0.  1.
        -11    1    4    4    0    0  0.10145749208E-01  0.42849822270E-01  0.23202804782E-01  0.49776247009E-01  0.51100000000E-03 0.  1.
         11    1    4    4    0    0  0.15111305992E-01  0.53662887554E-01  0.56894768080E-01  0.79657597411E-01  0.51100000000E-03 0. -1.
</event>
<event>
 8    1  0.9952977E+004  0.1043930E+01  0.7957747E-01            NaN
         13   -1    0    0    0    0  0.00000000000E+00  0.00000000000E+00  0.74505805969E-08  0.10566000000E+00  0.10566000000E+00 0. -1.
     999900   -1    0    0    0    0 -0.00000000000E+00 -0.00000000000E+00 -0.74505805969E-08  0.93827000000E+00  0.93827000000E+00 0. -1.
     999902    2    1    2    0    0  0.38873916711E-03 -0.12142667955E-01  0.20571223588E-01  0.10200391912E+01  0.10197593740E+01 0.  0.
     999903    2    3    3    0    0 -0.84459969294E-01  0.65042339841E-01 -0.68201002470E-01  0.12816625361E+00  0.20278546350E-01 0.  0.
         14    1    1    2    0    0 -0.38873916711E-03  0.12142667955E-01 -0.20571223588E-01  0.23890808758E-01  0.00000000000E+00 0.  1.
     999901    1    3    3    0    0  0.84848708461E-01 -0.77185007796E-01  0.88772226058E-01  0.89187293763E+00  0.88000000000E+00 0.  1.
        -11    1    4    4    0    0 -0.52087071874E-01  0.27378567852E-01 -0.36963519162E-01  0.69492531282E-01  0.51100000000E-03 0.  1.
         11    1    4    4    0    0 -0.32372897420E-01  0.37663771989E-01 -0.31237483308E-01  0.58673722332E-01  0.51100000000E-03 0. -1.
</event>
<event>
 8    1  0.9952977E+004  0.1043930E+01  0.7957747E-01            NaN
         13   -1    0    0    0    0  0.00000000000E+00  0.00000000000E+00  0.74505805969E-08  0.10566000000E+00  0.10566000000E+00 0. -1.
     999900   -1    0    0    0    0 -0.00000000000E+00 -0.00000000000E+00 -0.74505805969E-08  0.93827000000E+00  0.93827000000E+00 0. -1.
     999902    2    1    2    0    0  0.89059564194E-04  0.12291533719E-01 -0.20581831017E-01  0.10199570673E+01  0.10196753001E+01 0.  0.
     999903    2    3    3    0    0  0.54140733573E-01 -0.85199554969E-01 -0.80734519053E-01  0.13088764275E+00  0.20574966840E-01 0.  0.
         14    1    1    2    0    0 -0.89059564195E-04 -0.12291533719E-01  0.20581831017E-01  0.23972932670E-01  0.00000000000E+00 0. -1.
     999901    1    3    3    0    0 -0.54051674009E-01  0.97491088688E-01  0.60152688036E-01  0.88906942458E+00  0.88000000000E+00 0.  1.
        -11    1    4    4    0    0  0.36162194371E-01 -0.40330717625E-01 -0.36140459140E-01  0.65120388464E-01  0.51100000000E-03 0.  1.
         11    1    4    4    0    0  0.17978539202E-01 -0.44868837344E-01 -0.44594059913E-01  0.65767254291E-01  0.51100000000E-03 0. -1.
</event>
<event>
 8    1  0.9952977E+004  0.1043930E+01  0.7957747E-01            NaN
         13   -1    0    0    0    0  0.00000000000E+00  0.00000000000E+00  0.74505805969E-08  0.10566000000E+00  0.10566000000E+00 0. -1.
     999900   -1    0    0    0    0 -0.00000000000E+00 -0.00000000000E+00 -0.74505805969E-08  0.93827000000E+00  0.93827000000E+00 0.  1.
     999902    2    1    2    0    0 -0.12640415279E-02  0.19501947217E-01 -0.10867577474E-01  0.10215686944E+01  0.10213239297E+01 0.  0.
     999903    2    3    3    0    0  0.97033182570E-01  0.89137867017E-01 -0.37501791107E-02  0.13333327353E+00  0.20067389758E-01 0.  0.
         14    1    1    2    0    0  0.12640415279E-02 -0.19501947217E-01  0.10867577474E-01  0.22361305561E-01  0.00000000000E+00 0.  1.
     999901    1    3    3    0    0 -0.98297224098E-01 -0.69635919800E-01 -0.71173983635E-02  0.88823542091E+00  0.88000000000E+00 0.  1.
        -11    1    4    4    0    0  0.32745740020E-01  0.39992139074E-01  0.50357454605E-02  0.51935291763E-01  0.51100000000E-03 0. -1.
         11    1    4    4    0    0  0.64287442550E-01  0.49145727943E-01 -0.87859245712E-02  0.81397981770E-01  0.51100000000E-03 0.  1.
</event>
<event>
 8    1  0.9952977E+004  0.1043930E+01  0.7957747E-01            NaN
         13   -1    0    0    0    0  0.00000000000E+00  0.00000000000E+00  0.74505805969E-08  0.10566000000E+00  0.10566000000E+00 0.  1.
     999900   -1    0    0    0    0 -0.00000000000E+00 -0.00000000000E+00 -0.74505805969E-08  0.93827000000E+00  0.93827000000E+00 0. -1.
     999902    2    1    2    0    0 -0.85061465420E-02  0.19264258771E-01  0.86555164089E-02  0.10211619487E+01  0.10209080964E+01 0.  0.
     999903    2    3    3    0    0 -0.11442346167E+00  0.57393510043E-01 -0.29789387731E-01  0.13315838560E+00  0.21377662647E-01 0.  0.
         14    1    1    2    0    0  0.85061465420E-02 -0.19264258771E-01 -0.86555164089E-02  0.22768051285E-01  0.00000000000E+00 0. -1.
     999901    1    3    3    0    0  0.10591731512E+00 -0.38129251272E-01  0.38444904140E-01  0.88800356311E+00  0.88000000000E+00 0. -1.
        -11    1    4    4    0    0 -0.66973222191E-01  0.22118427426E-01 -0.19083571484E-01  0.73069016306E-01  0.51100000000E-03 0.  1.
         11    1    4    4    0    0 -0.47450239476E-01  0.35275082618E-01 -0.10705816247E-01  0.60089369297E-01  0.51100000000E-03 0. -1.
</event>
<event>
 8    1  0.9952977E+004  0.1043930E+01  0.7957747E-01            NaN
         13   -1    0    0    0    0  0.00000000000E+00  0.00000000000E+00  0.74505805969E-08  0.10566000000E+00  0.10566000000E+00 0.  1.
     999900   -1    0    0    0    0 -0.00000000000E+00 -0.00000000000E+00 -0.74505805969E-08  0.93827000000E+00  0.93827000000E+00 0. -1.
     999902    2    1    2    0    0  0.10392516105E-01  0.90926552839E-02 -0.18873962906E-01  0.10205439519E+01  0.10202759678E+01 0.  0.
     999903    2    3    3    0    0 -0.51036393998E-01  0.44815973119E-01 -0.11234763152E+00  0.13274499200E+00  0.19648349369E-01 0.  0.
         14    1    1    2    0    0 -0.10392516105E-01 -0.90926552839E-02  0.18873962906E-01  0.23386048124E-01  0.00000000000E+00 0.  1.
     999901    1    3    3    0    0  0.61428910103E-01 -0.35723317836E-01  0.93473668617E-01  0.88779895988E+00  0.88000000000E+00 0.  1.
        -11    1    4    4    0    0  0.32196942798E-03  0.51262597049E-02 -0.43881489490E-02  0.67748929935E-02  0.51100000000E-03 0.  1.
         11    1    4    4    0    0 -0.51358363426E-01  0.39689713415E-01 -0.10795948257E+00  0.12597009901E+00  0.51100000000E-03 0. -1.
</event>
<event>
 8    1  0.9952977E+004  0.1043930E+01  0.7957747E-01            NaN
         13   -1    0    0    0    0  0.00000000000E+00  0.00000000000E+00  0.74505805969E-08  0.10566000000E+00  0.10566000000E+00 0.  1.
     999900   -1    0    0    0    0 -0.00000000000E+00 -0.00000000000E+00 -0.74505805969E-08  0.93827000000E+00  0.93827000000E+00 0.  1.
     999902    2    1    2    0    0  0.20071817750E-01  0.64468144646E-02  0.13111480119E-01  0.10191035988E+01  0.10188011557E+01 0.  0.
     999903    2    3    3    0    0  0.12192232593E+00  0.46095468909E-01  0.10717211206E-01  0.13233910115E+00  0.20222098365E-01 0.  0.
         14    1    1    2    0    0 -0.20071817750E-01 -0.64468144646E-02 -0.13111480119E-01  0.24826401178E-01  0.00000000000E+00 0. -1.
     999901    1    3    3    0    0 -0.10185050818E+00 -0.39648654445E-01  0.23942689128E-02  0.88676449768E+00  0.88000000000E+00 0.  1.
        -11    1    4    4    0    0  0.40371347259E-01  0.20054091999E-01  0.12251642618E-01  0.46715908995E-01  0.51100000000E-03 0.  1.
         11    1    4    4    0    0  0.81550978669E-01  0.26041376910E-01 -0.15344314116E-02  0.85623192150E-01  0.51100000000E-03 0. -1.
</event>
<event>
 8    1  0.9952977E+004  0.1043930E+01  0.7957747E-01            NaN
         13   -1    0    0    0    0  0.00000000000E+00  0.00000000000E+00  0.74505805969E-08  0.10566000000E+00  0.10566000000E+00 0.  1.
     999900   -1    0    0    0    0 -0.00000000000E+00 -0.00000000000E+00 -0.74505805969E-08  0.93827000000E+00  0.93827000000E+00 0.  1.
     999902    2    1    2    0    0 -0.13351869518E-01  0.18651670617E-01  0.51126702576E-02  0.10204290078E+01  0.10201583521E+01 0.  0.
     999903    2    3    3    0    0  0.88921414239E-01  0.73261210293E-01  0.59568228112E-01  0.13115546488E+00  0.19472013825E-01 0.  0.
         14    1    1    2    0    0  0.13351869518E-01 -0.18651670617E-01 -0.51126702576E-02  0.23500992184E-01  0.00000000000E+00 0.  1.
     999901    1    3    3    0    0 -0.10227328376E+00 -0.54609539676E-01 -0.54455557854E-01  0.88927354294E+00  0.88000000000E+00 0.  1.
        -11    1    4    4    0    0  0.29066342193E-01  0.22750376006E-01  0.29525030759E-01  0.47269656432E-01  0.51100000000E-03 0. -1.
         11    1    4    4    0    0  0.59855072046E-01  0.50510834287E-01  0.30043197353E-01  0.83885808443E-01  0.51100000000E-03 0.  1.
</event>
<event>
 8    1  0.9952977E+004  0.1043930E+01  0.7957747E-01            NaN
         13   -1    0    0    0    0  0.00000000000E+00  0.00000000000E+00  0.74505805969E-08  0.10566000000E+00  0.10566000000E+00 0. -1.
     999900   -1    0    0    0    0 -0.00000000000E+00 -0.00000000000E+00 -0.74505805969E-08  0.93827000000E+00  0.93827000000E+00 0.  1.
     999902    2    1    2    0    0 -0.14583106573E-01 -0.11258688499E-01  0.12336874212E-01  0.10217574149E+01  0.10215168092E+01 0.  0.
     999903    2    3    3    0    0  0.38217773569E-01 -0.61815546365E-01 -0.10677541508E+00  0.13072898311E+00  0.20182115146E-01 0.  0.
         14    1    1    2    0    0  0.14583106573E-01  0.11258688499E-01 -0.12336874212E-01  0.22172585085E-01  0.00000000000E+00 0.  1.
     999901    1    3    3    0    0 -0.52800880142E-01  0.50556857866E-01  0.11911228929E+00  0.89102843180E+00  0.88000000000E+00 0. -1.
        -11    1    4    4    0    0  0.10226118394E-01 -0.32236224808E-01 -0.38670186262E-01  0.51375014490E-01  0.51100000000E-03 0.  1.
         11    1    4    4    0    0  0.27991655176E-01 -0.29579321557E-01 -0.68105228814E-01  0.79353968622E-01  0.51100000000E-03 0. -1.
</event>
<event>
 8    1  0.9952977E+004  0.1043930E+01  0.7957747E-01            NaN
         13   -1    0    0    0    0  0.00000000000E+00  0.00000000000E+00  0.74505805969E-08  0.10566000000E+00  0.10566000000E+00 0. -1.
     999900   -1    0    0    0    0 -0.00000000000E+00 -0.00000000000E+00 -0.74505805969E-08  0.93827000000E+00  0.93827000000E+00 0. -1.
     999902    2    1    2    0    0 -0.17464390515E-01  0.16877850655E-01 -0.56788479620E-02  0.10189877448E+01  0.10186824373E+01 0.  0.
     999903    2    3    3    0    0  0.11897930943E+00  0.98330073090E-02  0.39519070085E-01  0.12729869316E+00  0.19759460351E-01 0.  0.
         14    1    1    2    0    0  0.17464390515E-01 -0.16877850655E-01  0.56788479620E-02  0.24942255170E-01  0.00000000000E+00 0. -1.
     999901    1    3    3    0    0 -0.13644369995E+00  0.70448433460E-02 -0.45197918047E-01  0.89168905167E+00  0.88000000000E+00 0.  1.
        -11    1    4    4    0    0  0.63791452231E-01  0.77278800166E-02  0.31240363184E-01  0.71451318533E-01  0.51100000000E-03 0. -1.
         11    1    4    4    0    0  0.55187857204E-01  0.21051272924E-02  0.82787069016E-02  0.55847374626E-01  0.51100000000E-03 0.  1.
</event>
<event>
 8    1  0.9952977E+004  0.1043930E+01  0.7957747E-01            NaN
         13   -1    0    0    0    0  0.00000000000E+00  0.00000000000E+00  0.74505805969E-08  0.10566000000E+00  0.10566000000E+00 0. -1.
     999900   -1    0    0    0    0 -0.00000000000E+00 -0.00000000000E+00 -0.74505805969E-08  0.93827000000E+00  0.93827000000E+00 0. -1.
     999902    2    1    2    0    0 -0.55796787533E-02 -0.11964286792E-01 -0.17209870588E-01  0.10222399880E+01  0.10220098515E+01 0.  0.
     999903    2    3    3    0    0 -0.10368589589E+00 -0.35768552789E-01 -0.75410883616E-01  0.13455827095E+00  0.19722386751E-01 0.  0.
         14    1    1    2    0    0  0.55796787533E-02  0.11964286792E-01  0.17209870588E-01  0.21690011966E-01  0.00000000000E+00 0. -1.
     999901    1    3    3    0    0  0.98106217137E-01  0.23804265997E-01  0.58201013027E-01  0.88768171708E+00  0.88000000000E+00 0.  1.
        -11    1    4    4    0    0 -0.74241470182E-01 -0.34663008912E-01 -0.56941037373E-01  0.99779070650E-01  0.51100000000E-03 0.  1.
         11    1    4    4    0    0 -0.29444425708E-01 -0.11055438769E-02 -0.18469846242E-01  0.34779200304E-01  0.51100000000E-03 0. -1.
</event>
<event>
 8    1  0.9952977E+004  0.1043930E+01  0.7957747E-01            NaN
         13   -1    0    0    0    0  0.00000000000E+00  0.00000000000E+00  0.74505805969E-08  0.10566000000E+00  0.10566000000E+00 0.  1.
     999900   -1    0    0    0    0 -0.00000000000E+00 -0.00000000000E+00 -0.74505805969E-08  0.93827000000E+00  0.93827000000E+00 0.  1.
     999902    2    1    2    0    0 -0.10239175594E-01 -0.71932699602E-02  0.20386969169E-01  0.10200090393E+01  0.10197285069E+01 0.  0.
     999903    2    3    3    0    0 -0.36127831095E-01 -0.69901717044E-01 -0.10065298234E+00  0.12913685896E+00  0.18810509355E-01 0.  0.
         14    1    1    2    0    0  0.10239175594E-01  0.71932699602E-02 -0.20386969169E-01  0.23920960714E-01  0.00000000000E+00 0. -1.
     999901    1    3    3    0    0  0.25888655501E-01  0.62708447084E-01  0.12103995151E+00  0.89087218033E+00  0.88000000000E+00 0. -1.
        -11    1    4    4    0    0 -0.18051767628E-01 -0.53512555521E-01 -0.68943694245E-01  0.89123251793E-01  0.51100000000E-03 0.  1.
         11    1    4    4    0    0 -0.18076063467E-01 -0.16389161523E-01 -0.31709288096E-01  0.40013607167E-01  0.51100000000E-03 0. -1.
</event>
<event>
 8    1  0.9952977E+004  0.1043930E+01  0.7957747E-01            NaN
         13   -1    0    0    0    0  0.00000000000E+00  0.00000000000E+00  0.74505805969E-08  0.10566000000E+00  0.10566000000E+00 0.  1.
     999900   -1    0    0    0    0 -0.00000000000E+00 -0.00000000000E+00 -0.74505805969E-08  0.93827000000E+00  0.93827000000E+00 0. -1.
     999902    2    1    2    0    0 -0.69617064025E-02  0.14804343077E-01  0.16957563813E-01  0.10203674683E+01  0.10200953766E+01 0.  0.
     999903    2    3    3    0    0 -0.49327801308E-01 -0.11459171962E+00  0.29209492782E-01  0.12981239599E+00  0.20822331697E-01 0.  0.
         14    1    1    2    0    0  0.69617064025E-02 -0.14804343077E-01 -0.16957563813E-01  0.23562531707E-01  0.00000000000E+00 0. -1.
     999901    1    3    3    0    0  0.42366094905E-01  0.12939606270E+00 -0.12251928970E-01  0.89055507230E+00  0.88000000000E+00 0.  1.
        -11    1    4    4    0    0 -0.95770412063E-03 -0.21883464229E-01  0.54382074023E-02  0.22575172748E-01  0.51100000000E-03 0. -1.
         11    1    4    4    0    0 -0.48370097187E-01 -0.92708255391E-01  0.23771285380E-01  0.10723722324E+00  0.51100000000E-03 0.  1.
</event>
<event>
 8    1  0.9952977E+004  0.1043930E+01  0.7957747E-01            NaN
         13   -1    0    0    0    0  0.00000000000E+00  0.00000000000E+00  0.74505805969E-08  0.10566000000E+00  0.10566000000E+00 0.  1.
     999900   -1    0    0    0    0 -0.00000000000E+00 -0.00000000000E+00 -0.74505805969E-08  0.93827000000E+00  0.93827000000E+00 0. -1.
     999902    2    1    2    0    0  0.70881621073E-02 -0.17611008950E-01 -0.13562929699E-01  0.10205988461E+01  0.10203321332E+01 0.  0.
     999903    2    3    3    0    0 -0.16109174072E-01 -0.11164977696E+00  0.63632573582E-01  0.13192536729E+00  0.25100197802E-01 0.  0.
         14    1    1    2    0    0 -0.70881621073E-02  0.17611008950E-01  0.13562929699E-01  0.23331153857E-01  0.00000000000E+00 0.  1.
     999901    1    3    3    0    0  0.23197336179E-01  0.94038768007E-01 -0.77195503281E-01  0.88867347886E+00  0.88000000000E+00 0. -1.
        -11    1    4    4    0    0 -0.19375277033E-01 -0.61732507785E-01  0.43676124680E-01  0.78065157820E-01  0.51100000000E-03 0.  1.
         11    1    4    4    0    0  0.32661029608E-02 -0.49917269171E-01  0.19956448902E-01  0.53860209467E-01  0.51100000000E-03 0. -1.
</event>
<event>
 8    1  0.9952977E+004  0.1043930E+01  0.7957747E-01            NaN
         13   -1    0    0    0    0  0.00000000000E+00  0.00000000000E+00  0.74505805969E-08  0.10566000000E+00  0.10566000000E+00 0. -1.
     999900   -1    0    0    0    0 -0.00000000000E+00 -0.00000000000E+00 -0.74505805969E-08  0.93827000000E+00  0.93827000000E+00 0. -1.
     999902    2    1    2    0    0 -0.51397363601E-02  0.28345632937E-01  0.45903315998E-02  0.10147587309E+01  0.10143393510E+01 0.  0.
     999903    2    3    3    0    0  0.80814187642E-01 -0.26082675380E-01  0.89408374719E-01  0.12484602831E+00  0.19530346547E-01 0.  0.
         14    1    1    2    0    0  0.51397363601E-02 -0.28345632937E-01 -0.45903315998E-02  0.29171269095E-01  0.00000000000E+00 0. -1.
     999901    1    3    3    0    0 -0.85953924002E-01  0.54428308317E-01 -0.84818043119E-01  0.88991270259E+00  0.88000000000E+00 0. -1.
        -11    1    4    4    0    0  0.52355597779E-01 -0.24057232273E-01  0.50656524848E-01  0.76721598485E-01  0.51100000000E-03 0.  1.
         11    1    4    4    0    0  0.28458589863E-01 -0.20254431076E-02  0.38751849871E-01  0.48124429827E-01  0.51100000000E-03 0. -1.
</event>
<event>
 8    1  0.9952977E+004  0.1043930E+01  0.7957747E-01            NaN
         13   -1    0    0    0    0  0.00000000000E+00  0.00000000000E+00  0.74505805969E-08  0.10566000000E+00  0.10566000000E+00 0.  1.
     999900   -1    0    0    0    0 -0.00000000000E+00 -0.00000000000E+00 -0.74505805969E-08  0.93827000000E+00  0.93827000000E+00 0.  1.
     999902    2    1    2    0    0 -0.78016292135E-02 -0.60158580969E-02 -0.21969733330E-01  0.10198525178E+01  0.10195682581E+01 0.  0.
     999903    2    3    3    0    0  0.80300525770E-01  0.13366393629E-01 -0.10173454778E+00  0.13165204097E+00  0.18854886966E-01 0.  0.
         14    1    1    2    0    0  0.78016292135E-02  0.60158580969E-02  0.21969733330E-01  0.24077482211E-01  0.00000000000E+00 0.  1.
     999901    1    3    3    0    0 -0.88102154983E-01 -0.19382251726E-01  0.79764814450E-01  0.88820047682E+00  0.88000000000E+00 0. -1.
        -11    1    4    4    0    0  0.11819734039E-01  0.31519444982E-02 -0.27697638430E-01  0.30283017724E-01  0.51100000000E-03 0.  1.
         11    1    4    4    0    0  0.68480791731E-01  0.10214449131E-01 -0.74036909350E-01  0.10136902325E+00  0.51100000000E-03 0. -1.
</event>
<event>
 8    1  0.1125080E+005  0.1043930E+01  0.7957747E-01            NaN
         13   -1    0    0    0    0  0.00000000000E+00  0.00000000000E+00  0.74505805969E-08  0.10566000000E+00  0.10566000000E+00 0.  1.
     999900   -1    0    0    0    0 -0.00000000000E+00 -0.00000000000E+00 -0.74505805969E-08  0.93827000000E+00  0.93827000000E+00 0. -1.
     999902    2    1    2    0    0 -0.97309066244E-02  0.22940503139E-01 -0.78886725810E-02  0.10177921274E+01  0.10174564493E+01 0.  0.
     999903    2    3    3    0    0  0.45902972539E-01  0.32846428183E-01  0.11278686215E+00  0.12776075688E+00  0.20395195303E-01 0.  0.
         14    1    1    2    0    0  0.97309066244E-02 -0.22940503139E-01  0.78886725810E-02  0.26137872581E-01  0.00000000000E+00 0.  1.
     999901    1    3    3    0    0 -0.55633879164E-01 -0.99059250446E-02 -0.12067553473E+00  0.89003137054E+00  0.88000000000E+00 0. -1.
        -11    1    4    4    0    0  0.23566327213E-01  0.28855739334E-01  0.67286624457E-01  0.76914084683E-01  0.51100000000E-03 0.  1.
         11    1    4    4    0    0  0.22336645326E-01  0.39906888490E-02  0.45500237697E-01  0.50846672195E-01  0.51100000000E-03 0. -1.
</event>
<event>
 8    1  0.9952977E+004  0.1043930E+01  0.7957747E-01            NaN
         13   -1    0    0    0    0  0.00000000000E+00  0.00000000000E+00  0.74505805969E-08  0.10566000000E+00  0.10566000000E+00 0.  1.
     999900   -1    0    0    0    0 -0.00000000000E+00 -0.00000000000E+00 -0.74505805969E-08  0.93827000000E+00  0.93827000000E+00 0.  1.
     999902    2    1    2    0    0 -0.15285896763E-01  0.17174554778E-01 -0.67202456541E-02  0.10199761762E+01  0.10196948634E+01 0.  0.
     999903    2    3    3    0    0  0.56192413773E-01 -0.46837575603E-02 -0.11558063861E+00  0.13012364920E+00  0.19843263582E-01 0.  0.
         14    1    1    2    0    0  0.15285896763E-01 -0.17174554778E-01  0.67202456541E-02  0.23953823773E-01  0.00000000000E+00 0. -1.
     999901    1    3    3    0    0 -0.71478310536E-01  0.21858312338E-01  0.10886039296E+00  0.88985252702E+00  0.88000000000E+00 0. -1.
        -11    1    4    4    0    0  0.36920612194E-01  0.64564348030E-02 -0.74377248625E-01  0.83288975196E-01  0.51100000000E-03 0.  1.
         11    1    4    4    0    0  0.19271801579E-01 -0.11140192363E-01 -0.41203389987E-01  0.46834674008E-01  0.51100000000E-03 0. -1.
</event>
<event>
 8    1  0.9952977E+004  0.1043930E+01  0.7957747E-01            NaN
         13   -1    0    0    0    0  0.00000000000E+00  0.00000000000E+00  0.74505805969E-08  0.10566000000E+00  0.10566000000E+00 0.  1.
     999900   -1    0    0    0    0 -0.00000000000E+00 -0.00000000000E+00 -0.74505805969E-08  0.93827000000E+00  0.93827000000E+00 0. -1.
     999902    2    1    2    0    0 -0.25320810039E-01  0.22185058389E-02  0.79166960960E-03  0.10184998618E+01  0.10181823395E+01 0.  0.
     999903    2    3    3    0    0  0.11548784608E+00  0.28140423642E-02  0.45851439577E-01  0.12616706782E+00  0.21689007945E-01 0.  0.
         14    1    1    2    0    0  0.25320810039E-01 -0.22185058389E-02 -0.79166960960E-03  0.25430138221E-01  0.00000000000E+00 0. -1.
     999901    1    3    3    0    0 -0.14080865612E+00 -0.59553652527E-03 -0.45059769967E-01  0.89233279396E+00  0.88000000000E+00 0. -1.
        -11    1    4    4    0    0  0.62594850950E-01 -0.64669604740E-02  0.32508610983E-01  0.70830839698E-01  0.51100000000E-03 0. -1.
         11    1    4    4    0    0  0.52892995126E-01  0.92810028382E-02  0.13342828594E-01  0.55336228124E-01  0.51100000000E-03 0.  1.
</event>
<event>
 8    1  0.9952977E+004  0.1043930E+01  0.7957747E-01            NaN
         13   -1    0    0    0    0  0.00000000000E+00  0.00000000000E+00  0.74505805969E-08  0.10566000000E+00  0.10566000000E+00 0.  1.
     999900   -1    0    0    0    0 -0.00000000000E+00 -0.00000000000E+00 -0.74505805969E-08  0.93827000000E+00  0.93827000000E+00 0. -1.
     999902    2    1    2    0    0  0.16038008308E-01 -0.14052049399E-01  0.39344962583E-02  0.10222468715E+01  0.10220168825E+01 0.  0.
     999903    2    3    3    0    0 -0.11711526771E+00  0.52160873422E-01  0.19593651369E-02  0.12976838588E+00  0.19981296657E-01 0.  0.
         14    1    1    2    0    0 -0.16038008308E-01  0.14052049399E-01 -0.39344962583E-02  0.21683128547E-01  0.00000000000E+00 0. -1.
     999901    1    3    3    0    0  0.13315327602E+00 -0.66212922822E-01  0.19751311213E-02  0.89247848557E+00  0.88000000000E+00 0. -1.
        -11    1    4    4    0    0 -0.10027912105E+00  0.44402568355E-01 -0.54304747776E-02  0.10980547060E+00  0.51100000000E-03 0.  1.
         11    1    4    4    0    0 -0.16836146655E-01  0.77583050676E-02  0.73898399145E-02  0.19962915285E-01  0.51100000000E-03 0. -1.
</event>
<event>
 8    1  0.9952977E+004  0.1043930E+01  0.7957747E-01            NaN
         13   -1    0    0    0    0  0.00000000000E+00  0.00000000000E+00  0.74505805969E-08  0.10566000000E+00  0.10566000000E+00 0. -1.
     999900   -1    0    0    0    0 -0.00000000000E+00 -0.00000000000E+00 -0.74505805969E-08  0.93827000000E+00  0.93827000000E+00 0. -1.
     999902    2    1    2    0    0  0.16281960142E-01  0.17069915074E-01  0.31385527294E-02  0.10201322114E+01  0.10198545946E+01 0.  0.
     999903    2    3    3    0    0  0.72216360932E-01 -0.86018287709E-01 -0.62209987494E-01  0.12994893456E+00  0.20057279040E-01 0.  0.
         14    1    1    2    0    0 -0.16281960142E-01 -0.17069915074E-01 -0.31385527294E-02  0.23797788551E-01  0.00000000000E+00 0. -1.
     999901    1    3    3    0    0 -0.55934400790E-01  0.10308820278E+00  0.65348540223E-01  0.89018327689E+00  0.88000000000E+00 0.  1.
        -11    1    4    4    0    0  0.36909013890E-01 -0.52701260556E-01 -0.44674811169E-01  0.78331335010E-01  0.51100000000E-03 0. -1.
         11    1    4    4    0    0  0.35307347042E-01 -0.33317027153E-01 -0.17535176325E-01  0.51617599549E-01  0.51100000000E-03 0.  1.
</event>
<event>
 8    1  0.9952977E+004  0.1043930E+01  0.7957747E-01            NaN
         13   -1    0    0    0    0  0.00000000000E+00  0.00000000000E+00  0.74505805969E-08  0.10566000000E+00  0.10566000000E+00 0. -1.
     999900   -1    0    0    0    0 -0.00000000000E+00 -0.00000000000E+00 -0.74505805969E-08  0.93827000000E+00  0.93827000000E+00 0. -1.
     999902    2    1    2    0    0  0.18053196222E-01 -0.15312146815E-01  0.35713266129E-02  0.10199897805E+01  0.10197087909E+01 0.  0.
     999903    2    3    3    0    0  0.12091966997E+00  0.47974834403E-01 -0.49697617029E-02  0.13169945435E+00  0.19922259509E-01 0.  0.
         14    1    1    2    0    0 -0.18053196222E-01  0.15312146815E-01 -0.35713266129E-02  0.23940219458E-01  0.00000000000E+00 0.  1.
     999901    1    3    3    0    0 -0.10286647375E+00 -0.63286981219E-01  0.85410883158E-02  0.88829032619E+00  0.88000000000E+00 0. -1.
        -11    1    4    4    0    0  0.68753734240E-01  0.35286125299E-01  0.34263791251E-02  0.77357532312E-01  0.51100000000E-03 0.  1.
         11    1    4    4    0    0  0.52165935729E-01  0.12688709105E-01 -0.83961408280E-02  0.54341922040E-01  0.51100000000E-03 0. -1.
</event>
<event>
 8    1  0.9952977E+004  0.1043930E+01  0.7957747E-01            NaN
         13   -1    0    0    0    0  0.00000000000E+00  0.00000000000E+00  0.74505805969E-08  0.10566000000E+00  0.10566000000E+00 0.  1.
     999900   -1    0    0    0    0 -0.00000000000E+00 -0.00000000000E+00 -0.74505805969E-08  0.93827000000E+00  0.93827000000E+00 0.  1.
     999902    2    1    2    0    0 -0.12929938527E-01  0.17136423754E-01  0.78288019743E-02  0.10210798256E+01  0.10208241180E+01 0.  0.
     999903    2    3    3    0    0  0.63434517234E-01 -0.11011056358E+00  0.39440584346E-03  0.12862333023E+00  0.19887969650E-01 0.  0.
         14    1    1    2    0    0  0.12929938527E-01 -0.17136423754E-01 -0.78288019743E-02  0.22850174392E-01  0.00000000000E+00 0.  1.
     999901    1    3    3    0    0 -0.76364455761E-01  0.12724698733E+00  0.74343961308E-02  0.89245649537E+00  0.88000000000E+00 0.  1.
        -11    1    4    4    0    0  0.28173200589E-01 -0.46364330327E-01 -0.95751143542E-02  0.55093777271E-01  0.51100000000E-03 0. -1.
         11    1    4    4    0    0  0.35261316645E-01 -0.63746233249E-01  0.99695201977E-02  0.73529552964E-01  0.51100000000E-03 0.  1.
</event>
<event>
 8    1  0.9952977E+004  0.1043930E+01  0.7957747E-01            NaN
         13   -1    0    0    0    0  0.00000000000E+00  0.00000000000E+00  0.74505805969E-08  0.10566000000E+00  0.10566000000E+00 0. -1.
     999900   -1    0    0    0    0 -0.00000000000E+00 -0.00000000000E+00 -0.74505805969E-08  0.93827000000E+00  0.93827000000E+00 0.  1.
     999902    2    1    2    0    0  0.18979567657E-01  0.12234171096E-01 -0.68351322585E-02  0.10203372476E+01  0.10200644494E+01 0.  0.
     999903    2    3    3    0    0  0.39850805438E-01  0.38364349198E-01 -0.11865685724E+00  0.13263093756E+00  0.21251019859E-01 0.  0.
         14    1    1    2    0    0 -0.18979567657E-01 -0.12234171096E-01  0.68351322585E-02  0.23592752359E-01  0.00000000000E+00 0. -1.
     999901    1    3    3    0    0 -0.20871237781E-01 -0.26130178102E-01  0.11182172498E+00  0.88770631008E+00  0.88000000000E+00 0. -1.
        -11    1    4    4    0    0  0.23538635619E-01  0.35484202949E-01 -0.88804230616E-01  0.98486793643E-01  0.51100000000E-03 0. -1.
         11    1    4    4    0    0  0.16312169819E-01  0.28801462488E-02 -0.29852626626E-01  0.34144143921E-01  0.51100000000E-03 0.  1.
</event>
<event>
 8    1  0.9952977E+004  0.1043930E+01  0.7957747E-01            NaN
         13   -1    0    0    0    0  0.00000000000E+00  0.00000000000E+00  0.74505805969E-08  0.10566000000E+00  0.10566000000E+00 0. -1.
     999900   -1    0    0    0    0 -0.00000000000E+00 -0.00000000000E+00 -0.74505805969E-08  0.93827000000E+00  0.93827000000E+00 0.  1.
     999902    2    1    2    0    0  0.10217998477E-02 -0.57356436470E-02  0.22929050135E-01  0.10202723792E+01  0.10199980611E+01 0.  0.
     999903    2    3    3    0    0  0.10702712705E+00  0.27268742922E-01  0.69758535802E-01  0.13206101939E+00  0.19377029188E-01 0.  0.
         14    1    1    2    0    0 -0.10217998477E-02  0.57356436470E-02 -0.22929050135E-01  0.23657620824E-01  0.00000000000E+00 0.  1.
     999901    1    3    3    0    0 -0.10600532720E+00 -0.33004386569E-01 -0.46829485667E-01  0.88821135979E+00  0.88000000000E+00 0. -1.
        -11    1    4    4    0    0  0.23211834098E-01  0.11575889145E-01  0.23725348389E-01  0.35155991365E-01  0.51100000000E-03 0.  1.
         11    1    4    4    0    0  0.83815292948E-01  0.15692853777E-01  0.46033187414E-01  0.96905028023E-01  0.51100000000E-03 0. -1.
</event>
<event>
 8    1  0.9952977E+004  0.1043930E+01  0.7957747E-01            NaN
         13   -1    0    0    0    0  0.00000000000E+00  0.00000000000E+00  0.74505805969E-08  0.10566000000E+00  0.10566000000E+00 0. -1.
     999900   -1    0    0    0    0 -0.00000000000E+00 -0.00000000000E+00 -0.74505805969E-08  0.93827000000E+00  0.93827000000E+00 0. -1.
     999902    2    1    2    0    0 -0.71578701150E-02 -0.18120056334E-01 -0.14763590629E-01  0.10194854678E+01  0.10191923684E+01 0.  0.
     999903    2    3    3    0    0 -0.28488249280E-01 -0.12043723829E+00 -0.42749123118E-01  0.13285872513E+00  0.22522091411E-01 0.  0.
         14    1    1    2    0    0  0.71578701150E-02  0.18120056334E-01  0.14763590629E-01  0.24444532198E-01  0.00000000000E+00 0. -1.
     999901    1    3    3    0    0  0.21330379165E-01  0.10231718195E+00  0.27985532490E-01  0.88662674268E+00  0.88000000000E+00 0.  1.
        -11    1    4    4    0    0 -0.17371000888E-01 -0.41205505772E-01 -0.71554630877E-02  0.45289150475E-01  0.51100000000E-03 0. -1.
         11    1    4    4    0    0 -0.11117248392E-01 -0.79231732516E-01 -0.35593660031E-01  0.87569574651E-01  0.51100000000E-03 0.  1.
</event>
<event>
 8    1  0.9952977E+004  0.1043930E+01  0.7957747E-01            NaN
         13   -1    0    0    0    0  0.00000000000E+00  0.00000000000E+00  0.74505805969E-08  0.10566000000E+00  0.10566000000E+00 0.  1.
     999900   -1    0    0    0    0 -0.00000000000E+00 -0.00000000000E+00 -0.74505805969E-08  0.93827000000E+00  0.93827000000E+00 0. -1.
     999902    2    1    2    0    0  0.19659451117E-01 -0.39118789764E-02 -0.10924055873E-01  0.10211016884E+01  0.10208464753E+01 0.  0.
     999903    2    3    3    0    0 -0.62524435794E-01  0.99931131370E-01  0.48444206130E-01  0.12921483870E+00  0.21309559957E-01 0.  0.
         14    1    1    2    0    0 -0.19659451117E-01  0.39118789764E-02  0.10924055873E-01  0.22828311634E-01  0.00000000000E+00 0. -1.
     999901    1    3    3    0    0  0.82183886911E-01 -0.10384301035E+00 -0.59368262003E-01  0.89188684966E+00  0.88000000000E+00 0.  1.
        -11    1    4    4    0    0 -0.47318752583E-01  0.84358108735E-01  0.31826172786E-01  0.10182593604E+00  0.51100000000E-03 0.  1.
         11    1    4    4    0    0 -0.15205683211E-01  0.15573022636E-01  0.16618033344E-01  0.27388902664E-01  0.51100000000E-03 0. -1.
</event>
<event>
 8    1  0.9952977E+004  0.1043930E+01  0.7957747E-01            NaN
         13   -1    0    0    0    0  0.00000000000E+00  0.00000000000E+00  0.74505805969E-08  0.10566000000E+00  0.10566000000E+00 0.  1.
     999900   -1    0    0    0    0 -0.00000000000E+00 -0.00000000000E+00 -0.74505805969E-08  0.93827000000E+00  0.93827000000E+00 0. -1.
     999902    2    1    2    0    0  0.30877636621E-02 -0.22825939484E-01  0.57143530205E-02  0.10201979199E+01  0.10199218519E+01 0.  0.
     999903    2    3    3    0    0 -0.77612671332E-01 -0.60821232832E-01  0.85849829665E-01  0.13206623077E+00  0.18664054840E-01 0.  0.
         14    1    1    2    0    0 -0.30877636621E-02  0.22825939484E-01 -0.57143530205E-02  0.23732080149E-01  0.00000000000E+00 0.  1.
     999901    1    3    3    0    0  0.80700434994E-01  0.37995293348E-01 -0.80135476644E-01  0.88813168908E+00  0.88000000000E+00 0. -1.
        -11    1    4    4    0    0 -0.40563247445E-01 -0.41523718582E-01  0.56526648419E-01  0.81025424100E-01  0.51100000000E-03 0. -1.
         11    1    4    4    0    0 -0.37049423887E-01 -0.19297514250E-01  0.29323181246E-01  0.51040806674E-01  0.51100000000E-03 0.  1.
</event>
<event>
 8    1  0.9952977E+004  0.1043930E+01  0.7957747E-01            NaN
         13   -1    0    0    0    0  0.00000000000E+00  0.00000000000E+00  0.74505805969E-08  0.10566000000E+00  0.10566000000E+00 0.  1.
     999900   -1    0    0    0    0 -0.00000000000E+00 -0.00000000000E+00 -0.74505805969E-08  0.93827000000E+00  0.93827000000E+00 0.  1.
     999902    2    1    2    0    0  0.22727562529E-01  0.58818481012E-02 -0.20543849544E-02  0.10203639496E+01  0.10200917757E+01 0.  0.
     999903    2    3    3    0    0  0.16230779543E-01 -0.10477807345E+00  0.73030131694E-01  0.13023726697E+00  0.19658654352E-01 0.  0.
         14    1    1    2    0    0 -0.22727562529E-01 -0.58818481012E-02  0.20543849544E-02  0.23566050436E-01  0.00000000000E+00 0. -1.
     999901    1    3    3    0    0  0.64967829857E-02  0.11065992156E+00 -0.75084516648E-01  0.89012668260E+00  0.88000000000E+00 0.  1.
        -11    1    4    4    0    0  0.17531273318E-01 -0.49650890885E-01  0.37268028069E-01  0.64511421833E-01  0.51100000000E-03 0. -1.
         11    1    4    4    0    0 -0.13004937749E-02 -0.55127182570E-01  0.35762103625E-01  0.65725845136E-01  0.51100000000E-03 0.  1.
</event>
<event>
 8    1  0.9952977E+004  0.1043930E+01  0.7957747E-01            NaN
         13   -1    0    0    0    0  0.00000000000E+00  0.00000000000E+00  0.74505805969E-08  0.10566000000E+00  0.10566000000E+00 0.  1.
     999900   -1    0    0    0    0 -0.00000000000E+00 -0.00000000000E+00 -0.74505805969E-08  0.93827000000E+00  0.93827000000E+00 0.  1.
     999902    2    1    2    0    0  0.57381764136E-02  0.21092209190E-01  0.72645657306E-02  0.10208956371E+01  0.10206357431E+01 0.  0.
     999903    2    3    3    0    0 -0.73284197196E-01  0.10774746884E+00 -0.15731555570E-01  0.13281766131E+00  0.20321385685E-01 0.  0.
         14    1    1    2    0    0 -0.57381764136E-02 -0.21092209190E-01 -0.72645657306E-02  0.23034362859E-01  0.00000000000E+00 0. -1.
     999901    1    3    3    0    0  0.79022373609E-01 -0.86655259648E-01  0.22996121301E-01  0.88807797583E+00  0.88000000000E+00 0. -1.
        -11    1    4    4    0    0 -0.24916855607E-01  0.46384813621E-01  0.20084317037E-02  0.52694359726E-01  0.51100000000E-03 0.  1.
         11    1    4    4    0    0 -0.48367341589E-01  0.61362655218E-01 -0.17739987274E-01  0.80123301587E-01  0.51100000000E-03 0. -1.
</event>
<event>
 7    1  0.9952977E+004  0.1043930E+01  0.7957747E-01            NaN
         13   -1    0    0    0    0  0.00000000000E+00  0.00000000000E+00  0.74505805969E-08  0.10566000000E+00  0.10566000000E+00 0.  1.
     999900   -1    0    0    0    0 -0.00000000000E+00 -0.00000000000E+00 -0.74505805969E-08  0.93827000000E+00  0.93827000000E+00 0.  1.
     999903    2    1    2    0    0  0.49983319973E-01 -0.83727973041E-01  0.13649062011E-01  0.10026507894E+00  0.18923092131E-01 0.  0.
         14    1    1    2    0    0  0.15375469672E-01 -0.45196509322E-01  0.18735385370E-01  0.51284931388E-01  0.00000000000E+00 0.  1.
     999901    1    1    2    0    0 -0.65358789645E-01  0.12892448236E+00 -0.32384447381E-01  0.89237998967E+00  0.88000000000E+00 0.  1.
        -11    1    3    3    0    0  0.37412578642E-01 -0.62139650446E-01  0.16671791556E-02  0.72553964782E-01  0.51100000000E-03 0. -1.
         11    1    3    3    0    0  0.12570741331E-01 -0.21588322595E-01  0.11981882856E-01  0.27711114158E-01  0.51100000000E-03 0.  1.
</event>
<event>
 8    1  0.9952977E+004  0.1043930E+01  0.7957747E-01            NaN
         13   -1    0    0    0    0  0.00000000000E+00  0.00000000000E+00  0.74505805969E-08  0.10566000000E+00  0.10566000000E+00 0.  1.
     999900   -1    0    0    0    0 -0.00000000000E+00 -0.00000000000E+00 -0.74505805969E-08  0.93827000000E+00  0.93827000000E+00 0. -1.
     999902    2    1    2    0    0 -0.28439288100E-02  0.18132115311E-01 -0.15424789590E-01  0.10199553119E+01  0.10196735029E+01 0.  0.
     999903    2    3    3    0    0 -0.10540480096E+00 -0.36845661109E-01  0.61385820305E-01  0.12897767008E+00  0.19981132000E-01 0.  0.
         14    1    1    2    0    0  0.28439288100E-02 -0.18132115311E-01  0.15424789590E-01  0.23974688124E-01  0.00000000000E+00 0.  1.
     999901    1    3    3    0    0  0.10256087215E+00  0.54977776420E-01 -0.76810609895E-01  0.89097764180E+00  0.88000000000E+00 0. -1.
        -11    1    4    4    0    0 -0.86152878189E-01 -0.35403723897E-01  0.56904864071E-01  0.10915203508E+00  0.51100000000E-03 0.  1.
         11    1    4    4    0    0 -0.19251922769E-01 -0.14419372120E-02  0.44809562339E-02  0.19825634996E-01  0.51100000000E-03 0. -1.
</event>
<event>
 8    1  0.9952977E+004  0.1043930E+01  0.7957747E-01            NaN
         13   -1    0    0    0    0  0.00000000000E+00  0.00000000000E+00  0.74505805969E-08  0.10566000000E+00  0.10566000000E+00 0.  1.
     999900   -1    0    0    0    0 -0.00000000000E+00 -0.00000000000E+00 -0.74505805969E-08  0.93827000000E+00  0.93827000000E+00 0.  1.
     999902    2    1    2    0    0  0.20422289443E-01  0.76169121839E-02 -0.93975411577E-02  0.10201939296E+01  0.10199177678E+01 0.  0.
     999903    2    3    3    0    0  0.10384306188E+00  0.73300948701E-01  0.32398897904E-01  0.13282683521E+00  0.20901411069E-01 0.  0.
         14    1    1    2    0    0 -0.20422289443E-01 -0.76169121839E-02  0.93975411577E-02  0.23736070381E-01  0.00000000000E+00 0.  1.
     999901    1    3    3    0    0 -0.83420772436E-01 -0.65684036517E-01 -0.41796439062E-01  0.88736709441E+00  0.88000000000E+00 0.  1.
        -11    1    4    4    0    0  0.59861037030E-01  0.36508171467E-01  0.82356146202E-02  0.70599410814E-01  0.51100000000E-03 0. -1.
         11    1    4    4    0    0  0.43982024849E-01  0.36792777234E-01  0.24163283284E-01  0.62227424393E-01  0.51100000000E-03 0.  1.
</event>
<event>
 8    1  0.9952977E+004  0.1043930E+01  0.7957747E-01            NaN
         13   -1    0    0    0    0  0.00000000000E+00  0.00000000000E+00  0.74505805969E-08  0.10566000000E+00  0.10566000000E+00 0. -1.
     999900   -1    0    0    0    0 -0.00000000000E+00 -0.00000000000E+00 -0.74505805969E-08  0.93827000000E+00  0.93827000000E+00 0. -1.
     999902    2    1    2    0    0  0.16586520961E-01 -0.18185442978E-02 -0.22840557637E-01  0.10156437692E+01  0.10152497993E+01 0.  0.
     999903    2    3    3    0    0 -0.21474276786E-01 -0.41082732911E-01  0.11271839160E+00  0.12358629931E+00  0.20474424637E-01 0.  0.
         14    1    1    2    0    0 -0.16586520961E-01  0.18185442978E-02  0.22840557637E-01  0.28286230822E-01  0.00000000000E+00 0.  1.
     999901    1    3    3    0    0  0.38060797747E-01  0.39264188614E-01 -0.13555894924E+00  0.89205746987E+00  0.88000000000E+00 0. -1.
        -11    1    4    4    0    0 -0.23344374586E-01 -0.24308661572E-01  0.78399863543E-01  0.85338564417E-01  0.51100000000E-03 0. -1.
         11    1    4    4    0    0  0.18700978005E-02 -0.16774071340E-01  0.34318528060E-01  0.38247734891E-01  0.51100000000E-03 0.  1.
</event>
<event>
 8    1  0.9952977E+004  0.1043930E+01  0.7957747E-01            NaN
         13   -1    0    0    0    0  0.00000000000E+00  0.00000000000E+00  0.74505805969E-08  0.10566000000E+00  0.10566000000E+00 0. -1.
     999900   -1    0    0    0    0 -0.00000000000E+00 -0.00000000000E+00 -0.74505805969E-08  0.93827000000E+00  0.93827000000E+00 0. -1.
     999902    2    1    2    0    0 -0.11591341371E-01 -0.43584678776E-02  0.17644252670E-01  0.10223736764E+01  0.10221463980E+01 0.  0.
     999903    2    3    3    0    0  0.12161041966E+00  0.17864839052E-01 -0.38448390097E-01  0.13030699214E+00  0.19833982290E-01 0.  0.
         14    1    1    2    0    0  0.11591341371E-01  0.43584678776E-02 -0.17644252670E-01  0.21556323650E-01  0.00000000000E+00 0.  1.
     999901    1    3    3    0    0 -0.13320176103E+00 -0.22223306929E-01  0.56092642767E-01  0.89206668421E+00  0.88000000000E+00 0.  1.
        -11    1    4    4    0    0  0.30692815838E-01  0.12339996042E-01 -0.60706274507E-02  0.33636856052E-01  0.51100000000E-03 0. -1.
         11    1    4    4    0    0  0.90917603824E-01  0.55248430092E-02 -0.32377762647E-01  0.96670136083E-01  0.51100000000E-03 0.  1.
</event>
<event>
 8    1  0.9952977E+004  0.1043930E+01  0.7957747E-01            NaN
         13   -1    0    0    0    0  0.00000000000E+00  0.00000000000E+00  0.74505805969E-08  0.10566000000E+00  0.10566000000E+00 0. -1.
     999900   -1    0    0    0    0 -0.00000000000E+00 -0.00000000000E+00 -0.74505805969E-08  0.93827000000E+00  0.93827000000E+00 0.  1.
     999902    2    1    2    0    0 -0.20334194938E-01 -0.95657265187E-02  0.76165157466E-02  0.10202025071E+01  0.10199265471E+01 0.  0.
     999903    2    3    3    0    0 -0.13088262912E-02  0.12428962593E+00 -0.32230840316E-01  0.12898590501E+00  0.12202970315E-01 0.  0.
         14    1    1    2    0    0  0.20334194938E-01  0.95657265187E-02 -0.76165157466E-02  0.23727492909E-01  0.00000000000E+00 0. -1.
     999901    1    3    3    0    0 -0.19025368647E-01 -0.13385535245E+00  0.39847356063E-01  0.89121660208E+00  0.88000000000E+00 0.  1.
        -11    1    4    4    0    0  0.67571010634E-03  0.40026664159E-01 -0.46732288218E-02  0.40307451128E-01  0.51100000000E-03 0. -1.
         11    1    4    4    0    0 -0.19845363976E-02  0.84262961773E-01 -0.27557611495E-01  0.88678453887E-01  0.51100000000E-03 0.  1.
</event>
<event>
 8    1  0.9952977E+004  0.1043930E+01  0.7957747E-01            NaN
         13   -1    0    0    0    0  0.00000000000E+00  0.00000000000E+00  0.74505805969E-08  0.10566000000E+00  0.10566000000E+00 0. -1.
     999900   -1    0    0    0    0 -0.00000000000E+00 -0.00000000000E+00 -0.74505805969E-08  0.93827000000E+00  0.93827000000E+00 0.  1.
     999902    2    1    2    0    0 -0.16013121697E-01 -0.17286944274E-01  0.67123129690E-02  0.10194287010E+01  0.10191342221E+01 0.  0.
     999903    2    3    3    0    0  0.16123763955E-02  0.11876858964E+00 -0.42368668480E-01  0.12744736191E+00  0.18415980700E-01 0.  0.
         14    1    1    2    0    0  0.16013121697E-01  0.17286944274E-01 -0.67123129690E-02  0.24501299031E-01  0.00000000000E+00 0.  1.
     999901    1    3    3    0    0 -0.17625498093E-01 -0.13605553392E+00  0.49080981449E-01  0.89198133906E+00  0.88000000000E+00 0. -1.
        -11    1    4    4    0    0  0.40390262567E-02  0.29387222956E-01 -0.32377305350E-02  0.29844038369E-01  0.51100000000E-03 0.  1.
         11    1    4    4    0    0 -0.24266498611E-02  0.89381366687E-01 -0.39130937945E-01  0.97603323539E-01  0.51100000000E-03 0. -1.
</event>
<event>
 8    1  0.9952977E+004  0.1043930E+01  0.7957747E-01            NaN
         13   -1    0    0    0    0  0.00000000000E+00  0.00000000000E+00  0.74505805969E-08  0.10566000000E+00  0.10566000000E+00 0. -1.
     999900   -1    0    0    0    0 -0.00000000000E+00 -0.00000000000E+00 -0.74505805969E-08  0.93827000000E+00  0.93827000000E+00 0.  1.
     999902    2    1    2    0    0  0.11841747457E-01  0.11515949507E-02 -0.24028940735E-01  0.10171168848E+01  0.10167634013E+01 0.  0.
     999903    2    3    3    0    0  0.10189613278E+00  0.27063898601E-01 -0.74677545602E-01  0.13069344142E+00  0.19717082242E-01 0.  0.
         14    1    1    2    0    0 -0.11841747457E-01 -0.11515949507E-02  0.24028940735E-01  0.26813115198E-01  0.00000000000E+00 0. -1.
     999901    1    3    3    0    0 -0.90054385318E-01 -0.25912303650E-01  0.50648604867E-01  0.88642344338E+00  0.88000000000E+00 0.  1.
        -11    1    4    4    0    0  0.66658191720E-01  0.23966832567E-01 -0.40989120178E-01  0.81841876082E-01  0.51100000000E-03 0. -1.
         11    1    4    4    0    0  0.35237941056E-01  0.30970660338E-02 -0.33688425423E-01  0.48851565342E-01  0.51100000000E-03 0.  1.
</event>
<event>
 8    1  0.1043116E+005  0.1043930E+01  0.7957747E-01            NaN
         13   -1    0    0    0    0  0.00000000000E+00  0.00000000000E+00  0.74505805969E-08  0.10566000000E+00  0.10566000000E+00 0.  1.
     999900   -1    0    0    0    0 -0.00000000000E+00 -0.00000000000E+00 -0.74505805969E-08  0.93827000000E+00  0.93827000000E+00 0.  1.
     999902    2    1    2    0    0  0.53002627613E-02  0.81617164399E-02 -0.22018877229E-01  0.10198564179E+01  0.10195722514E+01 0.  0.
     999903    2    3    3    0    0  0.20326742822E-01  0.13184490073E-02  0.12436379786E+00  0.12761176929E+00  0.20087176535E-01 0.  0.
         14    1    1    2    0    0 -0.53002627613E-02 -0.81617164399E-02  0.22018877229E-01  0.24073582097E-01  0.00000000000E+00 0.  1.
     999901    1    3    3    0    0 -0.15026480061E-01  0.68432674326E-02 -0.14638267509E+00  0.89224464861E+00  0.88000000000E+00 0.  1.
        -11    1    4    4    0    0  0.18939082125E-01  0.83851099044E-02  0.78736596286E-01  0.81416900061E-01  0.51100000000E-03 0. -1.
         11    1    4    4    0    0  0.13876606975E-02 -0.70666608971E-02  0.45627201575E-01  0.46194869229E-01  0.51100000000E-03 0.  1.
</event>
<event>
 8    1  0.9952977E+004  0.1043930E+01  0.7957747E-01            NaN
         13   -1    0    0    0    0  0.00000000000E+00  0.00000000000E+00  0.74505805969E-08  0.10566000000E+00  0.10566000000E+00 0.  1.
     999900   -1    0    0    0    0 -0.00000000000E+00 -0.00000000000E+00 -0.74505805969E-08  0.93827000000E+00  0.93827000000E+00 0.  1.
     999902    2    1    2    0    0  0.18285004249E-01 -0.14491207806E-01  0.58915537683E-02  0.10198666069E+01  0.10195826837E+01 0.  0.
     999903    2    3    3    0    0  0.11388401771E+00 -0.52605792866E-01 -0.38506672406E-01  0.13275720240E+00  0.20118947231E-01 0.  0.
         14    1    1    2    0    0 -0.18285004249E-01  0.14491207806E-01 -0.58915537683E-02  0.24063393149E-01  0.00000000000E+00 0. -1.
     999901    1    3    3    0    0 -0.95599013461E-01  0.38114585060E-01  0.44398226174E-01  0.88710940445E+00  0.88000000000E+00 0.  1.
        -11    1    4    4    0    0  0.99556410614E-01 -0.38096842310E-01 -0.30878372601E-01  0.11098010319E+00  0.51100000000E-03 0. -1.
         11    1    4    4    0    0  0.14327607096E-01 -0.14508950556E-01 -0.76282998049E-02  0.21777099215E-01  0.51100000000E-03 0.  1.
</event>
<event>
 8    1  0.9952977E+004  0.1043930E+01  0.7957747E-01            NaN
         13   -1    0    0    0    0  0.00000000000E+00  0.00000000000E+00  0.74505805969E-08  0.10566000000E+00  0.10566000000E+00 0.  1.
     999900   -1    0    0    0    0 -0.00000000000E+00 -0.00000000000E+00 -0.74505805969E-08  0.93827000000E+00  0.93827000000E+00 0. -1.
     999902    2    1    2    0    0 -0.21389902426E-01  0.88458002744E-02  0.22968439405E-01  0.10113213306E+01  0.10107954830E+01 0.  0.
     999903    2    3    3    0    0 -0.17457706347E-03  0.11405171554E+00  0.45846487299E-01  0.12450580320E+00  0.19798240807E-01 0.  0.
         14    1    1    2    0    0  0.21389902426E-01 -0.88458002744E-02 -0.22968439405E-01  0.32608669353E-01  0.00000000000E+00 0. -1.
     999901    1    3    3    0    0 -0.21215325363E-01 -0.10520591527E+00 -0.22878047894E-01  0.88681552744E+00  0.88000000000E+00 0.  1.
        -11    1    4    4    0    0  0.56869147385E-02  0.18835423497E-01  0.29290823825E-02  0.19898613574E-01  0.51100000000E-03 0. -1.
         11    1    4    4    0    0 -0.58614918020E-02  0.95216292043E-01  0.42917404917E-01  0.10460718963E+00  0.51100000000E-03 0.  1.
</event>
<event>
 8    1  0.9952977E+004  0.1043930E+01  0.7957747E-01            NaN
         13   -1    0    0    0    0  0.00000000000E+00  0.00000000000E+00  0.74505805969E-08  0.10566000000E+00  0.10566000000E+00 0. -1.
     999900   -1    0    0    0    0 -0.00000000000E+00 -0.00000000000E+00 -0.74505805969E-08  0.93827000000E+00  0.93827000000E+00 0.  1.
     999902    2    1    2    0    0  0.65004887863E-02  0.12782005595E-01 -0.17937470177E-01  0.10209650515E+01  0.10207067393E+01 0.  0.
     999903    2    3    3    0    0 -0.85050239519E-01 -0.35231496306E-01 -0.92129856337E-01  0.13181301595E+00  0.20296777385E-01 0.  0.
         14    1    1    2    0    0 -0.65004887863E-02 -0.12782005595E-01  0.17937470177E-01  0.22964948462E-01  0.00000000000E+00 0. -1.
     999901    1    3    3    0    0  0.91550728305E-01  0.48013501901E-01  0.74192386159E-01  0.88915203558E+00  0.88000000000E+00 0. -1.
        -11    1    4    4    0    0 -0.38713025655E-01 -0.20162162575E-01 -0.56743174782E-01  0.71590922332E-01  0.51100000000E-03 0.  1.
         11    1    4    4    0    0 -0.46337213864E-01 -0.15069333731E-01 -0.35386681555E-01  0.60222093622E-01  0.51100000000E-03 0. -1.
</event>
<event>
 8    1  0.9952977E+004  0.1043930E+01  0.7957747E-01            NaN
         13   -1    0    0    0    0  0.00000000000E+00  0.00000000000E+00  0.74505805969E-08  0.10566000000E+00  0.10566000000E+00 0. -1.
     999900   -1    0    0    0    0 -0.00000000000E+00 -0.00000000000E+00 -0.74505805969E-08  0.93827000000E+00  0.93827000000E+00 0.  1.
     999902    2    1    2    0    0  0.13616322050E-01  0.43379586350E-02 -0.19054146016E-01  0.10201123051E+01  0.10198342181E+01 0.  0.
     999903    2    3    3    0    0  0.11610035305E+00 -0.44904038327E-01  0.36683482539E-01  0.13104850865E+00  0.18230992624E-01 0.  0.
         14    1    1    2    0    0 -0.13616322050E-01 -0.43379586350E-02  0.19054146016E-01  0.23817694928E-01  0.00000000000E+00 0. -1.
     999901    1    3    3    0    0 -0.10248403100E+00  0.49241996962E-01 -0.55737628556E-01  0.88906379642E+00  0.88000000000E+00 0.  1.
        -11    1    4    4    0    0  0.58667051857E-01 -0.29273551243E-01  0.12234651002E-01  0.66698662521E-01  0.51100000000E-03 0.  1.
         11    1    4    4    0    0  0.57433301190E-01 -0.15630487084E-01  0.24448831537E-01  0.64349846127E-01  0.51100000000E-03 0. -1.
</event>
<event>
 8    1  0.9952977E+004  0.1043930E+01  0.7957747E-01            NaN
         13   -1    0    0    0    0  0.00000000000E+00  0.00000000000E+00  0.74505805969E-08  0.10566000000E+00  0.10566000000E+00 0. -1.
     999900   -1    0    0    0    0 -0.00000000000E+00 -0.00000000000E+00 -0.74505805969E-08  0.93827000000E+00  0.93827000000E+00 0.  1.
     999902    2    1    2    0    0  0.13538616147E-01  0.63380986675E-02 -0.13287755784E-01  0.10239292481E+01  0.10237338888E+01 0.  0.
     999903    2    3    3    0    0 -0.12745275762E+00  0.29135018562E-01 -0.84913684465E-02  0.13240175423E+00  0.19106712304E-01 0.  0.
         14    1    1    2    0    0 -0.13538616147E-01 -0.63380986675E-02  0.13287755784E-01  0.20000751877E-01  0.00000000000E+00 0. -1.
     999901    1    3    3    0    0  0.14099137376E+00 -0.22796919894E-01 -0.47963873373E-02  0.89152749389E+00  0.88000000000E+00 0. -1.
        -11    1    4    4    0    0 -0.69251304355E-01  0.24874818373E-01 -0.12581825424E-02  0.73595814340E-01  0.51100000000E-03 0. -1.
         11    1    4    4    0    0 -0.58201453260E-01  0.42602001891E-02 -0.72331859041E-02  0.58805939892E-01  0.51100000000E-03 0.  1.
</event>
<event>
 8    1  0.9952977E+004  0.1043930E+01  0.7957747E-01            NaN
         13   -1    0    0    0    0  0.00000000000E+00  0.00000000000E+00  0.74505805969E-08  0.10566000000E+00  0.10566000000E+00 0. -1.
     999900   -1    0    0    0    0 -0.00000000000E+00 -0.00000000000E+00 -0.74505805969E-08  0.93827000000E+00  0.93827000000E+00 0. -1.
     999902    2    1    2    0    0  0.52688862642E-02 -0.14146052456E-01 -0.18465311461E-01  0.10200796396E+01  0.10198007803E+01 0.  0.
     999903    2    3    3    0    0 -0.22207455181E-01 -0.56705767658E-01 -0.11685056632E+00  0.13314901265E+00  0.19128240122E-01 0.  0.
         14    1    1    2    0    0 -0.52688862642E-02  0.14146052456E-01  0.18465311461E-01  0.23850360373E-01  0.00000000000E+00 0. -1.
     999901    1    3    3    0    0  0.27476341446E-01  0.42559715202E-01  0.98385254854E-01  0.88693062698E+00  0.88000000000E+00 0.  1.
        -11    1    4    4    0    0 -0.22609950590E-01 -0.43841373256E-01 -0.78702355574E-01  0.92884862967E-01  0.51100000000E-03 0.  1.
         11    1    4    4    0    0  0.40249540815E-03 -0.12864394402E-01 -0.38148210741E-01  0.40264149683E-01  0.51100000000E-03 0. -1.
</event>
<event>
 8    1  0.9952977E+004  0.1043930E+01  0.7957747E-01            NaN
         13   -1    0    0    0    0  0.00000000000E+00  0.00000000000E+00  0.74505805969E-08  0.10566000000E+00  0.10566000000E+00 0.  1.
     999900   -1    0    0    0    0 -0.00000000000E+00 -0.00000000000E+00 -0.74505805969E-08  0.93827000000E+00  0.93827000000E+00 0.  1.
     999902    2    1    2    0    0 -0.80747857677E-02 -0.15646833891E-01  0.16066903481E-01  0.10200936630E+01  0.10198151353E+01 0.  0.
     999903    2    3    3    0    0 -0.40665734780E-01 -0.12209257813E+00  0.25649043276E-01  0.13302845463E+00  0.21872281564E-01 0.  0.
         14    1    1    2    0    0  0.80747857677E-02  0.15646833891E-01 -0.16066903481E-01  0.23836337040E-01  0.00000000000E+00 0. -1.
     999901    1    3    3    0    0  0.32590949012E-01  0.10644574424E+00 -0.95821397950E-02  0.88706520833E+00  0.88000000000E+00 0. -1.
        -11    1    4    4    0    0 -0.36969281842E-01 -0.79708113451E-01  0.14617830283E-01  0.89073302583E-01  0.51100000000E-03 0.  1.
         11    1    4    4    0    0 -0.36964529381E-02 -0.42384464679E-01  0.11031212993E-01  0.43955152048E-01  0.51100000000E-03 0. -1.
</event>
<event>
 8    1  0.9952977E+004  0.1043930E+01  0.7957747E-01            NaN
         13   -1    0    0    0    0  0.00000000000E+00  0.00000000000E+00  0.74505805969E-08  0.10566000000E+00  0.10566000000E+00 0.  1.
     999900   -1    0    0    0    0 -0.00000000000E+00 -0.00000000000E+00 -0.74505805969E-08  0.93827000000E+00  0.93827000000E+00 0.  1.
     999902    2    1    2    0    0  0.50025457060E-02 -0.22396679808E-01  0.64947645976E-02  0.10200800797E+01  0.10198012308E+01 0.  0.
     999903    2    3    3    0    0  0.47917745776E-01  0.11550654538E+00 -0.21551513306E-01  0.12786619975E+00  0.15729746594E-01 0.  0.
         14    1    1    2    0    0 -0.50025457060E-02  0.22396679808E-01 -0.64947645976E-02  0.23849920275E-01  0.00000000000E+00 0.  1.
     999901    1    3    3    0    0 -0.42915200070E-01 -0.13790322518E+00  0.28046277903E-01  0.89221387997E+00  0.88000000000E+00 0.  1.
        -11    1    4    4    0    0  0.63741415311E-02  0.10802615273E-01  0.21974879456E-02  0.12744263465E-01  0.51100000000E-03 0.  1.
         11    1    4    4    0    0  0.41543604245E-01  0.10470393010E+00 -0.23749001251E-01  0.11512193629E+00  0.51100000000E-03 0. -1.
</event>
<event>
 8    1  0.9952977E+004  0.1043930E+01  0.7957747E-01            NaN
         13   -1    0    0    0    0  0.00000000000E+00  0.00000000000E+00  0.74505805969E-08  0.10566000000E+00  0.10566000000E+00 0.  1.
     999900   -1    0    0    0    0 -0.00000000000E+00 -0.00000000000E+00 -0.74505805969E-08  0.93827000000E+00  0.93827000000E+00 0.  1.
     999902    2    1    2    0    0 -0.77274384350E-02 -0.96563721967E-02  0.20457740797E-01  0.10200243942E+01  0.10197442262E+01 0.  0.
     999903    2    3    3    0    0  0.78991909364E-02  0.65202134649E-01  0.11227306186E+00  0.13194892403E+00  0.22171209975E-01 0.  0.
         14    1    1    2    0    0  0.77274384350E-02  0.96563721967E-02 -0.20457740797E-01  0.23905605771E-01  0.00000000000E+00 0. -1.
     999901    1    3    3    0    0 -0.15626629371E-01 -0.74858506846E-01 -0.91815321065E-01  0.88807547020E+00  0.88000000000E+00 0.  1.
        -11    1    4    4    0    0  0.31316004765E-02  0.17753779909E-02  0.17062974093E-01  0.17446062434E-01  0.51100000000E-03 0. -1.
         11    1    4    4    0    0  0.47675904599E-02  0.63426756658E-01  0.95210087769E-01  0.11450286159E+00  0.51100000000E-03 0.  1.
</event>
<event>
 8    1  0.9952977E+004  0.1043930E+01  0.7957747E-01            NaN
         13   -1    0    0    0    0  0.00000000000E+00  0.00000000000E+00  0.74505805969E-08  0.10566000000E+00  0.10566000000E+00 0. -1.
     999900   -1    0    0    0    0 -0.00000000000E+00 -0.00000000000E+00 -0.74505805969E-08  0.93827000000E+00  0.93827000000E+00 0.  1.
     999902    2    1    2    0    0  0.13958784552E-01 -0.94811879640E-02  0.16780454980E-01  0.10201324316E+01  0.10198548200E+01 0.  0.
     999903    2    3    3    0    0 -0.49691202739E-02  0.10861644602E+00 -0.65198440722E-01  0.12826593036E+00  0.19470175034E-01 0.  0.
         14    1    1    2    0    0 -0.13958784552E-01  0.94811879640E-02 -0.16780454980E-01  0.23797568378E-01  0.00000000000E+00 0. -1.
     999901    1    3    3    0    0  0.18927904826E-01 -0.11809763398E+00  0.81978895702E-01  0.89186650126E+00  0.88000000000E+00 0. -1.
        -11    1    4    4    0    0 -0.12259913044E-01  0.59755469780E-01 -0.37989496159E-01  0.71864348434E-01  0.51100000000E-03 0. -1.
         11    1    4    4    0    0  0.72907927697E-02  0.48860976241E-01 -0.27208944563E-01  0.56401581925E-01  0.51100000000E-03 0.  1.
</event>
<event>
 8    1  0.9952977E+004  0.1043930E+01  0.7957747E-01            NaN
         13   -1    0    0    0    0  0.00000000000E+00  0.00000000000E+00  0.74505805969E-08  0.10566000000E+00  0.10566000000E+00 0. -1.
     999900   -1    0    0    0    0 -0.00000000000E+00 -0.00000000000E+00 -0.74505805969E-08  0.93827000000E+00  0.93827000000E+00 0. -1.
     999902    2    1    2    0    0  0.26792985427E-02  0.16443759977E-01  0.16664757705E-01  0.10203654072E+01  0.10200932674E+01 0.  0.
     999903    2    3    3    0    0  0.20010366913E-01 -0.58827721685E-01 -0.10993657856E+00  0.12795627448E+00  0.20631074863E-01 0.  0.
         14    1    1    2    0    0 -0.26792985427E-02 -0.16443759977E-01 -0.16664757705E-01  0.23564592766E-01  0.00000000000E+00 0.  1.
     999901    1    3    3    0    0 -0.17331068370E-01  0.75271481661E-01  0.12660133627E+00  0.89240913276E+00  0.88000000000E+00 0.  1.
        -11    1    4    4    0    0  0.19113898863E-01 -0.49100068721E-01 -0.10380113130E+00  0.11640916569E+00  0.51100000000E-03 0. -1.
         11    1    4    4    0    0  0.89646805020E-03 -0.97276529634E-02 -0.61354472657E-02  0.11547108785E-01  0.51100000000E-03 0.  1.
</event>
<event>
 8    1  0.9952977E+004  0.1043930E+01  0.7957747E-01            NaN
         13   -1    0    0    0    0  0.00000000000E+00  0.00000000000E+00  0.74505805969E-08  0.10566000000E+00  0.10566000000E+00 0.  1.
     999900   -1    0    0    0    0 -0.00000000000E+00 -0.00000000000E+00 -0.74505805969E-08  0.93827000000E+00  0.93827000000E+00 0. -1.
     999902    2    1    2    0    0  0.20178325065E-01 -0.77982262908E-02  0.86243830294E-02  0.10206414380E+01  0.10203757092E+01 0.  0.
     999903    2    3    3    0    0  0.11924218650E+00  0.38950948964E-02 -0.54494364339E-01  0.13275948717E+00  0.20532288818E-01 0.  0.
         14    1    1    2    0    0 -0.20178325065E-01  0.77982262908E-02 -0.86243830294E-02  0.23288561964E-01  0.00000000000E+00 0. -1.
     999901    1    3    3    0    0 -0.99063861434E-01 -0.11693321187E-01  0.63118747369E-01  0.88788195087E+00  0.88000000000E+00 0. -1.
        -11    1    4    4    0    0  0.77642199938E-01 -0.72616354787E-02 -0.34596806776E-01  0.85312617596E-01  0.51100000000E-03 0. -1.
         11    1    4    4    0    0  0.41599986560E-01  0.11156730375E-01 -0.19897557564E-01  0.47446869575E-01  0.51100000000E-03 0.  1.
</event>
<event>
 8    1  0.9952977E+004  0.1043930E+01  0.7957747E-01            NaN
         13   -1    0    0    0    0  0.00000000000E+00  0.00000000000E+00  0.74505805969E-08  0.10566000000E+00  0.10566000000E+00 0. -1.
     999900   -1    0    0    0    0 -0.00000000000E+00 -0.00000000000E+00 -0.74505805969E-08  0.93827000000E+00  0.93827000000E+00 0.  1.
     999902    2    1    2    0    0 -0.19933295947E-01  0.49376492492E-02 -0.11949636187E-01  0.10201705709E+01  0.10198938588E+01 0.  0.
     999903    2    3    3    0    0 -0.58512976730E-01 -0.82489244545E-01  0.79516425989E-01  0.13028412078E+00  0.20563224801E-01 0.  0.
         14    1    1    2    0    0  0.19933295947E-01 -0.49376492492E-02  0.11949636187E-01  0.23759429126E-01  0.00000000000E+00 0. -1.
     999901    1    3    3    0    0  0.38579680783E-01  0.87426893794E-01 -0.91466062176E-01  0.88988645009E+00  0.88000000000E+00 0. -1.
        -11    1    4    4    0    0 -0.48988205865E-01 -0.58462219324E-01  0.50788704715E-01  0.91637487142E-01  0.51100000000E-03 0.  1.
         11    1    4    4    0    0 -0.95247708655E-02 -0.24027025222E-01  0.28727721275E-01  0.38646633640E-01  0.51100000000E-03 0. -1.
</event>
<event>
 8    1  0.9952977E+004  0.1043930E+01  0.7957747E-01            NaN
         13   -1    0    0    0    0  0.00000000000E+00  0.00000000000E+00  0.74505805969E-08  0.10566000000E+00  0.10566000000E+00 0. -1.
     999900   -1    0    0    0    0 -0.00000000000E+00 -0.00000000000E+00 -0.74505805969E-08  0.93827000000E+00  0.93827000000E+00 0.  1.
     999902    2    1    2    0    0  0.36721183671E-02 -0.18024417936E-01  0.14773825056E-01  0.10203369925E+01  0.10200641883E+01 0.  0.
     999903    2    3    3    0    0  0.91532894899E-01  0.88969922889E-01 -0.12900649118E-01  0.12908327918E+00  0.14217882697E-01 0.  0.
         14    1    1    2    0    0 -0.36721183671E-02  0.18024417936E-01 -0.14773825056E-01  0.23593007482E-01  0.00000000000E+00 0.  1.
     999901    1    3    3    0    0 -0.87860776532E-01 -0.10699434082E+00  0.27674474174E-01  0.89125371334E+00  0.88000000000E+00 0. -1.
        -11    1    4    4    0    0  0.47603926293E-01  0.56052359999E-01 -0.74305130437E-02  0.73915319826E-01  0.51100000000E-03 0. -1.
         11    1    4    4    0    0  0.43928968606E-01  0.32917562890E-01 -0.54701360743E-02  0.55167959352E-01  0.51100000000E-03 0.  1.
</event>
<event>
 8    1  0.9952977E+004  0.1043930E+01  0.7957747E-01            NaN
         13   -1    0    0    0    0  0.00000000000E+00  0.00000000000E+00  0.74505805969E-08  0.10566000000E+00  0.10566000000E+00 0.  1.
     999900   -1    0    0    0    0 -0.00000000000E+00 -0.00000000000E+00 -0.74505805969E-08  0.93827000000E+00  0.93827000000E+00 0.  1.
     999902    2    1    2    0    0  0.11418088982E-02 -0.14846809678E-01 -0.17717365331E-01  0.10207861775E+01  0.10205237791E+01 0.  0.
     999903    2    3    3    0    0 -0.90243125242E-01  0.20518713134E-01  0.87853245993E-01  0.12907597774E+00  0.19431313830E-01 0.  0.
         14    1    1    2    0    0 -0.11418088982E-02  0.14846809678E-01  0.17717365331E-01  0.23143822489E-01  0.00000000000E+00 0.  1.
     999901    1    3    3    0    0  0.91384934140E-01 -0.35365522812E-01 -0.10557061132E+00  0.89171019977E+00  0.88000000000E+00 0. -1.
        -11    1    4    4    0    0 -0.70108020369E-01  0.11514781058E-01  0.75971001938E-01  0.10401720511E+00  0.51100000000E-03 0.  1.
         11    1    4    4    0    0 -0.20135104873E-01  0.90039320757E-02  0.11882244054E-01  0.25058772632E-01  0.51100000000E-03 0. -1.
</event>
<event>
 8    1  0.9952977E+004  0.1043930E+01  0.7957747E-01            NaN
         13   -1    0    0    0    0  0.00000000000E+00  0.00000000000E+00  0.74505805969E-08  0.10566000000E+00  0.10566000000E+00 0. -1.
     999900   -1    0    0    0    0 -0.00000000000E+00 -0.00000000000E+00 -0.74505805969E-08  0.93827000000E+00  0.93827000000E+00 0. -1.
     999902    2    1    2    0    0  0.14714190897E-01  0.53043357810E-02  0.17379512647E-01  0.10205485789E+01  0.10202807021E+01 0.  0.
     999903    2    3    3    0    0  0.75234715849E-01 -0.39048858116E-01  0.10124903599E+00  0.13338228296E+00  0.18825257737E-01 0.  0.
         14    1    1    2    0    0 -0.14714190897E-01 -0.53043357810E-02 -0.17379512647E-01  0.23381421079E-01  0.00000000000E+00 0. -1.
     999901    1    3    3    0    0 -0.60520524952E-01  0.44353193897E-01 -0.83869523343E-01  0.88716629596E+00  0.88000000000E+00 0. -1.
        -11    1    4    4    0    0  0.31024383758E-01 -0.17840849677E-01  0.29010740524E-01  0.46072687045E-01  0.51100000000E-03 0. -1.
         11    1    4    4    0    0  0.44210332090E-01 -0.21208008439E-01  0.72238295466E-01  0.87309595912E-01  0.51100000000E-03 0.  1.
</event>
<event>
 8    1  0.9952977E+004  0.1043930E+01  0.7957747E-01            NaN
         13   -1    0    0    0    0  0.00000000000E+00  0.00000000000E+00  0.74505805969E-08  0.10566000000E+00  0.10566000000E+00 0. -1.
     999900   -1    0    0    0    0 -0.00000000000E+00 -0.00000000000E+00 -0.74505805969E-08  0.93827000000E+00  0.93827000000E+00 0. -1.
     999902    2    1    2    0    0 -0.19397505660E-01 -0.51615300227E-02 -0.11652057379E-01  0.10207206256E+01  0.10204567215E+01 0.  0.
     999903    2    3    3    0    0 -0.99462839489E-01  0.47528875765E-01  0.69576822374E-01  0.13179719391E+00  0.19434907742E-01 0.  0.
         14    1    1    2    0    0  0.19397505660E-01  0.51615300227E-02  0.11652057379E-01  0.23209374381E-01  0.00000000000E+00 0. -1.
     999901    1    3    3    0    0  0.80065333829E-01 -0.52690405788E-01 -0.81228879753E-01  0.88892343171E+00  0.88000000000E+00 0. -1.
        -11    1    4    4    0    0 -0.18212596043E-01  0.12061293188E-02  0.13924899735E-01  0.22963391652E-01  0.51100000000E-03 0. -1.
         11    1    4    4    0    0 -0.81250243447E-01  0.46322746447E-01  0.55651922639E-01  0.10883380225E+00  0.51100000000E-03 0.  1.
</event>
<event>
 8    1  0.9952977E+004  0.1043930E+01  0.7957747E-01            NaN
         13   -1    0    0    0    0  0.00000000000E+00  0.00000000000E+00  0.74505805969E-08  0.10566000000E+00  0.10566000000E+00 0.  1.
     999900   -1    0    0    0    0 -0.00000000000E+00 -0.00000000000E+00 -0.74505805969E-08  0.93827000000E+00  0.93827000000E+00 0. -1.
     999902    2    1    2    0    0  0.50245770388E-02  0.20153488878E-01  0.11191053361E-01  0.10203365864E+01  0.10200637727E+01 0.  0.
     999903    2    3    3    0    0 -0.38877286896E-01 -0.10658039917E+00  0.57959345677E-01  0.12894659030E+00  0.19927681128E-01 0.  0.
         14    1    1    2    0    0 -0.50245770388E-02 -0.20153488878E-01 -0.11191053361E-01  0.23593413566E-01  0.00000000000E+00 0. -1.
     999901    1    3    3    0    0  0.43901863934E-01  0.12673388805E+00 -0.46768292315E-01  0.89138999613E+00  0.88000000000E+00 0.  1.
        -11    1    4    4    0    0 -0.12224392730E-01 -0.30628465255E-01  0.27287433114E-01  0.42806585807E-01  0.51100000000E-03 0. -1.
         11    1    4    4    0    0 -0.26652894165E-01 -0.75951933917E-01  0.30671912563E-01  0.86140004495E-01  0.51100000000E-03 0.  1.
</event>
<event>
 8    1  0.9952977E+004  0.1043930E+01  0.7957747E-01            NaN
         13   -1    0    0    0    0  0.00000000000E+00  0.00000000000E+00  0.74505805969E-08  0.10566000000E+00  0.10566000000E+00 0.  1.
     999900   -1    0    0    0    0 -0.00000000000E+00 -0.00000000000E+00 -0.74505805969E-08  0.93827000000E+00  0.93827000000E+00 0.  1.
     999902    2    1    2    0    0  0.15440925194E-01 -0.18114314582E-01 -0.24758369649E-02  0.10199992597E+01  0.10197184952E+01 0.  0.
     999903    2    3    3    0    0  0.64385449049E-01 -0.35478277852E-02 -0.11287809116E+00  0.13163198952E+00  0.20674720600E-01 0.  0.
         14    1    1    2    0    0 -0.15440925194E-01  0.18114314582E-01  0.24758369649E-02  0.23930740321E-01  0.00000000000E+00 0.  1.
     999901    1    3    3    0    0 -0.48944523854E-01 -0.14566486797E-01  0.11040225419E+00  0.88836727016E+00  0.88000000000E+00 0. -1.
        -11    1    4    4    0    0  0.12191263945E-01  0.47050481572E-02 -0.11992645184E-01  0.17743986425E-01  0.51100000000E-03 0.  1.
         11    1    4    4    0    0  0.52194185103E-01 -0.82528759424E-02 -0.10088544597E+00  0.11388800310E+00  0.51100000000E-03 0. -1.
</event>
<event>
 8    1  0.9952977E+004  0.1043930E+01  0.7957747E-01            NaN
         13   -1    0    0    0    0  0.00000000000E+00  0.00000000000E+00  0.74505805969E-08  0.10566000000E+00  0.10566000000E+00 0. -1.
     999900   -1    0    0    0    0 -0.00000000000E+00 -0.00000000000E+00 -0.74505805969E-08  0.93827000000E+00  0.93827000000E+00 0. -1.
     999902    2    1    2    0    0 -0.80566703276E-02 -0.43598810344E-02 -0.21601030164E-01  0.10204667734E+01  0.10201969969E+01 0.  0.
     999903    2    3    3    0    0  0.43022853481E-01 -0.11923776424E+00 -0.27445012138E-01  0.13151222002E+00  0.21762926749E-01 0.  0.
         14    1    1    2    0    0  0.80566703276E-02  0.43598810344E-02  0.21601030164E-01  0.23463226623E-01  0.00000000000E+00 0. -1.
     999901    1    3    3    0    0 -0.51079523809E-01  0.11487788321E+00  0.58439819735E-02  0.88895455335E+00  0.88000000000E+00 0. -1.
        -11    1    4    4    0    0  0.24291202828E-01 -0.60517341531E-01 -0.32427576852E-02  0.65293091206E-01  0.51100000000E-03 0. -1.
         11    1    4    4    0    0  0.18731650654E-01 -0.58720422713E-01 -0.24202254452E-01  0.66219128818E-01  0.51100000000E-03 0.  1.
</event>
<event>
 8    1  0.9952977E+004  0.1043930E+01  0.7957747E-01            NaN
         13   -1    0    0    0    0  0.00000000000E+00  0.00000000000E+00  0.74505805969E-08  0.10566000000E+00  0.10566000000E+00 0. -1.
     999900   -1    0    0    0    0 -0.00000000000E+00 -0.00000000000E+00 -0.74505805969E-08  0.93827000000E+00  0.93827000000E+00 0. -1.
     999902    2    1    2    0    0 -0.19211561270E-01  0.13054097440E-01 -0.25422004711E-02  0.10205642916E+01  0.10202967789E+01 0.  0.
     999903    2    3    3    0    0  0.12057396413E+00 -0.47558741887E-02 -0.39114154117E-01  0.12860313997E+00  0.21169586467E-01 0.  0.
         14    1    1    2    0    0  0.19211561270E-01 -0.13054097440E-01  0.25422004711E-02  0.23365708413E-01  0.00000000000E+00 0.  1.
     999901    1    3    3    0    0 -0.13978552540E+00  0.17809971629E-01  0.36571953645E-01  0.89196115162E+00  0.88000000000E+00 0.  1.
        -11    1    4    4    0    0  0.43796815567E-01 -0.11696319900E-01 -0.12190072275E-01  0.46944903196E-01  0.51100000000E-03 0. -1.
         11    1    4    4    0    0  0.76777148567E-01  0.69404457117E-02 -0.26924081841E-01  0.81658236773E-01  0.51100000000E-03 0.  1.
</event>
<event>
 8    1  0.9952977E+004  0.1043930E+01  0.7957747E-01            NaN
         13   -1    0    0    0    0  0.00000000000E+00  0.00000000000E+00  0.74505805969E-08  0.10566000000E+00  0.10566000000E+00 0.  1.
     999900   -1    0    0    0    0 -0.00000000000E+00 -0.00000000000E+00 -0.74505805969E-08  0.93827000000E+00  0.93827000000E+00 0.  1.
     999902    2    1    2    0    0  0.20622738237E-02 -0.11962262099E-01 -0.16040613172E-01  0.10238140869E+01  0.10236164490E+01 0.  0.
     999903    2    3    3    0    0 -0.14253379114E-02 -0.87653470068E-01  0.98164105749E-01  0.13320528379E+00  0.20549782702E-01 0.  0.
         14    1    1    2    0    0 -0.20622738237E-02  0.11962262099E-01  0.16040613172E-01  0.20115913074E-01  0.00000000000E+00 0.  1.
     999901    1    3    3    0    0  0.34876117352E-02  0.75691207969E-01 -0.11420471892E+00  0.89060880314E+00  0.88000000000E+00 0.  1.
        -11    1    4    4    0    0 -0.78195591173E-02 -0.20692197073E-01  0.17754563401E-01  0.28368964857E-01  0.51100000000E-03 0.  1.
         11    1    4    4    0    0  0.63942212059E-02 -0.66961272994E-01  0.80409542348E-01  0.10483631893E+00  0.51100000000E-03 0. -1.
</event>
<event>
 8    1  0.9952977E+004  0.1043930E+01  0.7957747E-01            NaN
         13   -1    0    0    0    0  0.00000000000E+00  0.00000000000E+00  0.74505805969E-08  0.10566000000E+00  0.10566000000E+00 0.  1.
     999900   -1    0    0    0    0 -0.00000000000E+00 -0.00000000000E+00 -0.74505805969E-08  0.93827000000E+00  0.93827000000E+00 0. -1.
     999902    2    1    2    0    0  0.18564462440E-01 -0.61186583000E-03 -0.14944644116E-01  0.10200897812E+01  0.10198111618E+01 0.  0.
     999903    2    3    3    0    0  0.75156059378E-01 -0.99463051173E-01 -0.39986811254E-01  0.13239542172E+00  0.19704588509E-01 0.  0.
         14    1    1    2    0    0 -0.18564462440E-01  0.61186583000E-03  0.14944644116E-01  0.23840218817E-01  0.00000000000E+00 0.  1.
     999901    1    3    3    0    0 -0.56591596938E-01  0.98851185343E-01  0.25042167137E-01  0.88769435946E+00  0.88000000000E+00 0.  1.
        -11    1    4    4    0    0  0.62874826827E-01 -0.78337570997E-01 -0.24282410811E-01  0.10334367651E+00  0.51100000000E-03 0. -1.
         11    1    4    4    0    0  0.12281232551E-01 -0.21125480176E-01 -0.15704400443E-01  0.29051745213E-01  0.51100000000E-03 0.  1.
</event>
<event>
 8    1  0.9952977E+004  0.1043930E+01  0.7957747E-01            NaN
         13   -1    0    0    0    0  0.00000000000E+00  0.00000000000E+00  0.74505805969E-08  0.10566000000E+00  0.10566000000E+00 0.  1.
     999900   -1    0    0    0    0 -0.00000000000E+00 -0.00000000000E+00 -0.74505805969E-08  0.93827000000E+00  0.93827000000E+00 0. -1.
     999902    2    1    2    0    0 -0.41687267617E-03  0.20935002848E-01  0.12590509042E-01  0.10194970500E+01  0.10192042317E+01 0.  0.
     999903    2    3    3    0    0  0.61649215736E-01  0.86601486805E-01 -0.73489902498E-01  0.13069216496E+00  0.19473902923E-01 0.  0.
         14    1    1    2    0    0  0.41687267617E-03 -0.20935002848E-01 -0.12590509042E-01  0.24432949986E-01  0.00000000000E+00 0. -1.
     999901    1    3    3    0    0 -0.62066088412E-01 -0.65666483957E-01  0.86080411540E-01  0.88880488505E+00  0.88000000000E+00 0.  1.
        -11    1    4    4    0    0  0.21787275387E-01  0.36167820906E-01 -0.40180735152E-01  0.58288500034E-01  0.51100000000E-03 0. -1.
         11    1    4    4    0    0  0.39861940349E-01  0.50433665898E-01 -0.33309167346E-01  0.72403664925E-01  0.51100000000E-03 0.  1.
</event>
<event>
 8    1  0.9952977E+004  0.1043930E+01  0.7957747E-01            NaN
         13   -1    0    0    0    0  0.00000000000E+00  0.00000000000E+00  0.74505805969E-08  0.10566000000E+00  0.10566000000E+00 0.  1.
     999900   -1    0    0    0    0 -0.00000000000E+00 -0.00000000000E+00 -0.74505805969E-08  0.93827000000E+00  0.93827000000E+00 0.  1.
     999902    2    1    2    0    0  0.14448128628E-01  0.16787134526E-01 -0.13274650765E-01  0.10181080586E+01  0.10177805492E+01 0.  0.
     999903    2    3    3    0    0 -0.10690238905E+00  0.52784721474E-01 -0.43718085424E-01  0.12853030642E+00  0.19860036946E-01 0.  0.
         14    1    1    2    0    0 -0.14448128628E-01 -0.16787134526E-01  0.13274650765E-01  0.25821941433E-01  0.00000000000E+00 0.  1.
     999901    1    3    3    0    0  0.12135051768E+00 -0.35997586948E-01  0.30443434659E-01  0.88957775215E+00  0.88000000000E+00 0.  1.
        -11    1    4    4    0    0 -0.13938911190E-01  0.54250483912E-02  0.10393192733E-02  0.15002189866E-01  0.51100000000E-03 0. -1.
         11    1    4    4    0    0 -0.92963477865E-01  0.47359673083E-01 -0.44757404697E-01  0.11352811655E+00  0.51100000000E-03 0.  1.
</event>
<event>
 8    1  0.9952977E+004  0.1043930E+01  0.7957747E-01            NaN
         13   -1    0    0    0    0  0.00000000000E+00  0.00000000000E+00  0.74505805969E-08  0.10566000000E+00  0.10566000000E+00 0. -1.
     999900   -1    0    0    0    0 -0.00000000000E+00 -0.00000000000E+00 -0.74505805969E-08  0.93827000000E+00  0.93827000000E+00 0.  1.
     999902    2    1    2    0    0 -0.26645311860E-02  0.23305000625E-04  0.20873536583E-01  0.10228870725E+01  0.10226706010E+01 0.  0.
     999903    2    3    3    0    0 -0.11420434753E+00  0.42210365756E-01  0.52731488395E-01  0.13427252846E+00  0.20595000841E-01 0.  0.
         14    1    1    2    0    0  0.26645311860E-02 -0.23305000625E-04 -0.20873536583E-01  0.21042927530E-01  0.00000000000E+00 0.  1.
     999901    1    3    3    0    0  0.11153981634E+00 -0.42187060755E-01 -0.31857951812E-01  0.88861454401E+00  0.88000000000E+00 0. -1.
        -11    1    4    4    0    0 -0.89202135579E-01  0.28391817423E-01  0.48367496832E-01  0.10536978770E+00  0.51100000000E-03 0. -1.
         11    1    4    4    0    0 -0.25002211951E-01  0.13818548333E-01  0.43639915629E-02  0.28902740767E-01  0.51100000000E-03 0.  1.
</event>
<event>
 8    1  0.1132548E+005  0.1043930E+01  0.7957747E-01            NaN
         13   -1    0    0    0    0  0.00000000000E+00  0.00000000000E+00  0.74505805969E-08  0.10566000000E+00  0.10566000000E+00 0.  1.
     999900   -1    0    0    0    0 -0.00000000000E+00 -0.00000000000E+00 -0.74505805969E-08  0.93827000000E+00  0.93827000000E+00 0. -1.
     999902    2    1    2    0    0 -0.47700657756E-03 -0.24154029772E-01 -0.11278604137E-01  0.10172681996E+01  0.10169187472E+01 0.  0.
     999903    2    3    3    0    0  0.24223506255E-01  0.12024459343E+00 -0.11514297034E-01  0.12515770573E+00  0.22052930964E-01 0.  0.
         14    1    1    2    0    0  0.47700657756E-03  0.24154029772E-01  0.11278604137E-01  0.26661800404E-01  0.00000000000E+00 0.  1.
     999901    1    3    3    0    0 -0.24700512832E-01 -0.14439862320E+00  0.23569289743E-03  0.89211049387E+00  0.88000000000E+00 0. -1.
        -11    1    4    4    0    0  0.12517852162E-01  0.62897206323E-01  0.50375024727E-02  0.64330340728E-01  0.51100000000E-03 0. -1.
         11    1    4    4    0    0  0.11705654092E-01  0.57347387102E-01 -0.16551799507E-01  0.60827365002E-01  0.51100000000E-03 0.  1.
</event>
<event>
 8    1  0.9952977E+004  0.1043930E+01  0.7957747E-01            NaN
         13   -1    0    0    0    0  0.00000000000E+00  0.00000000000E+00  0.74505805969E-08  0.10566000000E+00  0.10566000000E+00 0. -1.
     999900   -1    0    0    0    0 -0.00000000000E+00 -0.00000000000E+00 -0.74505805969E-08  0.93827000000E+00  0.93827000000E+00 0. -1.
     999902    2    1    2    0    0 -0.93769865187E-02 -0.20443633516E-01  0.96786052977E-02  0.10194443832E+01  0.10191502858E+01 0.  0.
     999903    2    3    3    0    0  0.56319428846E-01 -0.11726631292E+00  0.46435541850E-02  0.13168540583E+00  0.19905207919E-01 0.  0.
         14    1    1    2    0    0  0.93769865187E-02  0.20443633516E-01 -0.96786052977E-02  0.24485616758E-01  0.00000000000E+00 0.  1.
     999901    1    3    3    0    0 -0.65696415364E-01  0.96822679400E-01  0.50350511127E-02  0.88775897741E+00  0.88000000000E+00 0. -1.
        -11    1    4    4    0    0  0.21859403790E-01 -0.27119883973E-01 -0.23991002124E-02  0.34919026956E-01  0.51100000000E-03 0.  1.
         11    1    4    4    0    0  0.34460025056E-01 -0.90146428943E-01  0.70426543974E-02  0.96766378872E-01  0.51100000000E-03 0. -1.
</event>
<event>
 8    1  0.9952977E+004  0.1043930E+01  0.7957747E-01            NaN
         13   -1    0    0    0    0  0.00000000000E+00  0.00000000000E+00  0.74505805969E-08  0.10566000000E+00  0.10566000000E+00 0.  1.
     999900   -1    0    0    0    0 -0.00000000000E+00 -0.00000000000E+00 -0.74505805969E-08  0.93827000000E+00  0.93827000000E+00 0. -1.
     999902    2    1    2    0    0  0.11521315448E-01  0.12229494865E-01  0.15548543339E-01  0.10210376770E+01  0.10207810144E+01 0.  0.
     999903    2    3    3    0    0  0.11785259375E+00  0.15223984227E-01 -0.53594557864E-01  0.13193921438E+00  0.20361142151E-01 0.  0.
         14    1    1    2    0    0 -0.11521315448E-01 -0.12229494865E-01 -0.15548543339E-01  0.22892323042E-01  0.00000000000E+00 0.  1.
     999901    1    3    3    0    0 -0.10633127830E+00 -0.29944893624E-02  0.69143101203E-01  0.88909846258E+00  0.88000000000E+00 0.  1.
        -11    1    4    4    0    0  0.37580876463E-01  0.71703113915E-02 -0.73923374267E-02  0.38969775657E-01  0.51100000000E-03 0. -1.
         11    1    4    4    0    0  0.80271717287E-01  0.80536728356E-02 -0.46202220437E-01  0.92969438724E-01  0.51100000000E-03 0.  1.
</event>
<event>
 8    1  0.9952977E+004  0.1043930E+01  0.7957747E-01            NaN
         13   -1    0    0    0    0  0.00000000000E+00  0.00000000000E+00  0.74505805969E-08  0.10566000000E+00  0.10566000000E+00 0.  1.
     999900   -1    0    0    0    0 -0.00000000000E+00 -0.00000000000E+00 -0.74505805969E-08  0.93827000000E+00  0.93827000000E+00 0.  1.
     999902    2    1    2    0    0  0.93172197345E-03 -0.10357138753E-01 -0.19256943798E-01  0.10220446553E+01  0.10218103097E+01 0.  0.
     999903    2    3    3    0    0 -0.53285222249E-01 -0.97971025870E-01  0.67361247436E-01  0.13180964063E+00  0.19965141803E-01 0.  0.
         14    1    1    2    0    0 -0.93172197345E-03  0.10357138753E-01  0.19256943798E-01  0.21885344718E-01  0.00000000000E+00 0.  1.
     999901    1    3    3    0    0  0.54216944222E-01  0.87613887117E-01 -0.86618191234E-01  0.89023501465E+00  0.88000000000E+00 0.  1.
        -11    1    4    4    0    0 -0.31466080250E-02 -0.21845447002E-01  0.11384204324E-01  0.24839201394E-01  0.51100000000E-03 0. -1.
         11    1    4    4    0    0 -0.50138614224E-01 -0.76125578868E-01  0.55977043112E-01  0.10697043924E+00  0.51100000000E-03 0.  1.
</event>
<event>
 8    1  0.9952977E+004  0.1043930E+01  0.7957747E-01            NaN
         13   -1    0    0    0    0  0.00000000000E+00  0.00000000000E+00  0.74505805969E-08  0.10566000000E+00  0.10566000000E+00 0. -1.
     999900   -1    0    0    0    0 -0.00000000000E+00 -0.00000000000E+00 -0.74505805969E-08  0.93827000000E+00  0.93827000000E+00 0.  1.
     999902    2    1    2    0    0  0.42830158780E-02 -0.23298892340E-01 -0.14887869791E-02  0.10201939705E+01  0.10199178096E+01 0.  0.
     999903    2    3    3    0    0 -0.10723043823E+00 -0.73722933541E-01 -0.81846894522E-02  0.13169936192E+00  0.18555187346E-01 0.  0.
         14    1    1    2    0    0 -0.42830158780E-02  0.23298892340E-01  0.14887869791E-02  0.23736029490E-01  0.00000000000E+00 0. -1.
     999901    1    3    3    0    0  0.11151345410E+00  0.50424041201E-01  0.66959024731E-02  0.88849460859E+00  0.88000000000E+00 0.  1.
        -11    1    4    4    0    0 -0.72043807406E-01 -0.38710629424E-01 -0.61211825414E-02  0.82015565673E-01  0.51100000000E-03 0.  1.
         11    1    4    4    0    0 -0.35186630821E-01 -0.35012304117E-01 -0.20635069108E-02  0.49683796251E-01  0.51100000000E-03 0. -1.
</event>
<event>
 8    1  0.9952977E+004  0.1043930E+01  0.7957747E-01            NaN
         13   -1    0    0    0    0  0.00000000000E+00  0.00000000000E+00  0.74505805969E-08  0.10566000000E+00  0.10566000000E+00 0. -1.
     999900   -1    0    0    0    0 -0.00000000000E+00 -0.00000000000E+00 -0.74505805969E-08  0.93827000000E+00  0.93827000000E+00 0.  1.
     999902    2    1    2    0    0 -0.15734524527E-01  0.10932590377E-01 -0.13495412346E-01  0.10204944938E+01  0.10202253619E+01 0.  0.
     999903    2    3    3    0    0 -0.73674939659E-01  0.18582395203E-01  0.10443722867E+00  0.13070591275E+00  0.20089767334E-01 0.  0.
         14    1    1    2    0    0  0.15734524527E-01 -0.10932590377E-01  0.13495412346E-01  0.23435506157E-01  0.00000000000E+00 0. -1.
     999901    1    3    3    0    0  0.57940415132E-01 -0.76498048258E-02 -0.11793264101E+00  0.88978858109E+00  0.88000000000E+00 0.  1.
        -11    1    4    4    0    0 -0.57058734518E-01  0.20285095243E-01  0.70953002328E-01  0.93283299332E-01  0.51100000000E-03 0.  1.
         11    1    4    4    0    0 -0.16616205141E-01 -0.17027000395E-02  0.33484226340E-01  0.37422613422E-01  0.51100000000E-03 0. -1.
</event>
<event>
 8    1  0.9952977E+004  0.1043930E+01  0.7957747E-01            NaN
         13   -1    0    0    0    0  0.00000000000E+00  0.00000000000E+00  0.74505805969E-08  0.10566000000E+00  0.10566000000E+00 0. -1.
     999900   -1    0    0    0    0 -0.00000000000E+00 -0.00000000000E+00 -0.74505805969E-08  0.93827000000E+00  0.93827000000E+00 0.  1.
     999902    2    1    2    0    0 -0.14053959454E-02  0.21330114435E-01 -0.10953590414E-01  0.10199106315E+01  0.10196277587E+01 0.  0.
     999903    2    3    3    0    0  0.11231347855E+00  0.34270324739E-01  0.53158246470E-01  0.13018609038E+00  0.18271462446E-01 0.  0.
         14    1    1    2    0    0  0.14053959454E-02 -0.21330114435E-01  0.10953590414E-01  0.24019368487E-01  0.00000000000E+00 0. -1.
     999901    1    3    3    0    0 -0.11371887449E+00 -0.12940210304E-01 -0.64111836884E-01  0.88972454113E+00  0.88000000000E+00 0. -1.
        -11    1    4    4    0    0  0.99990959396E-01  0.35240958649E-01  0.50917132782E-01  0.11761348842E+00  0.51100000000E-03 0. -1.
         11    1    4    4    0    0  0.12322519154E-01 -0.97063390983E-03  0.22411136881E-02  0.12572601960E-01  0.51100000000E-03 0.  1.
</event>
<event>
 8    1  0.1245650E+005  0.1043930E+01  0.7957747E-01            NaN
         13   -1    0    0    0    0  0.00000000000E+00  0.00000000000E+00  0.74505805969E-08  0.10566000000E+00  0.10566000000E+00 0. -1.
     999900   -1    0    0    0    0 -0.00000000000E+00 -0.00000000000E+00 -0.74505805969E-08  0.93827000000E+00  0.93827000000E+00 0.  1.
     999902    2    1    2    0    0 -0.17002563729E-01  0.13072610067E-01 -0.16676955255E-01  0.10167619831E+01  0.10163989517E+01 0.  0.
     999903    2    3    3    0    0 -0.46500752820E-02 -0.46629856721E-01  0.11418540166E+00  0.12499860360E+00  0.19757991066E-01 0.  0.
         14    1    1    2    0    0  0.17002563729E-01 -0.13072610067E-01  0.16676955255E-01  0.27168016930E-01  0.00000000000E+00 0.  1.
     999901    1    3    3    0    0 -0.12352488447E-01  0.59702466788E-01 -0.13086235692E+00  0.89176337947E+00  0.88000000000E+00 0.  1.
        -11    1    4    4    0    0  0.77065957394E-02 -0.21399466808E-01  0.52128505036E-01  0.56876805078E-01  0.51100000000E-03 0.  1.
         11    1    4    4    0    0 -0.12356671021E-01 -0.25230389913E-01  0.62056896625E-01  0.68121798520E-01  0.51100000000E-03 0. -1.
</event>
<event>
 8    1  0.9952977E+004  0.1043930E+01  0.7957747E-01            NaN
         13   -1    0    0    0    0  0.00000000000E+00  0.00000000000E+00  0.74505805969E-08  0.10566000000E+00  0.10566000000E+00 0.  1.
     999900   -1    0    0    0    0 -0.00000000000E+00 -0.00000000000E+00 -0.74505805969E-08  0.93827000000E+00  0.93827000000E+00 0.  1.
     999902    2    1    2    0    0  0.60893536293E-02 -0.12105915816E-03  0.23202350977E-01  0.10199415867E+01  0.10196594511E+01 0.  0.
     999903    2    3    3    0    0 -0.11426991332E+00 -0.45859588363E-01  0.38567512314E-01  0.13043922334E+00  0.19136954957E-01 0.  0.
         14    1    1    2    0    0 -0.60893536293E-02  0.12105915816E-03 -0.23202350977E-01  0.23988413324E-01  0.00000000000E+00 0. -1.
     999901    1    3    3    0    0  0.12035926695E+00  0.45738529205E-01 -0.15365161337E-01  0.88950236333E+00  0.88000000000E+00 0.  1.
        -11    1    4    4    0    0 -0.58087680913E-01 -0.15193135881E-01  0.24814902035E-01  0.64969612403E-01  0.51100000000E-03 0. -1.
         11    1    4    4    0    0 -0.56182232407E-01 -0.30666452482E-01  0.13752610278E-01  0.65469610939E-01  0.51100000000E-03 0.  1.
</event>
<event>
 8    1  0.9952977E+004  0.1043930E+01  0.7957747E-01            NaN
         13   -1    0    0    0    0  0.00000000000E+00  0.00000000000E+00  0.74505805969E-08  0.10566000000E+00  0.10566000000E+00 0. -1.
     999900   -1    0    0    0    0 -0.00000000000E+00 -0.00000000000E+00 -0.74505805969E-08  0.93827000000E+00  0.93827000000E+00 0. -1.
     999902    2    1    2    0    0  0.37136118135E-02 -0.23303821620E-01  0.30428233060E-03  0.10203301779E+01  0.10200572143E+01 0.  0.
     999903    2    3    3    0    0 -0.45336899309E-01  0.11748983635E+00  0.93351713524E-02  0.12774384387E+00  0.19288549375E-01 0.  0.
         14    1    1    2    0    0 -0.37136118135E-02  0.23303821620E-01 -0.30428233060E-03  0.23599822087E-01  0.00000000000E+00 0. -1.
     999901    1    3    3    0    0  0.49050511122E-01 -0.14079365797E+00 -0.90308890218E-02  0.89258633404E+00  0.88000000000E+00 0.  1.
        -11    1    4    4    0    0 -0.87410089221E-02  0.46911783045E-01  0.67643553298E-02  0.48198944485E-01  0.51100000000E-03 0.  1.
         11    1    4    4    0    0 -0.36595890386E-01  0.70578053308E-01  0.25708160226E-02  0.79544899383E-01  0.51100000000E-03 0. -1.
</event>
<event>
 8    1  0.9952977E+004  0.1043930E+01  0.7957747E-01            NaN
         13   -1    0    0    0    0  0.00000000000E+00  0.00000000000E+00  0.74505805969E-08  0.10566000000E+00  0.10566000000E+00 0. -1.
     999900   -1    0    0    0    0 -0.00000000000E+00 -0.00000000000E+00 -0.74505805969E-08  0.93827000000E+00  0.93827000000E+00 0.  1.
     999902    2    1    2    0    0  0.16027298052E-02 -0.24087298993E-01  0.11861326103E-01  0.10170328297E+01  0.10166770966E+01 0.  0.
     999903    2    3    3    0    0  0.98930966800E-01 -0.37029223425E-01 -0.69228268918E-01  0.12786703997E+00  0.19973159846E-01 0.  0.
         14    1    1    2    0    0 -0.16027298052E-02  0.24087298993E-01 -0.11861326103E-01  0.26897170344E-01  0.00000000000E+00 0.  1.
     999901    1    3    3    0    0 -0.97328236995E-01  0.12941924432E-01  0.81089595021E-01  0.88916578968E+00  0.88000000000E+00 0. -1.
        -11    1    4    4    0    0  0.66308334232E-01 -0.24629998444E-01 -0.57131677784E-01  0.90927013254E-01  0.51100000000E-03 0.  1.
         11    1    4    4    0    0  0.32622632568E-01 -0.12399224981E-01 -0.12096591135E-01  0.36940026717E-01  0.51100000000E-03 0. -1.
</event>
<event>
 8    1  0.9952977E+004  0.1043930E+01  0.7957747E-01            NaN
         13   -1    0    0    0    0  0.00000000000E+00  0.00000000000E+00  0.74505805969E-08  0.10566000000E+00  0.10566000000E+00 0.  1.
     999900   -1    0    0    0    0 -0.00000000000E+00 -0.00000000000E+00 -0.74505805969E-08  0.93827000000E+00  0.93827000000E+00 0. -1.
     999902    2    1    2    0    0  0.31148472796E-02  0.77878394773E-02 -0.22478574972E-01  0.10199375210E+01  0.10196552886E+01 0.  0.
     999903    2    3    3    0    0  0.54701436427E-01 -0.14950726006E-01 -0.11849425436E+00  0.13292160836E+00  0.20285322183E-01 0.  0.
         14    1    1    2    0    0 -0.31148472796E-02 -0.77878394773E-02  0.22478574972E-01  0.23992479031E-01  0.00000000000E+00 0.  1.
     999901    1    3    3    0    0 -0.51586589148E-01  0.22738565484E-01  0.96015679389E-01  0.88701591261E+00  0.88000000000E+00 0.  1.
        -11    1    4    4    0    0  0.39043140719E-01 -0.24212457932E-02 -0.65981572542E-01  0.76707615688E-01  0.51100000000E-03 0.  1.
         11    1    4    4    0    0  0.15658295709E-01 -0.12529480213E-01 -0.52512681819E-01  0.56213992668E-01  0.51100000000E-03 0. -1.
</event>
<event>
 8    1  0.9952977E+004  0.1043930E+01  0.7957747E-01            NaN
         13   -1    0    0    0    0  0.00000000000E+00  0.00000000000E+00  0.74505805969E-08  0.10566000000E+00  0.10566000000E+00 0. -1.
     999900   -1    0    0    0    0 -0.00000000000E+00 -0.00000000000E+00 -0.74505805969E-08  0.93827000000E+00  0.93827000000E+00 0.  1.
     999902    2    1    2    0    0 -0.33225348086E-02  0.17020096232E-01  0.13223249660E-01  0.10221222664E+01  0.10218895979E+01 0.  0.
     999903    2    3    3    0    0  0.29179482457E-01  0.21143802637E-01 -0.12386876585E+00  0.13090534174E+00  0.22231391220E-01 0.  0.
         14    1    1    2    0    0  0.33225348086E-02 -0.17020096232E-01 -0.13223249660E-01  0.21807733602E-01  0.00000000000E+00 0.  1.
     999901    1    3    3    0    0 -0.32502017266E-01 -0.41237064051E-02  0.13709201551E+00  0.89121692466E+00  0.88000000000E+00 0. -1.
        -11    1    4    4    0    0  0.25031473869E-01  0.66751750033E-02 -0.93253226445E-01  0.96786145748E-01  0.51100000000E-03 0.  1.
         11    1    4    4    0    0  0.41480085877E-02  0.14468627634E-01 -0.30615539408E-01  0.34119195991E-01  0.51100000000E-03 0. -1.
</event>
<event>
 8    1  0.9952977E+004  0.1043930E+01  0.7957747E-01            NaN
         13   -1    0    0    0    0  0.00000000000E+00  0.00000000000E+00  0.74505805969E-08  0.10566000000E+00  0.10566000000E+00 0.  1.
     999900   -1    0    0    0    0 -0.00000000000E+00 -0.00000000000E+00 -0.74505805969E-08  0.93827000000E+00  0.93827000000E+00 0. -1.
     999902    2    1    2    0    0 -0.20126576345E-01  0.31341181070E-02 -0.11616201747E-01  0.10204813771E+01  0.10202119403E+01 0.  0.
     999903    2    3    3    0    0 -0.30234558787E-01 -0.12547813293E+00 -0.11413418509E-01  0.13107521370E+00  0.19787752163E-01 0.  0.
         14    1    1    2    0    0  0.20126576345E-01 -0.31341181070E-02  0.11616201747E-01  0.23448622875E-01  0.00000000000E+00 0.  1.
     999901    1    3    3    0    0  0.10107982442E-01  0.12861225103E+00 -0.20278323795E-03  0.88940616343E+00  0.88000000000E+00 0.  1.
        -11    1    4    4    0    0 -0.83487028927E-02 -0.35323919629E-01 -0.12205526995E-01  0.38297730327E-01  0.51100000000E-03 0. -1.
         11    1    4    4    0    0 -0.21885855894E-01 -0.90154213297E-01  0.79210848586E-03  0.92777483369E-01  0.51100000000E-03 0.  1.
</event>
<event>
 8    1  0.1083828E+005  0.1043930E+01  0.7957747E-01            NaN
         13   -1    0    0    0    0  0.00000000000E+00  0.00000000000E+00  0.74505805969E-08  0.10566000000E+00  0.10566000000E+00 0. -1.
     999900   -1    0    0    0    0 -0.00000000000E+00 -0.00000000000E+00 -0.74505805969E-08  0.93827000000E+00  0.93827000000E+00 0.  1.
     999902    2    1    2    0    0  0.47706082701E-02  0.22908109547E-01 -0.64650094312E-02  0.10196537455E+01  0.10193647160E+01 0.  0.
     999903    2    3    3    0    0  0.12927639867E+00  0.30187905294E-02 -0.77706232556E-02  0.13066612944E+00  0.17080821034E-01 0.  0.
         14    1    1    2    0    0 -0.47706082701E-02 -0.22908109547E-01  0.64650094312E-02  0.24276254514E-01  0.00000000000E+00 0.  1.
     999901    1    3    3    0    0 -0.12450579040E+00  0.19889319018E-01  0.13056138244E-02  0.88898761605E+00  0.88000000000E+00 0. -1.
        -11    1    4    4    0    0  0.67610797558E-01 -0.65994366492E-02 -0.16584829018E-02  0.67954280197E-01  0.51100000000E-03 0. -1.
         11    1    4    4    0    0  0.61665601114E-01  0.96182271787E-02 -0.61121403538E-02  0.62711849243E-01  0.51100000000E-03 0.  1.
</event>
<event>
 8    1  0.9952977E+004  0.1043930E+01  0.7957747E-01            NaN
         13   -1    0    0    0    0  0.00000000000E+00  0.00000000000E+00  0.74505805969E-08  0.10566000000E+00  0.10566000000E+00 0. -1.
     999900   -1    0    0    0    0 -0.00000000000E+00 -0.00000000000E+00 -0.74505805969E-08  0.93827000000E+00  0.93827000000E+00 0.  1.
     999902    2    1    2    0    0 -0.41320078058E-02  0.18028881859E-01  0.14434072118E-01  0.10204681904E+01  0.10201984470E+01 0.  0.
     999903    2    3    3    0    0  0.62949340687E-01  0.10652093770E+00 -0.40449823130E-01  0.13179333808E+00  0.20590437350E-01 0.  0.
         14    1    1    2    0    0  0.41320078058E-02 -0.18028881859E-01 -0.14434072118E-01  0.23461809553E-01  0.00000000000E+00 0.  1.
     999901    1    3    3    0    0 -0.67081348493E-01 -0.88492055844E-01  0.54883895247E-01  0.88867485236E+00  0.88000000000E+00 0. -1.
        -11    1    4    4    0    0  0.30360014418E-01  0.32847905590E-01 -0.17430431183E-01  0.48008295422E-01  0.51100000000E-03 0. -1.
         11    1    4    4    0    0  0.32589326269E-01  0.73673032113E-01 -0.23019391946E-01  0.83785042663E-01  0.51100000000E-03 0.  1.
</event>
<event>
 8    1  0.9952977E+004  0.1043930E+01  0.7957747E-01            NaN
         13   -1    0    0    0    0  0.00000000000E+00  0.00000000000E+00  0.74505805969E-08  0.10566000000E+00  0.10566000000E+00 0. -1.
     999900   -1    0    0    0    0 -0.00000000000E+00 -0.00000000000E+00 -0.74505805969E-08  0.93827000000E+00  0.93827000000E+00 0. -1.
     999902    2    1    2    0    0  0.22509908368E-01  0.70521467368E-02 -0.97977256912E-03  0.10203209191E+01  0.10200477387E+01 0.  0.
     999903    2    3    3    0    0  0.10862616811E+00 -0.21362670477E-01 -0.70873536171E-01  0.13290413411E+00  0.19607209024E-01 0.  0.
         14    1    1    2    0    0 -0.22509908368E-01 -0.70521467368E-02  0.97977256912E-03  0.23609080936E-01  0.00000000000E+00 0.  1.
     999901    1    3    3    0    0 -0.86116259742E-01  0.28414817214E-01  0.69893763602E-01  0.88741678495E+00  0.88000000000E+00 0.  1.
        -11    1    4    4    0    0  0.32295956007E-01 -0.15090032632E-01 -0.26146751456E-01  0.44211441867E-01  0.51100000000E-03 0.  1.
         11    1    4    4    0    0  0.76330212103E-01 -0.62726378454E-02 -0.44726784715E-01  0.88692692242E-01  0.51100000000E-03 0. -1.
</event>
<event>
 8    1  0.9952977E+004  0.1043930E+01  0.7957747E-01            NaN
         13   -1    0    0    0    0  0.00000000000E+00  0.00000000000E+00  0.74505805969E-08  0.10566000000E+00  0.10566000000E+00 0. -1.
     999900   -1    0    0    0    0 -0.00000000000E+00 -0.00000000000E+00 -0.74505805969E-08  0.93827000000E+00  0.93827000000E+00 0.  1.
     999902    2    1    2    0    0  0.31178079523E-02  0.23107727532E-01  0.32061468857E-02  0.10203934927E+01  0.10201220088E+01 0.  0.
     999903    2    3    3    0    0  0.11276044150E+00  0.10064350638E-01  0.63638261658E-01  0.13143698236E+00  0.20239655748E-01 0.  0.
         14    1    1    2    0    0 -0.31178079523E-02 -0.23107727532E-01 -0.32061468857E-02  0.23536507302E-01  0.00000000000E+00 0. -1.
     999901    1    3    3    0    0 -0.10964263355E+00  0.13043376895E-01 -0.60432114772E-01  0.88895651034E+00  0.88000000000E+00 0.  1.
        -11    1    4    4    0    0  0.66456590068E-01  0.11166389431E-01  0.27919600078E-01  0.72944717464E-01  0.51100000000E-03 0. -1.
         11    1    4    4    0    0  0.46303851431E-01 -0.11020387929E-02  0.35718661580E-01  0.58492264899E-01  0.51100000000E-03 0.  1.
</event>
<event>
 8    1  0.9952977E+004  0.1043930E+01  0.7957747E-01            NaN
         13   -1    0    0    0    0  0.00000000000E+00  0.00000000000E+00  0.74505805969E-08  0.10566000000E+00  0.10566000000E+00 0.  1.
     999900   -1    0    0    0    0 -0.00000000000E+00 -0.00000000000E+00 -0.74505805969E-08  0.93827000000E+00  0.93827000000E+00 0.  1.
     999902    2    1    2    0    0 -0.70225074642E-02  0.15339724596E-01 -0.29205202616E-01  0.10102021684E+01  0.10096389724E+01 0.  0.
     999903    2    3    3    0    0  0.52536593619E-02  0.78125050775E-01  0.88772935538E-01  0.12002716175E+00  0.19868592764E-01 0.  0.
         14    1    1    2    0    0  0.70225074642E-02 -0.15339724596E-01  0.29205202616E-01  0.33727831559E-01  0.00000000000E+00 0.  1.
     999901    1    3    3    0    0 -0.12276166826E-01 -0.62785326179E-01 -0.11797813815E+00  0.89017500669E+00  0.88000000000E+00 0. -1.
        -11    1    4    4    0    0 -0.14328036560E-03  0.73808941179E-01  0.82209287393E-01  0.11048261574E+00  0.51100000000E-03 0.  1.
         11    1    4    4    0    0  0.53969397275E-02  0.43161095964E-02  0.65636481457E-02  0.95445460055E-02  0.51100000000E-03 0. -1.
</event>
<event>
 8    1  0.9952977E+004  0.1043930E+01  0.7957747E-01            NaN
         13   -1    0    0    0    0  0.00000000000E+00  0.00000000000E+00  0.74505805969E-08  0.10566000000E+00  0.10566000000E+00 0.  1.
     999900   -1    0    0    0    0 -0.00000000000E+00 -0.00000000000E+00 -0.74505805969E-08  0.93827000000E+00  0.93827000000E+00 0. -1.
     999902    2    1    2    0    0 -0.25415052539E-02  0.81517097109E-03  0.23266159857E-01  0.10205112480E+01  0.10202425051E+01 0.  0.
     999903    2    3    3    0    0  0.11405511035E+00  0.58234179614E-01 -0.12824744101E-01  0.13023361336E+00  0.19913114159E-01 0.  0.
         14    1    1    2    0    0  0.25415052539E-02 -0.81517097109E-03 -0.23266159857E-01  0.23418752041E-01  0.00000000000E+00 0. -1.
     999901    1    3    3    0    0 -0.11659661560E+00 -0.57419008643E-01  0.36090903958E-01  0.89027763460E+00  0.88000000000E+00 0. -1.
        -11    1    4    4    0    0  0.71027957531E-01  0.30900026473E-01  0.80836562704E-03  0.77464165670E-01  0.51100000000E-03 0.  1.
         11    1    4    4    0    0  0.43027152815E-01  0.27334153142E-01 -0.13633109728E-01  0.52769447687E-01  0.51100000000E-03 0. -1.
</event>
<event>
 8    1  0.9952977E+004  0.1043930E+01  0.7957747E-01            NaN
         13   -1    0    0    0    0  0.00000000000E+00  0.00000000000E+00  0.74505805969E-08  0.10566000000E+00  0.10566000000E+00 0.  1.
     999900   -1    0    0    0    0 -0.00000000000E+00 -0.00000000000E+00 -0.74505805969E-08  0.93827000000E+00  0.93827000000E+00 0.  1.
     999902    2    1    2    0    0 -0.92101016156E-02 -0.20238860638E-01  0.25858084036E-02  0.10215442041E+01  0.10212988971E+01 0.  0.
     999903    2    3    3    0    0 -0.38980595555E-01  0.62958964962E-01 -0.10573775828E+00  0.13050988627E+00  0.19210382337E-01 0.  0.
         14    1    1    2    0    0  0.92101016156E-02  0.20238860638E-01 -0.25858084036E-02  0.22385795871E-01  0.00000000000E+00 0.  1.
     999901    1    3    3    0    0  0.29770493939E-01 -0.83197825600E-01  0.10832356669E+00  0.89103431785E+00  0.88000000000E+00 0. -1.
        -11    1    4    4    0    0 -0.11305419481E-01  0.18764526476E-01 -0.17621077685E-01  0.28119094283E-01  0.51100000000E-03 0. -1.
         11    1    4    4    0    0 -0.27675176074E-01  0.44194438485E-01 -0.88116680600E-01  0.10239079199E+00  0.51100000000E-03 0.  1.
</event>
<event>
 8    1  0.9952977E+004  0.1043930E+01  0.7957747E-01            NaN
         13   -1    0    0    0    0  0.00000000000E+00  0.00000000000E+00  0.74505805969E-08  0.10566000000E+00  0.10566000000E+00 0. -1.
     999900   -1    0    0    0    0 -0.00000000000E+00 -0.00000000000E+00 -0.74505805969E-08  0.93827000000E+00  0.93827000000E+00 0. -1.
     999902    2    1    2    0    0  0.12796634746E-01  0.53674341500E-02 -0.18897651341E-01  0.10204846500E+01  0.10202152893E+01 0.  0.
     999903    2    3    3    0    0  0.12139088302E-01  0.73513853378E-01 -0.10861001869E+00  0.13330221348E+00  0.20535331910E-01 0.  0.
         14    1    1    2    0    0 -0.12796634746E-01 -0.53674341500E-02  0.18897651341E-01  0.23445349995E-01  0.00000000000E+00 0. -1.
     999901    1    3    3    0    0  0.65754644489E-03 -0.68146419228E-01  0.89712367345E-01  0.88718243652E+00  0.88000000000E+00 0.  1.
        -11    1    4    4    0    0  0.13499081499E-02  0.29597797391E-01 -0.59933416875E-01  0.66859011672E-01  0.51100000000E-03 0. -1.
         11    1    4    4    0    0  0.10789180152E-01  0.43916055987E-01 -0.48676601811E-01  0.66443201809E-01  0.51100000000E-03 0.  1.
</event>
<event>
 8    1  0.9952977E+004  0.1043930E+01  0.7957747E-01            NaN
         13   -1    0    0    0    0  0.00000000000E+00  0.00000000000E+00  0.74505805969E-08  0.10566000000E+00  0.10566000000E+00 0. -1.
     999900   -1    0    0    0    0 -0.00000000000E+00 -0.00000000000E+00 -0.74505805969E-08  0.93827000000E+00  0.93827000000E+00 0. -1.
     999902    2    1    2    0    0 -0.10916454841E-01 -0.81103260400E-02  0.19222211034E-01  0.10203834552E+01  0.10201117370E+01 0.  0.
     999903    2    3    3    0    0 -0.13039072463E+00  0.73798538690E-02  0.55402979228E-02  0.13206974848E+00  0.18855244607E-01 0.  0.
         14    1    1    2    0    0  0.10916454841E-01  0.81103260400E-02 -0.19222211034E-01  0.23546544796E-01  0.00000000000E+00 0.  1.
     999901    1    3    3    0    0  0.11947426979E+00 -0.15490179909E-01  0.13681913112E-01  0.88831370673E+00  0.88000000000E+00 0. -1.
        -11    1    4    4    0    0 -0.50600630143E-01  0.78752839609E-02 -0.55387879314E-02  0.51511000389E-01  0.51100000000E-03 0.  1.
         11    1    4    4    0    0 -0.79790094486E-01 -0.49543009185E-03  0.11079085854E-01  0.80558748087E-01  0.51100000000E-03 0. -1.
</event>
<event>
 8    1  0.9952977E+004  0.1043930E+01  0.7957747E-01            NaN
         13   -1    0    0    0    0  0.00000000000E+00  0.00000000000E+00  0.74505805969E-08  0.10566000000E+00  0.10566000000E+00 0. -1.
     999900   -1    0    0    0    0 -0.00000000000E+00 -0.00000000000E+00 -0.74505805969E-08  0.93827000000E+00  0.93827000000E+00 0.  1.
     999902    2    1    2    0    0  0.92508986494E-02 -0.97966808692E-02  0.18478822258E-01  0.10210603486E+01  0.10208041999E+01 0.  0.
     999903    2    3    3    0    0 -0.48460478350E-01 -0.81516354218E-01 -0.86639510621E-01  0.13003611860E+00  0.20239895604E-01 0.  0.
         14    1    1    2    0    0 -0.92508986494E-02  0.97966808692E-02 -0.18478822258E-01  0.22869651373E-01  0.00000000000E+00 0.  1.
     999901    1    3    3    0    0  0.57711377000E-01  0.71719673349E-01  0.10511833288E+00  0.89102423002E+00  0.88000000000E+00 0. -1.
        -11    1    4    4    0    0 -0.28835224800E-01 -0.65172276598E-01 -0.60463066047E-01  0.93460897187E-01  0.51100000000E-03 0. -1.
         11    1    4    4    0    0 -0.19625253551E-01 -0.16344077620E-01 -0.26176444574E-01  0.36575221417E-01  0.51100000000E-03 0.  1.
</event>
<event>
 8    1  0.9952977E+004  0.1043930E+01  0.7957747E-01            NaN
         13   -1    0    0    0    0  0.00000000000E+00  0.00000000000E+00  0.74505805969E-08  0.10566000000E+00  0.10566000000E+00 0. -1.
     999900   -1    0    0    0    0 -0.00000000000E+00 -0.00000000000E+00 -0.74505805969E-08  0.93827000000E+00  0.93827000000E+00 0.  1.
     999902    2    1    2    0    0  0.54171458629E-02  0.20087677202E-02 -0.22220311097E-01  0.10209708440E+01  0.10207126636E+01 0.  0.
     999903    2    3    3    0    0  0.74432532723E-01  0.94179792461E-01 -0.53011228277E-01  0.13293553956E+00  0.21251638043E-01 0.  0.
         14    1    1    2    0    0 -0.54171458629E-02 -0.20087677202E-02  0.22220311097E-01  0.22959155958E-01  0.00000000000E+00 0. -1.
     999901    1    3    3    0    0 -0.69015386860E-01 -0.92171024740E-01  0.30790917180E-01  0.88803530448E+00  0.88000000000E+00 0. -1.
        -11    1    4    4    0    0  0.12286353681E-01  0.72478306528E-02 -0.11360789168E-01  0.18243195648E-01  0.51100000000E-03 0. -1.
         11    1    4    4    0    0  0.62146179042E-01  0.86931961808E-01 -0.41650439109E-01  0.11469234391E+00  0.51100000000E-03 0.  1.
</event>
<event>
 8    1  0.9952977E+004  0.1043930E+01  0.7957747E-01            NaN
         13   -1    0    0    0    0  0.00000000000E+00  0.00000000000E+00  0.74505805969E-08  0.10566000000E+00  0.10566000000E+00 0.  1.
     999900   -1    0    0    0    0 -0.00000000000E+00 -0.00000000000E+00 -0.74505805969E-08  0.93827000000E+00  0.93827000000E+00 0. -1.
     999902    2    1    2    0    0  0.22509957455E-01  0.25340569528E-02  0.63021584095E-02  0.10204175176E+01  0.10201465940E+01 0.  0.
     999903    2    3    3    0    0 -0.14849866263E-02 -0.50223743743E-01 -0.11797064693E+00  0.12979814151E+00  0.20145827869E-01 0.  0.
         14    1    1    2    0    0 -0.22509957455E-01 -0.25340569528E-02 -0.63021584095E-02  0.23512482427E-01  0.00000000000E+00 0.  1.
     999901    1    3    3    0    0  0.23994944081E-01  0.52757800696E-01  0.12427280534E+00  0.89061937607E+00  0.88000000000E+00 0.  1.
        -11    1    4    4    0    0 -0.66604280782E-02 -0.99420510746E-02 -0.41711940659E-01  0.43397612795E-01  0.51100000000E-03 0. -1.
         11    1    4    4    0    0  0.51754414519E-02 -0.40281692669E-01 -0.76258706272E-01  0.86400528712E-01  0.51100000000E-03 0.  1.
</event>
<event>
 8    1  0.9952977E+004  0.1043930E+01  0.7957747E-01            NaN
         13   -1    0    0    0    0  0.00000000000E+00  0.00000000000E+00  0.74505805969E-08  0.10566000000E+00  0.10566000000E+00 0. -1.
     999900   -1    0    0    0    0 -0.00000000000E+00 -0.00000000000E+00 -0.74505805969E-08  0.93827000000E+00  0.93827000000E+00 0.  1.
     999902    2    1    2    0    0  0.19710231771E-01  0.85743526006E-02  0.98347788706E-02  0.10202924106E+01  0.10200185623E+01 0.  0.
     999903    2    3    3    0    0  0.11049294634E+00 -0.60477763792E-01  0.35859497139E-01  0.13254977781E+00  0.20427651793E-01 0.  0.
         14    1    1    2    0    0 -0.19710231771E-01 -0.85743526006E-02 -0.98347788706E-02  0.23637589438E-01  0.00000000000E+00 0.  1.
     999901    1    3    3    0    0 -0.90782714572E-01  0.69052116393E-01 -0.26024718268E-01  0.88774263275E+00  0.88000000000E+00 0. -1.
        -11    1    4    4    0    0  0.80403136285E-01 -0.35678548948E-01  0.30926350820E-01  0.93243356200E-01  0.51100000000E-03 0.  1.
         11    1    4    4    0    0  0.30089810058E-01 -0.24799214844E-01  0.49331463194E-02  0.39306421611E-01  0.51100000000E-03 0. -1.
</event>
<event>
 8    1  0.9952977E+004  0.1043930E+01  0.7957747E-01            NaN
         13   -1    0    0    0    0  0.00000000000E+00  0.00000000000E+00  0.74505805969E-08  0.10566000000E+00  0.10566000000E+00 0.  1.
     999900   -1    0    0    0    0 -0.00000000000E+00 -0.00000000000E+00 -0.74505805969E-08  0.93827000000E+00  0.93827000000E+00 0.  1.
     999902    2    1    2    0    0  0.16399834848E-01  0.21510183180E-02 -0.18052116233E-01  0.10194461203E+01  0.10191520652E+01 0.  0.
     999903    2    3    3    0    0  0.87993414304E-01  0.37978979422E-01 -0.89696111766E-01  0.13291233897E+00  0.20857937212E-01 0.  0.
         14    1    1    2    0    0 -0.16399834848E-01 -0.21510183180E-02  0.18052116233E-01  0.24483879662E-01  0.00000000000E+00 0.  1.
     999901    1    3    3    0    0 -0.71593579456E-01 -0.35827961104E-01  0.71643995533E-01  0.88653378137E+00  0.88000000000E+00 0. -1.
        -11    1    4    4    0    0  0.39158365069E-01  0.89088378831E-02 -0.47027667215E-01  0.61843411548E-01  0.51100000000E-03 0. -1.
         11    1    4    4    0    0  0.48835049236E-01  0.29070141539E-01 -0.42668444551E-01  0.71068927418E-01  0.51100000000E-03 0.  1.
</event>
<event>
 8    1  0.9952977E+004  0.1043930E+01  0.7957747E-01            NaN
         13   -1    0    0    0    0  0.00000000000E+00  0.00000000000E+00  0.74505805969E-08  0.10566000000E+00  0.10566000000E+00 0. -1.
     999900   -1    0    0    0    0 -0.00000000000E+00 -0.00000000000E+00 -0.74505805969E-08  0.93827000000E+00  0.93827000000E+00 0.  1.
     999902    2    1    2    0    0 -0.23632895963E-01 -0.23220928873E-02  0.57597207678E-02  0.10194947740E+01  0.10192019005E+01 0.  0.
     999903    2    3    3    0    0 -0.11946405000E+00 -0.15182834204E-01 -0.52324798884E-01  0.13229534873E+00  0.16186322037E-01 0.  0.
         14    1    1    2    0    0  0.23632895963E-01  0.23220928873E-02 -0.57597207678E-02  0.24435226013E-01  0.00000000000E+00 0. -1.
     999901    1    3    3    0    0  0.95831154036E-01  0.12860741316E-01  0.58084519652E-01  0.88719942526E+00  0.88000000000E+00 0. -1.
        -11    1    4    4    0    0 -0.78817800281E-01 -0.50140240050E-02 -0.27712843589E-01  0.83699754472E-01  0.51100000000E-03 0. -1.
         11    1    4    4    0    0 -0.40646249718E-01 -0.10168810199E-01 -0.24611955295E-01  0.48595594259E-01  0.51100000000E-03 0.  1.
</event>
<event>
 8    1  0.9952977E+004  0.1043930E+01  0.7957747E-01            NaN
         13   -1    0    0    0    0  0.00000000000E+00  0.00000000000E+00  0.74505805969E-08  0.10566000000E+00  0.10566000000E+00 0. -1.
     999900   -1    0    0    0    0 -0.00000000000E+00 -0.00000000000E+00 -0.74505805969E-08  0.93827000000E+00  0.93827000000E+00 0. -1.
     999902    2    1    2    0    0 -0.28273572260E-02 -0.22205352196E-02 -0.23079931209E-01  0.10205717477E+01  0.10203044076E+01 0.  0.
     999903    2    3    3    0    0 -0.82259151014E-01 -0.49440829762E-01 -0.90304441878E-01  0.13318327533E+00  0.19285461635E-01 0.  0.
         14    1    1    2    0    0  0.28273572260E-02  0.22205352196E-02  0.23079931209E-01  0.23358252293E-01  0.00000000000E+00 0. -1.
     999901    1    3    3    0    0  0.79431793788E-01  0.47220294542E-01  0.67224510669E-01  0.88738847238E+00  0.88000000000E+00 0.  1.
        -11    1    4    4    0    0 -0.34028798640E-01 -0.28937301617E-01 -0.33090008912E-01  0.55592592785E-01  0.51100000000E-03 0. -1.
         11    1    4    4    0    0 -0.48230352375E-01 -0.20503528145E-01 -0.57214432966E-01  0.77590682541E-01  0.51100000000E-03 0.  1.
</event>
<event>
 8    1  0.9952977E+004  0.1043930E+01  0.7957747E-01            NaN
         13   -1    0    0    0    0  0.00000000000E+00  0.00000000000E+00  0.74505805969E-08  0.10566000000E+00  0.10566000000E+00 0. -1.
     999900   -1    0    0    0    0 -0.00000000000E+00 -0.00000000000E+00 -0.74505805969E-08  0.93827000000E+00  0.93827000000E+00 0.  1.
     999902    2    1    2    0    0  0.57295232640E-02 -0.22469346841E-01 -0.76906914905E-02  0.10194995739E+01  0.10192068168E+01 0.  0.
     999903    2    3    3    0    0  0.10737461773E+00 -0.28736517397E-01 -0.68009877914E-01  0.13157536152E+00  0.18210884132E-01 0.  0.
         14    1    1    2    0    0 -0.57295232640E-02  0.22469346841E-01  0.76906914905E-02  0.24430426110E-01  0.00000000000E+00 0.  1.
     999901    1    3    3    0    0 -0.10164509447E+00  0.62671705557E-02  0.60319186423E-01  0.88792421237E+00  0.88000000000E+00 0. -1.
        -11    1    4    4    0    0  0.32276596562E-01 -0.17440618642E-01 -0.22220616881E-01  0.42894880811E-01  0.51100000000E-03 0. -1.
         11    1    4    4    0    0  0.75098021170E-01 -0.11295898755E-01 -0.45789261033E-01  0.88680480712E-01  0.51100000000E-03 0.  1.
</event>
<event>
 8    1  0.9952977E+004  0.1043930E+01  0.7957747E-01            NaN
         13   -1    0    0    0    0  0.00000000000E+00  0.00000000000E+00  0.74505805969E-08  0.10566000000E+00  0.10566000000E+00 0. -1.
     999900   -1    0    0    0    0 -0.00000000000E+00 -0.00000000000E+00 -0.74505805969E-08  0.93827000000E+00  0.93827000000E+00 0. -1.
     999902    2    1    2    0    0  0.14700881728E-01  0.18250507580E-01 -0.16083972753E-02  0.10204399193E+01  0.10201695178E+01 0.  0.
     999903    2    3    3    0    0 -0.59031073126E-01 -0.93048623941E-01 -0.62644258179E-01  0.12828002657E+00  0.19716696525E-01 0.  0.
         14    1    1    2    0    0 -0.14700881728E-01 -0.18250507580E-01  0.16083972753E-02  0.23490080721E-01  0.00000000000E+00 0. -1.
     999901    1    3    3    0    0  0.73731954854E-01  0.11129913152E+00  0.61035860904E-01  0.89215989271E+00  0.88000000000E+00 0.  1.
        -11    1    4    4    0    0 -0.47398156441E-01 -0.57554404997E-01 -0.40388221792E-01  0.84797195409E-01  0.51100000000E-03 0.  1.
         11    1    4    4    0    0 -0.11632916685E-01 -0.35494218944E-01 -0.22256036387E-01  0.43482831160E-01  0.51100000000E-03 0. -1.
</event>
<event>
 8    1  0.9952977E+004  0.1043930E+01  0.7957747E-01            NaN
         13   -1    0    0    0    0  0.00000000000E+00  0.00000000000E+00  0.74505805969E-08  0.10566000000E+00  0.10566000000E+00 0.  1.
     999900   -1    0    0    0    0 -0.00000000000E+00 -0.00000000000E+00 -0.74505805969E-08  0.93827000000E+00  0.93827000000E+00 0. -1.
     999902    2    1    2    0    0  0.11242398754E-01 -0.19980072500E-01  0.68970673632E-02  0.10199891486E+01  0.10197081440E+01 0.  0.
     999903    2    3    3    0    0 -0.71803918809E-02 -0.44496682608E-02  0.12946385843E+00  0.13116790059E+00  0.19307250695E-01 0.  0.
         14    1    1    2    0    0 -0.11242398754E-01  0.19980072500E-01 -0.68970673632E-02  0.23940851385E-01  0.00000000000E+00 0. -1.
     999901    1    3    3    0    0  0.18422790635E-01 -0.15530404239E-01 -0.12256679107E+00  0.88882124803E+00  0.88000000000E+00 0. -1.
        -11    1    4    4    0    0 -0.49280209476E-02  0.44704191396E-02  0.16072353313E-01  0.17402634851E-01  0.51100000000E-03 0.  1.
         11    1    4    4    0    0 -0.22523709334E-02 -0.89200874005E-02  0.11339150512E+00  0.11376526574E+00  0.51100000000E-03 0. -1.
</event>
<event>
 8    1  0.9952977E+004  0.1043930E+01  0.7957747E-01            NaN
         13   -1    0    0    0    0  0.00000000000E+00  0.00000000000E+00  0.74505805969E-08  0.10566000000E+00  0.10566000000E+00 0. -1.
     999900   -1    0    0    0    0 -0.00000000000E+00 -0.00000000000E+00 -0.74505805969E-08  0.93827000000E+00  0.93827000000E+00 0. -1.
     999902    2    1    2    0    0  0.16007344091E-01  0.71544085078E-02  0.14581582978E-01  0.10211255446E+01  0.10208708707E+01 0.  0.
     999903    2    3    3    0    0 -0.33828822122E-01 -0.10889112969E+00 -0.57117099191E-01  0.12922257258E+00  0.20843294157E-01 0.  0.
         14    1    1    2    0    0 -0.16007344091E-01 -0.71544085078E-02 -0.14581582978E-01  0.22804455444E-01  0.00000000000E+00 0.  1.
     999901    1    3    3    0    0  0.49836166213E-01  0.11604553820E+00  0.71698682169E-01  0.89190297198E+00  0.88000000000E+00 0. -1.
        -11    1    4    4    0    0 -0.23167051967E-01 -0.56441368792E-01 -0.20475516847E-01  0.64357193219E-01  0.51100000000E-03 0.  1.
         11    1    4    4    0    0 -0.10661770154E-01 -0.52449760902E-01 -0.36641582345E-01  0.64865379358E-01  0.51100000000E-03 0. -1.
</event>
<event>
 8    1  0.9952977E+004  0.1043930E+01  0.7957747E-01            NaN
         13   -1    0    0    0    0  0.00000000000E+00  0.00000000000E+00  0.74505805969E-08  0.10566000000E+00  0.10566000000E+00 0.  1.
     999900   -1    0    0    0    0 -0.00000000000E+00 -0.00000000000E+00 -0.74505805969E-08  0.93827000000E+00  0.93827000000E+00 0. -1.
     999902    2    1    2    0    0 -0.92656421913E-02 -0.21109654812E-01  0.82950558314E-02  0.10194294367E+01  0.10191349757E+01 0.  0.
     999903    2    3    3    0    0  0.10001369383E+00  0.68351140225E-01  0.35991461197E-01  0.12773874031E+00  0.18632852001E-01 0.  0.
         14    1    1    2    0    0  0.92656421913E-02  0.21109654812E-01 -0.82950558314E-02  0.24500563315E-01  0.00000000000E+00 0.  1.
     999901    1    3    3    0    0 -0.10927933602E+00 -0.89460795038E-01 -0.27696405366E-01  0.89169069637E+00  0.88000000000E+00 0. -1.
        -11    1    4    4    0    0  0.80504344908E-01  0.51290740604E-01  0.20809819759E-01  0.97698512477E-01  0.51100000000E-03 0.  1.
         11    1    4    4    0    0  0.19509348921E-01  0.17060399622E-01  0.15181641438E-01  0.30040227834E-01  0.51100000000E-03 0. -1.
</event>
<event>
 8    1  0.9952977E+004  0.1043930E+01  0.7957747E-01            NaN
         13   -1    0    0    0    0  0.00000000000E+00  0.00000000000E+00  0.74505805969E-08  0.10566000000E+00  0.10566000000E+00 0.  1.
     999900   -1    0    0    0    0 -0.00000000000E+00 -0.00000000000E+00 -0.74505805969E-08  0.93827000000E+00  0.93827000000E+00 0. -1.
     999902    2    1    2    0    0  0.54243302267E-02 -0.15486444735E-01  0.17321890739E-01  0.10200699659E+01  0.10197908776E+01 0.  0.
     999903    2    3    3    0    0 -0.78943540961E-01  0.79826150760E-01 -0.57752601034E-01  0.12774793441E+00  0.19490377506E-01 0.  0.
         14    1    1    2    0    0 -0.54243302267E-02  0.15486444735E-01 -0.17321890739E-01  0.23860034110E-01  0.00000000000E+00 0. -1.
     999901    1    3    3    0    0  0.84367871188E-01 -0.95312595495E-01  0.75074491773E-01  0.89232203148E+00  0.88000000000E+00 0.  1.
        -11    1    4    4    0    0 -0.18684968517E-01  0.24138343949E-01 -0.71783964247E-02  0.31362050209E-01  0.51100000000E-03 0.  1.
         11    1    4    4    0    0 -0.60258572444E-01  0.55687806810E-01 -0.50574204609E-01  0.96385884201E-01  0.51100000000E-03 0. -1.
</event>
<event>
 8    1  0.9952977E+004  0.1043930E+01  0.7957747E-01            NaN
         13   -1    0    0    0    0  0.00000000000E+00  0.00000000000E+00  0.74505805969E-08  0.10566000000E+00  0.10566000000E+00 0.  1.
     999900   -1    0    0    0    0 -0.00000000000E+00 -0.00000000000E+00 -0.74505805969E-08  0.93827000000E+00  0.93827000000E+00 0.  1.
     999902    2    1    2    0    0 -0.41169944158E-02  0.50671551375E-02  0.22517224248E-01  0.10204853611E+01  0.10202160169E+01 0.  0.
     999903    2    3    3    0    0 -0.54026130635E-02 -0.18008117434E-01 -0.12500309178E+00  0.12790686897E+00  0.19517009359E-01 0.  0.
         14    1    1    2    0    0  0.41169944158E-02 -0.50671551375E-02 -0.22517224248E-01  0.23444638877E-01  0.00000000000E+00 0. -1.
     999901    1    3    3    0    0  0.12856186477E-02  0.23075272571E-01  0.14752031602E+00  0.89257849216E+00  0.88000000000E+00 0. -1.
        -11    1    4    4    0    0  0.45630221510E-02 -0.12893062697E-01 -0.42605336996E-01  0.44749615623E-01  0.51100000000E-03 0.  1.
         11    1    4    4    0    0 -0.99656352145E-02 -0.51150547371E-02 -0.82397754779E-01  0.83157253345E-01  0.51100000000E-03 0. -1.
</event>
<event>
 7    1  0.9952977E+004  0.1043930E+01  0.7957747E-01            NaN
         13   -1    0    0    0    0  0.00000000000E+00  0.00000000000E+00  0.74505805969E-08  0.10566000000E+00  0.10566000000E+00 0. -1.
     999900   -1    0    0    0    0 -0.00000000000E+00 -0.00000000000E+00 -0.74505805969E-08  0.93827000000E+00  0.93827000000E+00 0.  1.
     999903    2    1    2    0    0  0.60689163171E-01 -0.88559569907E-01  0.27481515103E-01  0.11266432672E+00  0.20298888999E-01 0.  0.
         14    1    1    2    0    0 -0.38399310332E-01  0.29731374209E-01  0.71891778585E-03  0.48569316334E-01  0.00000000000E+00 0.  1.
     999901    1    1    2    0    0 -0.22289852838E-01  0.58828195698E-01 -0.28200432889E-01  0.88269635694E+00  0.88000000000E+00 0. -1.
        -11    1    3    3    0    0  0.61339178075E-01 -0.81252501058E-01  0.24395715754E-01  0.10468942527E+00  0.51100000000E-03 0. -1.
         11    1    3    3    0    0 -0.65001490388E-03 -0.73070688489E-02  0.30857993490E-02  0.79749014514E-02  0.51100000000E-03 0.  1.
</event>
<event>
 8    1  0.9952977E+004  0.1043930E+01  0.7957747E-01            NaN
         13   -1    0    0    0    0  0.00000000000E+00  0.00000000000E+00  0.74505805969E-08  0.10566000000E+00  0.10566000000E+00 0.  1.
     999900   -1    0    0    0    0 -0.00000000000E+00 -0.00000000000E+00 -0.74505805969E-08  0.93827000000E+00  0.93827000000E+00 0.  1.
     999902    2    1    2    0    0 -0.11690670860E-01  0.99069628540E-02  0.16958570410E-01  0.10210736484E+01  0.10208178009E+01 0.  0.
     999903    2    3    3    0    0  0.48694459141E-01 -0.11814825632E+00  0.10091843003E-01  0.12973103468E+00  0.19953326597E-01 0.  0.
         14    1    1    2    0    0  0.11690670860E-01 -0.99069628540E-02 -0.16958570410E-01  0.22856351601E-01  0.00000000000E+00 0. -1.
     999901    1    3    3    0    0 -0.60385130001E-01  0.12805521917E+00  0.68667274062E-02  0.89134261372E+00  0.88000000000E+00 0. -1.
        -11    1    4    4    0    0  0.36930389143E-01 -0.98811527593E-01  0.15044035558E-01  0.10655588090E+00  0.51100000000E-03 0. -1.
         11    1    4    4    0    0  0.11764069998E-01 -0.19336728726E-01 -0.49521925542E-02  0.23175153782E-01  0.51100000000E-03 0.  1.
</event>
<event>
 8    1  0.9979651E+004  0.1043930E+01  0.7957747E-01            NaN
         13   -1    0    0    0    0  0.00000000000E+00  0.00000000000E+00  0.74505805969E-08  0.10566000000E+00  0.10566000000E+00 0.  1.
     999900   -1    0    0    0    0 -0.00000000000E+00 -0.00000000000E+00 -0.74505805969E-08  0.93827000000E+00  0.93827000000E+00 0.  1.
     999902    2    1    2    0    0  0.11623633081E-01  0.13119278254E-01 -0.22323279895E-01  0.10155477321E+01  0.10151510444E+01 0.  0.
     999903    2    3    3    0    0  0.51636088707E-01 -0.11089097730E+00  0.15454917706E-01  0.12515077997E+00  0.21465524491E-01 0.  0.
         14    1    1    2    0    0 -0.11623633081E-01 -0.13119278254E-01  0.22323279895E-01  0.28382267936E-01  0.00000000000E+00 0.  1.
     999901    1    3    3    0    0 -0.40012455626E-01  0.12401025555E+00 -0.37778197601E-01  0.89039695210E+00  0.88000000000E+00 0.  1.
        -11    1    4    4    0    0  0.32814000259E-01 -0.78549988910E-01  0.20014572392E-01  0.87451149791E-01  0.51100000000E-03 0. -1.
         11    1    4    4    0    0  0.18822088448E-01 -0.32340988391E-01 -0.45596546858E-02  0.37699630177E-01  0.51100000000E-03 0.  1.
</event>
<event>
 8    1  0.9952977E+004  0.1043930E+01  0.7957747E-01            NaN
         13   -1    0    0    0    0  0.00000000000E+00  0.00000000000E+00  0.74505805969E-08  0.10566000000E+00  0.10566000000E+00 0. -1.
     999900   -1    0    0    0    0 -0.00000000000E+00 -0.00000000000E+00 -0.74505805969E-08  0.93827000000E+00  0.93827000000E+00 0. -1.
     999902    2    1    2    0    0 -0.31058885444E-02 -0.22402778488E-01 -0.98818127204E-03  0.10212913708E+01  0.10210404285E+01 0.  0.
     999903    2    3    3    0    0 -0.58993379531E-01  0.96772116998E-01  0.59484096053E-01  0.12944891633E+00  0.19328807463E-01 0.  0.
         14    1    1    2    0    0  0.31058885444E-02  0.22402778488E-01  0.98818127204E-03  0.22638629151E-01  0.00000000000E+00 0. -1.
     999901    1    3    3    0    0  0.55887490987E-01 -0.11917489549E+00 -0.60472277325E-01  0.89184245452E+00  0.88000000000E+00 0.  1.
        -11    1    4    4    0    0 -0.51344941753E-01  0.74742554305E-01  0.40232620872E-01  0.99205228546E-01  0.51100000000E-03 0.  1.
         11    1    4    4    0    0 -0.76484377785E-02  0.22029562693E-01  0.19251475181E-01  0.30243687780E-01  0.51100000000E-03 0. -1.
</event>
<event>
 8    1  0.9952977E+004  0.1043930E+01  0.7957747E-01            NaN
         13   -1    0    0    0    0  0.00000000000E+00  0.00000000000E+00  0.74505805969E-08  0.10566000000E+00  0.10566000000E+00 0. -1.
     999900   -1    0    0    0    0 -0.00000000000E+00 -0.00000000000E+00 -0.74505805969E-08  0.93827000000E+00  0.93827000000E+00 0.  1.
     999902    2    1    2    0    0 -0.13318692117E-01  0.19107507358E-01 -0.34673787092E-02  0.10203820253E+01  0.10201102737E+01 0.  0.
     999903    2    3    3    0    0  0.13069378842E-01 -0.10807412962E+00 -0.65609765422E-01  0.12867962243E+00  0.20074305770E-01 0.  0.
         14    1    1    2    0    0  0.13318692117E-01 -0.19107507358E-01  0.34673787092E-02  0.23547974695E-01  0.00000000000E+00 0.  1.
     999901    1    3    3    0    0 -0.26388070958E-01  0.12718163698E+00  0.62142386713E-01  0.89170240288E+00  0.88000000000E+00 0.  1.
        -11    1    4    4    0    0  0.27587545691E-02 -0.61574317117E-01 -0.26688213322E-01  0.67167917241E-01  0.51100000000E-03 0.  1.
         11    1    4    4    0    0  0.10310624273E-01 -0.46499812505E-01 -0.38921552100E-01  0.61511705185E-01  0.51100000000E-03 0. -1.
</event>
<event>
 8    1  0.9952977E+004  0.1043930E+01  0.7957747E-01            NaN
         13   -1    0    0    0    0  0.00000000000E+00  0.00000000000E+00  0.74505805969E-08  0.10566000000E+00  0.10566000000E+00 0. -1.
     999900   -1    0    0    0    0 -0.00000000000E+00 -0.00000000000E+00 -0.74505805969E-08  0.93827000000E+00  0.93827000000E+00 0.  1.
     999902    2    1    2    0    0  0.74093961899E-02  0.21428721024E-01 -0.73457505172E-02  0.10200962154E+01  0.10198177481E+01 0.  0.
     999903    2    3    3    0    0 -0.23239370353E-01  0.64272862573E-01  0.10952709879E+00  0.13080760633E+00  0.21056478969E-01 0.  0.
         14    1    1    2    0    0 -0.74093961899E-02 -0.21428721024E-01  0.73457505172E-02  0.23833784578E-01  0.00000000000E+00 0. -1.
     999901    1    3    3    0    0  0.30648766543E-01 -0.42844141549E-01 -0.11687284931E+00  0.88928860909E+00  0.88000000000E+00 0.  1.
        -11    1    4    4    0    0 -0.33462927556E-02  0.38276023792E-01  0.65549070936E-01  0.75981533901E-01  0.51100000000E-03 0. -1.
         11    1    4    4    0    0 -0.19893077597E-01  0.25996838782E-01  0.43978027855E-01  0.54826072429E-01  0.51100000000E-03 0.  1.
</event>
<event>
 8    1  0.9952977E+004  0.1043930E+01  0.7957747E-01            NaN
         13   -1    0    0    0    0  0.00000000000E+00  0.00000000000E+00  0.74505805969E-08  0.10566000000E+00  0.10566000000E+00 0.  1.
     999900   -1    0    0    0    0 -0.00000000000E+00 -0.00000000000E+00 -0.74505805969E-08  0.93827000000E+00  0.93827000000E+00 0. -1.
     999902    2    1    2    0    0  0.17085594859E-01 -0.15960664714E-01  0.21826777073E-02  0.10204475714E+01  0.10201773481E+01 0.  0.
     999903    2    3    3    0    0 -0.10397853611E+00 -0.48017129997E-02  0.73785748512E-01  0.12920795956E+00  0.20390382786E-01 0.  0.
         14    1    1    2    0    0 -0.17085594859E-01  0.15960664714E-01 -0.21826777073E-02  0.23482428575E-01  0.00000000000E+00 0. -1.
     999901    1    3    3    0    0  0.12106413097E+00 -0.11158951714E-01 -0.71603070804E-01  0.89123961187E+00  0.88000000000E+00 0. -1.
        -11    1    4    4    0    0 -0.64642165626E-01  0.54199887003E-02  0.51676372807E-01  0.82937895330E-01  0.51100000000E-03 0.  1.
         11    1    4    4    0    0 -0.39336370486E-01 -0.10221701700E-01  0.22109375705E-01  0.46270064229E-01  0.51100000000E-03 0. -1.
</event>
<event>
 8    1  0.9952977E+004  0.1043930E+01  0.7957747E-01            NaN
         13   -1    0    0    0    0  0.00000000000E+00  0.00000000000E+00  0.74505805969E-08  0.10566000000E+00  0.10566000000E+00 0.  1.
     999900   -1    0    0    0    0 -0.00000000000E+00 -0.00000000000E+00 -0.74505805969E-08  0.93827000000E+00  0.93827000000E+00 0. -1.
     999902    2    1    2    0    0  0.11601062368E-01  0.16493696276E-01 -0.11303894762E-01  0.10208128051E+01  0.10205510170E+01 0.  0.
     999903    2    3    3    0    0 -0.91693879215E-01 -0.61413546732E-01  0.62071184959E-01  0.12833127260E+00  0.20897184422E-01 0.  0.
         14    1    1    2    0    0 -0.11601062368E-01 -0.16493696276E-01  0.11303894762E-01  0.23117194936E-01  0.00000000000E+00 0. -1.
     999901    1    3    3    0    0  0.10329494158E+00  0.77907243008E-01 -0.73375079721E-01  0.89248153247E+00  0.88000000000E+00 0.  1.
        -11    1    4    4    0    0 -0.52885987791E-01 -0.27341635171E-01  0.42284498024E-01  0.73025561364E-01  0.51100000000E-03 0. -1.
         11    1    4    4    0    0 -0.38807891424E-01 -0.34071911561E-01  0.19786686935E-01  0.55305711234E-01  0.51100000000E-03 0.  1.
</event>
<event>
 8    1  0.9952977E+004  0.1043930E+01  0.7957747E-01            NaN
         13   -1    0    0    0    0  0.00000000000E+00  0.00000000000E+00  0.74505805969E-08  0.10566000000E+00  0.10566000000E+00 0. -1.
     999900   -1    0    0    0    0 -0.00000000000E+00 -0.00000000000E+00 -0.74505805969E-08  0.93827000000E+00  0.93827000000E+00 0. -1.
     999902    2    1    2    0    0 -0.16609965443E-01 -0.65644854913E-02 -0.13778148078E-01  0.10213729438E+01  0.10211238267E+01 0.  0.
     999903    2    3    3    0    0 -0.73783119426E-01  0.10648337115E+00  0.14038695143E-01  0.13186613423E+00  0.20222150069E-01 0.  0.
         14    1    1    2    0    0  0.16609965443E-01  0.65644854913E-02  0.13778148078E-01  0.22557056240E-01  0.00000000000E+00 0. -1.
     999901    1    3    3    0    0  0.57173153983E-01 -0.11304785664E+00 -0.27816843220E-01  0.88950680953E+00  0.88000000000E+00 0.  1.
        -11    1    4    4    0    0 -0.60310400572E-01  0.94118507346E-01  0.61800791497E-02  0.11195576064E+00  0.51100000000E-03 0. -1.
         11    1    4    4    0    0 -0.13472718854E-01  0.12364863800E-01  0.78586159930E-02  0.19910373589E-01  0.51100000000E-03 0.  1.
</event>
<event>
 8    1  0.9952977E+004  0.1043930E+01  0.7957747E-01            NaN
         13   -1    0    0    0    0  0.00000000000E+00  0.00000000000E+00  0.74505805969E-08  0.10566000000E+00  0.10566000000E+00 0.  1.
     999900   -1    0    0    0    0 -0.00000000000E+00 -0.00000000000E+00 -0.74505805969E-08  0.93827000000E+00  0.93827000000E+00 0.  1.
     999902    2    1    2    0    0 -0.16658307339E-01 -0.86647820215E-02 -0.14091681203E-01  0.10204533493E+01  0.10201832604E+01 0.  0.
     999903    2    3    3    0    0 -0.67659864674E-01 -0.45027395428E-01  0.10051381832E+00  0.13081419824E+00  0.20099829858E-01 0.  0.
         14    1    1    2    0    0  0.16658307339E-01  0.86647820215E-02  0.14091681203E-01  0.23476650741E-01  0.00000000000E+00 0.  1.
     999901    1    3    3    0    0  0.51001557334E-01  0.36362613406E-01 -0.11460549953E+00  0.88963915102E+00  0.88000000000E+00 0.  1.
        -11    1    4    4    0    0 -0.39696816969E-01 -0.14390980451E-01  0.49622193086E-01  0.65157967766E-01  0.51100000000E-03 0.  1.
         11    1    4    4    0    0 -0.27963047705E-01 -0.30636414976E-01  0.50891625238E-01  0.65656230473E-01  0.51100000000E-03 0. -1.
</event>
<event>
 8    1  0.9952977E+004  0.1043930E+01  0.7957747E-01            NaN
         13   -1    0    0    0    0  0.00000000000E+00  0.00000000000E+00  0.74505805969E-08  0.10566000000E+00  0.10566000000E+00 0. -1.
     999900   -1    0    0    0    0 -0.00000000000E+00 -0.00000000000E+00 -0.74505805969E-08  0.93827000000E+00  0.93827000000E+00 0. -1.
     999902    2    1    2    0    0  0.67195840564E-02  0.73122960211E-02 -0.21968305263E-01  0.10198213103E+01  0.10195363044E+01 0.  0.
     999903    2    3    3    0    0 -0.49548031885E-01 -0.33373827086E-01  0.11061713446E+00  0.12718459582E+00  0.19260092919E-01 0.  0.
         14    1    1    2    0    0 -0.67195840564E-02 -0.73122960211E-02  0.21968305263E-01  0.24108689701E-01  0.00000000000E+00 0. -1.
     999901    1    3    3    0    0  0.56267615942E-01  0.40686123107E-01 -0.13258543972E+00  0.89263671448E+00  0.88000000000E+00 0. -1.
        -11    1    4    4    0    0 -0.13142922384E-01 -0.54457909709E-02  0.44369392261E-01  0.46597179514E-01  0.51100000000E-03 0. -1.
         11    1    4    4    0    0 -0.36405109501E-01 -0.27928036115E-01  0.66247742196E-01  0.80587416302E-01  0.51100000000E-03 0.  1.
</event>
<event>
 8    1  0.9952977E+004  0.1043930E+01  0.7957747E-01            NaN
         13   -1    0    0    0    0  0.00000000000E+00  0.00000000000E+00  0.74505805969E-08  0.10566000000E+00  0.10566000000E+00 0.  1.
     999900   -1    0    0    0    0 -0.00000000000E+00 -0.00000000000E+00 -0.74505805969E-08  0.93827000000E+00  0.93827000000E+00 0.  1.
     999902    2    1    2    0    0  0.65879755655E-02 -0.22987429542E-02  0.22413664574E-01  0.10204553754E+01  0.10201853337E+01 0.  0.
     999903    2    3    3    0    0  0.10195131936E+00 -0.18996818666E-01 -0.75304640463E-01  0.12976920158E+00  0.20354512154E-01 0.  0.
         14    1    1    2    0    0 -0.65879755655E-02  0.22987429542E-02 -0.22413664574E-01  0.23474624616E-01  0.00000000000E+00 0. -1.
     999901    1    3    3    0    0 -0.95363343790E-01  0.16698075712E-01  0.97718305037E-01  0.89068617381E+00  0.88000000000E+00 0. -1.
        -11    1    4    4    0    0  0.55548969173E-01 -0.60364664314E-02 -0.51658085446E-01  0.76098264212E-01  0.51100000000E-03 0.  1.
         11    1    4    4    0    0  0.46402350182E-01 -0.12960352235E-01 -0.23646555017E-01  0.53670937365E-01  0.51100000000E-03 0. -1.
</event>
<event>
 8    1  0.9952977E+004  0.1043930E+01  0.7957747E-01            NaN
         13   -1    0    0    0    0  0.00000000000E+00  0.00000000000E+00  0.74505805969E-08  0.10566000000E+00  0.10566000000E+00 0. -1.
     999900   -1    0    0    0    0 -0.00000000000E+00 -0.00000000000E+00 -0.74505805969E-08  0.93827000000E+00  0.93827000000E+00 0. -1.
     999902    2    1    2    0    0 -0.20365671591E-01  0.94029269561E-02  0.85204698552E-02  0.10199347084E+01  0.10196524091E+01 0.  0.
     999903    2    3    3    0    0  0.49518092621E-02  0.99882386849E-01 -0.81177668690E-01  0.13039928828E+00  0.20326063889E-01 0.  0.
         14    1    1    2    0    0  0.20365671591E-01 -0.94029269561E-02 -0.85204698552E-02  0.23995291647E-01  0.00000000000E+00 0.  1.
     999901    1    3    3    0    0 -0.25317480853E-01 -0.90479459893E-01  0.89698138545E-01  0.88953542007E+00  0.88000000000E+00 0.  1.
        -11    1    4    4    0    0  0.10184393599E-01  0.31082280694E-01 -0.21256064363E-01  0.39011683370E-01  0.51100000000E-03 0.  1.
         11    1    4    4    0    0 -0.52325843366E-02  0.68800106155E-01 -0.59921604327E-01  0.91387604914E-01  0.51100000000E-03 0. -1.
</event>
<event>
 8    1  0.9952977E+004  0.1043930E+01  0.7957747E-01            NaN
         13   -1    0    0    0    0  0.00000000000E+00  0.00000000000E+00  0.74505805969E-08  0.10566000000E+00  0.10566000000E+00 0.  1.
     999900   -1    0    0    0    0 -0.00000000000E+00 -0.00000000000E+00 -0.74505805969E-08  0.93827000000E+00  0.93827000000E+00 0. -1.
     999902    2    1    2    0    0 -0.42435048935E-02  0.71475171733E-03  0.24310889477E-01  0.10192411857E+01  0.10189421265E+01 0.  0.
     999903    2    3    3    0    0 -0.75679058601E-03 -0.92628211718E-01  0.91570933416E-01  0.13174528177E+00  0.19774354208E-01 0.  0.
         14    1    1    2    0    0  0.42435048935E-02 -0.71475171733E-03 -0.24310889477E-01  0.24688814288E-01  0.00000000000E+00 0. -1.
     999901    1    3    3    0    0 -0.34867143075E-02  0.93342963436E-01 -0.67260043939E-01  0.88749590394E+00  0.88000000000E+00 0. -1.
        -11    1    4    4    0    0  0.40806139573E-04 -0.15467685705E-01  0.27026630319E-01  0.31144033676E-01  0.51100000000E-03 0.  1.
         11    1    4    4    0    0 -0.79759672559E-03 -0.77160526013E-01  0.64544303096E-01  0.10060124810E+00  0.51100000000E-03 0. -1.
</event>
<event>
 8    1  0.9952977E+004  0.1043930E+01  0.7957747E-01            NaN
         13   -1    0    0    0    0  0.00000000000E+00  0.00000000000E+00  0.74505805969E-08  0.10566000000E+00  0.10566000000E+00 0. -1.
     999900   -1    0    0    0    0 -0.00000000000E+00 -0.00000000000E+00 -0.74505805969E-08  0.93827000000E+00  0.93827000000E+00 0. -1.
     999902    2    1    2    0    0  0.57672917577E-02  0.22852924089E-01 -0.12965824890E-02  0.10203249387E+01  0.10200518524E+01 0.  0.
     999903    2    3    3    0    0 -0.25011424911E-01 -0.59879527883E-01 -0.10944210359E+00  0.12932132379E+00  0.23136583904E-01 0.  0.
         14    1    1    2    0    0 -0.57672917577E-02 -0.22852924089E-01  0.12965824890E-02  0.23605061317E-01  0.00000000000E+00 0.  1.
     999901    1    3    3    0    0  0.30778716668E-01  0.82732451973E-01  0.10814552110E+00  0.89100361489E+00  0.88000000000E+00 0.  1.
        -11    1    4    4    0    0 -0.15154945731E-01 -0.25432934144E-01 -0.70153198936E-01  0.76146168395E-01  0.51100000000E-03 0. -1.
         11    1    4    4    0    0 -0.98564791792E-02 -0.34446593740E-01 -0.39288904652E-01  0.53175155400E-01  0.51100000000E-03 0.  1.
</event>
<event>
 8    1  0.9952977E+004  0.1043930E+01  0.7957747E-01            NaN
         13   -1    0    0    0    0  0.00000000000E+00  0.00000000000E+00  0.74505805969E-08  0.10566000000E+00  0.10566000000E+00 0.  1.
     999900   -1    0    0    0    0 -0.00000000000E+00 -0.00000000000E+00 -0.74505805969E-08  0.93827000000E+00  0.93827000000E+00 0. -1.
     999902    2    1    2    0    0 -0.18633155348E-02 -0.13652570783E-01  0.18263259302E-01  0.10210518166E+01  0.10207954746E+01 0.  0.
     999903    2    3    3    0    0 -0.11205081638E+00 -0.38661913809E-02 -0.65444746495E-01  0.13018477336E+00  0.97328044607E-02 0.  0.
         14    1    1    2    0    0  0.18633155348E-02  0.13652570783E-01 -0.18263259302E-01  0.22878183365E-01  0.00000000000E+00 0. -1.
     999901    1    3    3    0    0  0.11018750085E+00 -0.97863794021E-02  0.83708005797E-01  0.89086704328E+00  0.88000000000E+00 0.  1.
        -11    1    4    4    0    0 -0.32221292528E-01  0.29569453000E-02 -0.16979289851E-01  0.36544666129E-01  0.51100000000E-03 0.  1.
         11    1    4    4    0    0 -0.79829523853E-01 -0.68231366809E-02 -0.48465456644E-01  0.93640107228E-01  0.51100000000E-03 0. -1.
</event>
<event>
 8    1  0.9952977E+004  0.1043930E+01  0.7957747E-01            NaN
         13   -1    0    0    0    0  0.00000000000E+00  0.00000000000E+00  0.74505805969E-08  0.10566000000E+00  0.10566000000E+00 0. -1.
     999900   -1    0    0    0    0 -0.00000000000E+00 -0.00000000000E+00 -0.74505805969E-08  0.93827000000E+00  0.93827000000E+00 0.  1.
     999902    2    1    2    0    0  0.11385413069E-01 -0.78857849785E-02 -0.19463381347E-01  0.10200420020E+01  0.10197622514E+01 0.  0.
     999903    2    3    3    0    0  0.63530529459E-01 -0.53725967811E-01  0.97205223026E-01  0.12963086169E+00  0.20801373228E-01 0.  0.
         14    1    1    2    0    0 -0.11385413069E-01  0.78857849785E-02  0.19463381347E-01  0.23887998010E-01  0.00000000000E+00 0. -1.
     999901    1    3    3    0    0 -0.52145116390E-01  0.45840182832E-01 -0.11666860437E+00  0.89041114030E+00  0.88000000000E+00 0.  1.
        -11    1    4    4    0    0  0.36750020392E-01 -0.39928786032E-01  0.51016728114E-01  0.74483821205E-01  0.51100000000E-03 0. -1.
         11    1    4    4    0    0  0.26780509067E-01 -0.13797181779E-01  0.46188494912E-01  0.55147040485E-01  0.51100000000E-03 0.  1.
</event>
<event>
 8    1  0.9952977E+004  0.1043930E+01  0.7957747E-01            NaN
         13   -1    0    0    0    0  0.00000000000E+00  0.00000000000E+00  0.74505805969E-08  0.10566000000E+00  0.10566000000E+00 0.  1.
     999900   -1    0    0    0    0 -0.00000000000E+00 -0.00000000000E+00 -0.74505805969E-08  0.93827000000E+00  0.93827000000E+00 0.  1.
     999902    2    1    2    0    0  0.27582350792E-01  0.76750340505E-02 -0.95454327987E-02  0.10137504124E+01  0.10133010861E+01 0.  0.
     999903    2    3    3    0    0  0.10490374385E-01  0.11213659038E-01 -0.12364442073E+00  0.12621267425E+00  0.20147016143E-01 0.  0.
         14    1    1    2    0    0 -0.27582350792E-01 -0.76750340505E-02  0.95454327987E-02  0.30179587641E-01  0.00000000000E+00 0. -1.
     999901    1    3    3    0    0  0.17091976407E-01 -0.35386249876E-02  0.11409898793E+00  0.88753773811E+00  0.88000000000E+00 0. -1.
        -11    1    4    4    0    0  0.30097909796E-02 -0.56288707184E-02 -0.43920115302E-01  0.44384464359E-01  0.51100000000E-03 0. -1.
         11    1    4    4    0    0  0.74805834050E-02  0.16842529756E-01 -0.79724305427E-01  0.81828209888E-01  0.51100000000E-03 0.  1.
</event>
<event>
 8    1  0.9952977E+004  0.1043930E+01  0.7957747E-01            NaN
         13   -1    0    0    0    0  0.00000000000E+00  0.00000000000E+00  0.74505805969E-08  0.10566000000E+00  0.10566000000E+00 0.  1.
     999900   -1    0    0    0    0 -0.00000000000E+00 -0.00000000000E+00 -0.74505805969E-08  0.93827000000E+00  0.93827000000E+00 0.  1.
     999902    2    1    2    0    0 -0.11034710742E-01  0.20166313770E-01  0.41368711325E-02  0.10205728008E+01  0.10203054851E+01 0.  0.
     999903    2    3    3    0    0 -0.86432782905E-01  0.41050576545E-01 -0.89113710097E-01  0.13219411317E+00  0.19448764332E-01 0.  0.
         14    1    1    2    0    0  0.11034710742E-01 -0.20166313770E-01 -0.41368711325E-02  0.23357199211E-01  0.00000000000E+00 0. -1.
     999901    1    3    3    0    0  0.75398072164E-01 -0.20884262775E-01  0.93250581229E-01  0.88837868762E+00  0.88000000000E+00 0. -1.
        -11    1    4    4    0    0 -0.20648476943E-01  0.14694725442E-01 -0.34038782376E-01  0.42440480470E-01  0.51100000000E-03 0. -1.
         11    1    4    4    0    0 -0.65784305962E-01  0.26355851103E-01 -0.55074927720E-01  0.89753632699E-01  0.51100000000E-03 0.  1.
</event>
<event>
 8    1  0.9952977E+004  0.1043930E+01  0.7957747E-01            NaN
         13   -1    0    0    0    0  0.00000000000E+00  0.00000000000E+00  0.74505805969E-08  0.10566000000E+00  0.10566000000E+00 0. -1.
     999900   -1    0    0    0    0 -0.00000000000E+00 -0.00000000000E+00 -0.74505805969E-08  0.93827000000E+00  0.93827000000E+00 0. -1.
     999902    2    1    2    0    0 -0.39434194090E-02  0.19700550565E-01  0.11874933997E-01  0.10205916987E+01  0.10203248204E+01 0.  0.
     999903    2    3    3    0    0 -0.15153200274E-01  0.29659675576E-01 -0.12413808371E+00  0.13001638784E+00  0.19613297694E-01 0.  0.
         14    1    1    2    0    0  0.39434194090E-02 -0.19700550565E-01 -0.11874933997E-01  0.23338301280E-01  0.00000000000E+00 0.  1.
     999901    1    3    3    0    0  0.11209780865E-01 -0.99591250113E-02  0.13601301771E+00  0.89057531088E+00  0.88000000000E+00 0.  1.
        -11    1    4    4    0    0 -0.59159322441E-02  0.66370237055E-02 -0.68754920462E-01  0.69329276260E-01  0.51100000000E-03 0.  1.
         11    1    4    4    0    0 -0.92372680298E-02  0.23022651870E-01 -0.55383163249E-01  0.60687111583E-01  0.51100000000E-03 0. -1.
</event>
<event>
 8    1  0.9952977E+004  0.1043930E+01  0.7957747E-01            NaN
         13   -1    0    0    0    0  0.00000000000E+00  0.00000000000E+00  0.74505805969E-08  0.10566000000E+00  0.10566000000E+00 0. -1.
     999900   -1    0    0    0    0 -0.00000000000E+00 -0.00000000000E+00 -0.74505805969E-08  0.93827000000E+00  0.93827000000E+00 0.  1.
     999902    2    1    2    0    0 -0.16570619629E-01  0.10360669558E-01  0.10239835606E-01  0.10218668374E+01  0.10216286264E+01 0.  0.
     999903    2    3    3    0    0  0.11020689910E+00  0.27395577145E-01 -0.59949126100E-01  0.12985270209E+00  0.19280774446E-01 0.  0.
         14    1    1    2    0    0  0.16570619629E-01 -0.10360669558E-01 -0.10239835606E-01  0.22063162553E-01  0.00000000000E+00 0.  1.
     999901    1    3    3    0    0 -0.12677751873E+00 -0.17034907587E-01  0.70188961706E-01  0.89201413536E+00  0.88000000000E+00 0. -1.
        -11    1    4    4    0    0  0.54743303588E-01  0.38337139445E-02 -0.26796839566E-01  0.61072566526E-01  0.51100000000E-03 0. -1.
         11    1    4    4    0    0  0.55463595513E-01  0.23561863201E-01 -0.33152286534E-01  0.68780135564E-01  0.51100000000E-03 0.  1.
</event>
<event>
 8    1  0.9952977E+004  0.1043930E+01  0.7957747E-01            NaN
         13   -1    0    0    0    0  0.00000000000E+00  0.00000000000E+00  0.74505805969E-08  0.10566000000E+00  0.10566000000E+00 0.  1.
     999900   -1    0    0    0    0 -0.00000000000E+00 -0.00000000000E+00 -0.74505805969E-08  0.93827000000E+00  0.93827000000E+00 0. -1.
     999902    2    1    2    0    0  0.11309766207E-01 -0.76246285995E-02 -0.18405984888E-01  0.10210209177E+01  0.10207638749E+01 0.  0.
     999903    2    3    3    0    0 -0.16159468217E-01  0.11911229037E+00  0.43181864988E-01  0.12938765859E+00  0.20679134409E-01 0.  0.
         14    1    1    2    0    0 -0.11309766207E-01  0.76246285995E-02  0.18405984888E-01  0.22909082317E-01  0.00000000000E+00 0.  1.
     999901    1    3    3    0    0  0.27469234424E-01 -0.12673691897E+00 -0.61587849876E-01  0.89163325909E+00  0.88000000000E+00 0.  1.
        -11    1    4    4    0    0  0.44021250241E-02  0.10107778405E-01  0.42311068977E-02  0.11819867833E-01  0.51100000000E-03 0. -1.
         11    1    4    4    0    0 -0.20561593241E-01  0.10900451197E+00  0.38950758091E-01  0.11756779076E+00  0.51100000000E-03 0.  1.
</event>
<event>
 8    1  0.9952977E+004  0.1043930E+01  0.7957747E-01            NaN
         13   -1    0    0    0    0  0.00000000000E+00  0.00000000000E+00  0.74505805969E-08  0.10566000000E+00  0.10566000000E+00 0. -1.
     999900   -1    0    0    0    0 -0.00000000000E+00 -0.00000000000E+00 -0.74505805969E-08  0.93827000000E+00  0.93827000000E+00 0. -1.
     999902    2    1    2    0    0 -0.10884305858E-01 -0.16594672844E-01  0.12095089484E-01  0.10206890346E+01  0.10204244034E+01 0.  0.
     999903    2    3    3    0    0  0.79232845443E-03 -0.60443861723E-01  0.11665215288E+00  0.13333832909E+00  0.22744164717E-01 0.  0.
         14    1    1    2    0    0  0.10884305858E-01  0.16594672844E-01 -0.12095089484E-01  0.23240965351E-01  0.00000000000E+00 0. -1.
     999901    1    3    3    0    0 -0.11676634313E-01  0.43849188879E-01 -0.10455706339E+00  0.88735070556E+00  0.88000000000E+00 0. -1.
        -11    1    4    4    0    0 -0.33362114364E-03 -0.29409611451E-01  0.33537547570E-01  0.44610141972E-01  0.51100000000E-03 0. -1.
         11    1    4    4    0    0  0.11259495981E-02 -0.31034250272E-01  0.83114605308E-01  0.88728187116E-01  0.51100000000E-03 0.  1.
</event>
<event>
 8    1  0.9952977E+004  0.1043930E+01  0.7957747E-01            NaN
         13   -1    0    0    0    0  0.00000000000E+00  0.00000000000E+00  0.74505805969E-08  0.10566000000E+00  0.10566000000E+00 0. -1.
     999900   -1    0    0    0    0 -0.00000000000E+00 -0.00000000000E+00 -0.74505805969E-08  0.93827000000E+00  0.93827000000E+00 0.  1.
     999902    2    1    2    0    0  0.22078075579E-02 -0.22580503019E-01 -0.28598819997E-02  0.10210622835E+01  0.10208061787E+01 0.  0.
     999903    2    3    3    0    0 -0.21003786674E-01  0.10993522435E+00  0.60374873266E-01  0.12859501222E+00  0.19095529326E-01 0.  0.
         14    1    1    2    0    0 -0.22078075579E-02  0.22580503019E-01  0.28598819997E-02  0.22867716455E-01  0.00000000000E+00 0.  1.
     999901    1    3    3    0    0  0.23211594232E-01 -0.13251572737E+00 -0.63234755265E-01  0.89246727132E+00  0.88000000000E+00 0.  1.
        -11    1    4    4    0    0 -0.80344580069E-02  0.10349344716E-01  0.71364059151E-02  0.14928190175E-01  0.51100000000E-03 0. -1.
         11    1    4    4    0    0 -0.12969328667E-01  0.99585879631E-01  0.53238467350E-01  0.11366682205E+00  0.51100000000E-03 0.  1.
</event>
<event>
 8    1  0.9952977E+004  0.1043930E+01  0.7957747E-01            NaN
         13   -1    0    0    0    0  0.00000000000E+00  0.00000000000E+00  0.74505805969E-08  0.10566000000E+00  0.10566000000E+00 0.  1.
     999900   -1    0    0    0    0 -0.00000000000E+00 -0.00000000000E+00 -0.74505805969E-08  0.93827000000E+00  0.93827000000E+00 0.  1.
     999902    2    1    2    0    0 -0.74023052792E-03 -0.17666020722E-01  0.15189583204E-01  0.10206199235E+01  0.10203536978E+01 0.  0.
     999903    2    3    3    0    0  0.27333624110E-01  0.10968980524E+00  0.60631880964E-01  0.12984910551E+00  0.20139136809E-01 0.  0.
         14    1    1    2    0    0  0.74023052792E-03  0.17666020722E-01 -0.15189583204E-01  0.23310076518E-01  0.00000000000E+00 0. -1.
     999901    1    3    3    0    0 -0.28073854638E-01 -0.12735582597E+00 -0.45442297760E-01  0.89077081797E+00  0.88000000000E+00 0. -1.
        -11    1    4    4    0    0  0.11147435649E-01  0.81611103597E-01  0.41966436322E-01  0.92445013119E-01  0.51100000000E-03 0.  1.
         11    1    4    4    0    0  0.16186188461E-01  0.28078701647E-01  0.18665444642E-01  0.37404092393E-01  0.51100000000E-03 0. -1.
</event>
<event>
 8    1  0.9952977E+004  0.1043930E+01  0.7957747E-01            NaN
         13   -1    0    0    0    0  0.00000000000E+00  0.00000000000E+00  0.74505805969E-08  0.10566000000E+00  0.10566000000E+00 0. -1.
     999900   -1    0    0    0    0 -0.00000000000E+00 -0.00000000000E+00 -0.74505805969E-08  0.93827000000E+00  0.93827000000E+00 0. -1.
     999902    2    1    2    0    0 -0.20009621810E-01  0.80740428950E-02  0.97615761376E-02  0.10202474431E+01  0.10199725396E+01 0.  0.
     999903    2    3    3    0    0  0.12339050690E-01 -0.54225322100E-01 -0.11438074560E+00  0.12876611207E+00  0.20127566255E-01 0.  0.
         14    1    1    2    0    0  0.20009621810E-01 -0.80740428950E-02 -0.97615761376E-02  0.23682556922E-01  0.00000000000E+00 0.  1.
     999901    1    3    3    0    0 -0.32348672500E-01  0.62299364996E-01  0.12414232174E+00  0.89148133101E+00  0.88000000000E+00 0.  1.
        -11    1    4    4    0    0 -0.32276204843E-02 -0.25240925207E-01 -0.60459136418E-01  0.65597943083E-01  0.51100000000E-03 0. -1.
         11    1    4    4    0    0  0.15566671174E-01 -0.28984396893E-01 -0.53921609187E-01  0.63168168986E-01  0.51100000000E-03 0.  1.
</event>
<event>
 8    1  0.9952977E+004  0.1043930E+01  0.7957747E-01            NaN
         13   -1    0    0    0    0  0.00000000000E+00  0.00000000000E+00  0.74505805969E-08  0.10566000000E+00  0.10566000000E+00 0.  1.
     999900   -1    0    0    0    0 -0.00000000000E+00 -0.00000000000E+00 -0.74505805969E-08  0.93827000000E+00  0.93827000000E+00 0. -1.
     999902    2    1    2    0    0 -0.22280547857E-01 -0.87785514434E-02 -0.16342388739E-02  0.10199267395E+01  0.10196442504E+01 0.  0.
     999903    2    3    3    0    0  0.40394378304E-01 -0.48349256106E-01 -0.11190772987E+00  0.12995245343E+00  0.19873192559E-01 0.  0.
         14    1    1    2    0    0  0.22280547857E-01  0.87785514434E-02  0.16342388739E-02  0.24003260506E-01  0.00000000000E+00 0.  1.
     999901    1    3    3    0    0 -0.62674926160E-01  0.39570704663E-01  0.11027349100E+00  0.88997428606E+00  0.88000000000E+00 0.  1.
        -11    1    4    4    0    0  0.20416422906E-01 -0.23750100641E-01 -0.75155537819E-01  0.81421825026E-01  0.51100000000E-03 0. -1.
         11    1    4    4    0    0  0.19977955397E-01 -0.24599155465E-01 -0.36752192055E-01  0.48530628404E-01  0.51100000000E-03 0.  1.
</event>
<event>
 8    1  0.9952977E+004  0.1043930E+01  0.7957747E-01            NaN
         13   -1    0    0    0    0  0.00000000000E+00  0.00000000000E+00  0.74505805969E-08  0.10566000000E+00  0.10566000000E+00 0.  1.
     999900   -1    0    0    0    0 -0.00000000000E+00 -0.00000000000E+00 -0.74505805969E-08  0.93827000000E+00  0.93827000000E+00 0. -1.
     999902    2    1    2    0    0 -0.13159725149E-01 -0.10901466706E-01 -0.16366080292E-01  0.10202684505E+01  0.10199940402E+01 0.  0.
     999903    2    3    3    0    0  0.95988085133E-02 -0.12938416442E+00 -0.14401162358E-01  0.13203426883E+00  0.19830671756E-01 0.  0.
         14    1    1    2    0    0  0.13159725149E-01  0.10901466706E-01  0.16366080292E-01  0.23661549536E-01  0.00000000000E+00 0. -1.
     999901    1    3    3    0    0 -0.22758533663E-01  0.11848269771E+00 -0.19649179342E-02  0.88823418163E+00  0.88000000000E+00 0.  1.
        -11    1    4    4    0    0 -0.23807384386E-02 -0.68551457470E-01 -0.10130177845E-02  0.68602168791E-01  0.51100000000E-03 0. -1.
         11    1    4    4    0    0  0.11979546952E-01 -0.60832706949E-01 -0.13388144573E-01  0.63432100044E-01  0.51100000000E-03 0.  1.
</event>
<event>
 8    1  0.9952977E+004  0.1043930E+01  0.7957747E-01            NaN
         13   -1    0    0    0    0  0.00000000000E+00  0.00000000000E+00  0.74505805969E-08  0.10566000000E+00  0.10566000000E+00 0.  1.
     999900   -1    0    0    0    0 -0.00000000000E+00 -0.00000000000E+00 -0.74505805969E-08  0.93827000000E+00  0.93827000000E+00 0.  1.
     999902    2    1    2    0    0  0.54427516856E-02  0.19661159976E-01 -0.68282931870E-02  0.10224169727E+01  0.10221906161E+01 0.  0.
     999903    2    3    3    0    0 -0.46547451264E-01 -0.86814852241E-01 -0.83558511011E-01  0.13116636329E+00  0.22783904556E-01 0.  0.
         14    1    1    2    0    0 -0.54427516856E-02 -0.19661159976E-01  0.68282931870E-02  0.21513027341E-01  0.00000000000E+00 0.  1.
     999901    1    3    3    0    0  0.51990202950E-01  0.10647601222E+00  0.76730217824E-01  0.89125060937E+00  0.88000000000E+00 0.  1.
        -11    1    4    4    0    0 -0.17848365975E-01 -0.31670548770E-01 -0.45625460831E-01  0.58339794518E-01  0.51100000000E-03 0. -1.
         11    1    4    4    0    0 -0.28699085289E-01 -0.55144303471E-01 -0.37933050180E-01  0.72826568769E-01  0.51100000000E-03 0.  1.
</event>
<event>
 8    1  0.9952977E+004  0.1043930E+01  0.7957747E-01            NaN
         13   -1    0    0    0    0  0.00000000000E+00  0.00000000000E+00  0.74505805969E-08  0.10566000000E+00  0.10566000000E+00 0.  1.
     999900   -1    0    0    0    0 -0.00000000000E+00 -0.00000000000E+00 -0.74505805969E-08  0.93827000000E+00  0.93827000000E+00 0.  1.
     999902    2    1    2    0    0  0.15841028385E-01  0.21915795355E-01  0.31483823553E-02  0.10167058824E+01  0.10163413299E+01 0.  0.
     999903    2    3    3    0    0  0.12682367230E+00  0.18789212484E-01  0.14585611827E-03  0.12972451964E+00  0.19777546871E-01 0.  0.
         14    1    1    2    0    0 -0.15841028385E-01 -0.21915795355E-01 -0.31483823553E-02  0.27224117576E-01  0.00000000000E+00 0. -1.
     999901    1    3    3    0    0 -0.11098264391E+00  0.31265828715E-02  0.30025262370E-02  0.88698136279E+00  0.88000000000E+00 0. -1.
        -11    1    4    4    0    0  0.95363389754E-01  0.80876505038E-02 -0.61277007710E-02  0.95903055393E-01  0.51100000000E-03 0. -1.
         11    1    4    4    0    0  0.31460282542E-01  0.10701561980E-01  0.62735568893E-02  0.33821464242E-01  0.51100000000E-03 0.  1.
</event>
<event>
 8    1  0.9952977E+004  0.1043930E+01  0.7957747E-01            NaN
         13   -1    0    0    0    0  0.00000000000E+00  0.00000000000E+00  0.74505805969E-08  0.10566000000E+00  0.10566000000E+00 0. -1.
     999900   -1    0    0    0    0 -0.00000000000E+00 -0.00000000000E+00 -0.74505805969E-08  0.93827000000E+00  0.93827000000E+00 0. -1.
     999902    2    1    2    0    0  0.49091334429E-02 -0.20382928345E-01 -0.96700969311E-02  0.10208416018E+01  0.10205804729E+01 0.  0.
     999903    2    3    3    0    0 -0.95486981632E-01 -0.71291674291E-01 -0.54416683867E-01  0.13254360143E+00  0.20158479891E-01 0.  0.
         14    1    1    2    0    0 -0.49091334429E-02  0.20382928345E-01  0.96700969311E-02  0.23088398250E-01  0.00000000000E+00 0. -1.
     999901    1    3    3    0    0  0.10039611508E+00  0.50908745946E-01  0.44746586936E-01  0.88829800032E+00  0.88000000000E+00 0.  1.
        -11    1    4    4    0    0 -0.77409626591E-01 -0.47453693473E-01 -0.43631122050E-01  0.10073747687E+00  0.51100000000E-03 0.  1.
         11    1    4    4    0    0 -0.18077355042E-01 -0.23837980819E-01 -0.10785561817E-01  0.31806124560E-01  0.51100000000E-03 0. -1.
</event>
<event>
 8    1  0.9952977E+004  0.1043930E+01  0.7957747E-01            NaN
         13   -1    0    0    0    0  0.00000000000E+00  0.00000000000E+00  0.74505805969E-08  0.10566000000E+00  0.10566000000E+00 0. -1.
     999900   -1    0    0    0    0 -0.00000000000E+00 -0.00000000000E+00 -0.74505805969E-08  0.93827000000E+00  0.93827000000E+00 0. -1.
     999902    2    1    2    0    0  0.20644132895E-01 -0.85840149018E-02  0.23418378044E-01  0.10115527554E+01  0.10110344658E+01 0.  0.
     999903    2    3    3    0    0 -0.45819598103E-01 -0.32621976933E-01  0.10935814939E+00  0.12454605003E+00  0.19720162023E-01 0.  0.
         14    1    1    2    0    0 -0.20644132895E-01  0.85840149018E-02 -0.23418378044E-01  0.32377244556E-01  0.00000000000E+00 0. -1.
     999901    1    3    3    0    0  0.66463730998E-01  0.24037962031E-01 -0.85939771344E-01  0.88700670542E+00  0.88000000000E+00 0.  1.
        -11    1    4    4    0    0 -0.19340733484E-01 -0.13209904698E-01  0.26236190934E-01  0.35173347716E-01  0.51100000000E-03 0. -1.
         11    1    4    4    0    0 -0.26478864619E-01 -0.19412072234E-01  0.83121958454E-01  0.89372702310E-01  0.51100000000E-03 0.  1.
</event>
<event>
 8    1  0.9952977E+004  0.1043930E+01  0.7957747E-01            NaN
         13   -1    0    0    0    0  0.00000000000E+00  0.00000000000E+00  0.74505805969E-08  0.10566000000E+00  0.10566000000E+00 0.  1.
     999900   -1    0    0    0    0 -0.00000000000E+00 -0.00000000000E+00 -0.74505805969E-08  0.93827000000E+00  0.93827000000E+00 0.  1.
     999902    2    1    2    0    0 -0.52698458534E-02  0.11791027859E-01 -0.18896184218E-01  0.10210418941E+01  0.10207853272E+01 0.  0.
     999903    2    3    3    0    0  0.64289717754E-01 -0.74856933325E-01  0.79933850627E-01  0.12856568834E+00  0.20074547764E-01 0.  0.
         14    1    1    2    0    0  0.52698458534E-02 -0.11791027859E-01  0.18896184218E-01  0.22888105892E-01  0.00000000000E+00 0.  1.
     999901    1    3    3    0    0 -0.69559563607E-01  0.86647961183E-01 -0.98830034845E-01  0.89247620576E+00  0.88000000000E+00 0.  1.
        -11    1    4    4    0    0  0.60800953402E-01 -0.61131649960E-01  0.71964629486E-01  0.11230762921E+00  0.51100000000E-03 0.  1.
         11    1    4    4    0    0  0.34887643519E-02 -0.13725283364E-01  0.79692211402E-02  0.16258059131E-01  0.51100000000E-03 0. -1.
</event>
<event>
 8    1  0.9952977E+004  0.1043930E+01  0.7957747E-01            NaN
         13   -1    0    0    0    0  0.00000000000E+00  0.00000000000E+00  0.74505805969E-08  0.10566000000E+00  0.10566000000E+00 0.  1.
     999900   -1    0    0    0    0 -0.00000000000E+00 -0.00000000000E+00 -0.74505805969E-08  0.93827000000E+00  0.93827000000E+00 0.  1.
     999902    2    1    2    0    0 -0.87481594844E-02 -0.15608043088E-01  0.15336101069E-01  0.10203644043E+01  0.10200922411E+01 0.  0.
     999903    2    3    3    0    0  0.73675037976E-01 -0.10322580187E-01  0.10681376728E+00  0.13177581391E+00  0.20521144479E-01 0.  0.
         14    1    1    2    0    0  0.87481594844E-02  0.15608043088E-01 -0.15336101069E-01  0.23565595673E-01  0.00000000000E+00 0. -1.
     999901    1    3    3    0    0 -0.82423197460E-01 -0.52854629013E-02 -0.91477666207E-01  0.88858859041E+00  0.88000000000E+00 0.  1.
        -11    1    4    4    0    0  0.35403082934E-01  0.11879338390E-02  0.36299882926E-01  0.50722106516E-01  0.51100000000E-03 0.  1.
         11    1    4    4    0    0  0.38271955042E-01 -0.11510514026E-01  0.70513884350E-01  0.81053707398E-01  0.51100000000E-03 0. -1.
</event>
<event>
 8    1  0.9952977E+004  0.1043930E+01  0.7957747E-01            NaN
         13   -1    0    0    0    0  0.00000000000E+00  0.00000000000E+00  0.74505805969E-08  0.10566000000E+00  0.10566000000E+00 0. -1.
     999900   -1    0    0    0    0 -0.00000000000E+00 -0.00000000000E+00 -0.74505805969E-08  0.93827000000E+00  0.93827000000E+00 0. -1.
     999902    2    1    2    0    0  0.31547817751E-02  0.23160153319E-01  0.81005920076E-03  0.10205419358E+01  0.10202739050E+01 0.  0.
     999903    2    3    3    0    0  0.70066082496E-01  0.68536722516E-01 -0.86905816265E-01  0.13249338422E+00  0.19883101194E-01 0.  0.
         14    1    1    2    0    0 -0.31547817751E-02 -0.23160153319E-01 -0.81005920076E-03  0.23388064172E-01  0.00000000000E+00 0. -1.
     999901    1    3    3    0    0 -0.66911300720E-01 -0.45376569197E-01  0.87715875466E-01  0.88804855160E+00  0.88000000000E+00 0.  1.
        -11    1    4    4    0    0  0.43836941358E-01  0.31268648250E-01 -0.54157855812E-01  0.76372378896E-01  0.51100000000E-03 0. -1.
         11    1    4    4    0    0  0.26229141138E-01  0.37268074266E-01 -0.32747960453E-01  0.56121005329E-01  0.51100000000E-03 0.  1.
</event>
<event>
 8    1  0.9952977E+004  0.1043930E+01  0.7957747E-01            NaN
         13   -1    0    0    0    0  0.00000000000E+00  0.00000000000E+00  0.74505805969E-08  0.10566000000E+00  0.10566000000E+00 0.  1.
     999900   -1    0    0    0    0 -0.00000000000E+00 -0.00000000000E+00 -0.74505805969E-08  0.93827000000E+00  0.93827000000E+00 0.  1.
     999902    2    1    2    0    0 -0.92782149008E-02  0.14888549527E-01  0.10403142845E-01  0.10235344230E+01  0.10233311954E+01 0.  0.
     999903    2    3    3    0    0  0.66668260951E-01  0.11497931531E+00  0.71165604022E-02  0.13460426255E+00  0.20068933639E-01 0.  0.
         14    1    1    2    0    0  0.92782149008E-02 -0.14888549527E-01 -0.10403142845E-01  0.20395576967E-01  0.00000000000E+00 0. -1.
     999901    1    3    3    0    0 -0.75946475852E-01 -0.10009076578E+00  0.32865824427E-02  0.88893016048E+00  0.88000000000E+00 0.  1.
        -11    1    4    4    0    0  0.33655877462E-01  0.67299208020E-01 -0.47883771602E-02  0.75399543531E-01  0.51100000000E-03 0. -1.
         11    1    4    4    0    0  0.33012383489E-01  0.47680107291E-01  0.11904937562E-01  0.59204719021E-01  0.51100000000E-03 0.  1.
</event>
<event>
 8    1  0.9952977E+004  0.1043930E+01  0.7957747E-01            NaN
         13   -1    0    0    0    0  0.00000000000E+00  0.00000000000E+00  0.74505805969E-08  0.10566000000E+00  0.10566000000E+00 0. -1.
     999900   -1    0    0    0    0 -0.00000000000E+00 -0.00000000000E+00 -0.74505805969E-08  0.93827000000E+00  0.93827000000E+00 0. -1.
     999902    2    1    2    0    0 -0.32776198473E-02  0.23977687691E-01 -0.94396891706E-04  0.10197291486E+01  0.10194419332E+01 0.  0.
     999903    2    3    3    0    0 -0.66434402513E-01  0.76820768705E-01 -0.81600398130E-01  0.13213442200E+00  0.22043596816E-01 0.  0.
         14    1    1    2    0    0  0.32776198473E-02 -0.23977687691E-01  0.94396891706E-04  0.24200851424E-01  0.00000000000E+00 0. -1.
     999901    1    3    3    0    0  0.63156782666E-01 -0.52843081014E-01  0.81506001239E-01  0.88759472658E+00  0.88000000000E+00 0.  1.
        -11    1    4    4    0    0 -0.35878721698E-01  0.57206227559E-01 -0.55603432687E-01  0.87474784880E-01  0.51100000000E-03 0. -1.
         11    1    4    4    0    0 -0.30555680816E-01  0.19614541146E-01 -0.25996965443E-01  0.44659637121E-01  0.51100000000E-03 0.  1.
</event>
<event>
 8    1  0.9952977E+004  0.1043930E+01  0.7957747E-01            NaN
         13   -1    0    0    0    0  0.00000000000E+00  0.00000000000E+00  0.74505805969E-08  0.10566000000E+00  0.10566000000E+00 0.  1.
     999900   -1    0    0    0    0 -0.00000000000E+00 -0.00000000000E+00 -0.74505805969E-08  0.93827000000E+00  0.93827000000E+00 0.  1.
     999902    2    1    2    0    0 -0.16305139106E-01 -0.73089724553E-02  0.15898869117E-01  0.10200123772E+01  0.10197319241E+01 0.  0.
     999903    2    3    3    0    0  0.99191368421E-01  0.34421507537E-01 -0.69233551347E-01  0.12741593694E+00  0.20439388536E-01 0.  0.
         14    1    1    2    0    0  0.16305139106E-01  0.73089724553E-02 -0.15898869117E-01  0.23917622767E-01  0.00000000000E+00 0. -1.
     999901    1    3    3    0    0 -0.11549650753E+00 -0.41730479992E-01  0.85132420464E-01  0.89259644029E+00  0.88000000000E+00 0. -1.
        -11    1    4    4    0    0  0.30942760379E-01  0.20990408166E-01 -0.25101844019E-01  0.45037932335E-01  0.51100000000E-03 0.  1.
         11    1    4    4    0    0  0.68248608042E-01  0.13431099371E-01 -0.44131707328E-01  0.82378004605E-01  0.51100000000E-03 0. -1.
</event>
<event>
 8    1  0.9952977E+004  0.1043930E+01  0.7957747E-01            NaN
         13   -1    0    0    0    0  0.00000000000E+00  0.00000000000E+00  0.74505805969E-08  0.10566000000E+00  0.10566000000E+00 0.  1.
     999900   -1    0    0    0    0 -0.00000000000E+00 -0.00000000000E+00 -0.74505805969E-08  0.93827000000E+00  0.93827000000E+00 0. -1.
     999902    2    1    2    0    0 -0.13675745781E-01 -0.47749558082E-02 -0.17370455244E-01  0.10213123312E+01  0.10210618585E+01 0.  0.
     999903    2    3    3    0    0 -0.53689689920E-01  0.11486581174E+00  0.27209560282E-01  0.13119862682E+00  0.19899296428E-01 0.  0.
         14    1    1    2    0    0  0.13675745781E-01  0.47749558082E-02  0.17370455244E-01  0.22617668780E-01  0.00000000000E+00 0. -1.
     999901    1    3    3    0    0  0.40013944139E-01 -0.11964076754E+00 -0.44580015526E-01  0.89011370440E+00  0.88000000000E+00 0.  1.
        -11    1    4    4    0    0 -0.53465106417E-01  0.10264926739E+00  0.21573253013E-01  0.11773298631E+00  0.51100000000E-03 0. -1.
         11    1    4    4    0    0 -0.22458350276E-03  0.12216544347E-01  0.56363072687E-02  0.13465640503E-01  0.51100000000E-03 0.  1.
</event>
<event>
 8    1  0.9952977E+004  0.1043930E+01  0.7957747E-01            NaN
         13   -1    0    0    0    0  0.00000000000E+00  0.00000000000E+00  0.74505805969E-08  0.10566000000E+00  0.10566000000E+00 0.  1.
     999900   -1    0    0    0    0 -0.00000000000E+00 -0.00000000000E+00 -0.74505805969E-08  0.93827000000E+00  0.93827000000E+00 0.  1.
     999902    2    1    2    0    0  0.12112791443E-02  0.16028720715E-01 -0.15536897632E-01  0.10215741893E+01  0.10213295462E+01 0.  0.
     999903    2    3    3    0    0  0.71864763655E-02  0.38604802348E-01 -0.12710486523E+00  0.13422262770E+00  0.17835100653E-01 0.  0.
         14    1    1    2    0    0 -0.12112791443E-02 -0.16028720715E-01  0.15536897632E-01  0.22355810720E-01  0.00000000000E+00 0.  1.
     999901    1    3    3    0    0 -0.59751972212E-02 -0.22576081632E-01  0.11156796760E+00  0.88735156158E+00  0.88000000000E+00 0. -1.
        -11    1    4    4    0    0 -0.24999900339E-02  0.64446403735E-02 -0.44700949946E-01  0.45235156536E-01  0.51100000000E-03 0.  1.
         11    1    4    4    0    0  0.96864663994E-02  0.32160161974E-01 -0.82403915282E-01  0.88987471165E-01  0.51100000000E-03 0. -1.
</event>
<event>
 8    1  0.9952977E+004  0.1043930E+01  0.7957747E-01            NaN
         13   -1    0    0    0    0  0.00000000000E+00  0.00000000000E+00  0.74505805969E-08  0.10566000000E+00  0.10566000000E+00 0. -1.
     999900   -1    0    0    0    0 -0.00000000000E+00 -0.00000000000E+00 -0.74505805969E-08  0.93827000000E+00  0.93827000000E+00 0. -1.
     999902    2    1    2    0    0 -0.17234313167E-01  0.88412238050E-03  0.14342803828E-01  0.10214907655E+01  0.10212442728E+01 0.  0.
     999903    2    3    3    0    0  0.57666300089E-01  0.25535742330E-01 -0.11079675247E+00  0.12914682242E+00  0.20627774499E-01 0.  0.
         14    1    1    2    0    0  0.17234313167E-01 -0.88412238050E-03 -0.14342803828E-01  0.22439234487E-01  0.00000000000E+00 0.  1.
     999901    1    3    3    0    0 -0.74900613255E-01 -0.24651619950E-01  0.12513955629E+00  0.89234394310E+00  0.88000000000E+00 0.  1.
        -11    1    4    4    0    0  0.14601193975E-01 -0.16245753381E-02 -0.33543577310E-01  0.36623309657E-01  0.51100000000E-03 0. -1.
         11    1    4    4    0    0  0.43065106114E-01  0.27160317668E-01 -0.77253175157E-01  0.92523512759E-01  0.51100000000E-03 0.  1.
</event>
<event>
 8    1  0.9952977E+004  0.1043930E+01  0.7957747E-01            NaN
         13   -1    0    0    0    0  0.00000000000E+00  0.00000000000E+00  0.74505805969E-08  0.10566000000E+00  0.10566000000E+00 0.  1.
     999900   -1    0    0    0    0 -0.00000000000E+00 -0.00000000000E+00 -0.74505805969E-08  0.93827000000E+00  0.93827000000E+00 0.  1.
     999902    2    1    2    0    0  0.59736905870E-02  0.20900415424E-02 -0.20127730245E-01  0.10228307399E+01  0.10226130958E+01 0.  0.
     999903    2    3    3    0    0 -0.87960815802E-01 -0.40151460324E-01  0.85505042612E-01  0.13054921554E+00  0.19563754337E-01 0.  0.
         14    1    1    2    0    0 -0.59736905870E-02 -0.20900415424E-02  0.20127730245E-01  0.21099260122E-01  0.00000000000E+00 0.  1.
     999901    1    3    3    0    0  0.93934506389E-01  0.42241501866E-01 -0.10563277286E+00  0.89228152434E+00  0.88000000000E+00 0.  1.
        -11    1    4    4    0    0 -0.39761320020E-01 -0.26464853067E-01  0.49919704223E-01  0.69091164473E-01  0.51100000000E-03 0.  1.
         11    1    4    4    0    0 -0.48199495782E-01 -0.13686607257E-01  0.35585338389E-01  0.61458051068E-01  0.51100000000E-03 0. -1.
</event>
<event>
 8    1  0.9952977E+004  0.1043930E+01  0.7957747E-01            NaN
         13   -1    0    0    0    0  0.00000000000E+00  0.00000000000E+00  0.74505805969E-08  0.10566000000E+00  0.10566000000E+00 0. -1.
     999900   -1    0    0    0    0 -0.00000000000E+00 -0.00000000000E+00 -0.74505805969E-08  0.93827000000E+00  0.93827000000E+00 0. -1.
     999902    2    1    2    0    0 -0.17672599309E-01  0.14102020156E-01  0.41423632642E-02  0.10209442019E+01  0.10206854151E+01 0.  0.
     999903    2    3    3    0    0 -0.62859203612E-01 -0.83369004784E-01 -0.76064858437E-01  0.13078936804E+00  0.20453011164E-01 0.  0.
         14    1    1    2    0    0  0.17672599309E-01 -0.14102020156E-01 -0.41423632642E-02  0.22985798056E-01  0.00000000000E+00 0.  1.
     999901    1    3    3    0    0  0.45186604303E-01  0.97471024940E-01  0.80207221701E-01  0.89015483390E+00  0.88000000000E+00 0.  1.
        -11    1    4    4    0    0 -0.20019367321E-01 -0.32192081506E-01 -0.39233518263E-01  0.54558548880E-01  0.51100000000E-03 0. -1.
         11    1    4    4    0    0 -0.42839836291E-01 -0.51176923278E-01 -0.36831340173E-01  0.76230819159E-01  0.51100000000E-03 0.  1.
</event>
<event>
 8    1  0.9952977E+004  0.1043930E+01  0.7957747E-01            NaN
         13   -1    0    0    0    0  0.00000000000E+00  0.00000000000E+00  0.74505805969E-08  0.10566000000E+00  0.10566000000E+00 0.  1.
     999900   -1    0    0    0    0 -0.00000000000E+00 -0.00000000000E+00 -0.74505805969E-08  0.93827000000E+00  0.93827000000E+00 0. -1.
     999902    2    1    2    0    0  0.24390830726E-01 -0.47799393663E-02 -0.37714909851E-02  0.10187906963E+01  0.10184804850E+01 0.  0.
     999903    2    3    3    0    0  0.81924499401E-02 -0.26498979431E-01  0.12447262576E+00  0.12908250951E+00  0.19988685590E-01 0.  0.
         14    1    1    2    0    0 -0.24390830726E-01  0.47799393663E-02  0.37714909851E-02  0.25139303652E-01  0.00000000000E+00 0. -1.
     999901    1    3    3    0    0  0.16198380786E-01  0.21719040065E-01 -0.12824411675E+00  0.88970818683E+00  0.88000000000E+00 0. -1.
        -11    1    4    4    0    0  0.14846436477E-01 -0.17890635788E-01  0.87703941192E-01  0.90734414345E-01  0.51100000000E-03 0. -1.
         11    1    4    4    0    0 -0.66539865369E-02 -0.86083436436E-02  0.36768684568E-01  0.38348095167E-01  0.51100000000E-03 0.  1.
</event>
<event>
 8    1  0.9952977E+004  0.1043930E+01  0.7957747E-01            NaN
         13   -1    0    0    0    0  0.00000000000E+00  0.00000000000E+00  0.74505805969E-08  0.10566000000E+00  0.10566000000E+00 0. -1.
     999900   -1    0    0    0    0 -0.00000000000E+00 -0.00000000000E+00 -0.74505805969E-08  0.93827000000E+00  0.93827000000E+00 0.  1.
     999902    2    1    2    0    0  0.20912371286E-01  0.22280604055E-02  0.85154395236E-02  0.10212407022E+01  0.10209886226E+01 0.  0.
     999903    2    3    3    0    0  0.12212061895E+00 -0.45204643232E-01 -0.22349149780E-01  0.13363403610E+00  0.20041600903E-01 0.  0.
         14    1    1    2    0    0 -0.20912371286E-01 -0.22280604055E-02 -0.85154395236E-02  0.22689297836E-01  0.00000000000E+00 0.  1.
     999901    1    3    3    0    0 -0.10120824766E+00  0.47432703638E-01  0.30864589304E-01  0.88760666606E+00  0.88000000000E+00 0. -1.
        -11    1    4    4    0    0  0.64251952542E-01 -0.33487085877E-01 -0.82166549840E-02  0.72921004286E-01  0.51100000000E-03 0.  1.
         11    1    4    4    0    0  0.57868666405E-01 -0.11717557355E-01 -0.14132494796E-01  0.60713031814E-01  0.51100000000E-03 0. -1.
</event>
<event>
 8    1  0.9952977E+004  0.1043930E+01  0.7957747E-01            NaN
         13   -1    0    0    0    0  0.00000000000E+00  0.00000000000E+00  0.74505805969E-08  0.10566000000E+00  0.10566000000E+00 0.  1.
     999900   -1    0    0    0    0 -0.00000000000E+00 -0.00000000000E+00 -0.74505805969E-08  0.93827000000E+00  0.93827000000E+00 0.  1.
     999902    2    1    2    0    0  0.23071875607E-01  0.53937738945E-02 -0.22659792481E-02  0.10201279223E+01  0.10198502042E+01 0.  0.
     999903    2    3    3    0    0 -0.10247252728E+00  0.20788218417E-01  0.70802556227E-01  0.12808678149E+00  0.21458162862E-01 0.  0.
         14    1    1    2    0    0 -0.23071875607E-01 -0.53937738945E-02  0.22659792481E-02  0.23802077699E-01  0.00000000000E+00 0. -1.
     999901    1    3    3    0    0  0.12554440288E+00 -0.15394444523E-01 -0.73068535475E-01  0.89204114081E+00  0.88000000000E+00 0. -1.
        -11    1    4    4    0    0 -0.20454987588E-01  0.11562218368E-01  0.22053023272E-01  0.32228688575E-01  0.51100000000E-03 0.  1.
         11    1    4    4    0    0 -0.82017539689E-01  0.92260000490E-02  0.48749532955E-01  0.95858092918E-01  0.51100000000E-03 0. -1.
</event>
<event>
 8    1  0.9952977E+004  0.1043930E+01  0.7957747E-01            NaN
         13   -1    0    0    0    0  0.00000000000E+00  0.00000000000E+00  0.74505805969E-08  0.10566000000E+00  0.10566000000E+00 0. -1.
     999900   -1    0    0    0    0 -0.00000000000E+00 -0.00000000000E+00 -0.74505805969E-08  0.93827000000E+00  0.93827000000E+00 0. -1.
     999902    2    1    2    0    0 -0.11913184040E-01 -0.22610026775E-01 -0.64214648629E-02  0.10175790517E+01  0.10172378060E+01 0.  0.
     999903    2    3    3    0    0  0.10293618164E+00  0.36211412983E-01 -0.60870663803E-01  0.12650382827E+00  0.19770101977E-01 0.  0.
         14    1    1    2    0    0  0.11913184040E-01  0.22610026775E-01  0.64214648629E-02  0.26350948289E-01  0.00000000000E+00 0. -1.
     999901    1    3    3    0    0 -0.11484936568E+00 -0.58821439758E-01  0.54449198941E-01  0.89107522345E+00  0.88000000000E+00 0.  1.
        -11    1    4    4    0    0  0.41314266904E-01  0.83854603776E-02 -0.32252527839E-01  0.53081741385E-01  0.51100000000E-03 0.  1.
         11    1    4    4    0    0  0.61621914741E-01  0.27825952606E-01 -0.28618135965E-01  0.73422086880E-01  0.51100000000E-03 0. -1.
</event>
<event>
 8    1  0.9952977E+004  0.1043930E+01  0.7957747E-01            NaN
         13   -1    0    0    0    0  0.00000000000E+00  0.00000000000E+00  0.74505805969E-08  0.10566000000E+00  0.10566000000E+00 0.  1.
     999900   -1    0    0    0    0 -0.00000000000E+00 -0.00000000000E+00 -0.74505805969E-08  0.93827000000E+00  0.93827000000E+00 0. -1.
     999902    2    1    2    0    0 -0.16943919368E-01 -0.16053793596E-01 -0.47730615122E-02  0.10201055838E+01  0.10198273380E+01 0.  0.
     999903    2    3    3    0    0  0.22094882484E-01  0.12462267047E+00  0.23924007399E-02  0.12804883701E+00  0.19281785461E-01 0.  0.
         14    1    1    2    0    0  0.16943919368E-01  0.16053793596E-01  0.47730615122E-02  0.23824416228E-01  0.00000000000E+00 0.  1.
     999901    1    3    3    0    0 -0.39038801853E-01 -0.14067646407E+00 -0.71654622522E-02  0.89205674676E+00  0.88000000000E+00 0.  1.
        -11    1    4    4    0    0  0.20126574536E-01  0.12023898450E+00  0.59345796850E-02  0.12205725194E+00  0.51100000000E-03 0. -1.
         11    1    4    4    0    0  0.19683079483E-02  0.43836859777E-02 -0.35421789451E-02  0.59915850666E-02  0.51100000000E-03 0.  1.
</event>
<event>
 8    1  0.9952977E+004  0.1043930E+01  0.7957747E-01            NaN
         13   -1    0    0    0    0  0.00000000000E+00  0.00000000000E+00  0.74505805969E-08  0.10566000000E+00  0.10566000000E+00 0.  1.
     999900   -1    0    0    0    0 -0.00000000000E+00 -0.00000000000E+00 -0.74505805969E-08  0.93827000000E+00  0.93827000000E+00 0.  1.
     999902    2    1    2    0    0  0.48080474898E-02  0.22541730236E-01 -0.57978608697E-02  0.10201631720E+01  0.10198862855E+01 0.  0.
     999903    2    3    3    0    0  0.40411819867E-01 -0.11523797447E+00  0.31719423274E-01  0.12794211069E+00  0.21216878412E-01 0.  0.
         14    1    1    2    0    0 -0.48080474898E-02 -0.22541730236E-01  0.57978608697E-02  0.23766828004E-01  0.00000000000E+00 0. -1.
     999901    1    3    3    0    0 -0.35603772377E-01  0.13777970470E+00 -0.37517284144E-01  0.89222106131E+00  0.88000000000E+00 0. -1.
        -11    1    4    4    0    0  0.14120075168E-01 -0.18321859404E-01  0.99679221487E-02  0.25193007914E-01  0.51100000000E-03 0. -1.
         11    1    4    4    0    0  0.26291744699E-01 -0.96916115063E-01  0.21751501126E-01  0.10274910277E+00  0.51100000000E-03 0.  1.
</event>
<event>
 8    1  0.9952977E+004  0.1043930E+01  0.7957747E-01            NaN
         13   -1    0    0    0    0  0.00000000000E+00  0.00000000000E+00  0.74505805969E-08  0.10566000000E+00  0.10566000000E+00 0.  1.
     999900   -1    0    0    0    0 -0.00000000000E+00 -0.00000000000E+00 -0.74505805969E-08  0.93827000000E+00  0.93827000000E+00 0.  1.
     999902    2    1    2    0    0  0.23324278288E-01 -0.19206967358E-03 -0.22419237361E-03  0.10206038535E+01  0.10203372563E+01 0.  0.
     999903    2    3    3    0    0  0.11203696766E+00  0.39851414236E-01  0.57070741527E-01  0.13338565525E+00  0.19855632677E-01 0.  0.
         14    1    1    2    0    0 -0.23324278288E-01  0.19206967358E-03  0.22419237361E-03  0.23326146502E-01  0.00000000000E+00 0. -1.
     999901    1    3    3    0    0 -0.88712689367E-01 -0.40043483910E-01 -0.57294933900E-01  0.88721819825E+00  0.88000000000E+00 0.  1.
        -11    1    4    4    0    0  0.46485643478E-01  0.23237127098E-01  0.33194183601E-01  0.61668420372E-01  0.51100000000E-03 0.  1.
         11    1    4    4    0    0  0.65551324177E-01  0.16614287139E-01  0.23876557926E-01  0.71717234874E-01  0.51100000000E-03 0. -1.
</event>
<event>
 8    1  0.9952977E+004  0.1043930E+01  0.7957747E-01            NaN
         13   -1    0    0    0    0  0.00000000000E+00  0.00000000000E+00  0.74505805969E-08  0.10566000000E+00  0.10566000000E+00 0. -1.
     999900   -1    0    0    0    0 -0.00000000000E+00 -0.00000000000E+00 -0.74505805969E-08  0.93827000000E+00  0.93827000000E+00 0.  1.
     999902    2    1    2    0    0  0.58885582936E-02  0.17179673833E-01  0.15836034807E-01  0.10198344338E+01  0.10195497418E+01 0.  0.
     999903    2    3    3    0    0 -0.29787958226E-01  0.10590006266E+00  0.71950303953E-01  0.13287731397E+00  0.19426492319E-01 0.  0.
         14    1    1    2    0    0 -0.58885582936E-02 -0.17179673833E-01 -0.15836034807E-01  0.24095566193E-01  0.00000000000E+00 0.  1.
     999901    1    3    3    0    0  0.35676516519E-01 -0.88720388823E-01 -0.56114269147E-01  0.88695711983E+00  0.88000000000E+00 0.  1.
        -11    1    4    4    0    0 -0.21924088288E-01  0.95115984989E-01  0.57901270466E-01  0.11349244244E+00  0.51100000000E-03 0. -1.
         11    1    4    4    0    0 -0.78638699377E-02  0.10784077666E-01  0.14049033487E-01  0.19384871535E-01  0.51100000000E-03 0.  1.
</event>
<event>
 8    1  0.9952977E+004  0.1043930E+01  0.7957747E-01            NaN
         13   -1    0    0    0    0  0.00000000000E+00  0.00000000000E+00  0.74505805969E-08  0.10566000000E+00  0.10566000000E+00 0. -1.
     999900   -1    0    0    0    0 -0.00000000000E+00 -0.00000000000E+00 -0.74505805969E-08  0.93827000000E+00  0.93827000000E+00 0. -1.
     999902    2    1    2    0    0  0.17926865547E-01  0.13394908209E-01  0.64352457080E-02  0.10206446299E+01  0.10203789747E+01 0.  0.
     999903    2    3    3    0    0  0.12054786564E+00 -0.45785552117E-01 -0.23071379560E-01  0.13221678392E+00  0.17913254919E-01 0.  0.
         14    1    1    2    0    0 -0.17926865547E-01 -0.13394908209E-01 -0.64352457080E-02  0.23285370119E-01  0.00000000000E+00 0.  1.
     999901    1    3    3    0    0 -0.10262100009E+00  0.59180460325E-01  0.29506625268E-01  0.88842784596E+00  0.88000000000E+00 0.  1.
        -11    1    4    4    0    0  0.16356695341E-01 -0.49771403407E-03 -0.45646243824E-03  0.16378604358E-01  0.51100000000E-03 0.  1.
         11    1    4    4    0    0  0.10419117030E+00 -0.45287838083E-01 -0.22614917122E-01  0.11583817956E+00  0.51100000000E-03 0. -1.
</event>
<event>
 8    1  0.9952977E+004  0.1043930E+01  0.7957747E-01            NaN
         13   -1    0    0    0    0  0.00000000000E+00  0.00000000000E+00  0.74505805969E-08  0.10566000000E+00  0.10566000000E+00 0. -1.
     999900   -1    0    0    0    0 -0.00000000000E+00 -0.00000000000E+00 -0.74505805969E-08  0.93827000000E+00  0.93827000000E+00 0.  1.
     999902    2    1    2    0    0  0.15796340118E-01 -0.15913199795E-01  0.70943015640E-02  0.10204122747E+01  0.10201412289E+01 0.  0.
     999903    2    3    3    0    0  0.40908503885E-01 -0.12563144479E+00 -0.43624405694E-02  0.13316937053E+00  0.16071239798E-01 0.  0.
         14    1    1    2    0    0 -0.15796340118E-01  0.15913199795E-01 -0.70943015640E-02  0.23517725305E-01  0.00000000000E+00 0.  1.
     999901    1    3    3    0    0 -0.25112163767E-01  0.10971824500E+00  0.11456742133E-01  0.88724290417E+00  0.88000000000E+00 0. -1.
        -11    1    4    4    0    0  0.25158459739E-01 -0.63696859201E-01 -0.90853286490E-02  0.69087207833E-01  0.51100000000E-03 0.  1.
         11    1    4    4    0    0  0.15750044146E-01 -0.61934585591E-01  0.47228880796E-02  0.64082162695E-01  0.51100000000E-03 0. -1.
</event>
<event>
 8    1  0.9952977E+004  0.1043930E+01  0.7957747E-01            NaN
         13   -1    0    0    0    0  0.00000000000E+00  0.00000000000E+00  0.74505805969E-08  0.10566000000E+00  0.10566000000E+00 0. -1.
     999900   -1    0    0    0    0 -0.00000000000E+00 -0.00000000000E+00 -0.74505805969E-08  0.93827000000E+00  0.93827000000E+00 0. -1.
     999902    2    1    2    0    0 -0.30978219717E-02  0.87812026884E-02  0.20736572189E-01  0.10211987121E+01  0.10209456882E+01 0.  0.
     999903    2    3    3    0    0 -0.11994928726E+00  0.39483683694E-01  0.35347156661E-01  0.13282357941E+00  0.21116083208E-01 0.  0.
         14    1    1    2    0    0  0.30978219717E-02 -0.87812026884E-02 -0.20736572189E-01  0.22731287860E-01  0.00000000000E+00 0.  1.
     999901    1    3    3    0    0  0.11685146529E+00 -0.30702481006E-01 -0.14610584472E-01  0.88837513273E+00  0.88000000000E+00 0. -1.
        -11    1    4    4    0    0 -0.50106861823E-01  0.27437186540E-01  0.14370045650E-01  0.58908879975E-01  0.51100000000E-03 0. -1.
         11    1    4    4    0    0 -0.69842425437E-01  0.12046497155E-01  0.20977111011E-01  0.73914699431E-01  0.51100000000E-03 0.  1.
</event>
<event>
 8    1  0.9952977E+004  0.1043930E+01  0.7957747E-01            NaN
         13   -1    0    0    0    0  0.00000000000E+00  0.00000000000E+00  0.74505805969E-08  0.10566000000E+00  0.10566000000E+00 0. -1.
     999900   -1    0    0    0    0 -0.00000000000E+00 -0.00000000000E+00 -0.74505805969E-08  0.93827000000E+00  0.93827000000E+00 0.  1.
     999902    2    1    2    0    0 -0.11196419472E-01  0.31012593509E-02  0.22471561253E-01  0.10186327930E+01  0.10183186231E+01 0.  0.
     999903    2    3    3    0    0  0.59167110542E-01 -0.40374356715E-01  0.10753326720E+00  0.13067071643E+00  0.19508893527E-01 0.  0.
         14    1    1    2    0    0  0.11196419472E-01 -0.31012593509E-02 -0.22471561253E-01  0.25297207033E-01  0.00000000000E+00 0.  1.
     999901    1    3    3    0    0 -0.70363530014E-01  0.43475616066E-01 -0.85061705951E-01  0.88796207654E+00  0.88000000000E+00 0.  1.
        -11    1    4    4    0    0  0.28213902385E-01 -0.77737827675E-02  0.43554335414E-01  0.52475682374E-01  0.51100000000E-03 0. -1.
         11    1    4    4    0    0  0.30953208157E-01 -0.32600573947E-01  0.63978931790E-01  0.78195034055E-01  0.51100000000E-03 0.  1.
</event>
<event>
 8    1  0.9952977E+004  0.1043930E+01  0.7957747E-01            NaN
         13   -1    0    0    0    0  0.00000000000E+00  0.00000000000E+00  0.74505805969E-08  0.10566000000E+00  0.10566000000E+00 0.  1.
     999900   -1    0    0    0    0 -0.00000000000E+00 -0.00000000000E+00 -0.74505805969E-08  0.93827000000E+00  0.93827000000E+00 0.  1.
     999902    2    1    2    0    0  0.12300973331E-01  0.13232637085E-01 -0.14937426366E-01  0.10204876593E+01  0.10202183686E+01 0.  0.
     999903    2    3    3    0    0 -0.99464730617E-01  0.77494319485E-01  0.26251693105E-01  0.13014071575E+00  0.18677588587E-01 0.  0.
         14    1    1    2    0    0 -0.12300973331E-01 -0.13232637085E-01  0.14937426366E-01  0.23442340658E-01  0.00000000000E+00 0.  1.
     999901    1    3    3    0    0  0.11176570395E+00 -0.64261682400E-01 -0.41189119471E-01  0.89034694359E+00  0.88000000000E+00 0. -1.
        -11    1    4    4    0    0 -0.62337514934E-01  0.36861084781E-01  0.15026257721E-01  0.73964551520E-01  0.51100000000E-03 0. -1.
         11    1    4    4    0    0 -0.37127215683E-01  0.40633234704E-01  0.11225435384E-01  0.56176164229E-01  0.51100000000E-03 0.  1.
</event>
<event>
 8    1  0.9952977E+004  0.1043930E+01  0.7957747E-01            NaN
         13   -1    0    0    0    0  0.00000000000E+00  0.00000000000E+00  0.74505805969E-08  0.10566000000E+00  0.10566000000E+00 0. -1.
     999900   -1    0    0    0    0 -0.00000000000E+00 -0.00000000000E+00 -0.74505805969E-08  0.93827000000E+00  0.93827000000E+00 0.  1.
     999902    2    1    2    0    0 -0.58438862296E-02 -0.20569442253E-01  0.10426490334E-01  0.10201399882E+01  0.10198625549E+01 0.  0.
     999903    2    3    3    0    0  0.58357050233E-01  0.82612305105E-01 -0.74519419908E-01  0.12773646910E+00  0.23089463574E-01 0.  0.
         14    1    1    2    0    0  0.58438862296E-02  0.20569442253E-01 -0.10426490334E-01  0.23790011802E-01  0.00000000000E+00 0.  1.
     999901    1    3    3    0    0 -0.64200936463E-01 -0.10318174736E+00  0.84945910242E-01  0.89240351910E+00  0.88000000000E+00 0. -1.
        -11    1    4    4    0    0  0.49756571155E-01  0.55616861020E-01 -0.60767995440E-01  0.96239087660E-01  0.51100000000E-03 0. -1.
         11    1    4    4    0    0  0.86004790782E-02  0.26995444084E-01 -0.13751424468E-01  0.31497381440E-01  0.51100000000E-03 0.  1.
</event>
<event>
 8    1  0.9952977E+004  0.1043930E+01  0.7957747E-01            NaN
         13   -1    0    0    0    0  0.00000000000E+00  0.00000000000E+00  0.74505805969E-08  0.10566000000E+00  0.10566000000E+00 0.  1.
     999900   -1    0    0    0    0 -0.00000000000E+00 -0.00000000000E+00 -0.74505805969E-08  0.93827000000E+00  0.93827000000E+00 0. -1.
     999902    2    1    2    0    0  0.11018665643E-01 -0.12772513010E-01 -0.14644988176E-01  0.10215911603E+01  0.10213468926E+01 0.  0.
     999903    2    3    3    0    0 -0.88208729996E-01  0.41627075806E-01 -0.85924655091E-01  0.13148656968E+00  0.19800963736E-01 0.  0.
         14    1    1    2    0    0 -0.11018665643E-01  0.12772513010E-01  0.14644988176E-01  0.22338839716E-01  0.00000000000E+00 0.  1.
     999901    1    3    3    0    0  0.99227395639E-01 -0.54399588816E-01  0.71279666914E-01  0.89010459061E+00  0.88000000000E+00 0. -1.
        -11    1    4    4    0    0 -0.74605421927E-01  0.29046070279E-01 -0.76317381754E-01  0.11060853068E+00  0.51100000000E-03 0. -1.
         11    1    4    4    0    0 -0.13603308069E-01  0.12581005526E-01 -0.96072733364E-02  0.20878038999E-01  0.51100000000E-03 0.  1.
</event>
<event>
 8    1  0.9952977E+004  0.1043930E+01  0.7957747E-01            NaN
         13   -1    0    0    0    0  0.00000000000E+00  0.00000000000E+00  0.74505805969E-08  0.10566000000E+00  0.10566000000E+00 0.  1.
     999900   -1    0    0    0    0 -0.00000000000E+00 -0.00000000000E+00 -0.74505805969E-08  0.93827000000E+00  0.93827000000E+00 0.  1.
     999902    2    1    2    0    0 -0.27809031536E-02  0.22350920376E-02 -0.18268462270E-01  0.10253164089E+01  0.10251474395E+01 0.  0.
     999903    2    3    3    0    0 -0.75786920163E-01 -0.73498654714E-01  0.79333248521E-01  0.13369340964E+00  0.20843558897E-01 0.  0.
         14    1    1    2    0    0  0.27809031536E-02 -0.22350920376E-02  0.18268462270E-01  0.18613591069E-01  0.00000000000E+00 0.  1.
     999901    1    3    3    0    0  0.73006017010E-01  0.75733746752E-01 -0.97601710791E-01  0.89162299929E+00  0.88000000000E+00 0.  1.
        -11    1    4    4    0    0 -0.52730966628E-01 -0.44289649373E-01  0.40429809822E-01  0.79855860939E-01  0.51100000000E-03 0. -1.
         11    1    4    4    0    0 -0.23055953535E-01 -0.29209005341E-01  0.38903438699E-01  0.53837548700E-01  0.51100000000E-03 0.  1.
</event>
<event>
 8    1  0.9952977E+004  0.1043930E+01  0.7957747E-01            NaN
         13   -1    0    0    0    0  0.00000000000E+00  0.00000000000E+00  0.74505805969E-08  0.10566000000E+00  0.10566000000E+00 0.  1.
     999900   -1    0    0    0    0 -0.00000000000E+00 -0.00000000000E+00 -0.74505805969E-08  0.93827000000E+00  0.93827000000E+00 0. -1.
     999902    2    1    2    0    0 -0.16434995724E-01  0.96475219168E-04 -0.16857929905E-01  0.10203862494E+01  0.10201145964E+01 0.  0.
     999903    2    3    3    0    0  0.63014789867E-01 -0.11082863343E+00 -0.13968244337E-01  0.12986673897E+00  0.20406085163E-01 0.  0.
         14    1    1    2    0    0  0.16434995724E-01 -0.96475219168E-04  0.16857929905E-01  0.23543750606E-01  0.00000000000E+00 0. -1.
     999901    1    3    3    0    0 -0.79449785590E-01  0.11092510865E+00 -0.28896855675E-02  0.89051951042E+00  0.88000000000E+00 0. -1.
        -11    1    4    4    0    0  0.18644491997E-01 -0.18821799674E-01  0.15661709190E-02  0.26544137528E-01  0.51100000000E-03 0. -1.
         11    1    4    4    0    0  0.44370297870E-01 -0.92006833756E-01 -0.15534415256E-01  0.10332260144E+00  0.51100000000E-03 0.  1.
</event>
<event>
 8    1  0.9952977E+004  0.1043930E+01  0.7957747E-01            NaN
         13   -1    0    0    0    0  0.00000000000E+00  0.00000000000E+00  0.74505805969E-08  0.10566000000E+00  0.10566000000E+00 0.  1.
     999900   -1    0    0    0    0 -0.00000000000E+00 -0.00000000000E+00 -0.74505805969E-08  0.93827000000E+00  0.93827000000E+00 0. -1.
     999902    2    1    2    0    0 -0.65455958804E-02  0.16675163402E-01 -0.14361573748E-01  0.10209700196E+01  0.10207118203E+01 0.  0.
     999903    2    3    3    0    0  0.28658617030E-01  0.12591529085E+00  0.23277132259E-01  0.13271925869E+00  0.19914817146E-01 0.  0.
         14    1    1    2    0    0  0.65455958804E-02 -0.16675163402E-01  0.14361573748E-01  0.22959980410E-01  0.00000000000E+00 0.  1.
     999901    1    3    3    0    0 -0.35204212910E-01 -0.10924012744E+00 -0.37638706006E-01  0.88825076090E+00  0.88000000000E+00 0. -1.
        -11    1    4    4    0    0  0.11664822252E-01  0.82132720930E-01  0.21587208175E-01  0.85721179432E-01  0.51100000000E-03 0. -1.
         11    1    4    4    0    0  0.16993794778E-01  0.43782569917E-01  0.16899240839E-02  0.46998079258E-01  0.51100000000E-03 0.  1.
</event>
<event>
 8    1  0.9952977E+004  0.1043930E+01  0.7957747E-01            NaN
         13   -1    0    0    0    0  0.00000000000E+00  0.00000000000E+00  0.74505805969E-08  0.10566000000E+00  0.10566000000E+00 0. -1.
     999900   -1    0    0    0    0 -0.00000000000E+00 -0.00000000000E+00 -0.74505805969E-08  0.93827000000E+00  0.93827000000E+00 0. -1.
     999902    2    1    2    0    0 -0.13012873939E-01 -0.76674202728E-03  0.19651631106E-01  0.10203480284E+01  0.10200754823E+01 0.  0.
     999903    2    3    3    0    0 -0.91610744626E-01  0.35827700186E-01 -0.82736587650E-01  0.13017943431E+00  0.20620124904E-01 0.  0.
         14    1    1    2    0    0  0.13012873939E-01  0.76674202728E-03 -0.19651631106E-01  0.23581971644E-01  0.00000000000E+00 0.  1.
     999901    1    3    3    0    0  0.78597870687E-01 -0.36594442213E-01  0.10238821876E+00  0.89016859404E+00  0.88000000000E+00 0.  1.
        -11    1    4    4    0    0 -0.60038990552E-01  0.28269647066E-01 -0.43949982289E-01  0.79597207212E-01  0.51100000000E-03 0.  1.
         11    1    4    4    0    0 -0.31571754074E-01  0.75580531201E-02 -0.38786605361E-01  0.50582227103E-01  0.51100000000E-03 0. -1.
</event>
<event>
 8    1  0.9952977E+004  0.1043930E+01  0.7957747E-01            NaN
         13   -1    0    0    0    0  0.00000000000E+00  0.00000000000E+00  0.74505805969E-08  0.10566000000E+00  0.10566000000E+00 0. -1.
     999900   -1    0    0    0    0 -0.00000000000E+00 -0.00000000000E+00 -0.74505805969E-08  0.93827000000E+00  0.93827000000E+00 0. -1.
     999902    2    1    2    0    0 -0.34764878946E-02  0.52678247058E-02  0.23866361933E-01  0.10192431781E+01  0.10189441677E+01 0.  0.
     999903    2    3    3    0    0  0.12545949234E-01 -0.11857305448E+00 -0.42010183972E-01  0.12798956593E+00  0.19987579603E-01 0.  0.
         14    1    1    2    0    0  0.34764878946E-02 -0.52678247058E-02 -0.23866361933E-01  0.24686821933E-01  0.00000000000E+00 0.  1.
     999901    1    3    3    0    0 -0.16022437128E-01  0.12384087919E+00  0.65876545905E-01  0.89125361214E+00  0.88000000000E+00 0. -1.
        -11    1    4    4    0    0  0.16503671982E-01 -0.10348978981E+00 -0.32522767512E-01  0.10972920902E+00  0.51100000000E-03 0. -1.
         11    1    4    4    0    0 -0.39577227485E-02 -0.15083264668E-01 -0.94874164600E-02  0.18260356910E-01  0.51100000000E-03 0.  1.
</event>
<event>
 8    1  0.9952977E+004  0.1043930E+01  0.7957747E-01            NaN
         13   -1    0    0    0    0  0.00000000000E+00  0.00000000000E+00  0.74505805969E-08  0.10566000000E+00  0.10566000000E+00 0. -1.
     999900   -1    0    0    0    0 -0.00000000000E+00 -0.00000000000E+00 -0.74505805969E-08  0.93827000000E+00  0.93827000000E+00 0.  1.
     999902    2    1    2    0    0 -0.18146599736E-01  0.11580637902E-01  0.74095242373E-02  0.10211635487E+01  0.10209097325E+01 0.  0.
     999903    2    3    3    0    0  0.60501249532E-01 -0.10256249613E+00 -0.45121205633E-01  0.12876587005E+00  0.19111757775E-01 0.  0.
         14    1    1    2    0    0  0.18146599736E-01 -0.11580637902E-01 -0.74095242373E-02  0.22766451317E-01  0.00000000000E+00 0.  1.
     999901    1    3    3    0    0 -0.78647849267E-01  0.11414313403E+00  0.52530729871E-01  0.89239767863E+00  0.88000000000E+00 0. -1.
        -11    1    4    4    0    0  0.18218595311E-02 -0.74999062719E-02 -0.77897082666E-02  0.10977633721E-01  0.51100000000E-03 0.  1.
         11    1    4    4    0    0  0.58679390001E-01 -0.95062589860E-01 -0.37331497367E-01  0.11778823633E+00  0.51100000000E-03 0. -1.
</event>
<event>
 8    1  0.9952977E+004  0.1043930E+01  0.7957747E-01            NaN
         13   -1    0    0    0    0  0.00000000000E+00  0.00000000000E+00  0.74505805969E-08  0.10566000000E+00  0.10566000000E+00 0. -1.
     999900   -1    0    0    0    0 -0.00000000000E+00 -0.00000000000E+00 -0.74505805969E-08  0.93827000000E+00  0.93827000000E+00 0. -1.
     999902    2    1    2    0    0 -0.18683909388E-01  0.14036859822E-01  0.16194651623E-02  0.10205047023E+01  0.10202358075E+01 0.  0.
     999903    2    3    3    0    0  0.11065209094E+00 -0.61000245439E-01  0.44562081605E-02  0.12788697045E+00  0.19243290996E-01 0.  0.
         14    1    1    2    0    0  0.18683909388E-01 -0.14036859822E-01 -0.16194651623E-02  0.23425297674E-01  0.00000000000E+00 0. -1.
     999901    1    3    3    0    0 -0.12933600032E+00  0.75037105260E-01 -0.28367429982E-02  0.89261773187E+00  0.88000000000E+00 0. -1.
        -11    1    4    4    0    0  0.52168335123E-01 -0.37745583202E-01 -0.32610419024E-02  0.64476040170E-01  0.51100000000E-03 0. -1.
         11    1    4    4    0    0  0.58483755813E-01 -0.23254662236E-01  0.77172500629E-02  0.63410930282E-01  0.51100000000E-03 0.  1.
</event>
<event>
 8    1  0.9952977E+004  0.1043930E+01  0.7957747E-01            NaN
         13   -1    0    0    0    0  0.00000000000E+00  0.00000000000E+00  0.74505805969E-08  0.10566000000E+00  0.10566000000E+00 0.  1.
     999900   -1    0    0    0    0 -0.00000000000E+00 -0.00000000000E+00 -0.74505805969E-08  0.93827000000E+00  0.93827000000E+00 0.  1.
     999902    2    1    2    0    0 -0.54737968203E-02  0.66648943620E-02 -0.22497459439E-01  0.10198360391E+01  0.10195513856E+01 0.  0.
     999903    2    3    3    0    0 -0.11597523106E-01  0.38720695176E-01  0.11956116605E+00  0.12784628166E+00  0.20396189105E-01 0.  0.
         14    1    1    2    0    0  0.54737968203E-02 -0.66648943620E-02  0.22497459439E-01  0.24093960855E-01  0.00000000000E+00 0.  1.
     999901    1    3    3    0    0  0.61237262857E-02 -0.32055800814E-01 -0.14205862549E+00  0.89198975749E+00  0.88000000000E+00 0.  1.
        -11    1    4    4    0    0 -0.34887562453E-02  0.35957792385E-01  0.10367621329E+00  0.10979140484E+00  0.51100000000E-03 0. -1.
         11    1    4    4    0    0 -0.81087668608E-02  0.27629027908E-02  0.15884952755E-01  0.18054876817E-01  0.51100000000E-03 0.  1.
</event>
<event>
 8    1  0.9952977E+004  0.1043930E+01  0.7957747E-01            NaN
         13   -1    0    0    0    0  0.00000000000E+00  0.00000000000E+00  0.74505805969E-08  0.10566000000E+00  0.10566000000E+00 0.  1.
     999900   -1    0    0    0    0 -0.00000000000E+00 -0.00000000000E+00 -0.74505805969E-08  0.93827000000E+00  0.93827000000E+00 0.  1.
     999902    2    1    2    0    0  0.14084225850E-01  0.19089603707E-01 -0.66459594895E-03  0.10201977419E+01  0.10199216698E+01 0.  0.
     999903    2    3    3    0    0 -0.12476631481E+00 -0.16634456919E-01 -0.15810313122E-01  0.12846623863E+00  0.20255122752E-01 0.  0.
         14    1    1    2    0    0 -0.14084225850E-01 -0.19089603707E-01  0.66459594895E-03  0.23732258116E-01  0.00000000000E+00 0.  1.
     999901    1    3    3    0    0  0.13885054066E+00  0.35724060627E-01  0.15145717173E-01  0.89173150326E+00  0.88000000000E+00 0. -1.
        -11    1    4    4    0    0 -0.82147721524E-01 -0.13910524959E-02 -0.82585438800E-02  0.82575104279E-01  0.51100000000E-03 0. -1.
         11    1    4    4    0    0 -0.42618593287E-01 -0.15243404423E-01 -0.75517692423E-02  0.45891134350E-01  0.51100000000E-03 0.  1.
</event>
<event>
 8    1  0.9952977E+004  0.1043930E+01  0.7957747E-01            NaN
         13   -1    0    0    0    0  0.00000000000E+00  0.00000000000E+00  0.74505805969E-08  0.10566000000E+00  0.10566000000E+00 0. -1.
     999900   -1    0    0    0    0 -0.00000000000E+00 -0.00000000000E+00 -0.74505805969E-08  0.93827000000E+00  0.93827000000E+00 0.  1.
     999902    2    1    2    0    0 -0.21350447850E-01 -0.79090710990E-02  0.23922860822E-01  0.10109042782E+01  0.10103646675E+01 0.  0.
     999903    2    3    3    0    0 -0.25459371585E-01 -0.11162075220E+00  0.44694352204E-01  0.12456097515E+00  0.20260293387E-01 0.  0.
         14    1    1    2    0    0  0.21350447850E-01  0.79090710990E-02 -0.23922860822E-01  0.33025721778E-01  0.00000000000E+00 0.  1.
     999901    1    3    3    0    0  0.41089237347E-02  0.10371168110E+00 -0.20771491381E-01  0.88634330307E+00  0.88000000000E+00 0.  1.
        -11    1    4    4    0    0 -0.66442389828E-02 -0.35987001719E-01  0.45235095554E-02  0.36877275714E-01  0.51100000000E-03 0. -1.
         11    1    4    4    0    0 -0.18815132602E-01 -0.75633750479E-01  0.40170842648E-01  0.87683699434E-01  0.51100000000E-03 0.  1.
</event>
<event>
 8    1  0.9952977E+004  0.1043930E+01  0.7957747E-01            NaN
         13   -1    0    0    0    0  0.00000000000E+00  0.00000000000E+00  0.74505805969E-08  0.10566000000E+00  0.10566000000E+00 0.  1.
     999900   -1    0    0    0    0 -0.00000000000E+00 -0.00000000000E+00 -0.74505805969E-08  0.93827000000E+00  0.93827000000E+00 0.  1.
     999902    2    1    2    0    0 -0.22115489140E-01  0.78367887633E-02  0.68210196476E-02  0.10194956711E+01  0.10192028194E+01 0.  0.
     999903    2    3    3    0    0 -0.48460579877E-01 -0.11322079154E-01  0.12022053430E+00  0.13162148188E+00  0.19865053357E-01 0.  0.
         14    1    1    2    0    0  0.22115489140E-01 -0.78367887633E-02 -0.68210196476E-02  0.24434328864E-01  0.00000000000E+00 0.  1.
     999901    1    3    3    0    0  0.26345090738E-01  0.19158867918E-01 -0.11339951466E+00  0.88787418926E+00  0.88000000000E+00 0.  1.
        -11    1    4    4    0    0 -0.26473210460E-01 -0.14972647595E-01  0.80759480324E-01  0.86298121830E-01  0.51100000000E-03 0. -1.
         11    1    4    4    0    0 -0.21987369417E-01  0.36505684411E-02  0.39461053980E-01  0.45323360048E-01  0.51100000000E-03 0.  1.
</event>
<event>
 8    1  0.9952977E+004  0.1043930E+01  0.7957747E-01            NaN
         13   -1    0    0    0    0  0.00000000000E+00  0.00000000000E+00  0.74505805969E-08  0.10566000000E+00  0.10566000000E+00 0. -1.
     999900   -1    0    0    0    0 -0.00000000000E+00 -0.00000000000E+00 -0.74505805969E-08  0.93827000000E+00  0.93827000000E+00 0. -1.
     999902    2    1    2    0    0 -0.10808990822E-01  0.14816737094E-01  0.18233169116E-02  0.10254991979E+01  0.10253335606E+01 0.  0.
     999903    2    3    3    0    0 -0.19194487488E-01  0.70560285158E-01 -0.11323287343E+00  0.13622107121E+00  0.19680305523E-01 0.  0.
         14    1    1    2    0    0  0.10808990822E-01 -0.14816737094E-01 -0.18233169116E-02  0.18430802079E-01  0.00000000000E+00 0. -1.
     999901    1    3    3    0    0  0.83854966654E-02 -0.55743548064E-01  0.11505619034E+00  0.88927812671E+00  0.88000000000E+00 0.  1.
        -11    1    4    4    0    0  0.18504962968E-02  0.19594596954E-01 -0.39653745305E-01  0.44272488117E-01  0.51100000000E-03 0. -1.
         11    1    4    4    0    0 -0.21044983785E-01  0.50965688205E-01 -0.73579128126E-01  0.91948583096E-01  0.51100000000E-03 0.  1.
</event>
<event>
 8    1  0.1202282E+005  0.1043930E+01  0.7957747E-01            NaN
         13   -1    0    0    0    0  0.00000000000E+00  0.00000000000E+00  0.74505805969E-08  0.10566000000E+00  0.10566000000E+00 0. -1.
     999900   -1    0    0    0    0 -0.00000000000E+00 -0.00000000000E+00 -0.74505805969E-08  0.93827000000E+00  0.93827000000E+00 0. -1.
     999902    2    1    2    0    0 -0.54447964827E-02  0.21626967790E-01  0.78408963854E-02  0.10202899661E+01  0.10200160606E+01 0.  0.
     999903    2    3    3    0    0  0.65840051524E-01 -0.10317234769E+00 -0.32564782135E-01  0.12771558966E+00  0.16473041429E-01 0.  0.
         14    1    1    2    0    0  0.54447964827E-02 -0.21626967790E-01 -0.78408963854E-02  0.23640033855E-01  0.00000000000E+00 0. -1.
     999901    1    3    3    0    0 -0.71284848007E-01  0.12479931548E+00  0.40405678521E-01  0.89257437648E+00  0.88000000000E+00 0. -1.
        -11    1    4    4    0    0  0.33110323878E-01 -0.37836067353E-01 -0.10333367746E-01  0.51331288217E-01  0.51100000000E-03 0. -1.
         11    1    4    4    0    0  0.32729727647E-01 -0.65336280339E-01 -0.22231414390E-01  0.76384301444E-01  0.51100000000E-03 0.  1.
</event>
<event>
 8    1  0.9952977E+004  0.1043930E+01  0.7957747E-01            NaN
         13   -1    0    0    0    0  0.00000000000E+00  0.00000000000E+00  0.74505805969E-08  0.10566000000E+00  0.10566000000E+00 0.  1.
     999900   -1    0    0    0    0 -0.00000000000E+00 -0.00000000000E+00 -0.74505805969E-08  0.93827000000E+00  0.93827000000E+00 0.  1.
     999902    2    1    2    0    0  0.24510728957E-02  0.17218714065E-01 -0.15911202051E-01  0.10203575962E+01  0.10200852738E+01 0.  0.
     999903    2    3    3    0    0 -0.18583618598E-01 -0.12561290741E+00  0.11262564524E-02  0.12843069033E+00  0.19215108031E-01 0.  0.
         14    1    1    2    0    0 -0.24510728957E-02 -0.17218714065E-01  0.15911202051E-01  0.23572403847E-01  0.00000000000E+00 0.  1.
     999901    1    3    3    0    0  0.21034691494E-01  0.14283162148E+00 -0.17037458504E-01  0.89192690582E+00  0.88000000000E+00 0.  1.
        -11    1    4    4    0    0 -0.12882080780E-01 -0.84193770977E-01 -0.82681795627E-02  0.85575481248E-01  0.51100000000E-03 0.  1.
         11    1    4    4    0    0 -0.57015378183E-02 -0.41419136434E-01  0.93944360151E-02  0.42855209082E-01  0.51100000000E-03 0. -1.
</event>
<event>
 8    1  0.9952977E+004  0.1043930E+01  0.7957747E-01            NaN
         13   -1    0    0    0    0  0.00000000000E+00  0.00000000000E+00  0.74505805969E-08  0.10566000000E+00  0.10566000000E+00 0.  1.
     999900   -1    0    0    0    0 -0.00000000000E+00 -0.00000000000E+00 -0.74505805969E-08  0.93827000000E+00  0.93827000000E+00 0.  1.
     999902    2    1    2    0    0  0.91809619818E-02 -0.16907861596E-02  0.22058794508E-01  0.10199771456E+01  0.10196958557E+01 0.  0.
     999903    2    3    3    0    0 -0.53403923544E-01  0.10745507563E+00  0.47473066397E-01  0.13066529235E+00  0.20522043319E-01 0.  0.
         14    1    1    2    0    0 -0.91809619818E-02  0.16907861596E-02 -0.22058794508E-01  0.23952854441E-01  0.00000000000E+00 0. -1.
     999901    1    3    3    0    0  0.62584885526E-01 -0.10914586179E+00 -0.25414271890E-01  0.88931185321E+00  0.88000000000E+00 0. -1.
        -11    1    4    4    0    0 -0.21923389146E-01  0.23895629874E-01  0.11945320099E-01  0.34562811112E-01  0.51100000000E-03 0. -1.
         11    1    4    4    0    0 -0.31480534398E-01  0.83559445761E-01  0.35527746299E-01  0.96102481237E-01  0.51100000000E-03 0.  1.
</event>
<event>
 8    1  0.9952977E+004  0.1043930E+01  0.7957747E-01            NaN
         13   -1    0    0    0    0  0.00000000000E+00  0.00000000000E+00  0.74505805969E-08  0.10566000000E+00  0.10566000000E+00 0.  1.
     999900   -1    0    0    0    0 -0.00000000000E+00 -0.00000000000E+00 -0.74505805969E-08  0.93827000000E+00  0.93827000000E+00 0.  1.
     999902    2    1    2    0    0 -0.50328875557E-02  0.11640309210E-01  0.20298403284E-01  0.10199956746E+01  0.10197148250E+01 0.  0.
     999903    2    3    3    0    0  0.11973519514E+00  0.23996164641E-01  0.42612056382E-01  0.13082885071E+00  0.19699440505E-01 0.  0.
         14    1    1    2    0    0  0.50328875557E-02 -0.11640309210E-01 -0.20298403284E-01  0.23934325382E-01  0.00000000000E+00 0. -1.
     999901    1    3    3    0    0 -0.12476808270E+00 -0.12355855432E-01 -0.22313653099E-01  0.88916682391E+00  0.88000000000E+00 0.  1.
        -11    1    4    4    0    0  0.69407098909E-01  0.39786443028E-02  0.23282045651E-01  0.73317731553E-01  0.51100000000E-03 0. -1.
         11    1    4    4    0    0  0.50328096231E-01  0.20017520339E-01  0.19330010731E-01  0.57511119157E-01  0.51100000000E-03 0.  1.
</event>
<event>
 8    1  0.9952977E+004  0.1043930E+01  0.7957747E-01            NaN
         13   -1    0    0    0    0  0.00000000000E+00  0.00000000000E+00  0.74505805969E-08  0.10566000000E+00  0.10566000000E+00 0. -1.
     999900   -1    0    0    0    0 -0.00000000000E+00 -0.00000000000E+00 -0.74505805969E-08  0.93827000000E+00  0.93827000000E+00 0. -1.
     999902    2    1    2    0    0 -0.55237635813E-02 -0.28499810960E-02  0.11838346168E-01  0.10305591064E+01  0.10304723630E+01 0.  0.
     999903    2    3    3    0    0 -0.11992740185E+00 -0.69141857975E-01  0.15442010710E-01  0.14067383748E+00  0.19684883003E-01 0.  0.
         14    1    1    2    0    0  0.55237635813E-02  0.28499810960E-02 -0.11838346168E-01  0.13370893625E-01  0.00000000000E+00 0.  1.
     999901    1    3    3    0    0  0.11440363827E+00  0.66291876879E-01 -0.36036645426E-02  0.88988526889E+00  0.88000000000E+00 0.  1.
        -11    1    4    4    0    0 -0.85638568503E-01 -0.42753705834E-01  0.17712863251E-01  0.97343979903E-01  0.51100000000E-03 0.  1.
         11    1    4    4    0    0 -0.34288833349E-01 -0.26388152140E-01 -0.22708525408E-02  0.43329857582E-01  0.51100000000E-03 0. -1.
</event>
<event>
 8    1  0.9952977E+004  0.1043930E+01  0.7957747E-01            NaN
         13   -1    0    0    0    0  0.00000000000E+00  0.00000000000E+00  0.74505805969E-08  0.10566000000E+00  0.10566000000E+00 0.  1.
     999900   -1    0    0    0    0 -0.00000000000E+00 -0.00000000000E+00 -0.74505805969E-08  0.93827000000E+00  0.93827000000E+00 0. -1.
     999902    2    1    2    0    0 -0.19259424834E-01 -0.50825826598E-02 -0.32333017126E-03  0.10240085886E+01  0.10238147913E+01 0.  0.
     999903    2    3    3    0    0 -0.57310113868E-01 -0.38232478896E-01  0.11452234324E+00  0.13511247581E+00  0.19845463568E-01 0.  0.
         14    1    1    2    0    0  0.19259424834E-01  0.50825826598E-02  0.32333017126E-03  0.19921411442E-01  0.00000000000E+00 0. -1.
     999901    1    3    3    0    0  0.38050689034E-01  0.33149896236E-01 -0.11484567341E+00  0.88889611275E+00  0.88000000000E+00 0. -1.
        -11    1    4    4    0    0 -0.41978650154E-01 -0.21244538181E-01  0.90069677645E-01  0.10161862734E+00  0.51100000000E-03 0. -1.
         11    1    4    4    0    0 -0.15331463714E-01 -0.16987940715E-01  0.24452665596E-01  0.33493848466E-01  0.51100000000E-03 0.  1.
</event>
<event>
 8    1  0.9952977E+004  0.1043930E+01  0.7957747E-01            NaN
         13   -1    0    0    0    0  0.00000000000E+00  0.00000000000E+00  0.74505805969E-08  0.10566000000E+00  0.10566000000E+00 0.  1.
     999900   -1    0    0    0    0 -0.00000000000E+00 -0.00000000000E+00 -0.74505805969E-08  0.93827000000E+00  0.93827000000E+00 0. -1.
     999902    2    1    2    0    0 -0.24564946334E-01  0.62236557893E-02 -0.28455978923E-02  0.10184296489E+01  0.10181103485E+01 0.  0.
     999903    2    3    3    0    0 -0.39615713716E-01  0.86372718666E-01 -0.87392955981E-01  0.13062412196E+00  0.19886708602E-01 0.  0.
         14    1    1    2    0    0  0.24564946334E-01 -0.62236557893E-02  0.28455978923E-02  0.25500351118E-01  0.00000000000E+00 0.  1.
     999901    1    3    3    0    0  0.15050767382E-01 -0.80149062877E-01  0.84547358088E-01  0.88780552692E+00  0.88000000000E+00 0.  1.
        -11    1    4    4    0    0 -0.35048019952E-01  0.84971938479E-01 -0.80277325192E-01  0.12203812557E+00  0.51100000000E-03 0.  1.
         11    1    4    4    0    0 -0.45676937646E-02  0.14007801874E-02 -0.71156307886E-02  0.85859963884E-02  0.51100000000E-03 0. -1.
</event>
<event>
 8    1  0.9952977E+004  0.1043930E+01  0.7957747E-01            NaN
         13   -1    0    0    0    0  0.00000000000E+00  0.00000000000E+00  0.74505805969E-08  0.10566000000E+00  0.10566000000E+00 0.  1.
     999900   -1    0    0    0    0 -0.00000000000E+00 -0.00000000000E+00 -0.74505805969E-08  0.93827000000E+00  0.93827000000E+00 0. -1.
     999902    2    1    2    0    0 -0.20975753284E-01 -0.22582238186E-02  0.12717100493E-01  0.10192965584E+01  0.10189988555E+01 0.  0.
     999903    2    3    3    0    0 -0.12592467953E+00 -0.33231509036E-01  0.13738876271E-01  0.13251887174E+00  0.20276502142E-01 0.  0.
         14    1    1    2    0    0  0.20975753284E-01  0.22582238186E-02 -0.12717100493E-01  0.24633441611E-01  0.00000000000E+00 0. -1.
     999901    1    3    3    0    0  0.10494892624E+00  0.30973285217E-01 -0.10217757783E-02  0.88677768665E+00  0.88000000000E+00 0.  1.
        -11    1    4    4    0    0 -0.10630508302E+00 -0.20227476988E-01  0.12646756982E-01  0.10895009446E+00  0.51100000000E-03 0. -1.
         11    1    4    4    0    0 -0.19619596511E-01 -0.13004032048E-01  0.10921192891E-02  0.23568777276E-01  0.51100000000E-03 0.  1.
</event>
<event>
 8    1  0.9952977E+004  0.1043930E+01  0.7957747E-01            NaN
         13   -1    0    0    0    0  0.00000000000E+00  0.00000000000E+00  0.74505805969E-08  0.10566000000E+00  0.10566000000E+00 0. -1.
     999900   -1    0    0    0    0 -0.00000000000E+00 -0.00000000000E+00 -0.74505805969E-08  0.93827000000E+00  0.93827000000E+00 0.  1.
     999902    2    1    2    0    0 -0.11644260264E-01  0.99180115109E-04  0.21031952149E-01  0.10198895831E+01  0.10196062083E+01 0.  0.
     999903    2    3    3    0    0  0.12403975574E+00 -0.70671678822E-02 -0.24127802575E-01  0.12831742550E+00  0.21151949432E-01 0.  0.
         14    1    1    2    0    0  0.11644260264E-01 -0.99180115109E-04 -0.21031952149E-01  0.24040416905E-01  0.00000000000E+00 0.  1.
     999901    1    3    3    0    0 -0.13568401601E+00  0.71663479974E-02  0.45159754724E-01  0.89157215759E+00  0.88000000000E+00 0. -1.
        -11    1    4    4    0    0  0.61803355656E-02 -0.51530828211E-02 -0.37313277404E-03  0.80716268082E-02  0.51100000000E-03 0.  1.
         11    1    4    4    0    0  0.11785942018E+00 -0.19140850612E-02 -0.23754669801E-01  0.12024579870E+00  0.51100000000E-03 0. -1.
</event>
<event>
 8    1  0.9952977E+004  0.1043930E+01  0.7957747E-01            NaN
         13   -1    0    0    0    0  0.00000000000E+00  0.00000000000E+00  0.74505805969E-08  0.10566000000E+00  0.10566000000E+00 0. -1.
     999900   -1    0    0    0    0 -0.00000000000E+00 -0.00000000000E+00 -0.74505805969E-08  0.93827000000E+00  0.93827000000E+00 0. -1.
     999902    2    1    2    0    0  0.13828003530E-01  0.16933590234E-01  0.20362013217E-02  0.10219730814E+01  0.10217371838E+01 0.  0.
     999903    2    3    3    0    0  0.10728340936E+00 -0.73193103263E-01  0.16889995269E-01  0.13232294286E+00  0.18897856437E-01 0.  0.
         14    1    1    2    0    0 -0.13828003530E-01 -0.16933590234E-01 -0.20362013217E-02  0.21956918628E-01  0.00000000000E+00 0.  1.
     999901    1    3    3    0    0 -0.93455405830E-01  0.90126693497E-01 -0.14853793947E-01  0.88965013851E+00  0.88000000000E+00 0. -1.
        -11    1    4    4    0    0  0.91183185436E-01 -0.66309073774E-01  0.20073295949E-01  0.11451840421E+00  0.51100000000E-03 0. -1.
         11    1    4    4    0    0  0.16100223924E-01 -0.68840294883E-02 -0.31833006807E-02  0.17804538652E-01  0.51100000000E-03 0.  1.
</event>
<event>
 8    1  0.9952977E+004  0.1043930E+01  0.7957747E-01            NaN
         13   -1    0    0    0    0  0.00000000000E+00  0.00000000000E+00  0.74505805969E-08  0.10566000000E+00  0.10566000000E+00 0.  1.
     999900   -1    0    0    0    0 -0.00000000000E+00 -0.00000000000E+00 -0.74505805969E-08  0.93827000000E+00  0.93827000000E+00 0. -1.
     999902    2    1    2    0    0 -0.11647577589E-01  0.16057787511E-01  0.12847154962E-01  0.10202959569E+01  0.10200221917E+01 0.  0.
     999903    2    3    3    0    0 -0.85153196942E-01 -0.11933226060E-01 -0.95589683676E-01  0.13015825917E+00  0.20256257579E-01 0.  0.
         14    1    1    2    0    0  0.11647577589E-01 -0.16057787511E-01 -0.12847154962E-01  0.23634043117E-01  0.00000000000E+00 0.  1.
     999901    1    3    3    0    0  0.73505619353E-01  0.27991013572E-01  0.10843683864E+00  0.89013769771E+00  0.88000000000E+00 0.  1.
        -11    1    4    4    0    0 -0.34994491629E-01  0.13807214030E-02 -0.50201936855E-01  0.61212877901E-01  0.51100000000E-03 0.  1.
         11    1    4    4    0    0 -0.50158705313E-01 -0.13313947463E-01 -0.45387746822E-01  0.68945381269E-01  0.51100000000E-03 0. -1.
</event>
<event>
 8    1  0.9952977E+004  0.1043930E+01  0.7957747E-01            NaN
         13   -1    0    0    0    0  0.00000000000E+00  0.00000000000E+00  0.74505805969E-08  0.10566000000E+00  0.10566000000E+00 0.  1.
     999900   -1    0    0    0    0 -0.00000000000E+00 -0.00000000000E+00 -0.74505805969E-08  0.93827000000E+00  0.93827000000E+00 0. -1.
     999902    2    1    2    0    0  0.66477962597E-02 -0.85227405069E-02  0.17307397441E-01  0.10235246990E+01  0.10233212757E+01 0.  0.
     999903    2    3    3    0    0  0.48218817985E-01 -0.19994154437E-01  0.12392328972E+00  0.13604135178E+00  0.20626367622E-01 0.  0.
         14    1    1    2    0    0 -0.66477962597E-02  0.85227405069E-02 -0.17307397441E-01  0.20405300954E-01  0.00000000000E+00 0. -1.
     999901    1    3    3    0    0 -0.41571021726E-01  0.11471413931E-01 -0.10661589227E+00  0.88748334726E+00  0.88000000000E+00 0. -1.
        -11    1    4    4    0    0  0.18302792882E-01 -0.80519779413E-02  0.73762011494E-01  0.76425925161E-01  0.51100000000E-03 0.  1.
         11    1    4    4    0    0  0.29916025103E-01 -0.11942176496E-01  0.50161278221E-01  0.59615426621E-01  0.51100000000E-03 0. -1.
</event>
<event>
 8    1  0.9952977E+004  0.1043930E+01  0.7957747E-01            NaN
         13   -1    0    0    0    0  0.00000000000E+00  0.00000000000E+00  0.74505805969E-08  0.10566000000E+00  0.10566000000E+00 0.  1.
     999900   -1    0    0    0    0 -0.00000000000E+00 -0.00000000000E+00 -0.74505805969E-08  0.93827000000E+00  0.93827000000E+00 0. -1.
     999902    2    1    2    0    0  0.22866284887E-01 -0.34628021523E-02  0.78487438318E-03  0.10207896886E+01  0.10205273707E+01 0.  0.
     999903    2    3    3    0    0  0.31838458955E-01 -0.79815322447E-01 -0.98113328516E-01  0.13191902209E+00  0.19804797190E-01 0.  0.
         14    1    1    2    0    0 -0.22866284887E-01  0.34628021523E-02 -0.78487438318E-03  0.23140311386E-01  0.00000000000E+00 0.  1.
     999901    1    3    3    0    0 -0.89721740683E-02  0.76352520295E-01  0.98898202899E-01  0.88887066652E+00  0.88000000000E+00 0.  1.
        -11    1    4    4    0    0  0.11027496838E-01 -0.40743184328E-01 -0.60818153946E-01  0.74031896680E-01  0.51100000000E-03 0. -1.
         11    1    4    4    0    0  0.20810962117E-01 -0.39072138119E-01 -0.37295174570E-01  0.57887125414E-01  0.51100000000E-03 0.  1.
</event>
<event>
 8    1  0.9952977E+004  0.1043930E+01  0.7957747E-01            NaN
         13   -1    0    0    0    0  0.00000000000E+00  0.00000000000E+00  0.74505805969E-08  0.10566000000E+00  0.10566000000E+00 0.  1.
     999900   -1    0    0    0    0 -0.00000000000E+00 -0.00000000000E+00 -0.74505805969E-08  0.93827000000E+00  0.93827000000E+00 0.  1.
     999902    2    1    2    0    0  0.11995585166E-01 -0.10718566535E-01  0.17002379241E-01  0.10205235344E+01  0.10202550767E+01 0.  0.
     999903    2    3    3    0    0  0.45857729682E-01  0.77036605733E-01  0.94963866081E-01  0.13208354851E+00  0.19757477888E-01 0.  0.
         14    1    1    2    0    0 -0.11995585166E-01  0.10718566535E-01 -0.17002379241E-01  0.23406465600E-01  0.00000000000E+00 0. -1.
     999901    1    3    3    0    0 -0.33862144517E-01 -0.87755172268E-01 -0.77961486841E-01  0.88843998589E+00  0.88000000000E+00 0.  1.
        -11    1    4    4    0    0  0.32373774886E-01  0.63651999801E-01  0.64798475663E-01  0.96429984695E-01  0.51100000000E-03 0. -1.
         11    1    4    4    0    0  0.13483954796E-01  0.13384605932E-01  0.30165390418E-01  0.35653563819E-01  0.51100000000E-03 0.  1.
</event>
<event>
 8    1  0.9952977E+004  0.1043930E+01  0.7957747E-01            NaN
         13   -1    0    0    0    0  0.00000000000E+00  0.00000000000E+00  0.74505805969E-08  0.10566000000E+00  0.10566000000E+00 0. -1.
     999900   -1    0    0    0    0 -0.00000000000E+00 -0.00000000000E+00 -0.74505805969E-08  0.93827000000E+00  0.93827000000E+00 0.  1.
     999902    2    1    2    0    0 -0.13571379137E-01  0.15278452192E-01 -0.97750491723E-02  0.10212768541E+01  0.10210255862E+01 0.  0.
     999903    2    3    3    0    0 -0.42705889663E-01 -0.11999955370E+00  0.17081529122E-01  0.13005845528E+00  0.19993430251E-01 0.  0.
         14    1    1    2    0    0  0.13571379137E-01 -0.15278452192E-01  0.97750491723E-02  0.22653145905E-01  0.00000000000E+00 0. -1.
     999901    1    3    3    0    0  0.29134510526E-01  0.13527800589E+00 -0.26856578294E-01  0.89121839881E+00  0.88000000000E+00 0. -1.
        -11    1    4    4    0    0 -0.25226001307E-01 -0.92036895522E-01  0.17758517306E-01  0.97070939715E-01  0.51100000000E-03 0. -1.
         11    1    4    4    0    0 -0.17479888356E-01 -0.27962658179E-01 -0.67698818357E-03  0.32987515569E-01  0.51100000000E-03 0.  1.
</event>
<event>
 8    1  0.9952977E+004  0.1043930E+01  0.7957747E-01            NaN
         13   -1    0    0    0    0  0.00000000000E+00  0.00000000000E+00  0.74505805969E-08  0.10566000000E+00  0.10566000000E+00 0.  1.
     999900   -1    0    0    0    0 -0.00000000000E+00 -0.00000000000E+00 -0.74505805969E-08  0.93827000000E+00  0.93827000000E+00 0.  1.
     999902    2    1    2    0    0  0.39166481416E-02 -0.21683410442E-01  0.44389039713E-02  0.10214530276E+01  0.10212056959E+01 0.  0.
     999903    2    3    3    0    0 -0.11655279471E+00  0.10870693755E-01 -0.54912029547E-01  0.13066955800E+00  0.18880584240E-01 0.  0.
         14    1    1    2    0    0 -0.39166481416E-02  0.21683410442E-01 -0.44389039713E-02  0.22476972428E-01  0.00000000000E+00 0. -1.
     999901    1    3    3    0    0  0.12046944285E+00 -0.32554104197E-01  0.59350933518E-01  0.89078346958E+00  0.88000000000E+00 0.  1.
        -11    1    4    4    0    0 -0.85140650609E-01  0.53880152226E-02 -0.30849106527E-01  0.90718738906E-01  0.51100000000E-03 0. -1.
         11    1    4    4    0    0 -0.31412144098E-01  0.54826785326E-02 -0.24062923020E-01  0.39950819090E-01  0.51100000000E-03 0.  1.
</event>
<event>
 8    1  0.9952977E+004  0.1043930E+01  0.7957747E-01            NaN
         13   -1    0    0    0    0  0.00000000000E+00  0.00000000000E+00  0.74505805969E-08  0.10566000000E+00  0.10566000000E+00 0. -1.
     999900   -1    0    0    0    0 -0.00000000000E+00 -0.00000000000E+00 -0.74505805969E-08  0.93827000000E+00  0.93827000000E+00 0. -1.
     999902    2    1    2    0    0  0.14806127073E-01  0.16178833335E-01 -0.60792694121E-03  0.10219904097E+01  0.10217548884E+01 0.  0.
     999903    2    3    3    0    0 -0.87944246410E-01  0.68802256078E-01  0.67222635971E-01  0.13186241378E+00  0.20021799695E-01 0.  0.
         14    1    1    2    0    0 -0.14806127073E-01 -0.16178833335E-01  0.60792694121E-03  0.21939590291E-01  0.00000000000E+00 0.  1.
     999901    1    3    3    0    0  0.10275037348E+00 -0.52623422743E-01 -0.67830562912E-01  0.89012799593E+00  0.88000000000E+00 0. -1.
        -11    1    4    4    0    0 -0.20396173777E-01  0.62335921142E-02  0.11433182367E-01  0.24204139221E-01  0.51100000000E-03 0.  1.
         11    1    4    4    0    0 -0.67548072632E-01  0.62568663964E-01  0.55789453603E-01  0.10765827456E+00  0.51100000000E-03 0. -1.
</event>
<event>
 8    1  0.9952977E+004  0.1043930E+01  0.7957747E-01            NaN
         13   -1    0    0    0    0  0.00000000000E+00  0.00000000000E+00  0.74505805969E-08  0.10566000000E+00  0.10566000000E+00 0.  1.
     999900   -1    0    0    0    0 -0.00000000000E+00 -0.00000000000E+00 -0.74505805969E-08  0.93827000000E+00  0.93827000000E+00 0. -1.
     999902    2    1    2    0    0  0.10092598887E-01  0.17427391008E-01 -0.10017151013E-01  0.10214373829E+01  0.10211897029E+01 0.  0.
     999903    2    3    3    0    0  0.70504960951E-01 -0.89697023335E-01  0.59217800838E-01  0.13019175335E+00  0.20655246052E-01 0.  0.
         14    1    1    2    0    0 -0.10092598887E-01 -0.17427391008E-01  0.10017151013E-01  0.22492617101E-01  0.00000000000E+00 0.  1.
     999901    1    3    3    0    0 -0.60412362065E-01  0.10712441434E+00 -0.69234951851E-01  0.89124562955E+00  0.88000000000E+00 0. -1.
        -11    1    4    4    0    0  0.28806371941E-01 -0.31364493735E-01  0.11686543803E-01  0.44163049699E-01  0.51100000000E-03 0.  1.
         11    1    4    4    0    0  0.41698589011E-01 -0.58332529600E-01  0.47531257035E-01  0.86028703648E-01  0.51100000000E-03 0. -1.
</event>
<event>
 8    1  0.9952977E+004  0.1043930E+01  0.7957747E-01            NaN
         13   -1    0    0    0    0  0.00000000000E+00  0.00000000000E+00  0.74505805969E-08  0.10566000000E+00  0.10566000000E+00 0.  1.
     999900   -1    0    0    0    0 -0.00000000000E+00 -0.00000000000E+00 -0.74505805969E-08  0.93827000000E+00  0.93827000000E+00 0. -1.
     999902    2    1    2    0    0  0.23280576319E-01  0.74806161344E-03 -0.54313846523E-02  0.10200125426E+01  0.10197320934E+01 0.  0.
     999903    2    3    3    0    0  0.10929638519E+00 -0.62934605774E-01 -0.36484478113E-01  0.13298464217E+00  0.21150259829E-01 0.  0.
         14    1    1    2    0    0 -0.23280576319E-01 -0.74806161344E-03  0.54313846523E-02  0.23917457414E-01  0.00000000000E+00 0. -1.
     999901    1    3    3    0    0 -0.86015808869E-01  0.63682667388E-01  0.31053093460E-01  0.88702790041E+00  0.88000000000E+00 0.  1.
        -11    1    4    4    0    0  0.42064227728E-01 -0.32393456518E-01 -0.73546469903E-02  0.53601186861E-01  0.51100000000E-03 0. -1.
         11    1    4    4    0    0  0.67232157461E-01 -0.30541149256E-01 -0.29129831122E-01  0.79383455310E-01  0.51100000000E-03 0.  1.
</event>
<event>
 8    1  0.9952977E+004  0.1043930E+01  0.7957747E-01            NaN
         13   -1    0    0    0    0  0.00000000000E+00  0.00000000000E+00  0.74505805969E-08  0.10566000000E+00  0.10566000000E+00 0.  1.
     999900   -1    0    0    0    0 -0.00000000000E+00 -0.00000000000E+00 -0.74505805969E-08  0.93827000000E+00  0.93827000000E+00 0.  1.
     999902    2    1    2    0    0 -0.47925554762E-02  0.20046350796E-01  0.73095920081E-02  0.10220609602E+01  0.10218269674E+01 0.  0.
     999903    2    3    3    0    0  0.27357426433E-01  0.78383330511E-01 -0.10177377935E+00  0.13282757884E+00  0.19821409024E-01 0.  0.
         14    1    1    2    0    0  0.47925554762E-02 -0.20046350796E-01 -0.73095920081E-02  0.21869039841E-01  0.00000000000E+00 0. -1.
     999901    1    3    3    0    0 -0.32149981909E-01 -0.58336979715E-01  0.10908337136E+00  0.88923338132E+00  0.88000000000E+00 0. -1.
        -11    1    4    4    0    0  0.19457433336E-01  0.68164678998E-01 -0.75607286226E-01  0.10364235633E+00  0.51100000000E-03 0.  1.
         11    1    4    4    0    0  0.78999930968E-02  0.10218651514E-01 -0.26166493122E-01  0.29185222511E-01  0.51100000000E-03 0. -1.
</event>
<event>
 8    1  0.9952977E+004  0.1043930E+01  0.7957747E-01            NaN
         13   -1    0    0    0    0  0.00000000000E+00  0.00000000000E+00  0.74505805969E-08  0.10566000000E+00  0.10566000000E+00 0. -1.
     999900   -1    0    0    0    0 -0.00000000000E+00 -0.00000000000E+00 -0.74505805969E-08  0.93827000000E+00  0.93827000000E+00 0.  1.
     999902    2    1    2    0    0 -0.23873936567E-01  0.20526708360E-02 -0.67174277843E-02  0.10190442181E+01  0.10187403086E+01 0.  0.
     999903    2    3    3    0    0  0.28810394697E-01  0.12383380425E+00  0.95015700960E-02  0.12894908885E+00  0.19306417708E-01 0.  0.
         14    1    1    2    0    0  0.23873936567E-01 -0.20526708360E-02  0.67174277843E-02  0.24885781901E-01  0.00000000000E+00 0. -1.
     999901    1    3    3    0    0 -0.52684331264E-01 -0.12178113341E+00 -0.16218997880E-01  0.89009512925E+00  0.88000000000E+00 0.  1.
        -11    1    4    4    0    0  0.19745832813E-01  0.98632767075E-01  0.14709481617E-01  0.10166095920E+00  0.51100000000E-03 0.  1.
         11    1    4    4    0    0  0.90645618836E-02  0.25201037172E-01 -0.52079115215E-02  0.27288129656E-01  0.51100000000E-03 0. -1.
</event>
<event>
 8    1  0.9952977E+004  0.1043930E+01  0.7957747E-01            NaN
         13   -1    0    0    0    0  0.00000000000E+00  0.00000000000E+00  0.74505805969E-08  0.10566000000E+00  0.10566000000E+00 0. -1.
     999900   -1    0    0    0    0 -0.00000000000E+00 -0.00000000000E+00 -0.74505805969E-08  0.93827000000E+00  0.93827000000E+00 0.  1.
     999902    2    1    2    0    0  0.14009056682E-01  0.17990049943E-01  0.44980426317E-04  0.10211287371E+01  0.10208741353E+01 0.  0.
     999903    2    3    3    0    0  0.56334633846E-01  0.50163226370E-01 -0.10771644121E+00  0.13296259738E+00  0.19654016010E-01 0.  0.
         14    1    1    2    0    0 -0.14009056682E-01 -0.17990049943E-01 -0.44980426317E-04  0.22801262889E-01  0.00000000000E+00 0. -1.
     999901    1    3    3    0    0 -0.42325577163E-01 -0.32173176427E-01  0.10776142164E+00  0.88816613973E+00  0.88000000000E+00 0. -1.
        -11    1    4    4    0    0  0.48472360436E-02  0.57512852528E-02 -0.23741634624E-01  0.24909823663E-01  0.51100000000E-03 0.  1.
         11    1    4    4    0    0  0.51487397802E-01  0.44411941117E-01 -0.83974806589E-01  0.10805277372E+00  0.51100000000E-03 0. -1.
</event>
<event>
 8    1  0.9952977E+004  0.1043930E+01  0.7957747E-01            NaN
         13   -1    0    0    0    0  0.00000000000E+00  0.00000000000E+00  0.74505805969E-08  0.10566000000E+00  0.10566000000E+00 0.  1.
     999900   -1    0    0    0    0 -0.00000000000E+00 -0.00000000000E+00 -0.74505805969E-08  0.93827000000E+00  0.93827000000E+00 0.  1.
     999902    2    1    2    0    0 -0.22745524751E-01  0.34144370613E-03  0.12108157450E-02  0.10211497113E+01  0.10208955829E+01 0.  0.
     999903    2    3    3    0    0  0.31146224360E-01  0.11753338130E-01  0.12490202252E+00  0.13079356534E+00  0.19955281414E-01 0.  0.
         14    1    1    2    0    0  0.22745524751E-01 -0.34144370613E-03 -0.12108157450E-02  0.22780288734E-01  0.00000000000E+00 0.  1.
     999901    1    3    3    0    0 -0.53891749111E-01 -0.11411894424E-01 -0.12369120677E+00  0.89035614593E+00  0.88000000000E+00 0.  1.
        -11    1    4    4    0    0  0.99357653673E-02  0.81232450647E-02  0.79698361784E-01  0.80726677969E-01  0.51100000000E-03 0.  1.
         11    1    4    4    0    0  0.21210458993E-01  0.36300930656E-02  0.45203660733E-01  0.50066887371E-01  0.51100000000E-03 0. -1.
</event>
<event>
 8    1  0.9952977E+004  0.1043930E+01  0.7957747E-01            NaN
         13   -1    0    0    0    0  0.00000000000E+00  0.00000000000E+00  0.74505805969E-08  0.10566000000E+00  0.10566000000E+00 0. -1.
     999900   -1    0    0    0    0 -0.00000000000E+00 -0.00000000000E+00 -0.74505805969E-08  0.93827000000E+00  0.93827000000E+00 0.  1.
     999902    2    1    2    0    0  0.20683847642E-01 -0.66679278021E-02 -0.97938025008E-02  0.10200930249E+01  0.10198144822E+01 0.  0.
     999903    2    3    3    0    0 -0.10572823865E+00  0.55508501449E-01  0.39903936861E-01  0.12750365167E+00  0.20129650502E-01 0.  0.
         14    1    1    2    0    0 -0.20683847642E-01  0.66679278021E-02  0.97938025008E-02  0.23836975099E-01  0.00000000000E+00 0.  1.
     999901    1    3    3    0    0  0.12641208629E+00 -0.62176429251E-01 -0.49697739361E-01  0.89258937324E+00  0.88000000000E+00 0.  1.
        -11    1    4    4    0    0 -0.82197121447E-01  0.47272931814E-01  0.39062432319E-01  0.10255355477E+00  0.51100000000E-03 0.  1.
         11    1    4    4    0    0 -0.23531117205E-01  0.82355696349E-02  0.84150454183E-03  0.24950096894E-01  0.51100000000E-03 0. -1.
</event>
<event>
 8    1  0.9952977E+004  0.1043930E+01  0.7957747E-01            NaN
         13   -1    0    0    0    0  0.00000000000E+00  0.00000000000E+00  0.74505805969E-08  0.10566000000E+00  0.10566000000E+00 0.  1.
     999900   -1    0    0    0    0 -0.00000000000E+00 -0.00000000000E+00 -0.74505805969E-08  0.93827000000E+00  0.93827000000E+00 0.  1.
     999902    2    1    2    0    0 -0.64365474387E-02  0.22976219929E-01 -0.35924360856E-03  0.10200665367E+01  0.10197873672E+01 0.  0.
     999903    2    3    3    0    0  0.34353768867E-01 -0.87575275928E-01  0.84704427982E-01  0.12814652270E+00  0.19926885606E-01 0.  0.
         14    1    1    2    0    0  0.64365474387E-02 -0.22976219929E-01  0.35924360856E-03  0.23863463309E-01  0.00000000000E+00 0. -1.
     999901    1    3    3    0    0 -0.40790316306E-01  0.11055149586E+00 -0.85063671591E-01  0.89192001400E+00  0.88000000000E+00 0.  1.
        -11    1    4    4    0    0  0.30925825499E-01 -0.66818371495E-01  0.55762166038E-01  0.92362231103E-01  0.51100000000E-03 0.  1.
         11    1    4    4    0    0  0.34279433686E-02 -0.20756904433E-01  0.28942261944E-01  0.35784291593E-01  0.51100000000E-03 0. -1.
</event>
<event>
 8    1  0.9952977E+004  0.1043930E+01  0.7957747E-01            NaN
         13   -1    0    0    0    0  0.00000000000E+00  0.00000000000E+00  0.74505805969E-08  0.10566000000E+00  0.10566000000E+00 0.  1.
     999900   -1    0    0    0    0 -0.00000000000E+00 -0.00000000000E+00 -0.74505805969E-08  0.93827000000E+00  0.93827000000E+00 0. -1.
     999902    2    1    2    0    0 -0.88721219609E-02  0.22030189801E-01  0.18835339150E-02  0.10201058209E+01  0.10198275807E+01 0.  0.
     999903    2    3    3    0    0 -0.79713428020E-01 -0.23629616727E-01 -0.97994195706E-01  0.13045483906E+00  0.22427956858E-01 0.  0.
         14    1    1    2    0    0  0.88721219609E-02 -0.22030189801E-01 -0.18835339150E-02  0.23824179121E-01  0.00000000000E+00 0.  1.
     999901    1    3    3    0    0  0.70841306060E-01  0.45659806528E-01  0.99877729622E-01  0.88965098182E+00  0.88000000000E+00 0.  1.
        -11    1    4    4    0    0 -0.45736727273E-01 -0.22485714686E-01 -0.68922460907E-01  0.85720606187E-01  0.51100000000E-03 0. -1.
         11    1    4    4    0    0 -0.33976700747E-01 -0.11439020406E-02 -0.29071734799E-01  0.44734232873E-01  0.51100000000E-03 0.  1.
</event>
<event>
 8    1  0.9952977E+004  0.1043930E+01  0.7957747E-01            NaN
         13   -1    0    0    0    0  0.00000000000E+00  0.00000000000E+00  0.74505805969E-08  0.10566000000E+00  0.10566000000E+00 0. -1.
     999900   -1    0    0    0    0 -0.00000000000E+00 -0.00000000000E+00 -0.74505805969E-08  0.93827000000E+00  0.93827000000E+00 0.  1.
     999902    2    1    2    0    0  0.38972698368E-02 -0.22188576753E-01 -0.61671958464E-02  0.10205728607E+01  0.10203055464E+01 0.  0.
     999903    2    3    3    0    0  0.99808762972E-01 -0.71217677916E-01 -0.47452319495E-01  0.13304408445E+00  0.20377903935E-01 0.  0.
         14    1    1    2    0    0 -0.38972698368E-02  0.22188576753E-01  0.61671958464E-02  0.23357139275E-01  0.00000000000E+00 0.  1.
     999901    1    3    3    0    0 -0.95911493135E-01  0.49029101163E-01  0.41285123649E-01  0.88752877627E+00  0.88000000000E+00 0.  1.
        -11    1    4    4    0    0  0.27034685010E-01 -0.26106130844E-01 -0.22725701996E-01  0.43921781765E-01  0.51100000000E-03 0. -1.
         11    1    4    4    0    0  0.72774077962E-01 -0.45111547072E-01 -0.24726617499E-01  0.89122302688E-01  0.51100000000E-03 0.  1.
</event>
<event>
 8    1  0.9952977E+004  0.1043930E+01  0.7957747E-01            NaN
         13   -1    0    0    0    0  0.00000000000E+00  0.00000000000E+00  0.74505805969E-08  0.10566000000E+00  0.10566000000E+00 0.  1.
     999900   -1    0    0    0    0 -0.00000000000E+00 -0.00000000000E+00 -0.74505805969E-08  0.93827000000E+00  0.93827000000E+00 0.  1.
     999902    2    1    2    0    0 -0.58722376921E-02 -0.13381182150E-02  0.22767448175E-01  0.10203794070E+01  0.10201075942E+01 0.  0.
     999903    2    3    3    0    0 -0.11163411613E+00  0.58923535801E-01  0.32351284856E-01  0.13194882904E+00  0.20729903460E-01 0.  0.
         14    1    1    2    0    0  0.58722376921E-02  0.13381182150E-02 -0.22767448175E-01  0.23550593034E-01  0.00000000000E+00 0. -1.
     999901    1    3    3    0    0  0.10576187843E+00 -0.60261654016E-01 -0.95838366816E-02  0.88843057793E+00  0.88000000000E+00 0. -1.
        -11    1    4    4    0    0 -0.67410767430E-01  0.46714993715E-01  0.19515002235E-01  0.84306575287E-01  0.51100000000E-03 0.  1.
         11    1    4    4    0    0 -0.44223348697E-01  0.12208542086E-01  0.12836282622E-01  0.47642253750E-01  0.51100000000E-03 0. -1.
</event>
<event>
 8    1  0.9952977E+004  0.1043930E+01  0.7957747E-01            NaN
         13   -1    0    0    0    0  0.00000000000E+00  0.00000000000E+00  0.74505805969E-08  0.10566000000E+00  0.10566000000E+00 0.  1.
     999900   -1    0    0    0    0 -0.00000000000E+00 -0.00000000000E+00 -0.74505805969E-08  0.93827000000E+00  0.93827000000E+00 0.  1.
     999902    2    1    2    0    0  0.22822253488E-01 -0.27695582494E-02 -0.61737511755E-02  0.10201257796E+01  0.10198480108E+01 0.  0.
     999903    2    3    3    0    0 -0.12460599840E+00 -0.16946981348E-01 -0.94475581374E-02  0.12774312252E+00  0.20376309329E-01 0.  0.
         14    1    1    2    0    0 -0.22822253488E-01  0.27695582494E-02  0.61737511755E-02  0.23804220440E-01  0.00000000000E+00 0. -1.
     999901    1    3    3    0    0  0.14742825189E+00  0.14177423099E-01  0.32738069618E-02  0.89238265704E+00  0.88000000000E+00 0.  1.
        -11    1    4    4    0    0 -0.56637050801E-01 -0.19208415364E-02  0.41193799430E-02  0.56821435812E-01  0.51100000000E-03 0.  1.
         11    1    4    4    0    0 -0.67968947598E-01 -0.15026139812E-01 -0.13566938080E-01  0.70921686705E-01  0.51100000000E-03 0. -1.
</event>
<event>
 8    1  0.9952977E+004  0.1043930E+01  0.7957747E-01            NaN
         13   -1    0    0    0    0  0.00000000000E+00  0.00000000000E+00  0.74505805969E-08  0.10566000000E+00  0.10566000000E+00 0. -1.
     999900   -1    0    0    0    0 -0.00000000000E+00 -0.00000000000E+00 -0.74505805969E-08  0.93827000000E+00  0.93827000000E+00 0.  1.
     999902    2    1    2    0    0  0.87090473055E-02  0.23754333260E-01 -0.48809338391E-02  0.10181629790E+01  0.10178368791E+01 0.  0.
     999903    2    3    3    0    0  0.12785477520E+00  0.81146032856E-02  0.32901298735E-02  0.12995857019E+00  0.21580423629E-01 0.  0.
         14    1    1    2    0    0 -0.87090473055E-02 -0.23754333260E-01  0.48809338391E-02  0.25767020951E-01  0.00000000000E+00 0.  1.
     999901    1    3    3    0    0 -0.11914572789E+00  0.15639729974E-01 -0.81710637126E-02  0.88820440886E+00  0.88000000000E+00 0. -1.
        -11    1    4    4    0    0  0.24108955213E-01  0.95795515461E-02  0.36331622470E-02  0.26200582402E-01  0.51100000000E-03 0. -1.
         11    1    4    4    0    0  0.10374581999E+00 -0.14649482606E-02 -0.34303237351E-03  0.10375798779E+00  0.51100000000E-03 0.  1.
</event>
<event>
 8    1  0.9952977E+004  0.1043930E+01  0.7957747E-01            NaN
         13   -1    0    0    0    0  0.00000000000E+00  0.00000000000E+00  0.74505805969E-08  0.10566000000E+00  0.10566000000E+00 0.  1.
     999900   -1    0    0    0    0 -0.00000000000E+00 -0.00000000000E+00 -0.74505805969E-08  0.93827000000E+00  0.93827000000E+00 0.  1.
     999902    2    1    2    0    0 -0.22351834348E-01 -0.74910507630E-02  0.90813313696E-03  0.10203387930E+01  0.10200660310E+01 0.  0.
     999903    2    3    3    0    0 -0.77417975400E-01 -0.11465746332E-01 -0.10466083742E+00  0.13231126776E+00  0.20673036373E-01 0.  0.
         14    1    1    2    0    0  0.22351834348E-01  0.74910507630E-02 -0.90813313696E-03  0.23591206965E-01  0.00000000000E+00 0. -1.
     999901    1    3    3    0    0  0.55066141051E-01  0.39746955693E-02  0.10556897056E+00  0.88802752527E+00  0.88000000000E+00 0. -1.
        -11    1    4    4    0    0 -0.46025914867E-01 -0.11802638118E-01 -0.48059130158E-01  0.67584230546E-01  0.51100000000E-03 0. -1.
         11    1    4    4    0    0 -0.31392060533E-01  0.33689178568E-03 -0.56601707266E-01  0.64727037218E-01  0.51100000000E-03 0.  1.
</event>
<event>
 8    1  0.9952977E+004  0.1043930E+01  0.7957747E-01            NaN
         13   -1    0    0    0    0  0.00000000000E+00  0.00000000000E+00  0.74505805969E-08  0.10566000000E+00  0.10566000000E+00 0.  1.
     999900   -1    0    0    0    0 -0.00000000000E+00 -0.00000000000E+00 -0.74505805969E-08  0.93827000000E+00  0.93827000000E+00 0. -1.
     999902    2    1    2    0    0 -0.16696269959E-01 -0.11758974051E-01 -0.10095444620E-01  0.10211493744E+01  0.10208952385E+01 0.  0.
     999903    2    3    3    0    0  0.41675357376E-01 -0.28306143224E-01 -0.12097672698E+00  0.13211860188E+00  0.16789381649E-01 0.  0.
         14    1    1    2    0    0  0.16696269959E-01  0.11758974051E-01  0.10095444620E-01  0.22780625613E-01  0.00000000000E+00 0.  1.
     999901    1    3    3    0    0 -0.58371627335E-01  0.16547169174E-01  0.11088128236E+00  0.88903077251E+00  0.88000000000E+00 0.  1.
        -11    1    4    4    0    0  0.20819060618E-02  0.19803697143E-02 -0.10820951885E-01  0.11207600892E-01  0.51100000000E-03 0.  1.
         11    1    4    4    0    0  0.39593451314E-01 -0.30286512939E-01 -0.11015577509E+00  0.12091100099E+00  0.51100000000E-03 0. -1.
</event>
<event>
 8    1  0.9952977E+004  0.1043930E+01  0.7957747E-01            NaN
         13   -1    0    0    0    0  0.00000000000E+00  0.00000000000E+00  0.74505805969E-08  0.10566000000E+00  0.10566000000E+00 0. -1.
     999900   -1    0    0    0    0 -0.00000000000E+00 -0.00000000000E+00 -0.74505805969E-08  0.93827000000E+00  0.93827000000E+00 0.  1.
     999902    2    1    2    0    0  0.74187638477E-02 -0.16707972753E-01  0.13576095661E-01  0.10211592999E+01  0.10209053879E+01 0.  0.
     999903    2    3    3    0    0  0.52366199879E-01 -0.72237669399E-01  0.98091553448E-01  0.13422825306E+00  0.20851170011E-01 0.  0.
         14    1    1    2    0    0 -0.74187638477E-02  0.16707972753E-01 -0.13576095661E-01  0.22770700120E-01  0.00000000000E+00 0.  1.
     999901    1    3    3    0    0 -0.44947436031E-01  0.55529696646E-01 -0.84515457787E-01  0.88693104682E+00  0.88000000000E+00 0.  1.
        -11    1    4    4    0    0  0.13196496755E-01 -0.28553612005E-01  0.46226145012E-01  0.55915774955E-01  0.51100000000E-03 0. -1.
         11    1    4    4    0    0  0.39169703124E-01 -0.43684057394E-01  0.51865408436E-01  0.78312478102E-01  0.51100000000E-03 0.  1.
</event>
<event>
 8    1  0.9952977E+004  0.1043930E+01  0.7957747E-01            NaN
         13   -1    0    0    0    0  0.00000000000E+00  0.00000000000E+00  0.74505805969E-08  0.10566000000E+00  0.10566000000E+00 0. -1.
     999900   -1    0    0    0    0 -0.00000000000E+00 -0.00000000000E+00 -0.74505805969E-08  0.93827000000E+00  0.93827000000E+00 0.  1.
     999902    2    1    2    0    0  0.12314059894E-01 -0.10853892844E-01  0.16460873055E-01  0.10206834217E+01  0.10204186611E+01 0.  0.
     999903    2    3    3    0    0  0.76715931644E-01  0.10316865297E+00 -0.98615687927E-02  0.13060386740E+00  0.20760889095E-01 0.  0.
         14    1    1    2    0    0 -0.12314059894E-01  0.10853892844E-01 -0.16460873055E-01  0.23246578301E-01  0.00000000000E+00 0.  1.
     999901    1    3    3    0    0 -0.64401871750E-01 -0.11402254582E+00  0.26322441848E-01  0.89007955430E+00  0.88000000000E+00 0. -1.
        -11    1    4    4    0    0  0.57807440675E-01  0.64498828148E-01 -0.12316378069E-01  0.87485732091E-01  0.51100000000E-03 0. -1.
         11    1    4    4    0    0  0.18908490969E-01  0.38669824826E-01  0.24548092765E-02  0.43118135307E-01  0.51100000000E-03 0.  1.
</event>
<event>
 8    1  0.9952977E+004  0.1043930E+01  0.7957747E-01            NaN
         13   -1    0    0    0    0  0.00000000000E+00  0.00000000000E+00  0.74505805969E-08  0.10566000000E+00  0.10566000000E+00 0. -1.
     999900   -1    0    0    0    0 -0.00000000000E+00 -0.00000000000E+00 -0.74505805969E-08  0.93827000000E+00  0.93827000000E+00 0. -1.
     999902    2    1    2    0    0  0.20735738121E-01 -0.59133360914E-02  0.11258192365E-01  0.10196054183E+01  0.10193152230E+01 0.  0.
     999903    2    3    3    0    0 -0.11045591550E+00  0.55357564192E-01  0.25367174945E-01  0.12766122914E+00  0.19721224038E-01 0.  0.
         14    1    1    2    0    0 -0.20735738121E-01  0.59133360914E-02 -0.11258192365E-01  0.24324581692E-01  0.00000000000E+00 0.  1.
     999901    1    3    3    0    0  0.13119165362E+00 -0.61270900284E-01 -0.14108982580E-01  0.89194418917E+00  0.88000000000E+00 0.  1.
        -11    1    4    4    0    0 -0.74383179244E-02  0.59242754766E-02 -0.28939956272E-02  0.99529867455E-02  0.51100000000E-03 0.  1.
         11    1    4    4    0    0 -0.10301759758E+00  0.49433288716E-01  0.28261170572E-01  0.11770824239E+00  0.51100000000E-03 0. -1.
</event>
<event>
 8    1  0.9952977E+004  0.1043930E+01  0.7957747E-01            NaN
         13   -1    0    0    0    0  0.00000000000E+00  0.00000000000E+00  0.74505805969E-08  0.10566000000E+00  0.10566000000E+00 0.  1.
     999900   -1    0    0    0    0 -0.00000000000E+00 -0.00000000000E+00 -0.74505805969E-08  0.93827000000E+00  0.93827000000E+00 0. -1.
     999902    2    1    2    0    0  0.15242809190E-01  0.64681527583E-02  0.16612127648E-01  0.10204748723E+01  0.10202052842E+01 0.  0.
     999903    2    3    3    0    0 -0.58392186811E-01 -0.77858350976E-01  0.82552446732E-01  0.13093499258E+00  0.29283024489E-01 0.  0.
         14    1    1    2    0    0 -0.15242809190E-01 -0.64681527583E-02 -0.16612127648E-01  0.23455127736E-01  0.00000000000E+00 0. -1.
     999901    1    3    3    0    0  0.73634996001E-01  0.84326503734E-01 -0.65940319084E-01  0.88953987968E+00  0.88000000000E+00 0. -1.
        -11    1    4    4    0    0 -0.40299892446E-01 -0.52346775867E-01  0.37128987501E-01  0.75783171672E-01  0.51100000000E-03 0.  1.
         11    1    4    4    0    0 -0.18092294365E-01 -0.25511575108E-01  0.45423459231E-01  0.55151820907E-01  0.51100000000E-03 0. -1.
</event>
<event>
 8    1  0.9952977E+004  0.1043930E+01  0.7957747E-01            NaN
         13   -1    0    0    0    0  0.00000000000E+00  0.00000000000E+00  0.74505805969E-08  0.10566000000E+00  0.10566000000E+00 0.  1.
     999900   -1    0    0    0    0 -0.00000000000E+00 -0.00000000000E+00 -0.74505805969E-08  0.93827000000E+00  0.93827000000E+00 0.  1.
     999902    2    1    2    0    0  0.48599688745E-02 -0.63372640869E-02  0.22337141502E-01  0.10202081092E+01  0.10199322811E+01 0.  0.
     999903    2    3    3    0    0 -0.10595924264E+00 -0.73304080545E-01  0.18911425898E-02  0.13049833008E+00  0.20624946283E-01 0.  0.
         14    1    1    2    0    0 -0.48599688745E-02  0.63372640869E-02 -0.22337141502E-01  0.23721890819E-01  0.00000000000E+00 0. -1.
     999901    1    3    3    0    0  0.11081921151E+00  0.66966816458E-01  0.20445998912E-01  0.88970977910E+00  0.88000000000E+00 0. -1.
        -11    1    4    4    0    0 -0.10673114202E-01 -0.15972614369E-01  0.17078559674E-02  0.19292943517E-01  0.51100000000E-03 0.  1.
         11    1    4    4    0    0 -0.95286128439E-01 -0.57331466176E-01  0.18328662242E-03  0.11120538657E+00  0.51100000000E-03 0. -1.
</event>
<event>
 8    1  0.9952977E+004  0.1043930E+01  0.7957747E-01            NaN
         13   -1    0    0    0    0  0.00000000000E+00  0.00000000000E+00  0.74505805969E-08  0.10566000000E+00  0.10566000000E+00 0. -1.
     999900   -1    0    0    0    0 -0.00000000000E+00 -0.00000000000E+00 -0.74505805969E-08  0.93827000000E+00  0.93827000000E+00 0. -1.
     999902    2    1    2    0    0 -0.64259443328E-02  0.22610128840E-01  0.31876759551E-04  0.10204244325E+01  0.10201536702E+01 0.  0.
     999903    2    3    3    0    0  0.39839154766E-01  0.11024807013E+00  0.59363434356E-01  0.13287662993E+00  0.19758193838E-01 0.  0.
         14    1    1    2    0    0  0.64259443328E-02 -0.22610128840E-01 -0.31876759551E-04  0.23505567487E-01  0.00000000000E+00 0. -1.
     999901    1    3    3    0    0 -0.46265099098E-01 -0.87637941285E-01 -0.59331557597E-01  0.88754780259E+00  0.88000000000E+00 0. -1.
        -11    1    4    4    0    0  0.39770777686E-01  0.91843410756E-01  0.53871040631E-01  0.11366299748E+00  0.51100000000E-03 0.  1.
         11    1    4    4    0    0  0.68377079379E-04  0.18404659369E-01  0.54923937254E-02  0.19213632446E-01  0.51100000000E-03 0. -1.
</event>
<event>
 8    1  0.9952977E+004  0.1043930E+01  0.7957747E-01            NaN
         13   -1    0    0    0    0  0.00000000000E+00  0.00000000000E+00  0.74505805969E-08  0.10566000000E+00  0.10566000000E+00 0. -1.
     999900   -1    0    0    0    0 -0.00000000000E+00 -0.00000000000E+00 -0.74505805969E-08  0.93827000000E+00  0.93827000000E+00 0.  1.
     999902    2    1    2    0    0 -0.16249144241E-02  0.22653422480E-01 -0.26765079618E-02  0.10210612092E+01  0.10208050800E+01 0.  0.
     999903    2    3    3    0    0  0.76951907953E-01  0.81027660837E-01  0.68796854721E-01  0.13275365533E+00  0.20086010707E-01 0.  0.
         14    1    1    2    0    0  0.16249144241E-02 -0.22653422480E-01  0.26765079618E-02  0.22868790782E-01  0.00000000000E+00 0.  1.
     999901    1    3    3    0    0 -0.78576822377E-01 -0.58374238357E-01 -0.71473362683E-01  0.88830755389E+00  0.88000000000E+00 0.  1.
        -11    1    4    4    0    0  0.18567742467E-01  0.28586163992E-01  0.13112862751E-01  0.36525855536E-01  0.51100000000E-03 0. -1.
         11    1    4    4    0    0  0.58384165486E-01  0.52441496845E-01  0.55683991970E-01  0.96227799796E-01  0.51100000000E-03 0.  1.
</event>
<event>
 8    1  0.9952977E+004  0.1043930E+01  0.7957747E-01            NaN
         13   -1    0    0    0    0  0.00000000000E+00  0.00000000000E+00  0.74505805969E-08  0.10566000000E+00  0.10566000000E+00 0. -1.
     999900   -1    0    0    0    0 -0.00000000000E+00 -0.00000000000E+00 -0.74505805969E-08  0.93827000000E+00  0.93827000000E+00 0. -1.
     999902    2    1    2    0    0  0.21923407548E-03 -0.23885444503E-01 -0.10000053414E-02  0.10200226260E+01  0.10197424160E+01 0.  0.
     999903    2    3    3    0    0 -0.17666105388E-01  0.34882721323E-02 -0.12752863654E+00  0.13037173924E+00  0.20223202834E-01 0.  0.
         14    1    1    2    0    0 -0.21923407548E-03  0.23885444503E-01  0.10000053414E-02  0.23907374037E-01  0.00000000000E+00 0. -1.
     999901    1    3    3    0    0  0.17885339463E-01 -0.27373716635E-01  0.12652863120E+00  0.88965088672E+00  0.88000000000E+00 0.  1.
        -11    1    4    4    0    0 -0.60155165648E-02 -0.67452337131E-02 -0.76577129910E-01  0.77110327218E-01  0.51100000000E-03 0.  1.
         11    1    4    4    0    0 -0.11650588823E-01  0.10233505845E-01 -0.50951506631E-01  0.53261412024E-01  0.51100000000E-03 0. -1.
</event>
<event>
 8    1  0.9952977E+004  0.1043930E+01  0.7957747E-01            NaN
         13   -1    0    0    0    0  0.00000000000E+00  0.00000000000E+00  0.74505805969E-08  0.10566000000E+00  0.10566000000E+00 0. -1.
     999900   -1    0    0    0    0 -0.00000000000E+00 -0.00000000000E+00 -0.74505805969E-08  0.93827000000E+00  0.93827000000E+00 0.  1.
     999902    2    1    2    0    0  0.15524260468E-01 -0.15497855979E-01  0.16799052197E-02  0.10219298117E+01  0.10216929733E+01 0.  0.
     999903    2    3    3    0    0 -0.57686221999E-01  0.10097944253E+00 -0.54056116113E-01  0.12949872761E+00  0.17980788093E-01 0.  0.
         14    1    1    2    0    0 -0.15524260468E-01  0.15497855979E-01 -0.16799052197E-02  0.22000188285E-01  0.00000000000E+00 0. -1.
     999901    1    3    3    0    0  0.73210482467E-01 -0.11647729851E+00  0.55736021333E-01  0.89243108411E+00  0.88000000000E+00 0. -1.
        -11    1    4    4    0    0 -0.33740162896E-01  0.42835170928E-01 -0.29426948150E-01  0.61963350935E-01  0.51100000000E-03 0. -1.
         11    1    4    4    0    0 -0.23946059103E-01  0.58144271601E-01 -0.24629167963E-01  0.67535376671E-01  0.51100000000E-03 0.  1.
</event>
<event>
 8    1  0.9952977E+004  0.1043930E+01  0.7957747E-01            NaN
         13   -1    0    0    0    0  0.00000000000E+00  0.00000000000E+00  0.74505805969E-08  0.10566000000E+00  0.10566000000E+00 0.  1.
     999900   -1    0    0    0    0 -0.00000000000E+00 -0.00000000000E+00 -0.74505805969E-08  0.93827000000E+00  0.93827000000E+00 0.  1.
     999902    2    1    2    0    0 -0.38181144816E-02  0.50086073929E-02 -0.23739754174E-01  0.10193690539E+01  0.10190731220E+01 0.  0.
     999903    2    3    3    0    0 -0.37633977169E-01  0.10624608949E+00  0.59853217889E-01  0.12898693067E+00  0.18726260227E-01 0.  0.
         14    1    1    2    0    0  0.38181144816E-02 -0.50086073929E-02  0.23739754174E-01  0.24560946123E-01  0.00000000000E+00 0.  1.
     999901    1    3    3    0    0  0.33815862688E-01 -0.10123748210E+00 -0.83592972063E-01  0.89038212321E+00  0.88000000000E+00 0.  1.
        -11    1    4    4    0    0 -0.30039343714E-01  0.80341404898E-01  0.36234619863E-01  0.93114511808E-01  0.51100000000E-03 0.  1.
         11    1    4    4    0    0 -0.75946334554E-02  0.25904684593E-01  0.23618598027E-01  0.35872418861E-01  0.51100000000E-03 0. -1.
</event>
<event>
 8    1  0.9952977E+004  0.1043930E+01  0.7957747E-01            NaN
         13   -1    0    0    0    0  0.00000000000E+00  0.00000000000E+00  0.74505805969E-08  0.10566000000E+00  0.10566000000E+00 0.  1.
     999900   -1    0    0    0    0 -0.00000000000E+00 -0.00000000000E+00 -0.74505805969E-08  0.93827000000E+00  0.93827000000E+00 0. -1.
     999902    2    1    2    0    0  0.12358664591E-01 -0.16700741143E-01 -0.11811080528E-01  0.10200311932E+01  0.10197511863E+01 0.  0.
     999903    2    3    3    0    0 -0.57919045199E-01 -0.11435963524E+00  0.19698662858E-01  0.13128540272E+00  0.20373455284E-01 0.  0.
         14    1    1    2    0    0 -0.12358664591E-01  0.16700741143E-01  0.11811080528E-01  0.23898806841E-01  0.00000000000E+00 0.  1.
     999901    1    3    3    0    0  0.70277709789E-01  0.97658894100E-01 -0.31509743386E-01  0.88874579044E+00  0.88000000000E+00 0. -1.
        -11    1    4    4    0    0 -0.12347768221E-01 -0.44407245603E-01  0.33935052316E-02  0.46219561236E-01  0.51100000000E-03 0. -1.
         11    1    4    4    0    0 -0.45571276978E-01 -0.69952389639E-01  0.16305157626E-01  0.85065841487E-01  0.51100000000E-03 0.  1.
</event>
<event>
 8    1  0.9952977E+004  0.1043930E+01  0.7957747E-01            NaN
         13   -1    0    0    0    0  0.00000000000E+00  0.00000000000E+00  0.74505805969E-08  0.10566000000E+00  0.10566000000E+00 0.  1.
     999900   -1    0    0    0    0 -0.00000000000E+00 -0.00000000000E+00 -0.74505805969E-08  0.93827000000E+00  0.93827000000E+00 0.  1.
     999902    2    1    2    0    0 -0.27860530618E-02 -0.18698426254E-01  0.97674410674E-02  0.10226509930E+01  0.10224295855E+01 0.  0.
     999903    2    3    3    0    0 -0.53672120587E-01  0.34730070725E-01 -0.11264908578E+00  0.13111871524E+00  0.20382017005E-01 0.  0.
         14    1    1    2    0    0  0.27860530618E-02  0.18698426254E-01 -0.97674410674E-02  0.21279007050E-01  0.00000000000E+00 0. -1.
     999901    1    3    3    0    0  0.50886067525E-01 -0.53428496979E-01  0.12241652685E+00  0.89153227771E+00  0.88000000000E+00 0. -1.
        -11    1    4    4    0    0 -0.38773383312E-01  0.14056712537E-01 -0.62837227163E-01  0.75164783372E-01  0.51100000000E-03 0. -1.
         11    1    4    4    0    0 -0.14898737275E-01  0.20673358188E-01 -0.49811858618E-01  0.55953931865E-01  0.51100000000E-03 0.  1.
</event>
<event>
 8    1  0.9952977E+004  0.1043930E+01  0.7957747E-01            NaN
         13   -1    0    0    0    0  0.00000000000E+00  0.00000000000E+00  0.74505805969E-08  0.10566000000E+00  0.10566000000E+00 0.  1.
     999900   -1    0    0    0    0 -0.00000000000E+00 -0.00000000000E+00 -0.74505805969E-08  0.93827000000E+00  0.93827000000E+00 0.  1.
     999902    2    1    2    0    0  0.20869591904E-01  0.10731172483E-01  0.89866683058E-03  0.10204458451E+01  0.10201755816E+01 0.  0.
     999903    2    3    3    0    0  0.49238741002E-01 -0.11134903198E+00 -0.42585324587E-01  0.13050245227E+00  0.19857483238E-01 0.  0.
         14    1    1    2    0    0 -0.20869591904E-01 -0.10731172483E-01 -0.89866683058E-03  0.23484154896E-01  0.00000000000E+00 0. -1.
     999901    1    3    3    0    0 -0.28369149098E-01  0.12208020446E+00  0.43483991418E-01  0.88994339284E+00  0.88000000000E+00 0. -1.
        -11    1    4    4    0    0  0.74463275118E-02 -0.16770378129E-01 -0.14392301747E-01  0.23325797877E-01  0.51100000000E-03 0. -1.
         11    1    4    4    0    0  0.41792413490E-01 -0.94578653847E-01 -0.28193022840E-01  0.10717665439E+00  0.51100000000E-03 0.  1.
</event>
<event>
 8    1  0.9952977E+004  0.1043930E+01  0.7957747E-01            NaN
         13   -1    0    0    0    0  0.00000000000E+00  0.00000000000E+00  0.74505805969E-08  0.10566000000E+00  0.10566000000E+00 0.  1.
     999900   -1    0    0    0    0 -0.00000000000E+00 -0.00000000000E+00 -0.74505805969E-08  0.93827000000E+00  0.93827000000E+00 0.  1.
     999902    2    1    2    0    0 -0.36156925863E-02 -0.13850433529E-01  0.18649620499E-01  0.10204200854E+01  0.10201492217E+01 0.  0.
     999903    2    3    3    0    0  0.30086834139E-01  0.12109283919E+00 -0.23302280130E-01  0.12850892996E+00  0.20071261271E-01 0.  0.
         14    1    1    2    0    0  0.36156925863E-02  0.13850433529E-01 -0.18649620499E-01  0.23509914644E-01  0.00000000000E+00 0. -1.
     999901    1    3    3    0    0 -0.33702526726E-01 -0.13494327271E+00  0.41951900628E-01  0.89191115540E+00  0.88000000000E+00 0. -1.
        -11    1    4    4    0    0  0.21372839896E-01  0.78332317660E-01 -0.55261941707E-02  0.81385196555E-01  0.51100000000E-03 0. -1.
         11    1    4    4    0    0  0.87139942431E-02  0.42760521526E-01 -0.17776085959E-01  0.47123733403E-01  0.51100000000E-03 0.  1.
</event>
<event>
 8    1  0.9952977E+004  0.1043930E+01  0.7957747E-01            NaN
         13   -1    0    0    0    0  0.00000000000E+00  0.00000000000E+00  0.74505805969E-08  0.10566000000E+00  0.10566000000E+00 0. -1.
     999900   -1    0    0    0    0 -0.00000000000E+00 -0.00000000000E+00 -0.74505805969E-08  0.93827000000E+00  0.93827000000E+00 0.  1.
     999902    2    1    2    0    0  0.34057828427E-02  0.11827641157E-01 -0.90075481046E-02  0.10286778403E+01  0.10285647626E+01 0.  0.
     999903    2    3    3    0    0 -0.13240034850E-02 -0.31874974412E-03 -0.13775155828E+00  0.13921456067E+00  0.20083513321E-01 0.  0.
         14    1    1    2    0    0 -0.34057828427E-02 -0.11827641157E-01  0.90075481046E-02  0.15252159682E-01  0.00000000000E+00 0. -1.
     999901    1    3    3    0    0  0.47297863277E-02  0.12146390901E-01  0.12874401017E+00  0.88946327965E+00  0.88000000000E+00 0. -1.
        -11    1    4    4    0    0 -0.33700849776E-02  0.94533892152E-02 -0.62724039807E-01  0.63523935105E-01  0.51100000000E-03 0. -1.
         11    1    4    4    0    0  0.20460814926E-02 -0.97721389593E-02 -0.75027518470E-01  0.75690625563E-01  0.51100000000E-03 0.  1.
</event>
<event>
 8    1  0.9952977E+004  0.1043930E+01  0.7957747E-01            NaN
         13   -1    0    0    0    0  0.00000000000E+00  0.00000000000E+00  0.74505805969E-08  0.10566000000E+00  0.10566000000E+00 0. -1.
     999900   -1    0    0    0    0 -0.00000000000E+00 -0.00000000000E+00 -0.74505805969E-08  0.93827000000E+00  0.93827000000E+00 0. -1.
     999902    2    1    2    0    0  0.35195121748E-01  0.21161358349E-02 -0.21199418338E-02  0.10086076448E+01  0.10079889445E+01 0.  0.
     999903    2    3    3    0    0 -0.93775164492E-01 -0.60772639743E-01  0.26004165350E-01  0.11654301806E+00  0.20468591186E-01 0.  0.
         14    1    1    2    0    0 -0.35195121748E-01 -0.21161358349E-02  0.21199418338E-02  0.35322355232E-01  0.00000000000E+00 0. -1.
     999901    1    3    3    0    0  0.12897028624E+00  0.62888775578E-01 -0.28124107184E-01  0.89206462671E+00  0.88000000000E+00 0. -1.
        -11    1    4    4    0    0 -0.87456746121E-01 -0.49660066677E-01  0.20635968903E-01  0.10266892908E+00  0.51100000000E-03 0.  1.
         11    1    4    4    0    0 -0.63184183707E-02 -0.11112573067E-01  0.53681964473E-02  0.13874088978E-01  0.51100000000E-03 0. -1.
</event>
<event>
 8    1  0.9952977E+004  0.1043930E+01  0.7957747E-01            NaN
         13   -1    0    0    0    0  0.00000000000E+00  0.00000000000E+00  0.74505805969E-08  0.10566000000E+00  0.10566000000E+00 0. -1.
     999900   -1    0    0    0    0 -0.00000000000E+00 -0.00000000000E+00 -0.74505805969E-08  0.93827000000E+00  0.93827000000E+00 0.  1.
     999902    2    1    2    0    0  0.18887959499E-01  0.41934745475E-02 -0.13443236156E-01  0.10203702708E+01  0.10200982446E+01 0.  0.
     999903    2    3    3    0    0  0.90010030545E-01  0.95002560087E-01 -0.10340150112E-01  0.13283758510E+00  0.20288254919E-01 0.  0.
         14    1    1    2    0    0 -0.18887959499E-01 -0.41934745475E-02  0.13443236156E-01  0.23559729225E-01  0.00000000000E+00 0. -1.
     999901    1    3    3    0    0 -0.71122071046E-01 -0.90809085540E-01 -0.31030860438E-02  0.88753268568E+00  0.88000000000E+00 0. -1.
        -11    1    4    4    0    0  0.64089608695E-01  0.67722028415E-01  0.19047735433E-02  0.93261140667E-01  0.51100000000E-03 0. -1.
         11    1    4    4    0    0  0.25920421851E-01  0.27280531672E-01 -0.12244923656E-01  0.39576444428E-01  0.51100000000E-03 0.  1.
</event>
<event>
 6    1  0.9952977E+004  0.1043930E+01  0.7957747E-01            NaN
         13   -1    0    0    0    0  0.00000000000E+00  0.00000000000E+00  0.74505805969E-08  0.10566000000E+00  0.10566000000E+00 0. -1.
     999900   -1    0    0    0    0 -0.00000000000E+00 -0.00000000000E+00 -0.74505805969E-08  0.93827000000E+00  0.93827000000E+00 0.  1.
         14    1    1    2    0    0  0.52599920826E-02 -0.26715395917E-01 -0.27262430265E-01  0.38530766923E-01  0.00000000000E+00 0.  1.
     999901    1    1    2    0    0  0.64543913600E-01 -0.43798125380E-01  0.67384561511E-01  0.88601629313E+00  0.88000000000E+00 0. -1.
        -11    1    1    2    0    0 -0.33210336541E-01  0.17651706536E-02 -0.20483826015E-01  0.39062648782E-01  0.51100000000E-03 0. -1.
         11    1    1    2    0    0 -0.36593569141E-01  0.68748350644E-01 -0.19638305230E-01  0.80320291160E-01  0.51100000000E-03 0.  1.
</event>
<event>
 8    1  0.9952977E+004  0.1043930E+01  0.7957747E-01            NaN
         13   -1    0    0    0    0  0.00000000000E+00  0.00000000000E+00  0.74505805969E-08  0.10566000000E+00  0.10566000000E+00 0.  1.
     999900   -1    0    0    0    0 -0.00000000000E+00 -0.00000000000E+00 -0.74505805969E-08  0.93827000000E+00  0.93827000000E+00 0.  1.
     999902    2    1    2    0    0  0.10640089727E-01 -0.18752525645E-01 -0.90157390808E-02  0.10205600989E+01  0.10202924890E+01 0.  0.
     999903    2    3    3    0    0 -0.55890314984E-01 -0.77801879028E-01 -0.89318245426E-01  0.13243757725E+00  0.19624046808E-01 0.  0.
         14    1    1    2    0    0 -0.10640089727E-01  0.18752525645E-01  0.90157390808E-02  0.23369901126E-01  0.00000000000E+00 0.  1.
     999901    1    3    3    0    0  0.66530404711E-01  0.59049353383E-01  0.80302506345E-01  0.88812252162E+00  0.88000000000E+00 0. -1.
        -11    1    4    4    0    0 -0.34584594613E-01 -0.32856711948E-01 -0.38243219415E-01  0.61142968989E-01  0.51100000000E-03 0.  1.
         11    1    4    4    0    0 -0.21305720372E-01 -0.44945167080E-01 -0.51075026010E-01  0.71294608263E-01  0.51100000000E-03 0. -1.
</event>
<event>
 8    1  0.9952977E+004  0.1043930E+01  0.7957747E-01            NaN
         13   -1    0    0    0    0  0.00000000000E+00  0.00000000000E+00  0.74505805969E-08  0.10566000000E+00  0.10566000000E+00 0. -1.
     999900   -1    0    0    0    0 -0.00000000000E+00 -0.00000000000E+00 -0.74505805969E-08  0.93827000000E+00  0.93827000000E+00 0.  1.
     999902    2    1    2    0    0  0.45653141802E-02 -0.55562773217E-02 -0.22147240535E-01  0.10206444986E+01  0.10203788404E+01 0.  0.
     999903    2    3    3    0    0 -0.97443662728E-01 -0.12954874155E-01  0.80434057431E-01  0.12880174718E+00  0.21381213978E-01 0.  0.
         14    1    1    2    0    0 -0.45653141802E-02  0.55562773217E-02  0.22147240535E-01  0.23285501381E-01  0.00000000000E+00 0. -1.
     999901    1    3    3    0    0  0.10200897691E+00  0.73985968330E-02 -0.10258129797E+00  0.89184275144E+00  0.88000000000E+00 0.  1.
        -11    1    4    4    0    0 -0.77173935417E-01 -0.13832170557E-01  0.52843486679E-01  0.94550729535E-01  0.51100000000E-03 0. -1.
         11    1    4    4    0    0 -0.20269727311E-01  0.87729640244E-03  0.27590570752E-01  0.34251017644E-01  0.51100000000E-03 0.  1.
</event>
<event>
 8    1  0.9952977E+004  0.1043930E+01  0.7957747E-01            NaN
         13   -1    0    0    0    0  0.00000000000E+00  0.00000000000E+00  0.74505805969E-08  0.10566000000E+00  0.10566000000E+00 0. -1.
     999900   -1    0    0    0    0 -0.00000000000E+00 -0.00000000000E+00 -0.74505805969E-08  0.93827000000E+00  0.93827000000E+00 0. -1.
     999902    2    1    2    0    0 -0.75139667656E-02 -0.22090938488E-01 -0.33085836784E-02  0.10203627349E+01  0.10200905326E+01 0.  0.
     999903    2    3    3    0    0  0.25417008967E-01 -0.16105057552E-01 -0.12603730171E+00  0.13121560522E+00  0.20657599273E-01 0.  0.
         14    1    1    2    0    0  0.75139667656E-02  0.22090938488E-01  0.33085836784E-02  0.23567265132E-01  0.00000000000E+00 0. -1.
     999901    1    3    3    0    0 -0.32930975733E-01 -0.59858809362E-02  0.12272871803E+00  0.88914712965E+00  0.88000000000E+00 0.  1.
        -11    1    4    4    0    0  0.43325049615E-03 -0.37006437804E-02 -0.51355552884E-01  0.51493071412E-01  0.51100000000E-03 0. -1.
         11    1    4    4    0    0  0.24983758471E-01 -0.12404413771E-01 -0.74681748824E-01  0.79722533808E-01  0.51100000000E-03 0.  1.
</event>
<event>
 8    1  0.9952977E+004  0.1043930E+01  0.7957747E-01            NaN
         13   -1    0    0    0    0  0.00000000000E+00  0.00000000000E+00  0.74505805969E-08  0.10566000000E+00  0.10566000000E+00 0. -1.
     999900   -1    0    0    0    0 -0.00000000000E+00 -0.00000000000E+00 -0.74505805969E-08  0.93827000000E+00  0.93827000000E+00 0. -1.
     999902    2    1    2    0    0 -0.65559602378E-02 -0.17459296064E-01 -0.12337792723E-01  0.10215686771E+01  0.10213239120E+01 0.  0.
     999903    2    3    3    0    0 -0.44427338038E-01 -0.14880714210E-01  0.12047625135E+00  0.13079347499E+00  0.19929423983E-01 0.  0.
         14    1    1    2    0    0  0.65559602378E-02  0.17459296064E-01  0.12337792723E-01  0.22361322925E-01  0.00000000000E+00 0. -1.
     999901    1    3    3    0    0  0.37871377800E-01 -0.25785818544E-02 -0.13281404407E+00  0.89077520208E+00  0.88000000000E+00 0. -1.
        -11    1    4    4    0    0 -0.15444786932E-01  0.22298121041E-02  0.54979988577E-01  0.57153947986E-01  0.51100000000E-03 0. -1.
         11    1    4    4    0    0 -0.28982551106E-01 -0.17110526314E-01  0.65496262775E-01  0.73639527007E-01  0.51100000000E-03 0.  1.
</event>
<event>
 8    1  0.9952977E+004  0.1043930E+01  0.7957747E-01            NaN
         13   -1    0    0    0    0  0.00000000000E+00  0.00000000000E+00  0.74505805969E-08  0.10566000000E+00  0.10566000000E+00 0.  1.
     999900   -1    0    0    0    0 -0.00000000000E+00 -0.00000000000E+00 -0.74505805969E-08  0.93827000000E+00  0.93827000000E+00 0.  1.
     999902    2    1    2    0    0  0.10053069073E-01 -0.17230115873E-01 -0.13180969932E-01  0.10200201891E+01  0.10197399213E+01 0.  0.
     999903    2    3    3    0    0  0.75118255018E-01  0.52930325408E-01 -0.91878460199E-01  0.13134181028E+00  0.19095761148E-01 0.  0.
         14    1    1    2    0    0 -0.10053069073E-01  0.17230115873E-01  0.13180969932E-01  0.23909810938E-01  0.00000000000E+00 0.  1.
     999901    1    3    3    0    0 -0.65065185946E-01 -0.70160441281E-01  0.78697490267E-01  0.88867837878E+00  0.88000000000E+00 0. -1.
        -11    1    4    4    0    0  0.67614812116E-01  0.48375301183E-01 -0.73508912928E-01  0.11097636678E+00  0.51100000000E-03 0. -1.
         11    1    4    4    0    0  0.75034429021E-02  0.45550242251E-02 -0.18369547271E-01  0.20365443502E-01  0.51100000000E-03 0.  1.
</event>
<event>
 8    1  0.9952977E+004  0.1043930E+01  0.7957747E-01            NaN
         13   -1    0    0    0    0  0.00000000000E+00  0.00000000000E+00  0.74505805969E-08  0.10566000000E+00  0.10566000000E+00 0. -1.
     999900   -1    0    0    0    0 -0.00000000000E+00 -0.00000000000E+00 -0.74505805969E-08  0.93827000000E+00  0.93827000000E+00 0. -1.
     999902    2    1    2    0    0 -0.20244245638E-01 -0.43300631863E-03 -0.10702403114E-01  0.10210267599E+01  0.10207698497E+01 0.  0.
     999903    2    3    3    0    0  0.90055593940E-01  0.32672285179E-01 -0.85940930447E-01  0.13034002991E+00  0.20620175851E-01 0.  0.
         14    1    1    2    0    0  0.20244245638E-01  0.43300631863E-03  0.10702403114E-01  0.22903240128E-01  0.00000000000E+00 0.  1.
     999901    1    3    3    0    0 -0.11029983958E+00 -0.33105291497E-01  0.75238527333E-01  0.89068672996E+00  0.88000000000E+00 0.  1.
        -11    1    4    4    0    0  0.15406963471E-01  0.13943892964E-01 -0.22157086044E-01  0.30380985128E-01  0.51100000000E-03 0.  1.
         11    1    4    4    0    0  0.74648630469E-01  0.18728392215E-01 -0.63783844403E-01  0.99959044782E-01  0.51100000000E-03 0. -1.
</event>
<event>
 8    1  0.9952977E+004  0.1043930E+01  0.7957747E-01            NaN
         13   -1    0    0    0    0  0.00000000000E+00  0.00000000000E+00  0.74505805969E-08  0.10566000000E+00  0.10566000000E+00 0. -1.
     999900   -1    0    0    0    0 -0.00000000000E+00 -0.00000000000E+00 -0.74505805969E-08  0.93827000000E+00  0.93827000000E+00 0.  1.
     999902    2    1    2    0    0 -0.16903091813E-02  0.23877043163E-01  0.10035366887E-02  0.10199721741E+01  0.10196907661E+01 0.  0.
     999903    2    3    3    0    0  0.94685647971E-01  0.78165319422E-01  0.43970919834E-01  0.13200723220E+00  0.20427395073E-01 0.  0.
         14    1    1    2    0    0  0.16903091813E-02 -0.23877043163E-01 -0.10035366887E-02  0.23957825887E-01  0.00000000000E+00 0. -1.
     999901    1    3    3    0    0 -0.96375957152E-01 -0.54288276259E-01 -0.42967383145E-01  0.88796494192E+00  0.88000000000E+00 0.  1.
        -11    1    4    4    0    0  0.25816427956E-01  0.16807162689E-01  0.19905290143E-01  0.36680381224E-01  0.51100000000E-03 0. -1.
         11    1    4    4    0    0  0.68869220016E-01  0.61358156733E-01  0.24065629691E-01  0.95326850974E-01  0.51100000000E-03 0.  1.
</event>
<event>
 8    1  0.9952977E+004  0.1043930E+01  0.7957747E-01            NaN
         13   -1    0    0    0    0  0.00000000000E+00  0.00000000000E+00  0.74505805969E-08  0.10566000000E+00  0.10566000000E+00 0.  1.
     999900   -1    0    0    0    0 -0.00000000000E+00 -0.00000000000E+00 -0.74505805969E-08  0.93827000000E+00  0.93827000000E+00 0.  1.
     999902    2    1    2    0    0  0.11751828988E-03 -0.93189259051E-02 -0.20640985954E-01  0.10212825610E+01  0.10210314212E+01 0.  0.
     999903    2    3    3    0    0  0.11103337043E+00 -0.68134245820E-01  0.92558092742E-02  0.13186961618E+00  0.18254885996E-01 0.  0.
         14    1    1    2    0    0 -0.11751828988E-03  0.93189259051E-02  0.20640985954E-01  0.22647438966E-01  0.00000000000E+00 0.  1.
     999901    1    3    3    0    0 -0.11091585214E+00  0.58815319915E-01 -0.29896795228E-01  0.88941294486E+00  0.88000000000E+00 0.  1.
        -11    1    4    4    0    0  0.78379962201E-01 -0.44152113982E-01 -0.14076971930E-02  0.89972609032E-01  0.51100000000E-03 0.  1.
         11    1    4    4    0    0  0.32653408231E-01 -0.23982131839E-01  0.10663506467E-01  0.41897007146E-01  0.51100000000E-03 0. -1.
</event>
<event>
 8    1  0.9952977E+004  0.1043930E+01  0.7957747E-01            NaN
         13   -1    0    0    0    0  0.00000000000E+00  0.00000000000E+00  0.74505805969E-08  0.10566000000E+00  0.10566000000E+00 0. -1.
     999900   -1    0    0    0    0 -0.00000000000E+00 -0.00000000000E+00 -0.74505805969E-08  0.93827000000E+00  0.93827000000E+00 0. -1.
     999902    2    1    2    0    0  0.11844008338E-01 -0.54858794361E-03  0.21357648389E-01  0.10195019295E+01  0.10192092296E+01 0.  0.
     999903    2    3    3    0    0  0.70536311406E-01 -0.10814783187E+00 -0.11554054659E-02  0.13072230480E+00  0.20387771956E-01 0.  0.
         14    1    1    2    0    0 -0.11844008338E-01  0.54858794361E-03 -0.21357648389E-01  0.24428070472E-01  0.00000000000E+00 0.  1.
     999901    1    3    3    0    0 -0.58692303068E-01  0.10759924393E+00  0.22513053855E-01  0.88877962473E+00  0.88000000000E+00 0.  1.
        -11    1    4    4    0    0  0.16092021232E-01 -0.39890574391E-01 -0.51137104695E-02  0.43319998019E-01  0.51100000000E-03 0. -1.
         11    1    4    4    0    0  0.54444290175E-01 -0.68257257483E-01  0.39583050036E-02  0.87402306784E-01  0.51100000000E-03 0.  1.
</event>
<event>
 8    1  0.9952977E+004  0.1043930E+01  0.7957747E-01            NaN
         13   -1    0    0    0    0  0.00000000000E+00  0.00000000000E+00  0.74505805969E-08  0.10566000000E+00  0.10566000000E+00 0.  1.
     999900   -1    0    0    0    0 -0.00000000000E+00 -0.00000000000E+00 -0.74505805969E-08  0.93827000000E+00  0.93827000000E+00 0. -1.
     999902    2    1    2    0    0 -0.16624159041E-01 -0.13761835994E-01  0.20076250681E-04  0.10223487304E+01  0.10221209201E+01 0.  0.
     999903    2    3    3    0    0 -0.74061715680E-01  0.75752750771E-01  0.77219543781E-01  0.13258938546E+00  0.19836083671E-01 0.  0.
         14    1    1    2    0    0  0.16624159041E-01  0.13761835994E-01 -0.20076250681E-04  0.21581269583E-01  0.00000000000E+00 0.  1.
     999901    1    3    3    0    0  0.57437556639E-01 -0.89514586766E-01 -0.77199467530E-01  0.88975934496E+00  0.88000000000E+00 0. -1.
        -11    1    4    4    0    0 -0.50362079145E-01  0.41802761547E-01  0.38711279279E-01  0.76043633219E-01  0.51100000000E-03 0.  1.
         11    1    4    4    0    0 -0.23699636534E-01  0.33949989225E-01  0.38508264502E-01  0.56545752238E-01  0.51100000000E-03 0. -1.
</event>
<event>
 8    1  0.9952977E+004  0.1043930E+01  0.7957747E-01            NaN
         13   -1    0    0    0    0  0.00000000000E+00  0.00000000000E+00  0.74505805969E-08  0.10566000000E+00  0.10566000000E+00 0. -1.
     999900   -1    0    0    0    0 -0.00000000000E+00 -0.00000000000E+00 -0.74505805969E-08  0.93827000000E+00  0.93827000000E+00 0. -1.
     999902    2    1    2    0    0 -0.71421251046E-02 -0.66846419491E-02  0.19946090979E-01  0.10217142188E+01  0.10214726643E+01 0.  0.
     999903    2    3    3    0    0 -0.12970901191E+00  0.18819344805E-01 -0.10584148401E-02  0.13260551659E+00  0.20112366273E-01 0.  0.
         14    1    1    2    0    0  0.71421251046E-02  0.66846419491E-02 -0.19946090979E-01  0.22215781201E-01  0.00000000000E+00 0.  1.
     999901    1    3    3    0    0  0.12256688681E+00 -0.25503986754E-01  0.21004505819E-01  0.88910870221E+00  0.88000000000E+00 0.  1.
        -11    1    4    4    0    0 -0.54657098724E-01 -0.76888546093E-03  0.44285200293E-02  0.54843983594E-01  0.51100000000E-03 0. -1.
         11    1    4    4    0    0 -0.75051913190E-01  0.19588230266E-01 -0.54869348694E-02  0.77761532995E-01  0.51100000000E-03 0.  1.
</event>
<event>
 8    1  0.9952977E+004  0.1043930E+01  0.7957747E-01            NaN
         13   -1    0    0    0    0  0.00000000000E+00  0.00000000000E+00  0.74505805969E-08  0.10566000000E+00  0.10566000000E+00 0.  1.
     999900   -1    0    0    0    0 -0.00000000000E+00 -0.00000000000E+00 -0.74505805969E-08  0.93827000000E+00  0.93827000000E+00 0. -1.
     999902    2    1    2    0    0  0.94492632571E-02  0.20568501145E-01 -0.76884068509E-02  0.10200246990E+01  0.10197445382E+01 0.  0.
     999903    2    3    3    0    0  0.55580574732E-01 -0.64460426778E-01  0.94416748862E-01  0.12885497370E+00  0.21088738098E-01 0.  0.
         14    1    1    2    0    0 -0.94492632571E-02 -0.20568501145E-01  0.76884068509E-02  0.23905300989E-01  0.00000000000E+00 0. -1.
     999901    1    3    3    0    0 -0.46131311475E-01  0.85028927923E-01 -0.10210515571E+00  0.89116972531E+00  0.88000000000E+00 0.  1.
        -11    1    4    4    0    0  0.34072969059E-01 -0.44053895968E-01  0.46738664890E-01  0.72708162452E-01  0.51100000000E-03 0. -1.
         11    1    4    4    0    0  0.21507605673E-01 -0.20406530810E-01  0.47678083972E-01  0.56146811251E-01  0.51100000000E-03 0.  1.
</event>
<event>
 8    1  0.9952977E+004  0.1043930E+01  0.7957747E-01            NaN
         13   -1    0    0    0    0  0.00000000000E+00  0.00000000000E+00  0.74505805969E-08  0.10566000000E+00  0.10566000000E+00 0. -1.
     999900   -1    0    0    0    0 -0.00000000000E+00 -0.00000000000E+00 -0.74505805969E-08  0.93827000000E+00  0.93827000000E+00 0. -1.
     999902    2    1    2    0    0 -0.75794068460E-02 -0.91079581864E-02 -0.20720698860E-01  0.10200605704E+01  0.10197812596E+01 0.  0.
     999903    2    3    3    0    0  0.10745141671E-01 -0.11510474464E+00  0.56176702090E-01  0.13018174821E+00  0.20661689219E-01 0.  0.
         14    1    1    2    0    0  0.75794068460E-02  0.91079581864E-02  0.20720698860E-01  0.23869429648E-01  0.00000000000E+00 0. -1.
     999901    1    3    3    0    0 -0.18324548517E-01  0.10599678646E+00 -0.76897400950E-01  0.88987882214E+00  0.88000000000E+00 0. -1.
        -11    1    4    4    0    0  0.80296486881E-02 -0.64530146630E-01  0.42609837454E-01  0.77746218242E-01  0.51100000000E-03 0. -1.
         11    1    4    4    0    0  0.27154929832E-02 -0.50574598014E-01  0.13566864636E-01  0.52435529972E-01  0.51100000000E-03 0.  1.
</event>
<event>
 8    1  0.9952977E+004  0.1043930E+01  0.7957747E-01            NaN
         13   -1    0    0    0    0  0.00000000000E+00  0.00000000000E+00  0.74505805969E-08  0.10566000000E+00  0.10566000000E+00 0. -1.
     999900   -1    0    0    0    0 -0.00000000000E+00 -0.00000000000E+00 -0.74505805969E-08  0.93827000000E+00  0.93827000000E+00 0. -1.
     999902    2    1    2    0    0 -0.18280733770E-01  0.46719497059E-02 -0.12645013768E-01  0.10212163760E+01  0.10209637496E+01 0.  0.
     999903    2    3    3    0    0  0.39220531529E-01  0.10268322904E+00 -0.70473518530E-01  0.13202756460E+00  0.19561834795E-01 0.  0.
         14    1    1    2    0    0  0.18280733770E-01 -0.46719497059E-02  0.12645013768E-01  0.22713623982E-01  0.00000000000E+00 0. -1.
     999901    1    3    3    0    0 -0.57501265299E-01 -0.98011279335E-01  0.57828504761E-01  0.88918881142E+00  0.88000000000E+00 0.  1.
        -11    1    4    4    0    0  0.20750293447E-01  0.57847025130E-01 -0.27890566360E-01  0.67490723862E-01  0.51100000000E-03 0.  1.
         11    1    4    4    0    0  0.18470238082E-01  0.44836203911E-01 -0.42582952170E-01  0.64536840738E-01  0.51100000000E-03 0. -1.
</event>
<event>
 8    1  0.9952977E+004  0.1043930E+01  0.7957747E-01            NaN
         13   -1    0    0    0    0  0.00000000000E+00  0.00000000000E+00  0.74505805969E-08  0.10566000000E+00  0.10566000000E+00 0. -1.
     999900   -1    0    0    0    0 -0.00000000000E+00 -0.00000000000E+00 -0.74505805969E-08  0.93827000000E+00  0.93827000000E+00 0.  1.
     999902    2    1    2    0    0  0.21780810410E-01 -0.70716679152E-02 -0.66715964172E-02  0.10200779060E+01  0.10197990057E+01 0.  0.
     999903    2    3    3    0    0  0.33365714132E-01 -0.75234868944E-01  0.99848139189E-01  0.13096211712E+00  0.20195762842E-01 0.  0.
         14    1    1    2    0    0 -0.21780810410E-01  0.70716679152E-02  0.66715964172E-02  0.23852093995E-01  0.00000000000E+00 0. -1.
     999901    1    3    3    0    0 -0.11584903722E-01  0.68163201029E-01 -0.10651973561E+00  0.88911578888E+00  0.88000000000E+00 0.  1.
        -11    1    4    4    0    0  0.20202181635E-01 -0.22875404985E-01  0.31516157106E-01  0.43874156126E-01  0.51100000000E-03 0.  1.
         11    1    4    4    0    0  0.13163532496E-01 -0.52359463960E-01  0.68331982082E-01  0.87087960995E-01  0.51100000000E-03 0. -1.
</event>
<event>
 8    1  0.9952977E+004  0.1043930E+01  0.7957747E-01            NaN
         13   -1    0    0    0    0  0.00000000000E+00  0.00000000000E+00  0.74505805969E-08  0.10566000000E+00  0.10566000000E+00 0.  1.
     999900   -1    0    0    0    0 -0.00000000000E+00 -0.00000000000E+00 -0.74505805969E-08  0.93827000000E+00  0.93827000000E+00 0. -1.
     999902    2    1    2    0    0 -0.55430746441E-02 -0.53034972640E-02  0.22920628189E-01  0.10197596058E+01  0.10194731216E+01 0.  0.
     999903    2    3    3    0    0  0.52293046500E-01 -0.33329238464E-01  0.11539341977E+00  0.13258336836E+00  0.20428102958E-01 0.  0.
         14    1    1    2    0    0  0.55430746441E-02  0.53034972640E-02 -0.22920628189E-01  0.24170394211E-01  0.00000000000E+00 0. -1.
     999901    1    3    3    0    0 -0.57836121145E-01  0.28025741200E-01 -0.92472791579E-01  0.88717623743E+00  0.88000000000E+00 0. -1.
        -11    1    4    4    0    0  0.36747126709E-01 -0.11545865277E-01  0.67702380044E-01  0.77894362511E-01  0.51100000000E-03 0.  1.
         11    1    4    4    0    0  0.15545919791E-01 -0.21783373187E-01  0.47691039724E-01  0.54689005847E-01  0.51100000000E-03 0. -1.
</event>
<event>
 8    1  0.9952977E+004  0.1043930E+01  0.7957747E-01            NaN
         13   -1    0    0    0    0  0.00000000000E+00  0.00000000000E+00  0.74505805969E-08  0.10566000000E+00  0.10566000000E+00 0.  1.
     999900   -1    0    0    0    0 -0.00000000000E+00 -0.00000000000E+00 -0.74505805969E-08  0.93827000000E+00  0.93827000000E+00 0.  1.
     999902    2    1    2    0    0 -0.44770650401E-02  0.17558267798E-01 -0.81158298873E-02  0.10240754395E+01  0.10238829533E+01 0.  0.
     999903    2    3    3    0    0  0.39212407963E-02  0.13396037188E+00 -0.14474212430E-01  0.13634777266E+00  0.20504997473E-01 0.  0.
         14    1    1    2    0    0  0.44770650401E-02 -0.17558267798E-01  0.81158298873E-02  0.19854560539E-01  0.00000000000E+00 0. -1.
     999901    1    3    3    0    0 -0.83983058363E-02 -0.11640210408E+00  0.63583825428E-02  0.88772766680E+00  0.88000000000E+00 0.  1.
        -11    1    4    4    0    0 -0.20290782121E-02  0.76018587889E-01  0.10910025143E-02  0.76055205413E-01  0.51100000000E-03 0. -1.
         11    1    4    4    0    0  0.59503190083E-02  0.57941783988E-01 -0.15565214944E-01  0.60292567247E-01  0.51100000000E-03 0.  1.
</event>
<event>
 8    1  0.9952977E+004  0.1043930E+01  0.7957747E-01            NaN
         13   -1    0    0    0    0  0.00000000000E+00  0.00000000000E+00  0.74505805969E-08  0.10566000000E+00  0.10566000000E+00 0.  1.
     999900   -1    0    0    0    0 -0.00000000000E+00 -0.00000000000E+00 -0.74505805969E-08  0.93827000000E+00  0.93827000000E+00 0. -1.
     999902    2    1    2    0    0 -0.21422845896E-01  0.89980554688E-02  0.11934847733E-01  0.10178082864E+01  0.10174730287E+01 0.  0.
     999903    2    3    3    0    0 -0.10552553261E+00 -0.66218646208E-01 -0.31870768662E-01  0.12952356512E+00  0.15493898414E-01 0.  0.
         14    1    1    2    0    0  0.21422845896E-01 -0.89980554688E-02 -0.11934847733E-01  0.26121713552E-01  0.00000000000E+00 0.  1.
     999901    1    3    3    0    0  0.84102686710E-01  0.75216701677E-01  0.43805616395E-01  0.88828472133E+00  0.88000000000E+00 0. -1.
        -11    1    4    4    0    0 -0.33443159755E-01 -0.28546773671E-01 -0.14973146735E-01  0.46452335416E-01  0.51100000000E-03 0. -1.
         11    1    4    4    0    0 -0.72082372850E-01 -0.37671872537E-01 -0.16897621927E-01  0.83071229700E-01  0.51100000000E-03 0.  1.
</event>
<event>
 8    1  0.9952977E+004  0.1043930E+01  0.7957747E-01            NaN
         13   -1    0    0    0    0  0.00000000000E+00  0.00000000000E+00  0.74505805969E-08  0.10566000000E+00  0.10566000000E+00 0.  1.
     999900   -1    0    0    0    0 -0.00000000000E+00 -0.00000000000E+00 -0.74505805969E-08  0.93827000000E+00  0.93827000000E+00 0.  1.
     999902    2    1    2    0    0  0.17075702236E-01 -0.17688316644E-01  0.10704917844E-01  0.10171148659E+01  0.10167613284E+01 0.  0.
     999903    2    3    3    0    0  0.38244106062E-02 -0.13778332277E-01  0.12663673164E+00  0.12940372470E+00  0.22449801970E-01 0.  0.
         14    1    1    2    0    0 -0.17075702236E-01  0.17688316644E-01 -0.10704917844E-01  0.26815134134E-01  0.00000000000E+00 0.  1.
     999901    1    3    3    0    0  0.13251291630E-01 -0.39099843675E-02 -0.11593181379E+00  0.88771114117E+00  0.88000000000E+00 0.  1.
        -11    1    4    4    0    0  0.73913934191E-02 -0.98110901230E-02  0.27510186400E-01  0.30132402209E-01  0.51100000000E-03 0. -1.
         11    1    4    4    0    0 -0.35669828129E-02 -0.39672421537E-02  0.99126545238E-01  0.99271322488E-01  0.51100000000E-03 0.  1.
</event>
<event>
 8    1  0.9952977E+004  0.1043930E+01  0.7957747E-01            NaN
         13   -1    0    0    0    0  0.00000000000E+00  0.00000000000E+00  0.74505805969E-08  0.10566000000E+00  0.10566000000E+00 0. -1.
     999900   -1    0    0    0    0 -0.00000000000E+00 -0.00000000000E+00 -0.74505805969E-08  0.93827000000E+00  0.93827000000E+00 0.  1.
     999902    2    1    2    0    0 -0.20684383657E-01  0.10737729215E-01  0.32854273652E-02  0.10203941425E+01  0.10201226737E+01 0.  0.
     999903    2    3    3    0    0 -0.45931603693E-01  0.11674671981E+00 -0.38376767200E-01  0.13269426828E+00  0.19886773762E-01 0.  0.
         14    1    1    2    0    0  0.20684383657E-01 -0.10737729215E-01 -0.32854273652E-02  0.23535857514E-01  0.00000000000E+00 0.  1.
     999901    1    3    3    0    0  0.25247220036E-01 -0.10600899059E+00  0.41662194565E-01  0.88769987420E+00  0.88000000000E+00 0. -1.
        -11    1    4    4    0    0 -0.23288373434E-01  0.35244384297E-01 -0.94159045030E-02  0.43283199284E-01  0.51100000000E-03 0. -1.
         11    1    4    4    0    0 -0.22643230259E-01  0.81502335510E-01 -0.28960862697E-01  0.89411068997E-01  0.51100000000E-03 0.  1.
</event>
<event>
 8    1  0.1041514E+005  0.1043930E+01  0.7957747E-01            NaN
         13   -1    0    0    0    0  0.00000000000E+00  0.00000000000E+00  0.74505805969E-08  0.10566000000E+00  0.10566000000E+00 0. -1.
     999900   -1    0    0    0    0 -0.00000000000E+00 -0.00000000000E+00 -0.74505805969E-08  0.93827000000E+00  0.93827000000E+00 0.  1.
     999902    2    1    2    0    0 -0.62950971170E-02  0.17921851260E-01  0.18525745624E-01  0.10173965447E+01  0.10170504928E+01 0.  0.
     999903    2    3    3    0    0  0.90236864991E-01 -0.70612961959E-01  0.51355024348E-01  0.12709626140E+00  0.19678387562E-01 0.  0.
         14    1    1    2    0    0  0.62950971170E-02 -0.17921851260E-01 -0.18525745624E-01  0.26533455320E-01  0.00000000000E+00 0.  1.
     999901    1    3    3    0    0 -0.96531962108E-01  0.88534813219E-01 -0.32829278724E-01  0.89030028328E+00  0.88000000000E+00 0.  1.
        -11    1    4    4    0    0  0.54742691826E-01 -0.39749227219E-01  0.40400193319E-01  0.78798477866E-01  0.51100000000E-03 0. -1.
         11    1    4    4    0    0  0.35494173165E-01 -0.30863734739E-01  0.10954831029E-01  0.48297783538E-01  0.51100000000E-03 0.  1.
</event>
<event>
 8    1  0.9952977E+004  0.1043930E+01  0.7957747E-01            NaN
         13   -1    0    0    0    0  0.00000000000E+00  0.00000000000E+00  0.74505805969E-08  0.10566000000E+00  0.10566000000E+00 0. -1.
     999900   -1    0    0    0    0 -0.00000000000E+00 -0.00000000000E+00 -0.74505805969E-08  0.93827000000E+00  0.93827000000E+00 0. -1.
     999902    2    1    2    0    0  0.15174204456E-01  0.10507683523E-01  0.14705457159E-01  0.10203308821E+01  0.10200579350E+01 0.  0.
     999903    2    3    3    0    0  0.99205195372E-01  0.73341526841E-01  0.47449452887E-01  0.13349297780E+00  0.18662105856E-01 0.  0.
         14    1    1    2    0    0 -0.15174204456E-01 -0.10507683523E-01 -0.14705457159E-01  0.23599117868E-01  0.00000000000E+00 0.  1.
     999901    1    3    3    0    0 -0.84030990915E-01 -0.62833843319E-01 -0.32743995729E-01  0.88683790433E+00  0.88000000000E+00 0. -1.
        -11    1    4    4    0    0  0.69901005781E-01  0.58942410267E-01  0.28682297168E-01  0.95829502916E-01  0.51100000000E-03 0.  1.
         11    1    4    4    0    0  0.29304189591E-01  0.14399116574E-01  0.18767155719E-01  0.37663474886E-01  0.51100000000E-03 0. -1.
</event>
<event>
 8    1  0.9952977E+004  0.1043930E+01  0.7957747E-01            NaN
         13   -1    0    0    0    0  0.00000000000E+00  0.00000000000E+00  0.74505805969E-08  0.10566000000E+00  0.10566000000E+00 0. -1.
     999900   -1    0    0    0    0 -0.00000000000E+00 -0.00000000000E+00 -0.74505805969E-08  0.93827000000E+00  0.93827000000E+00 0. -1.
     999902    2    1    2    0    0 -0.18684863658E-01 -0.43800749005E-02  0.14669062413E-01  0.10197744504E+01  0.10194883222E+01 0.  0.
     999903    2    3    3    0    0 -0.10823951698E+00 -0.57176898400E-01  0.48885809872E-01  0.13299469963E+00  0.17685501849E-01 0.  0.
         14    1    1    2    0    0  0.18684863658E-01  0.43800749005E-02 -0.14669062413E-01  0.24155549634E-01  0.00000000000E+00 0.  1.
     999901    1    3    3    0    0  0.89554653327E-01  0.52796823500E-01 -0.34216747459E-01  0.88677975073E+00  0.88000000000E+00 0. -1.
        -11    1    4    4    0    0 -0.18450322547E-01 -0.31601023076E-02  0.49421738814E-02  0.19367159120E-01  0.51100000000E-03 0. -1.
         11    1    4    4    0    0 -0.89789194438E-01 -0.54016796092E-01  0.43943635991E-01  0.11362754051E+00  0.51100000000E-03 0.  1.
</event>
<event>
 8    1  0.9952977E+004  0.1043930E+01  0.7957747E-01            NaN
         13   -1    0    0    0    0  0.00000000000E+00  0.00000000000E+00  0.74505805969E-08  0.10566000000E+00  0.10566000000E+00 0. -1.
     999900   -1    0    0    0    0 -0.00000000000E+00 -0.00000000000E+00 -0.74505805969E-08  0.93827000000E+00  0.93827000000E+00 0. -1.
     999902    2    1    2    0    0 -0.44934808487E-02  0.42777832577E-02 -0.23710216041E-01  0.10194215291E+01  0.10191268758E+01 0.  0.
     999903    2    3    3    0    0 -0.53062744334E-01  0.11386547843E+00  0.25745294290E-01  0.12991926168E+00  0.20861264673E-01 0.  0.
         14    1    1    2    0    0  0.44934808487E-02 -0.42777832577E-02  0.23710216041E-01  0.24508470871E-01  0.00000000000E+00 0. -1.
     999901    1    3    3    0    0  0.48569263485E-01 -0.10958769517E+00 -0.49455510331E-01  0.88950226745E+00  0.88000000000E+00 0. -1.
        -11    1    4    4    0    0 -0.85771338351E-02  0.40239688498E-01  0.11508522124E-01  0.42725951806E-01  0.51100000000E-03 0.  1.
         11    1    4    4    0    0 -0.44485610498E-01  0.73625789932E-01  0.14236772166E-01  0.87193309877E-01  0.51100000000E-03 0. -1.
</event>
<event>
 8    1  0.9952977E+004  0.1043930E+01  0.7957747E-01            NaN
         13   -1    0    0    0    0  0.00000000000E+00  0.00000000000E+00  0.74505805969E-08  0.10566000000E+00  0.10566000000E+00 0.  1.
     999900   -1    0    0    0    0 -0.00000000000E+00 -0.00000000000E+00 -0.74505805969E-08  0.93827000000E+00  0.93827000000E+00 0. -1.
     999902    2    1    2    0    0 -0.10641417159E-01 -0.21921851481E-01  0.65019219260E-04  0.10195617510E+01  0.10192705002E+01 0.  0.
     999903    2    3    3    0    0  0.46874153426E-01 -0.11906538753E+00 -0.24402752831E-01  0.13201255275E+00  0.21402499171E-01 0.  0.
         14    1    1    2    0    0  0.10641417159E-01  0.21921851481E-01 -0.65019219260E-04  0.24368248994E-01  0.00000000000E+00 0. -1.
     999901    1    3    3    0    0 -0.57515570585E-01  0.97143536050E-01  0.24467772050E-01  0.88754919826E+00  0.88000000000E+00 0.  1.
        -11    1    4    4    0    0  0.63266121149E-02 -0.27472539738E-01 -0.13473939180E-01  0.31250193896E-01  0.51100000000E-03 0.  1.
         11    1    4    4    0    0  0.40547541311E-01 -0.91592847793E-01 -0.10928813651E-01  0.10076235885E+00  0.51100000000E-03 0. -1.
</event>
<event>
 8    1  0.9952977E+004  0.1043930E+01  0.7957747E-01            NaN
         13   -1    0    0    0    0  0.00000000000E+00  0.00000000000E+00  0.74505805969E-08  0.10566000000E+00  0.10566000000E+00 0. -1.
     999900   -1    0    0    0    0 -0.00000000000E+00 -0.00000000000E+00 -0.74505805969E-08  0.93827000000E+00  0.93827000000E+00 0.  1.
     999902    2    1    2    0    0  0.23751966081E-01  0.41307149272E-02  0.13748501664E-01  0.10161768020E+01  0.10157977422E+01 0.  0.
     999903    2    3    3    0    0  0.10103603089E+00 -0.77899363294E-01  0.17979188995E-02  0.12890876091E+00  0.18375140450E-01 0.  0.
         14    1    1    2    0    0 -0.23751966081E-01 -0.41307149272E-02 -0.13748501664E-01  0.27753197952E-01  0.00000000000E+00 0. -1.
     999901    1    3    3    0    0 -0.77284064807E-01  0.82030078221E-01  0.11950582765E-01  0.88726804114E+00  0.88000000000E+00 0.  1.
        -11    1    4    4    0    0  0.29469736710E-01 -0.17838606914E-01  0.76637786326E-02  0.35294134106E-01  0.51100000000E-03 0.  1.
         11    1    4    4    0    0  0.71566294178E-01 -0.60060756379E-01 -0.58658597331E-02  0.93614626799E-01  0.51100000000E-03 0. -1.
</event>
<event>
 8    1  0.9952977E+004  0.1043930E+01  0.7957747E-01            NaN
         13   -1    0    0    0    0  0.00000000000E+00  0.00000000000E+00  0.74505805969E-08  0.10566000000E+00  0.10566000000E+00 0. -1.
     999900   -1    0    0    0    0 -0.00000000000E+00 -0.00000000000E+00 -0.74505805969E-08  0.93827000000E+00  0.93827000000E+00 0.  1.
     999902    2    1    2    0    0  0.16496728622E-02  0.76366402099E-02  0.22362523870E-01  0.10202419826E+01  0.10199669509E+01 0.  0.
     999903    2    3    3    0    0 -0.27479352976E-01  0.14330916442E-01  0.12815785224E+00  0.13340154319E+00  0.20274284905E-01 0.  0.
         14    1    1    2    0    0 -0.16496728622E-02 -0.76366402099E-02 -0.22362523870E-01  0.23688017395E-01  0.00000000000E+00 0.  1.
     999901    1    3    3    0    0  0.29129025838E-01 -0.66942762326E-02 -0.10579532837E+00  0.88684043942E+00  0.88000000000E+00 0.  1.
        -11    1    4    4    0    0 -0.22068978919E-01  0.13121417271E-01  0.63380518050E-01  0.68385397645E-01  0.51100000000E-03 0.  1.
         11    1    4    4    0    0 -0.54103740562E-02  0.12094991713E-02  0.64777334189E-01  0.65016145544E-01  0.51100000000E-03 0. -1.
</event>
<event>
 8    1  0.9952977E+004  0.1043930E+01  0.7957747E-01            NaN
         13   -1    0    0    0    0  0.00000000000E+00  0.00000000000E+00  0.74505805969E-08  0.10566000000E+00  0.10566000000E+00 0. -1.
     999900   -1    0    0    0    0 -0.00000000000E+00 -0.00000000000E+00 -0.74505805969E-08  0.93827000000E+00  0.93827000000E+00 0. -1.
     999902    2    1    2    0    0 -0.91397060429E-03 -0.63940508486E-02 -0.22334605492E-01  0.10206801864E+01  0.10204153513E+01 0.  0.
     999903    2    3    3    0    0 -0.82140328166E-01  0.70680970949E-01 -0.73069460223E-01  0.13213513657E+00  0.19434894741E-01 0.  0.
         14    1    1    2    0    0  0.91397060429E-03  0.63940508486E-02  0.22334605492E-01  0.23249813569E-01  0.00000000000E+00 0. -1.
     999901    1    3    3    0    0  0.81226357562E-01 -0.77075021798E-01  0.50734854732E-01  0.88854504986E+00  0.88000000000E+00 0. -1.
        -11    1    4    4    0    0 -0.29085677650E-01  0.22998682052E-01 -0.36252789194E-01  0.51859829018E-01  0.51100000000E-03 0.  1.
         11    1    4    4    0    0 -0.53054650516E-01  0.47682288898E-01 -0.36816671029E-01  0.80275307552E-01  0.51100000000E-03 0. -1.
</event>
<event>
 8    1  0.9952977E+004  0.1043930E+01  0.7957747E-01            NaN
         13   -1    0    0    0    0  0.00000000000E+00  0.00000000000E+00  0.74505805969E-08  0.10566000000E+00  0.10566000000E+00 0. -1.
     999900   -1    0    0    0    0 -0.00000000000E+00 -0.00000000000E+00 -0.74505805969E-08  0.93827000000E+00  0.93827000000E+00 0.  1.
     999902    2    1    2    0    0  0.84669673330E-02  0.21711067801E-01 -0.52476831920E-02  0.10200428030E+01  0.10197630714E+01 0.  0.
     999903    2    3    3    0    0  0.67840684869E-01 -0.10672895724E+00  0.92492694063E-02  0.12862133143E+00  0.21551544643E-01 0.  0.
         14    1    1    2    0    0 -0.84669673330E-02 -0.21711067801E-01  0.52476831920E-02  0.23887196985E-01  0.00000000000E+00 0.  1.
     999901    1    3    3    0    0 -0.59373717536E-01  0.12844002505E+00 -0.14496952598E-01  0.89142147158E+00  0.88000000000E+00 0.  1.
        -11    1    4    4    0    0  0.68015386805E-01 -0.96752374799E-01  0.77947638138E-02  0.11852482582E+00  0.51100000000E-03 0.  1.
         11    1    4    4    0    0 -0.17470193597E-03 -0.99765824446E-02  0.14545055926E-02  0.10096505611E-01  0.51100000000E-03 0. -1.
</event>
<event>
 8    1  0.9952977E+004  0.1043930E+01  0.7957747E-01            NaN
         13   -1    0    0    0    0  0.00000000000E+00  0.00000000000E+00  0.74505805969E-08  0.10566000000E+00  0.10566000000E+00 0.  1.
     999900   -1    0    0    0    0 -0.00000000000E+00 -0.00000000000E+00 -0.74505805969E-08  0.93827000000E+00  0.93827000000E+00 0.  1.
     999902    2    1    2    0    0  0.90443906259E-02  0.19198491946E-01  0.66273958633E-02  0.10216970184E+01  0.10214550856E+01 0.  0.
     999903    2    3    3    0    0  0.11252811194E+00  0.62737913871E-01  0.31561596431E-01  0.13421390521E+00  0.20460111658E-01 0.  0.
         14    1    1    2    0    0 -0.90443906259E-02 -0.19198491946E-01 -0.66273958633E-02  0.22232981597E-01  0.00000000000E+00 0. -1.
     999901    1    3    3    0    0 -0.10348372132E+00 -0.43539421925E-01 -0.24934200568E-01  0.88748311319E+00  0.88000000000E+00 0.  1.
        -11    1    4    4    0    0  0.29112857853E-01  0.21994561534E-01  0.10951764196E-02  0.36507256290E-01  0.51100000000E-03 0.  1.
         11    1    4    4    0    0  0.83415254089E-01  0.40743352337E-01  0.30466420011E-01  0.97706648923E-01  0.51100000000E-03 0. -1.
</event>
<event>
 8    1  0.9952977E+004  0.1043930E+01  0.7957747E-01            NaN
         13   -1    0    0    0    0  0.00000000000E+00  0.00000000000E+00  0.74505805969E-08  0.10566000000E+00  0.10566000000E+00 0.  1.
     999900   -1    0    0    0    0 -0.00000000000E+00 -0.00000000000E+00 -0.74505805969E-08  0.93827000000E+00  0.93827000000E+00 0. -1.
     999902    2    1    2    0    0 -0.19371508645E-01  0.53129064598E-02 -0.13628368812E-01  0.10196562537E+01  0.10193672846E+01 0.  0.
     999903    2    3    3    0    0 -0.87037193441E-01 -0.95788034856E-01  0.51512643016E-02  0.13108846235E+00  0.20169996860E-01 0.  0.
         14    1    1    2    0    0  0.19371508645E-01 -0.53129064598E-02  0.13628368812E-01  0.24273746285E-01  0.00000000000E+00 0.  1.
     999901    1    3    3    0    0  0.67665684796E-01  0.10110094132E+00 -0.18779633114E-01  0.88856779137E+00  0.88000000000E+00 0.  1.
        -11    1    4    4    0    0 -0.26998239743E-01 -0.26460860186E-01  0.10445860059E-01  0.39223197019E-01  0.51100000000E-03 0. -1.
         11    1    4    4    0    0 -0.60038953698E-01 -0.69327174670E-01 -0.52945957574E-02  0.91865265330E-01  0.51100000000E-03 0.  1.
</event>
<event>
 8    1  0.9952977E+004  0.1043930E+01  0.7957747E-01            NaN
         13   -1    0    0    0    0  0.00000000000E+00  0.00000000000E+00  0.74505805969E-08  0.10566000000E+00  0.10566000000E+00 0.  1.
     999900   -1    0    0    0    0 -0.00000000000E+00 -0.00000000000E+00 -0.74505805969E-08  0.93827000000E+00  0.93827000000E+00 0. -1.
     999902    2    1    2    0    0  0.12479911808E-02 -0.28663854337E-01 -0.64502809959E-02  0.10145228554E+01  0.10140965654E+01 0.  0.
     999903    2    3    3    0    0  0.93475651833E-02  0.15956076106E-01  0.12123688344E+00  0.12415183542E+00  0.19321568074E-01 0.  0.
         14    1    1    2    0    0 -0.12479911808E-02  0.28663854337E-01  0.64502809959E-02  0.29407144581E-01  0.00000000000E+00 0.  1.
     999901    1    3    3    0    0 -0.80995740026E-02 -0.44619930444E-01 -0.12768716443E+00  0.89037102000E+00  0.88000000000E+00 0. -1.
        -11    1    4    4    0    0 -0.52487687619E-02  0.82094737014E-03  0.33928580307E-01  0.34345788835E-01  0.51100000000E-03 0.  1.
         11    1    4    4    0    0  0.14596333945E-01  0.15135128736E-01  0.87308303132E-01  0.89806046586E-01  0.51100000000E-03 0. -1.
</event>
<event>
 8    1  0.9952977E+004  0.1043930E+01  0.7957747E-01            NaN
         13   -1    0    0    0    0  0.00000000000E+00  0.00000000000E+00  0.74505805969E-08  0.10566000000E+00  0.10566000000E+00 0.  1.
     999900   -1    0    0    0    0 -0.00000000000E+00 -0.00000000000E+00 -0.74505805969E-08  0.93827000000E+00  0.93827000000E+00 0. -1.
     999902    2    1    2    0    0 -0.67365540438E-02 -0.43296846645E-02 -0.22294348059E-01  0.10202410725E+01  0.10199660194E+01 0.  0.
     999903    2    3    3    0    0  0.75902163205E-01 -0.63355970828E-01 -0.85550309374E-01  0.13214503228E+00  0.19192100052E-01 0.  0.
         14    1    1    2    0    0  0.67365540438E-02  0.43296846645E-02  0.22294348059E-01  0.23688927478E-01  0.00000000000E+00 0.  1.
     999901    1    3    3    0    0 -0.82638717249E-01  0.59026286163E-01  0.63255961315E-01  0.88809604024E+00  0.88000000000E+00 0.  1.
        -11    1    4    4    0    0  0.53728595924E-01 -0.42678766025E-01 -0.70170674417E-01  0.98144912036E-01  0.51100000000E-03 0.  1.
         11    1    4    4    0    0  0.22173567281E-01 -0.20677204803E-01 -0.15379634957E-01  0.34000120247E-01  0.51100000000E-03 0. -1.
</event>
<event>
 8    1  0.9952977E+004  0.1043930E+01  0.7957747E-01            NaN
         13   -1    0    0    0    0  0.00000000000E+00  0.00000000000E+00  0.74505805969E-08  0.10566000000E+00  0.10566000000E+00 0. -1.
     999900   -1    0    0    0    0 -0.00000000000E+00 -0.00000000000E+00 -0.74505805969E-08  0.93827000000E+00  0.93827000000E+00 0.  1.
     999902    2    1    2    0    0 -0.17903198799E-01  0.11931730808E-01 -0.10916344064E-01  0.10198041364E+01  0.10195187194E+01 0.  0.
     999903    2    3    3    0    0 -0.43960550466E-01 -0.41950671869E-01  0.11223415381E+00  0.12921537381E+00  0.20192044978E-01 0.  0.
         14    1    1    2    0    0  0.17903198799E-01 -0.11931730808E-01  0.10916344064E-01  0.24125863612E-01  0.00000000000E+00 0. -1.
     999901    1    3    3    0    0  0.26057351667E-01  0.53882402677E-01 -0.12315049788E+00  0.89058876257E+00  0.88000000000E+00 0.  1.
        -11    1    4    4    0    0 -0.25353898841E-01 -0.27126956359E-01  0.47809376963E-01  0.60536679743E-01  0.51100000000E-03 0.  1.
         11    1    4    4    0    0 -0.18606651625E-01 -0.14823715511E-01  0.64424776849E-01  0.68678694071E-01  0.51100000000E-03 0. -1.
</event>
<event>
 8    1  0.9952977E+004  0.1043930E+01  0.7957747E-01            NaN
         13   -1    0    0    0    0  0.00000000000E+00  0.00000000000E+00  0.74505805969E-08  0.10566000000E+00  0.10566000000E+00 0. -1.
     999900   -1    0    0    0    0 -0.00000000000E+00 -0.00000000000E+00 -0.74505805969E-08  0.93827000000E+00  0.93827000000E+00 0. -1.
     999902    2    1    2    0    0  0.23901271241E-01 -0.17267631567E-01 -0.53909654947E-03  0.10144387726E+01  0.10140100053E+01 0.  0.
     999903    2    3    3    0    0  0.17897403446E-01  0.12060965514E+00 -0.20185301895E-02  0.12368157712E+00  0.20641029346E-01 0.  0.
         14    1    1    2    0    0 -0.23901271241E-01  0.17267631567E-01  0.53909654947E-03  0.29491227373E-01  0.00000000000E+00 0.  1.
     999901    1    3    3    0    0  0.60038677942E-02 -0.13787728671E+00  0.14794336400E-02  0.89075719550E+00  0.88000000000E+00 0.  1.
        -11    1    4    4    0    0  0.30844511529E-02  0.77990950054E-01  0.40188362501E-02  0.78156984941E-01  0.51100000000E-03 0. -1.
         11    1    4    4    0    0  0.14812952293E-01  0.42618705086E-01 -0.60373664396E-02  0.45524592182E-01  0.51100000000E-03 0.  1.
</event>
<event>
 8    1  0.9952977E+004  0.1043930E+01  0.7957747E-01            NaN
         13   -1    0    0    0    0  0.00000000000E+00  0.00000000000E+00  0.74505805969E-08  0.10566000000E+00  0.10566000000E+00 0. -1.
     999900   -1    0    0    0    0 -0.00000000000E+00 -0.00000000000E+00 -0.74505805969E-08  0.93827000000E+00  0.93827000000E+00 0.  1.
     999902    2    1    2    0    0  0.23953184960E-01 -0.60817038710E-02  0.25490470276E-02  0.10190856881E+01  0.10187828031E+01 0.  0.
     999903    2    3    3    0    0 -0.64687335919E-01  0.29176162807E-01 -0.10404823684E+00  0.12753465760E+00  0.20083659915E-01 0.  0.
         14    1    1    2    0    0 -0.23953184960E-01  0.60817038710E-02 -0.25490470276E-02  0.24844311874E-01  0.00000000000E+00 0. -1.
     999901    1    3    3    0    0  0.88640520879E-01 -0.35257866678E-01  0.10659728387E+00  0.89155103053E+00  0.88000000000E+00 0. -1.
        -11    1    4    4    0    0 -0.44728620031E-01  0.95835466031E-02 -0.66334074730E-01  0.80578932772E-01  0.51100000000E-03 0.  1.
         11    1    4    4    0    0 -0.19958715888E-01  0.19592616204E-01 -0.37714162108E-01  0.46955724829E-01  0.51100000000E-03 0. -1.
</event>
<event>
 8    1  0.9952977E+004  0.1043930E+01  0.7957747E-01            NaN
         13   -1    0    0    0    0  0.00000000000E+00  0.00000000000E+00  0.74505805969E-08  0.10566000000E+00  0.10566000000E+00 0.  1.
     999900   -1    0    0    0    0 -0.00000000000E+00 -0.00000000000E+00 -0.74505805969E-08  0.93827000000E+00  0.93827000000E+00 0.  1.
     999902    2    1    2    0    0 -0.14320727381E-01 -0.21485759773E-02  0.18464873141E-01  0.10204640427E+01  0.10201942027E+01 0.  0.
     999903    2    3    3    0    0 -0.98741371244E-01 -0.84324712996E-01  0.18154981984E-01  0.13261278341E+00  0.19900536078E-01 0.  0.
         14    1    1    2    0    0  0.14320727381E-01  0.21485759773E-02 -0.18464873141E-01  0.23465957291E-01  0.00000000000E+00 0. -1.
     999901    1    3    3    0    0  0.84420643863E-01  0.82176137018E-01  0.30989115671E-03  0.88785125930E+00  0.88000000000E+00 0. -1.
        -11    1    4    4    0    0 -0.55108111521E-01 -0.56226913857E-01  0.40747889036E-02  0.78836760606E-01  0.51100000000E-03 0.  1.
         11    1    4    4    0    0 -0.43633259723E-01 -0.28097799139E-01  0.14080193081E-01  0.53776022805E-01  0.51100000000E-03 0. -1.
</event>
<event>
 8    1  0.9952977E+004  0.1043930E+01  0.7957747E-01            NaN
         13   -1    0    0    0    0  0.00000000000E+00  0.00000000000E+00  0.74505805969E-08  0.10566000000E+00  0.10566000000E+00 0.  1.
     999900   -1    0    0    0    0 -0.00000000000E+00 -0.00000000000E+00 -0.74505805969E-08  0.93827000000E+00  0.93827000000E+00 0. -1.
     999902    2    1    2    0    0 -0.13651217182E-01  0.11351696674E-01 -0.15211142164E-01  0.10205506161E+01  0.10202827865E+01 0.  0.
     999903    2    3    3    0    0  0.70724171450E-01  0.31953005388E-01  0.98062062687E-01  0.12904938831E+00  0.31853940161E-01 0.  0.
         14    1    1    2    0    0  0.13651217182E-01 -0.11351696674E-01  0.15211142164E-01  0.23379383950E-01  0.00000000000E+00 0.  1.
     999901    1    3    3    0    0 -0.84375388632E-01 -0.20601308714E-01 -0.11327320485E+00  0.89150122774E+00  0.88000000000E+00 0. -1.
        -11    1    4    4    0    0  0.75508274737E-02  0.15964468063E-02  0.31335627170E-01  0.32276094700E-01  0.51100000000E-03 0. -1.
         11    1    4    4    0    0  0.63173343976E-01  0.30356558582E-01  0.66726435517E-01  0.96773293609E-01  0.51100000000E-03 0.  1.
</event>
<event>
 7    1  0.9952977E+004  0.1043930E+01  0.7957747E-01            NaN
         13   -1    0    0    0    0  0.00000000000E+00  0.00000000000E+00  0.74505805969E-08  0.10566000000E+00  0.10566000000E+00 0. -1.
     999900   -1    0    0    0    0 -0.00000000000E+00 -0.00000000000E+00 -0.74505805969E-08  0.93827000000E+00  0.93827000000E+00 0. -1.
     999903    2    1    2    0    0  0.19189659348E-01  0.89473194727E-01  0.22621191256E-01  0.96322092241E-01  0.19812409226E-01 0.  0.
         14    1    1    2    0    0  0.41761255268E-01 -0.47663580864E-01  0.86366992091E-02  0.63956328503E-01  0.00000000000E+00 0.  1.
     999901    1    1    2    0    0 -0.60950914617E-01 -0.41809613863E-01 -0.31257890465E-01  0.88365157926E+00  0.88000000000E+00 0.  1.
        -11    1    3    3    0    0  0.77484716848E-02  0.41402921377E-01  0.36683555045E-03  0.42126433523E-01  0.51100000000E-03 0. -1.
         11    1    3    3    0    0  0.11441187663E-01  0.48070273350E-01  0.22254355705E-01  0.54195658719E-01  0.51100000000E-03 0.  1.
</event>
<event>
 8    1  0.9952977E+004  0.1043930E+01  0.7957747E-01            NaN
         13   -1    0    0    0    0  0.00000000000E+00  0.00000000000E+00  0.74505805969E-08  0.10566000000E+00  0.10566000000E+00 0.  1.
     999900   -1    0    0    0    0 -0.00000000000E+00 -0.00000000000E+00 -0.74505805969E-08  0.93827000000E+00  0.93827000000E+00 0. -1.
     999902    2    1    2    0    0  0.92778138486E-02 -0.47556015288E-02 -0.21121231463E-01  0.10203758073E+01  0.10201039104E+01 0.  0.
     999903    2    3    3    0    0 -0.44448156714E-01  0.85987636924E-01 -0.86991566117E-01  0.13163528485E+00  0.19768745613E-01 0.  0.
         14    1    1    2    0    0 -0.92778138486E-02  0.47556015288E-02  0.21121231463E-01  0.23554192710E-01  0.00000000000E+00 0.  1.
     999901    1    3    3    0    0  0.53725970563E-01 -0.90743238453E-01  0.65870334654E-01  0.88874052244E+00  0.88000000000E+00 0.  1.
        -11    1    4    4    0    0 -0.26314582532E-01  0.68514657512E-01 -0.60921282913E-01  0.95385425409E-01  0.51100000000E-03 0.  1.
         11    1    4    4    0    0 -0.18133574182E-01  0.17472979413E-01 -0.26070283204E-01  0.36249859441E-01  0.51100000000E-03 0. -1.
</event>
<event>
 8    1  0.9952977E+004  0.1043930E+01  0.7957747E-01            NaN
         13   -1    0    0    0    0  0.00000000000E+00  0.00000000000E+00  0.74505805969E-08  0.10566000000E+00  0.10566000000E+00 0. -1.
     999900   -1    0    0    0    0 -0.00000000000E+00 -0.00000000000E+00 -0.74505805969E-08  0.93827000000E+00  0.93827000000E+00 0.  1.
     999902    2    1    2    0    0  0.11389019313E-01 -0.10930316399E-01  0.37617552566E-02  0.10277024808E+01  0.10275743558E+01 0.  0.
     999903    2    3    3    0    0 -0.38483132586E-01 -0.81730530740E-01 -0.10113858741E+00  0.13725091905E+00  0.21165296315E-01 0.  0.
         14    1    1    2    0    0 -0.11389019313E-01  0.10930316399E-01 -0.37617552566E-02  0.16227519222E-01  0.00000000000E+00 0.  1.
     999901    1    3    3    0    0  0.49872151899E-01  0.70800214341E-01  0.10490034267E+00  0.89045156172E+00  0.88000000000E+00 0.  1.
        -11    1    4    4    0    0 -0.33520529475E-01 -0.62386582496E-01 -0.89494504868E-01  0.11412816959E+00  0.51100000000E-03 0. -1.
         11    1    4    4    0    0 -0.49626031114E-02 -0.19343948244E-01 -0.11644082546E-01  0.23122749461E-01  0.51100000000E-03 0.  1.
</event>
<event>
 8    1  0.9952977E+004  0.1043930E+01  0.7957747E-01            NaN
         13   -1    0    0    0    0  0.00000000000E+00  0.00000000000E+00  0.74505805969E-08  0.10566000000E+00  0.10566000000E+00 0.  1.
     999900   -1    0    0    0    0 -0.00000000000E+00 -0.00000000000E+00 -0.74505805969E-08  0.93827000000E+00  0.93827000000E+00 0.  1.
     999902    2    1    2    0    0 -0.10601119657E-01 -0.15116330148E-01 -0.13824809588E-01  0.10208646031E+01  0.10206040002E+01 0.  0.
     999903    2    3    3    0    0  0.10268222069E-01  0.57125936586E-01  0.11325451261E+00  0.12856217191E+00  0.18243859375E-01 0.  0.
         14    1    1    2    0    0  0.10601119657E-01  0.15116330148E-01  0.13824809588E-01  0.23065396924E-01  0.00000000000E+00 0.  1.
     999901    1    3    3    0    0 -0.20869341725E-01 -0.72242266734E-01 -0.12707932220E+00  0.89230243116E+00  0.88000000000E+00 0.  1.
        -11    1    4    4    0    0  0.24316515285E-02 -0.16087527118E-03  0.20588902263E-02  0.32309379401E-02  0.51100000000E-03 0.  1.
         11    1    4    4    0    0  0.78365705401E-02  0.57286811857E-01  0.11119562239E+00  0.12533123397E+00  0.51100000000E-03 0. -1.
</event>
<event>
 8    1  0.9952977E+004  0.1043930E+01  0.7957747E-01            NaN
         13   -1    0    0    0    0  0.00000000000E+00  0.00000000000E+00  0.74505805969E-08  0.10566000000E+00  0.10566000000E+00 0. -1.
     999900   -1    0    0    0    0 -0.00000000000E+00 -0.00000000000E+00 -0.74505805969E-08  0.93827000000E+00  0.93827000000E+00 0. -1.
     999902    2    1    2    0    0 -0.19087134443E-02  0.17808576494E-01 -0.17979331981E-01  0.10185519591E+01  0.10182357528E+01 0.  0.
     999903    2    3    3    0    0  0.78058049973E-01 -0.94665844161E-01 -0.29282597359E-01  0.12772484768E+00  0.20037090363E-01 0.  0.
         14    1    1    2    0    0  0.19087134443E-02 -0.17808576494E-01  0.17979331981E-01  0.25378040946E-01  0.00000000000E+00 0. -1.
     999901    1    3    3    0    0 -0.79966763417E-01  0.11247442065E+00  0.11303265377E-01  0.89082711138E+00  0.88000000000E+00 0.  1.
        -11    1    4    4    0    0  0.59236981850E-01 -0.83532535615E-01 -0.25410185570E-01  0.10551134146E+00  0.51100000000E-03 0.  1.
         11    1    4    4    0    0  0.18821068123E-01 -0.11133308545E-01 -0.38724117889E-02  0.22213506218E-01  0.51100000000E-03 0. -1.
</event>
<event>
 8    1  0.9952977E+004  0.1043930E+01  0.7957747E-01            NaN
         13   -1    0    0    0    0  0.00000000000E+00  0.00000000000E+00  0.74505805969E-08  0.10566000000E+00  0.10566000000E+00 0.  1.
     999900   -1    0    0    0    0 -0.00000000000E+00 -0.00000000000E+00 -0.74505805969E-08  0.93827000000E+00  0.93827000000E+00 0. -1.
     999902    2    1    2    0    0  0.87700892493E-02  0.17276671472E-01  0.91439271539E-02  0.10225054989E+01  0.10222810211E+01 0.  0.
     999903    2    3    3    0    0  0.15051221262E-01  0.12039280881E+00  0.56073736117E-01  0.13522042784E+00  0.20477610904E-01 0.  0.
         14    1    1    2    0    0 -0.87700892493E-02 -0.17276671472E-01 -0.91439271539E-02  0.21424501077E-01  0.00000000000E+00 0. -1.
     999901    1    3    3    0    0 -0.62811320127E-02 -0.10311613734E+00 -0.46929808964E-01  0.88728507108E+00  0.88000000000E+00 0.  1.
        -11    1    4    4    0    0  0.12630350787E-01  0.36539947747E-01  0.23390189416E-01  0.45189109576E-01  0.51100000000E-03 0. -1.
         11    1    4    4    0    0  0.24208704750E-02  0.83852861062E-01  0.32683546701E-01  0.90031318263E-01  0.51100000000E-03 0.  1.
</event>
<event>
 8    1  0.9952977E+004  0.1043930E+01  0.7957747E-01            NaN
         13   -1    0    0    0    0  0.00000000000E+00  0.00000000000E+00  0.74505805969E-08  0.10566000000E+00  0.10566000000E+00 0. -1.
     999900   -1    0    0    0    0 -0.00000000000E+00 -0.00000000000E+00 -0.74505805969E-08  0.93827000000E+00  0.93827000000E+00 0. -1.
     999902    2    1    2    0    0 -0.13825210693E-02  0.61793422640E-02 -0.15413818845E-01  0.10272662235E+01  0.10271310591E+01 0.  0.
     999903    2    3    3    0    0 -0.12977787568E+00 -0.38098936234E-01 -0.54527379895E-02  0.13679154327E+00  0.19707054552E-01 0.  0.
         14    1    1    2    0    0  0.13825210693E-02 -0.61793422640E-02  0.15413818845E-01  0.16663776484E-01  0.00000000000E+00 0. -1.
     999901    1    3    3    0    0  0.12839535461E+00  0.44278278498E-01 -0.99610808554E-02  0.89047468025E+00  0.88000000000E+00 0.  1.
        -11    1    4    4    0    0 -0.86167945796E-01 -0.29273811973E-01  0.47857623524E-02  0.91131968005E-01  0.51100000000E-03 0.  1.
         11    1    4    4    0    0 -0.43609929886E-01 -0.88251242612E-02 -0.10238500342E-01  0.45659575262E-01  0.51100000000E-03 0. -1.
</event>
<event>
 8    1  0.9952977E+004  0.1043930E+01  0.7957747E-01            NaN
         13   -1    0    0    0    0  0.00000000000E+00  0.00000000000E+00  0.74505805969E-08  0.10566000000E+00  0.10566000000E+00 0.  1.
     999900   -1    0    0    0    0 -0.00000000000E+00 -0.00000000000E+00 -0.74505805969E-08  0.93827000000E+00  0.93827000000E+00 0.  1.
     999902    2    1    2    0    0  0.12286662442E-01 -0.20064137195E-01 -0.44951033948E-02  0.10199771791E+01  0.10196958901E+01 0.  0.
     999903    2    3    3    0    0  0.96672146438E-01  0.54045403446E-01  0.65337930101E-01  0.13009528440E+00  0.19731405977E-01 0.  0.
         14    1    1    2    0    0 -0.12286662442E-01  0.20064137195E-01  0.44951033948E-02  0.23952820917E-01  0.00000000000E+00 0.  1.
     999901    1    3    3    0    0 -0.84385483995E-01 -0.74109540641E-01 -0.69833033496E-01  0.88988189469E+00  0.88000000000E+00 0.  1.
        -11    1    4    4    0    0  0.83578738839E-01  0.39629472050E-01  0.58514385494E-01  0.10945362064E+00  0.51100000000E-03 0.  1.
         11    1    4    4    0    0  0.13093407599E-01  0.14415931396E-01  0.68235446076E-02  0.20641663756E-01  0.51100000000E-03 0. -1.
</event>
<event>
 8    1  0.9952977E+004  0.1043930E+01  0.7957747E-01            NaN
         13   -1    0    0    0    0  0.00000000000E+00  0.00000000000E+00  0.74505805969E-08  0.10566000000E+00  0.10566000000E+00 0. -1.
     999900   -1    0    0    0    0 -0.00000000000E+00 -0.00000000000E+00 -0.74505805969E-08  0.93827000000E+00  0.93827000000E+00 0.  1.
     999902    2    1    2    0    0 -0.56074411445E-02  0.14106090545E-01  0.19337036249E-01  0.10193465471E+01  0.10190500659E+01 0.  0.
     999903    2    3    3    0    0 -0.10574667616E+00 -0.22163519245E-01 -0.67029450383E-01  0.12872736864E+00  0.20104902757E-01 0.  0.
         14    1    1    2    0    0  0.56074411445E-02 -0.14106090545E-01 -0.19337036249E-01  0.24583452922E-01  0.00000000000E+00 0.  1.
     999901    1    3    3    0    0  0.10013923502E+00  0.36269609790E-01  0.86366486632E-01  0.89061917844E+00  0.88000000000E+00 0. -1.
        -11    1    4    4    0    0 -0.53769423020E-01 -0.38365832652E-02 -0.25046626868E-01  0.59442954684E-01  0.51100000000E-03 0. -1.
         11    1    4    4    0    0 -0.51977253140E-01 -0.18326935980E-01 -0.41982823515E-01  0.69284413959E-01  0.51100000000E-03 0.  1.
</event>
<event>
 8    1  0.9952977E+004  0.1043930E+01  0.7957747E-01            NaN
         13   -1    0    0    0    0  0.00000000000E+00  0.00000000000E+00  0.74505805969E-08  0.10566000000E+00  0.10566000000E+00 0. -1.
     999900   -1    0    0    0    0 -0.00000000000E+00 -0.00000000000E+00 -0.74505805969E-08  0.93827000000E+00  0.93827000000E+00 0. -1.
     999902    2    1    2    0    0  0.13085609443E-01 -0.18852580126E-01 -0.48683352960E-02  0.10204703828E+01  0.10202006903E+01 0.  0.
     999903    2    3    3    0    0  0.61394055525E-01  0.35587375886E-01 -0.10873549808E+00  0.13137769791E+00  0.20024974126E-01 0.  0.
         14    1    1    2    0    0 -0.13085609443E-01  0.18852580126E-01  0.48683352960E-02  0.23459617227E-01  0.00000000000E+00 0.  1.
     999901    1    3    3    0    0 -0.48308446082E-01 -0.54439956011E-01  0.10386716279E+00  0.88909268486E+00  0.88000000000E+00 0.  1.
        -11    1    4    4    0    0  0.44646623526E-01  0.34286521059E-01 -0.90489188347E-01  0.10657129467E+00  0.51100000000E-03 0.  1.
         11    1    4    4    0    0  0.16747431999E-01  0.13008548272E-02 -0.18246309734E-01  0.24806403241E-01  0.51100000000E-03 0. -1.
</event>
<event>
 8    1  0.9952977E+004  0.1043930E+01  0.7957747E-01            NaN
         13   -1    0    0    0    0  0.00000000000E+00  0.00000000000E+00  0.74505805969E-08  0.10566000000E+00  0.10566000000E+00 0.  1.
     999900   -1    0    0    0    0 -0.00000000000E+00 -0.00000000000E+00 -0.74505805969E-08  0.93827000000E+00  0.93827000000E+00 0.  1.
     999902    2    1    2    0    0  0.15284891923E-01  0.18787365818E-01  0.61204241181E-02  0.10189489546E+01  0.10186426849E+01 0.  0.
     999903    2    3    3    0    0  0.11042235832E+00  0.22036559666E-01  0.65281317974E-01  0.13184033326E+00  0.21012277857E-01 0.  0.
         14    1    1    2    0    0 -0.15284891923E-01 -0.18787365818E-01 -0.61204241181E-02  0.24981045352E-01  0.00000000000E+00 0. -1.
     999901    1    3    3    0    0 -0.95137466392E-01 -0.32491938481E-02 -0.59160893856E-01  0.88710862138E+00  0.88000000000E+00 0. -1.
        -11    1    4    4    0    0  0.36755741884E-01  0.15934539592E-01  0.29251031935E-01  0.49606230493E-01  0.51100000000E-03 0.  1.
         11    1    4    4    0    0  0.73666616432E-01  0.61020200747E-02  0.36030286039E-01  0.82234102771E-01  0.51100000000E-03 0. -1.
</event>
<event>
 8    1  0.9952977E+004  0.1043930E+01  0.7957747E-01            NaN
         13   -1    0    0    0    0  0.00000000000E+00  0.00000000000E+00  0.74505805969E-08  0.10566000000E+00  0.10566000000E+00 0.  1.
     999900   -1    0    0    0    0 -0.00000000000E+00 -0.00000000000E+00 -0.74505805969E-08  0.93827000000E+00  0.93827000000E+00 0.  1.
     999902    2    1    2    0    0 -0.22954441118E-01 -0.46125796168E-02  0.25229310808E-02  0.10203811691E+01  0.10201093974E+01 0.  0.
     999903    2    3    3    0    0 -0.80046177647E-01  0.60595904741E-01 -0.83280455282E-01  0.13197032157E+00  0.20031907448E-01 0.  0.
         14    1    1    2    0    0  0.22954441118E-01  0.46125796168E-02 -0.25229310808E-02  0.23548830948E-01  0.00000000000E+00 0. -1.
     999901    1    3    3    0    0  0.57091736529E-01 -0.65208484358E-01  0.85803386363E-01  0.88841084748E+00  0.88000000000E+00 0. -1.
        -11    1    4    4    0    0 -0.60502536157E-01  0.34250234325E-01 -0.58314332732E-01  0.90743914153E-01  0.51100000000E-03 0. -1.
         11    1    4    4    0    0 -0.19543641491E-01  0.26345670416E-01 -0.24966122550E-01  0.41226407418E-01  0.51100000000E-03 0.  1.
</event>
<event>
 8    1  0.9952977E+004  0.1043930E+01  0.7957747E-01            NaN
         13   -1    0    0    0    0  0.00000000000E+00  0.00000000000E+00  0.74505805969E-08  0.10566000000E+00  0.10566000000E+00 0. -1.
     999900   -1    0    0    0    0 -0.00000000000E+00 -0.00000000000E+00 -0.74505805969E-08  0.93827000000E+00  0.93827000000E+00 0.  1.
     999902    2    1    2    0    0  0.23760739470E-02 -0.15139483348E-01  0.18052421016E-01  0.10202500594E+01  0.10199752174E+01 0.  0.
     999903    2    3    3    0    0  0.36116996083E-01 -0.10205776829E+00  0.75470252832E-01  0.13346370095E+00  0.19914189267E-01 0.  0.
         14    1    1    2    0    0 -0.23760739470E-02  0.15139483348E-01 -0.18052421016E-01  0.23679940625E-01  0.00000000000E+00 0.  1.
     999901    1    3    3    0    0 -0.33740922136E-01  0.86918284940E-01 -0.57417831816E-01  0.88678635843E+00  0.88000000000E+00 0.  1.
        -11    1    4    4    0    0  0.19197302754E-01 -0.68226006928E-01  0.58930350827E-01  0.92175765926E-01  0.51100000000E-03 0.  1.
         11    1    4    4    0    0  0.16919693329E-01 -0.33831761359E-01  0.16539902005E-01  0.41287935022E-01  0.51100000000E-03 0. -1.
</event>
<event>
 7    1  0.9952977E+004  0.1043930E+01  0.7957747E-01            NaN
         13   -1    0    0    0    0  0.00000000000E+00  0.00000000000E+00  0.74505805969E-08  0.10566000000E+00  0.10566000000E+00 0.  1.
     999900   -1    0    0    0    0 -0.00000000000E+00 -0.00000000000E+00 -0.74505805969E-08  0.93827000000E+00  0.93827000000E+00 0.  1.
     999902    2    1    2    0    0 -0.15351017983E-02  0.12864996024E-01 -0.19761401053E-01  0.10202999845E+01  0.10200263138E+01 0.  0.
         14    1    1    2    0    0  0.15351017983E-02 -0.12864996024E-01  0.19761401053E-01  0.23630015484E-01  0.00000000000E+00 0.  1.
     999901    1    3    3    0    0  0.10845122020E+00  0.11966788828E-01  0.43887631669E-01  0.88782374118E+00  0.88000000000E+00 0. -1.
        -11    1    3    3    0    0 -0.83483081872E-01  0.16424675060E-01 -0.41945361069E-01  0.94862370547E-01  0.51100000000E-03 0. -1.
         11    1    3    3    0    0 -0.26503240128E-01 -0.15526467864E-01 -0.21703671653E-01  0.37613872784E-01  0.51100000000E-03 0.  1.
</event>
<event>
 8    1  0.9952977E+004  0.1043930E+01  0.7957747E-01            NaN
         13   -1    0    0    0    0  0.00000000000E+00  0.00000000000E+00  0.74505805969E-08  0.10566000000E+00  0.10566000000E+00 0.  1.
     999900   -1    0    0    0    0 -0.00000000000E+00 -0.00000000000E+00 -0.74505805969E-08  0.93827000000E+00  0.93827000000E+00 0. -1.
     999902    2    1    2    0    0  0.17561081777E-01 -0.21013282740E-02 -0.15557739939E-01  0.10203747363E+01  0.10201028145E+01 0.  0.
     999903    2    3    3    0    0 -0.11869421203E+00  0.35394038734E-01 -0.30096211507E-01  0.12898101033E+00  0.19729803075E-01 0.  0.
         14    1    1    2    0    0 -0.17561081777E-01  0.21013282740E-02  0.15557739939E-01  0.23555263651E-01  0.00000000000E+00 0.  1.
     999901    1    3    3    0    0  0.13625529381E+00 -0.37495367008E-01  0.14538471568E-01  0.89139372602E+00  0.88000000000E+00 0. -1.
        -11    1    4    4    0    0 -0.77494256483E-01  0.25727551657E-01 -0.10448033382E-01  0.82320648836E-01  0.51100000000E-03 0.  1.
         11    1    4    4    0    0 -0.41199955550E-01  0.96664870769E-02 -0.19648178125E-01  0.46660361490E-01  0.51100000000E-03 0. -1.
</event>
<event>
 8    1  0.9952977E+004  0.1043930E+01  0.7957747E-01            NaN
         13   -1    0    0    0    0  0.00000000000E+00  0.00000000000E+00  0.74505805969E-08  0.10566000000E+00  0.10566000000E+00 0.  1.
     999900   -1    0    0    0    0 -0.00000000000E+00 -0.00000000000E+00 -0.74505805969E-08  0.93827000000E+00  0.93827000000E+00 0. -1.
     999902    2    1    2    0    0  0.14412052144E-01 -0.46805044027E-03  0.18619522156E-01  0.10203797787E+01  0.10201079746E+01 0.  0.
     999903    2    3    3    0    0  0.25032614983E-01  0.37101571952E-01 -0.11909310882E+00  0.12881427823E+00  0.20169066754E-01 0.  0.
         14    1    1    2    0    0 -0.14412052144E-01  0.46805044027E-03 -0.18619522156E-01  0.23550221305E-01  0.00000000000E+00 0. -1.
     999901    1    3    3    0    0 -0.10620562839E-01 -0.37569622392E-01  0.13771263098E+00  0.89156550046E+00  0.88000000000E+00 0.  1.
        -11    1    4    4    0    0  0.95153252253E-02  0.10526478166E-01 -0.16827596891E-01  0.22017658705E-01  0.51100000000E-03 0.  1.
         11    1    4    4    0    0  0.15517289758E-01  0.26575093785E-01 -0.10226551193E+00  0.10679661953E+00  0.51100000000E-03 0. -1.
</event>
<event>
 8    1  0.1359775E+005  0.1043930E+01  0.7957747E-01            NaN
         13   -1    0    0    0    0  0.00000000000E+00  0.00000000000E+00  0.74505805969E-08  0.10566000000E+00  0.10566000000E+00 0.  1.
     999900   -1    0    0    0    0 -0.00000000000E+00 -0.00000000000E+00 -0.74505805969E-08  0.93827000000E+00  0.93827000000E+00 0.  1.
     999902    2    1    2    0    0 -0.24930020764E-01 -0.68002867367E-02 -0.95622429806E-02  0.10163766640E+01  0.10160031185E+01 0.  0.
     999903    2    3    3    0    0 -0.22813038035E-01  0.69026502338E-01  0.10096312522E+00  0.12622496872E+00  0.21309559957E-01 0.  0.
         14    1    1    2    0    0  0.24930020764E-01  0.68002867367E-02  0.95622429806E-02  0.27553336019E-01  0.00000000000E+00 0.  1.
     999901    1    3    3    0    0 -0.21169827283E-02 -0.75826789075E-01 -0.11052536820E+00  0.89015169526E+00  0.88000000000E+00 0.  1.
        -11    1    4    4    0    0 -0.21044533672E-01  0.31155502755E-01  0.45239889320E-01  0.58825559548E-01  0.51100000000E-03 0.  1.
         11    1    4    4    0    0 -0.17685043636E-02  0.37870999583E-01  0.55723235898E-01  0.67399409174E-01  0.51100000000E-03 0. -1.
</event>
<event>
 8    1  0.9952977E+004  0.1043930E+01  0.7957747E-01            NaN
         13   -1    0    0    0    0  0.00000000000E+00  0.00000000000E+00  0.74505805969E-08  0.10566000000E+00  0.10566000000E+00 0. -1.
     999900   -1    0    0    0    0 -0.00000000000E+00 -0.00000000000E+00 -0.74505805969E-08  0.93827000000E+00  0.93827000000E+00 0.  1.
     999902    2    1    2    0    0 -0.18212868245E-01  0.13927090004E-01  0.76154958284E-02  0.10197707744E+01  0.10194845581E+01 0.  0.
     999903    2    3    3    0    0  0.12217347926E+00  0.10193656264E-01  0.32197818879E-01  0.12829640251E+00  0.19824169467E-01 0.  0.
         14    1    1    2    0    0  0.18212868245E-01 -0.13927090004E-01 -0.76154958284E-02  0.24159225617E-01  0.00000000000E+00 0.  1.
     999901    1    3    3    0    0 -0.14038634750E+00  0.37334337399E-02 -0.24582323050E-01  0.89147437187E+00  0.88000000000E+00 0.  1.
        -11    1    4    4    0    0  0.98015010671E-01  0.93080698304E-03  0.21854892179E-01  0.10042761648E+00  0.51100000000E-03 0. -1.
         11    1    4    4    0    0  0.24158468588E-01  0.92628492813E-02  0.10342926699E-01  0.27868786035E-01  0.51100000000E-03 0.  1.
</event>
<event>
 8    1  0.9952977E+004  0.1043930E+01  0.7957747E-01            NaN
         13   -1    0    0    0    0  0.00000000000E+00  0.00000000000E+00  0.74505805969E-08  0.10566000000E+00  0.10566000000E+00 0. -1.
     999900   -1    0    0    0    0 -0.00000000000E+00 -0.00000000000E+00 -0.74505805969E-08  0.93827000000E+00  0.93827000000E+00 0.  1.
     999902    2    1    2    0    0 -0.40989009297E-02  0.20954233393E-01 -0.11233424609E-01  0.10198038583E+01  0.10195184347E+01 0.  0.
     999903    2    3    3    0    0  0.17723855374E-01  0.12991056723E+00 -0.10763914748E-01  0.13281573219E+00  0.18255583569E-01 0.  0.
         14    1    1    2    0    0  0.40989009297E-02 -0.20954233393E-01  0.11233424609E-01  0.24126141721E-01  0.00000000000E+00 0. -1.
     999901    1    3    3    0    0 -0.21822756304E-01 -0.10895633383E+00 -0.46950986083E-03  0.88698812608E+00  0.88000000000E+00 0.  1.
        -11    1    4    4    0    0  0.96305347214E-02  0.89736228244E-01 -0.15443748744E-01  0.91564776823E-01  0.51100000000E-03 0. -1.
         11    1    4    4    0    0  0.80933206529E-02  0.40174338982E-01  0.46798339953E-02  0.41250955371E-01  0.51100000000E-03 0.  1.
</event>
<event>
 8    1  0.9952977E+004  0.1043930E+01  0.7957747E-01            NaN
         13   -1    0    0    0    0  0.00000000000E+00  0.00000000000E+00  0.74505805969E-08  0.10566000000E+00  0.10566000000E+00 0. -1.
     999900   -1    0    0    0    0 -0.00000000000E+00 -0.00000000000E+00 -0.74505805969E-08  0.93827000000E+00  0.93827000000E+00 0.  1.
     999902    2    1    2    0    0 -0.19386627320E-01  0.38421696105E-02  0.12646747518E-01  0.10204663300E+01  0.10201965433E+01 0.  0.
     999903    2    3    3    0    0 -0.12133067983E+00  0.17531556606E-01  0.49696836136E-01  0.13370102949E+00  0.19434516155E-01 0.  0.
         14    1    1    2    0    0  0.19386627320E-01 -0.38421696105E-02 -0.12646747518E-01  0.23463669981E-01  0.00000000000E+00 0.  1.
     999901    1    3    3    0    0  0.10194405251E+00 -0.13689386995E-01 -0.37050088618E-01  0.88676530053E+00  0.88000000000E+00 0.  1.
        -11    1    4    4    0    0 -0.11054640594E+00  0.21454119081E-01  0.44316265385E-01  0.12101644348E+00  0.51100000000E-03 0. -1.
         11    1    4    4    0    0 -0.10784273890E-01 -0.39225624754E-02  0.53805707511E-02  0.12684586013E-01  0.51100000000E-03 0.  1.
</event>
<event>
 8    1  0.9952977E+004  0.1043930E+01  0.7957747E-01            NaN
         13   -1    0    0    0    0  0.00000000000E+00  0.00000000000E+00  0.74505805969E-08  0.10566000000E+00  0.10566000000E+00 0. -1.
     999900   -1    0    0    0    0 -0.00000000000E+00 -0.00000000000E+00 -0.74505805969E-08  0.93827000000E+00  0.93827000000E+00 0. -1.
     999902    2    1    2    0    0  0.17928771851E-02 -0.20714414361E-01  0.12027579648E-01  0.10199099242E+01  0.10196270344E+01 0.  0.
     999903    2    3    3    0    0 -0.11903314163E+00 -0.17578602768E-01  0.47359068593E-01  0.13094587863E+00  0.20640873821E-01 0.  0.
         14    1    1    2    0    0 -0.17928771851E-02  0.20714414361E-01 -0.12027579648E-01  0.24020075835E-01  0.00000000000E+00 0.  1.
     999901    1    3    3    0    0  0.12082601881E+00 -0.31358115934E-02 -0.35331488945E-01  0.88896404553E+00  0.88000000000E+00 0. -1.
        -11    1    4    4    0    0 -0.90862087721E-02  0.26595272946E-02 -0.13066964831E-03  0.94821132053E-02  0.51100000000E-03 0.  1.
         11    1    4    4    0    0 -0.10994693286E+00 -0.20238130063E-01  0.47489738241E-01  0.12146376543E+00  0.51100000000E-03 0. -1.
</event>
<event>
 8    1  0.9952977E+004  0.1043930E+01  0.7957747E-01            NaN
         13   -1    0    0    0    0  0.00000000000E+00  0.00000000000E+00  0.74505805969E-08  0.10566000000E+00  0.10566000000E+00 0.  1.
     999900   -1    0    0    0    0 -0.00000000000E+00 -0.00000000000E+00 -0.74505805969E-08  0.93827000000E+00  0.93827000000E+00 0. -1.
     999902    2    1    2    0    0 -0.17521908913E-01  0.50641205042E-02  0.14868215363E-01  0.10203986074E+01  0.10201272428E+01 0.  0.
     999903    2    3    3    0    0 -0.52611572351E-01  0.11232949027E+00  0.42878557998E-01  0.13274905759E+00  0.19946168170E-01 0.  0.
         14    1    1    2    0    0  0.17521908913E-01 -0.50641205042E-02 -0.14868215363E-01  0.23531392575E-01  0.00000000000E+00 0.  1.
     999901    1    3    3    0    0  0.35089663438E-01 -0.10726536977E+00 -0.28010342636E-01  0.88764954984E+00  0.88000000000E+00 0. -1.
        -11    1    4    4    0    0 -0.15987622739E-01  0.44873290621E-01  0.25551804055E-01  0.54058968761E-01  0.51100000000E-03 0. -1.
         11    1    4    4    0    0 -0.36623949612E-01  0.67456199650E-01  0.17326753943E-01  0.78690088827E-01  0.51100000000E-03 0.  1.
</event>
<event>
 8    1  0.9952977E+004  0.1043930E+01  0.7957747E-01            NaN
         13   -1    0    0    0    0  0.00000000000E+00  0.00000000000E+00  0.74505805969E-08  0.10566000000E+00  0.10566000000E+00 0.  1.
     999900   -1    0    0    0    0 -0.00000000000E+00 -0.00000000000E+00 -0.74505805969E-08  0.93827000000E+00  0.93827000000E+00 0.  1.
     999902    2    1    2    0    0  0.14955641058E-01  0.58171430260E-02 -0.23656216516E-01  0.10153445678E+01  0.10149420991E+01 0.  0.
     999903    2    3    3    0    0 -0.68199969598E-01  0.24394386594E-01  0.97380357241E-01  0.12298263355E+00  0.19886483563E-01 0.  0.
         14    1    1    2    0    0 -0.14955641058E-01 -0.58171430260E-02  0.23656216516E-01  0.28585432169E-01  0.00000000000E+00 0.  1.
     999901    1    3    3    0    0  0.83155610656E-01 -0.18577243568E-01 -0.12103657376E+00  0.89236193428E+00  0.88000000000E+00 0.  1.
        -11    1    4    4    0    0 -0.14032159194E-01  0.17152817672E-02  0.32649278073E-01  0.35582020219E-01  0.51100000000E-03 0.  1.
         11    1    4    4    0    0 -0.54167810404E-01  0.22679104827E-01  0.64731079169E-01  0.87400613334E-01  0.51100000000E-03 0. -1.
</event>
<event>
 8    1  0.9952977E+004  0.1043930E+01  0.7957747E-01            NaN
         13   -1    0    0    0    0  0.00000000000E+00  0.00000000000E+00  0.74505805969E-08  0.10566000000E+00  0.10566000000E+00 0. -1.
     999900   -1    0    0    0    0 -0.00000000000E+00 -0.00000000000E+00 -0.74505805969E-08  0.93827000000E+00  0.93827000000E+00 0. -1.
     999902    2    1    2    0    0  0.17919878705E-01  0.72276208108E-02  0.13735665379E-01  0.10202228479E+01  0.10199473665E+01 0.  0.
     999903    2    3    3    0    0  0.50266781371E-01  0.27602364063E-01  0.11903180724E+00  0.13312154044E+00  0.16252187040E-01 0.  0.
         14    1    1    2    0    0 -0.17919878705E-01 -0.72276208108E-02 -0.13735665379E-01  0.23707152060E-01  0.00000000000E+00 0. -1.
     999901    1    3    3    0    0 -0.32346902666E-01 -0.20374743252E-01 -0.10529614186E+00  0.88710130750E+00  0.88000000000E+00 0.  1.
        -11    1    4    4    0    0  0.30134682544E-01  0.78098666302E-02  0.68284397065E-01  0.75047405767E-01  0.51100000000E-03 0.  1.
         11    1    4    4    0    0  0.20132098826E-01  0.19792497433E-01  0.50747410175E-01  0.58074134675E-01  0.51100000000E-03 0. -1.
</event>
<event>
 8    1  0.9952977E+004  0.1043930E+01  0.7957747E-01            NaN
         13   -1    0    0    0    0  0.00000000000E+00  0.00000000000E+00  0.74505805969E-08  0.10566000000E+00  0.10566000000E+00 0.  1.
     999900   -1    0    0    0    0 -0.00000000000E+00 -0.00000000000E+00 -0.74505805969E-08  0.93827000000E+00  0.93827000000E+00 0. -1.
     999902    2    1    2    0    0 -0.18079389218E-01 -0.14511268269E-01 -0.22472302631E-02  0.10206385581E+01  0.10203727628E+01 0.  0.
     999903    2    3    3    0    0  0.56656341688E-01  0.11107079381E+00  0.22932388520E-01  0.12823153383E+00  0.19255376761E-01 0.  0.
         14    1    1    2    0    0  0.18079389218E-01  0.14511268269E-01  0.22472302631E-02  0.23291441886E-01  0.00000000000E+00 0.  1.
     999901    1    3    3    0    0 -0.74735730906E-01 -0.12558206208E+00 -0.25179618783E-01  0.89240702428E+00  0.88000000000E+00 0. -1.
        -11    1    4    4    0    0  0.17936553189E-01  0.33686499179E-01 -0.18752589182E-02  0.38213582458E-01  0.51100000000E-03 0.  1.
         11    1    4    4    0    0  0.38719788500E-01  0.77384294630E-01  0.24807647438E-01  0.90017951372E-01  0.51100000000E-03 0. -1.
</event>
<event>
 8    1  0.9952977E+004  0.1043930E+01  0.7957747E-01            NaN
         13   -1    0    0    0    0  0.00000000000E+00  0.00000000000E+00  0.74505805969E-08  0.10566000000E+00  0.10566000000E+00 0. -1.
     999900   -1    0    0    0    0 -0.00000000000E+00 -0.00000000000E+00 -0.74505805969E-08  0.93827000000E+00  0.93827000000E+00 0.  1.
     999902    2    1    2    0    0 -0.19626299266E-01 -0.30923437062E-03  0.10112382442E-01  0.10218495216E+01  0.10216109324E+01 0.  0.
     999903    2    3    3    0    0  0.11730065042E+00 -0.54677669873E-02  0.52786841848E-01  0.13022364179E+00  0.19555233183E-01 0.  0.
         14    1    1    2    0    0  0.19626299266E-01  0.30923437062E-03 -0.10112382442E-01  0.22080478424E-01  0.00000000000E+00 0.  1.
     999901    1    3    3    0    0 -0.13692694969E+00  0.51585326167E-02 -0.42674459406E-01  0.89162587978E+00  0.88000000000E+00 0.  1.
        -11    1    4    4    0    0  0.47858462435E-01 -0.11409066356E-02  0.11212002052E-01  0.49170155639E-01  0.51100000000E-03 0.  1.
         11    1    4    4    0    0  0.69442187987E-01 -0.43268603517E-02  0.41574839796E-01  0.81053486155E-01  0.51100000000E-03 0. -1.
</event>
<event>
 8    1  0.9952977E+004  0.1043930E+01  0.7957747E-01            NaN
         13   -1    0    0    0    0  0.00000000000E+00  0.00000000000E+00  0.74505805969E-08  0.10566000000E+00  0.10566000000E+00 0. -1.
     999900   -1    0    0    0    0 -0.00000000000E+00 -0.00000000000E+00 -0.74505805969E-08  0.93827000000E+00  0.93827000000E+00 0. -1.
     999902    2    1    2    0    0 -0.15660503740E-01  0.16785740326E-01 -0.38553633521E-02  0.10206517638E+01  0.10203862732E+01 0.  0.
     999903    2    3    3    0    0  0.95890881697E-01 -0.75712726193E-01 -0.33355435298E-01  0.12831218034E+00  0.20590105865E-01 0.  0.
         14    1    1    2    0    0  0.15660503740E-01 -0.16785740326E-01  0.38553633521E-02  0.23278236236E-01  0.00000000000E+00 0. -1.
     999901    1    3    3    0    0 -0.11155138544E+00  0.92498466519E-01  0.29500071946E-01  0.89233958342E+00  0.88000000000E+00 0. -1.
        -11    1    4    4    0    0  0.42907343722E-01 -0.36527242947E-01 -0.25805446625E-01  0.61979527419E-01  0.51100000000E-03 0. -1.
         11    1    4    4    0    0  0.52983537975E-01 -0.39185483246E-01 -0.75499886728E-02  0.66332652921E-01  0.51100000000E-03 0.  1.
</event>
<event>
 8    1  0.9952977E+004  0.1043930E+01  0.7957747E-01            NaN
         13   -1    0    0    0    0  0.00000000000E+00  0.00000000000E+00  0.74505805969E-08  0.10566000000E+00  0.10566000000E+00 0. -1.
     999900   -1    0    0    0    0 -0.00000000000E+00 -0.00000000000E+00 -0.74505805969E-08  0.93827000000E+00  0.93827000000E+00 0.  1.
     999902    2    1    2    0    0  0.20052075902E-01  0.10146287681E-01  0.85906113980E-02  0.10198710826E+01  0.10195872663E+01 0.  0.
     999903    2    3    3    0    0  0.12354154488E+00 -0.43035317387E-01 -0.22899718933E-02  0.13214548289E+00  0.18510343653E-01 0.  0.
         14    1    1    2    0    0 -0.20052075902E-01 -0.10146287681E-01 -0.85906113980E-02  0.24058917388E-01  0.00000000000E+00 0.  1.
     999901    1    3    3    0    0 -0.10348946898E+00  0.53181605067E-01  0.10880583291E-01  0.88772559972E+00  0.88000000000E+00 0. -1.
        -11    1    4    4    0    0  0.68904906264E-01 -0.31408296283E-01 -0.71936628510E-02  0.76068239685E-01  0.51100000000E-03 0. -1.
         11    1    4    4    0    0  0.54636638621E-01 -0.11627021104E-01  0.49036909577E-02  0.56077243205E-01  0.51100000000E-03 0.  1.
</event>
<event>
 8    1  0.9952977E+004  0.1043930E+01  0.7957747E-01            NaN
         13   -1    0    0    0    0  0.00000000000E+00  0.00000000000E+00  0.74505805969E-08  0.10566000000E+00  0.10566000000E+00 0.  1.
     999900   -1    0    0    0    0 -0.00000000000E+00 -0.00000000000E+00 -0.74505805969E-08  0.93827000000E+00  0.93827000000E+00 0. -1.
     999902    2    1    2    0    0  0.89179970132E-02  0.18754163161E-01 -0.10116939669E-01  0.10208301780E+01  0.10205687878E+01 0.  0.
     999903    2    3    3    0    0  0.12196712814E+00  0.49083723942E-01  0.29593629763E-02  0.13298391995E+00  0.19767974956E-01 0.  0.
         14    1    1    2    0    0 -0.89179970132E-02 -0.18754163161E-01  0.10116939669E-01  0.23099821966E-01  0.00000000000E+00 0.  1.
     999901    1    3    3    0    0 -0.11304913112E+00 -0.30329560781E-01 -0.13076302645E-01  0.88784625809E+00  0.88000000000E+00 0. -1.
        -11    1    4    4    0    0  0.60318484580E-01  0.16550468754E-01 -0.53691261512E-02  0.62779982754E-01  0.51100000000E-03 0.  1.
         11    1    4    4    0    0  0.61648643557E-01  0.32533255187E-01  0.83284891275E-02  0.70203937195E-01  0.51100000000E-03 0. -1.
</event>
<event>
 8    1  0.9952977E+004  0.1043930E+01  0.7957747E-01            NaN
         13   -1    0    0    0    0  0.00000000000E+00  0.00000000000E+00  0.74505805969E-08  0.10566000000E+00  0.10566000000E+00 0. -1.
     999900   -1    0    0    0    0 -0.00000000000E+00 -0.00000000000E+00 -0.74505805969E-08  0.93827000000E+00  0.93827000000E+00 0.  1.
     999902    2    1    2    0    0 -0.20403003967E-02  0.23405227310E-01  0.24012414330E-02  0.10203136190E+01  0.10200402677E+01 0.  0.
     999903    2    3    3    0    0  0.12340378346E+00 -0.11470768030E-01  0.34961101701E-01  0.13013796345E+00  0.18802622347E-01 0.  0.
         14    1    1    2    0    0  0.20403003967E-02 -0.23405227310E-01 -0.24012414330E-02  0.23616381001E-01  0.00000000000E+00 0. -1.
     999901    1    3    3    0    0 -0.12544408386E+00  0.34875995340E-01 -0.32559860267E-01  0.89017565555E+00  0.88000000000E+00 0. -1.
        -11    1    4    4    0    0  0.10806255937E+00 -0.43306920091E-02  0.33124429489E-01  0.11310950703E+00  0.51100000000E-03 0.  1.
         11    1    4    4    0    0  0.15341224094E-01 -0.71400760211E-02  0.18366722111E-02  0.17028456422E-01  0.51100000000E-03 0. -1.
</event>
<event>
 8    1  0.9952977E+004  0.1043930E+01  0.7957747E-01            NaN
         13   -1    0    0    0    0  0.00000000000E+00  0.00000000000E+00  0.74505805969E-08  0.10566000000E+00  0.10566000000E+00 0.  1.
     999900   -1    0    0    0    0 -0.00000000000E+00 -0.00000000000E+00 -0.74505805969E-08  0.93827000000E+00  0.93827000000E+00 0. -1.
     999902    2    1    2    0    0  0.64917669895E-02  0.12642776779E-01 -0.18227367658E-01  0.10208168052E+01  0.10205551087E+01 0.  0.
     999903    2    3    3    0    0 -0.19499307595E-01 -0.12076737191E+00  0.35831923951E-01  0.12874269909E+00  0.18049229388E-01 0.  0.
         14    1    1    2    0    0 -0.64917669895E-02 -0.12642776779E-01  0.18227367658E-01  0.23113194826E-01  0.00000000000E+00 0.  1.
     999901    1    3    3    0    0  0.25991074585E-01  0.13341014869E+00 -0.54059291609E-01  0.89207410608E+00  0.88000000000E+00 0. -1.
        -11    1    4    4    0    0  0.74845478059E-03 -0.30839728702E-01  0.14676548801E-01  0.34165937081E-01  0.51100000000E-03 0.  1.
         11    1    4    4    0    0 -0.20247762376E-01 -0.89927643207E-01  0.21155375150E-01  0.94576762012E-01  0.51100000000E-03 0. -1.
</event>
<event>
 8    1  0.9952977E+004  0.1043930E+01  0.7957747E-01            NaN
         13   -1    0    0    0    0  0.00000000000E+00  0.00000000000E+00  0.74505805969E-08  0.10566000000E+00  0.10566000000E+00 0. -1.
     999900   -1    0    0    0    0 -0.00000000000E+00 -0.00000000000E+00 -0.74505805969E-08  0.93827000000E+00  0.93827000000E+00 0. -1.
     999902    2    1    2    0    0  0.16101808413E-01 -0.14680478013E-01 -0.87020973351E-02  0.10204670256E+01  0.10201972550E+01 0.  0.
     999903    2    3    3    0    0  0.16667293796E-01 -0.11879585853E+00  0.52252309325E-01  0.13223520232E+00  0.19120413573E-01 0.  0.
         14    1    1    2    0    0 -0.16101808413E-01  0.14680478013E-01  0.87020973351E-02  0.23462974383E-01  0.00000000000E+00 0. -1.
     999901    1    3    3    0    0 -0.56548538290E-03  0.10411538052E+00 -0.60954406660E-01  0.88823182330E+00  0.88000000000E+00 0.  1.
        -11    1    4    4    0    0 -0.11992450387E-02 -0.37876452451E-01  0.99031941996E-02  0.39171395371E-01  0.51100000000E-03 0. -1.
         11    1    4    4    0    0  0.17866538835E-01 -0.80919406080E-01  0.42349115125E-01  0.93063806945E-01  0.51100000000E-03 0.  1.
</event>
<event>
 8    1  0.9952977E+004  0.1043930E+01  0.7957747E-01            NaN
         13   -1    0    0    0    0  0.00000000000E+00  0.00000000000E+00  0.74505805969E-08  0.10566000000E+00  0.10566000000E+00 0.  1.
     999900   -1    0    0    0    0 -0.00000000000E+00 -0.00000000000E+00 -0.74505805969E-08  0.93827000000E+00  0.93827000000E+00 0. -1.
     999902    2    1    2    0    0 -0.34977560935E-02  0.23910300411E-01 -0.39950731384E-02  0.10194371975E+01  0.10191429254E+01 0.  0.
     999903    2    3    3    0    0  0.90856394513E-01 -0.40236847829E-01  0.78585944399E-01  0.12823733957E+00  0.19879040647E-01 0.  0.
         14    1    1    2    0    0  0.34977560935E-02 -0.23910300411E-01  0.39950731384E-02  0.24492802469E-01  0.00000000000E+00 0.  1.
     999901    1    3    3    0    0 -0.94354150606E-01  0.64147148239E-01 -0.82581017537E-01  0.89119985796E+00  0.88000000000E+00 0.  1.
        -11    1    4    4    0    0  0.37035708065E-01 -0.22325068446E-01  0.44528676779E-01  0.62073476861E-01  0.51100000000E-03 0.  1.
         11    1    4    4    0    0  0.53820686448E-01 -0.17911779383E-01  0.34057267620E-01  0.66163862713E-01  0.51100000000E-03 0. -1.
</event>
<event>
 8    1  0.9952977E+004  0.1043930E+01  0.7957747E-01            NaN
         13   -1    0    0    0    0  0.00000000000E+00  0.00000000000E+00  0.74505805969E-08  0.10566000000E+00  0.10566000000E+00 0. -1.
     999900   -1    0    0    0    0 -0.00000000000E+00 -0.00000000000E+00 -0.74505805969E-08  0.93827000000E+00  0.93827000000E+00 0. -1.
     999902    2    1    2    0    0 -0.56588258118E-02 -0.22817412087E-01  0.50491217273E-03  0.10204159289E+01  0.10201449683E+01 0.  0.
     999903    2    3    3    0    0 -0.41921785337E-01 -0.10321023635E+00  0.70226939716E-01  0.13326364796E+00  0.20434965938E-01 0.  0.
         14    1    1    2    0    0  0.56588258118E-02  0.22817412087E-01 -0.50491217273E-03  0.23514071111E-01  0.00000000000E+00 0. -1.
     999901    1    3    3    0    0  0.36262959525E-01  0.80392824266E-01 -0.69722027543E-01  0.88715228093E+00  0.88000000000E+00 0. -1.
        -11    1    4    4    0    0 -0.31796856881E-01 -0.90250245694E-01  0.52773263317E-01  0.10927682919E+00  0.51100000000E-03 0. -1.
         11    1    4    4    0    0 -0.10124928457E-01 -0.12959990658E-01  0.17453676399E-01  0.23986818775E-01  0.51100000000E-03 0.  1.
</event>
<event>
 8    1  0.9952977E+004  0.1043930E+01  0.7957747E-01            NaN
         13   -1    0    0    0    0  0.00000000000E+00  0.00000000000E+00  0.74505805969E-08  0.10566000000E+00  0.10566000000E+00 0. -1.
     999900   -1    0    0    0    0 -0.00000000000E+00 -0.00000000000E+00 -0.74505805969E-08  0.93827000000E+00  0.93827000000E+00 0. -1.
     999902    2    1    2    0    0  0.13072209769E-01  0.17511571466E-01  0.10346488719E-01  0.10197517529E+01  0.10194650803E+01 0.  0.
     999903    2    3    3    0    0  0.16811537202E-01  0.53996229884E-02 -0.12636724279E+00  0.12910517528E+00  0.19689655222E-01 0.  0.
         14    1    1    2    0    0 -0.13072209769E-01 -0.17511571466E-01 -0.10346488719E-01  0.24178247088E-01  0.00000000000E+00 0.  1.
     999901    1    3    3    0    0 -0.37393274333E-02  0.12111948477E-01  0.13671373151E+00  0.89064657763E+00  0.88000000000E+00 0.  1.
        -11    1    4    4    0    0  0.85776607759E-02 -0.69450074176E-02 -0.67273757969E-01  0.68174988263E-01  0.51100000000E-03 0. -1.
         11    1    4    4    0    0  0.82338764262E-02  0.12344630406E-01 -0.59093484818E-01  0.60930187016E-01  0.51100000000E-03 0.  1.
</event>
<event>
 8    1  0.9952977E+004  0.1043930E+01  0.7957747E-01            NaN
         13   -1    0    0    0    0  0.00000000000E+00  0.00000000000E+00  0.74505805969E-08  0.10566000000E+00  0.10566000000E+00 0.  1.
     999900   -1    0    0    0    0 -0.00000000000E+00 -0.00000000000E+00 -0.74505805969E-08  0.93827000000E+00  0.93827000000E+00 0.  1.
     999902    2    1    2    0    0  0.11554689908E-01  0.10504311177E-01 -0.18101422563E-01  0.10200236638E+01  0.10197434784E+01 0.  0.
     999903    2    3    3    0    0 -0.11413118272E+00  0.58020992692E-01 -0.47229195277E-02  0.12972385028E+00  0.20337376874E-01 0.  0.
         14    1    1    2    0    0 -0.11554689908E-01 -0.10504311177E-01  0.18101422563E-01  0.23906336210E-01  0.00000000000E+00 0.  1.
     999901    1    3    3    0    0  0.12568587263E+00 -0.47516681516E-01 -0.13378503036E-01  0.89029981352E+00  0.88000000000E+00 0. -1.
        -11    1    4    4    0    0 -0.44623738562E-01  0.14132720579E-01 -0.78220505341E-02  0.47460061418E-01  0.51100000000E-03 0.  1.
         11    1    4    4    0    0 -0.69507444162E-01  0.43888272114E-01  0.30991310063E-02  0.82263788857E-01  0.51100000000E-03 0. -1.
</event>
<event>
 8    1  0.9952977E+004  0.1043930E+01  0.7957747E-01            NaN
         13   -1    0    0    0    0  0.00000000000E+00  0.00000000000E+00  0.74505805969E-08  0.10566000000E+00  0.10566000000E+00 0.  1.
     999900   -1    0    0    0    0 -0.00000000000E+00 -0.00000000000E+00 -0.74505805969E-08  0.93827000000E+00  0.93827000000E+00 0.  1.
     999902    2    1    2    0    0 -0.12015618052E-01 -0.19698970840E-01  0.56927932989E-02  0.10201637966E+01  0.10198869248E+01 0.  0.
     999903    2    3    3    0    0 -0.69806634558E-01 -0.34806128388E-01 -0.10376412000E+00  0.13137313300E+00  0.20186001912E-01 0.  0.
         14    1    1    2    0    0  0.12015618052E-01  0.19698970840E-01 -0.56927932989E-02  0.23766203418E-01  0.00000000000E+00 0.  1.
     999901    1    3    3    0    0  0.57791016506E-01  0.15107157548E-01  0.10945691330E+00  0.88879066358E+00  0.88000000000E+00 0. -1.
        -11    1    4    4    0    0 -0.18188228068E-01 -0.18964584961E-01 -0.28839491535E-01  0.39018515041E-01  0.51100000000E-03 0.  1.
         11    1    4    4    0    0 -0.51618406490E-01 -0.15841543427E-01 -0.74924628468E-01  0.92354617961E-01  0.51100000000E-03 0. -1.
</event>
<event>
 8    1  0.9952977E+004  0.1043930E+01  0.7957747E-01            NaN
         13   -1    0    0    0    0  0.00000000000E+00  0.00000000000E+00  0.74505805969E-08  0.10566000000E+00  0.10566000000E+00 0.  1.
     999900   -1    0    0    0    0 -0.00000000000E+00 -0.00000000000E+00 -0.74505805969E-08  0.93827000000E+00  0.93827000000E+00 0.  1.
     999902    2    1    2    0    0  0.13279887442E-01  0.12180484158E-01 -0.23603820413E-01  0.10142338733E+01  0.10137990381E+01 0.  0.
     999903    2    3    3    0    0  0.77011629910E-01  0.82223991772E-01 -0.58273358824E-01  0.12847442237E+00  0.20452796655E-01 0.  0.
         14    1    1    2    0    0 -0.13279887442E-01 -0.12180484158E-01  0.23603820413E-01  0.29696126732E-01  0.00000000000E+00 0.  1.
     999901    1    3    3    0    0 -0.63731742468E-01 -0.70043507613E-01  0.34669538411E-01  0.88575945090E+00  0.88000000000E+00 0. -1.
        -11    1    4    4    0    0  0.41619733514E-01  0.30608745757E-01 -0.22167523360E-01  0.56220616748E-01  0.51100000000E-03 0. -1.
         11    1    4    4    0    0  0.35391896396E-01  0.51615246015E-01 -0.36105835464E-01  0.72253805625E-01  0.51100000000E-03 0.  1.
</event>
<event>
 8    1  0.9952977E+004  0.1043930E+01  0.7957747E-01            NaN
         13   -1    0    0    0    0  0.00000000000E+00  0.00000000000E+00  0.74505805969E-08  0.10566000000E+00  0.10566000000E+00 0.  1.
     999900   -1    0    0    0    0 -0.00000000000E+00 -0.00000000000E+00 -0.74505805969E-08  0.93827000000E+00  0.93827000000E+00 0. -1.
     999902    2    1    2    0    0  0.22911552712E-01  0.53862876289E-02 -0.42674191420E-02  0.10200100876E+01  0.10197295802E+01 0.  0.
     999903    2    3    3    0    0 -0.89263699226E-01  0.85697649956E-01  0.29605002748E-01  0.12861761344E+00  0.18813269019E-01 0.  0.
         14    1    1    2    0    0 -0.22911552712E-01 -0.53862876289E-02  0.42674191420E-02  0.23919912379E-01  0.00000000000E+00 0. -1.
     999901    1    3    3    0    0  0.11217525194E+00 -0.80311362327E-01 -0.33872421890E-01  0.89139247418E+00  0.88000000000E+00 0. -1.
        -11    1    4    4    0    0 -0.47075843648E-01  0.32743566148E-01  0.16282254264E-01  0.59612491175E-01  0.51100000000E-03 0.  1.
         11    1    4    4    0    0 -0.42187855578E-01  0.52954083808E-01  0.13322748485E-01  0.69005122262E-01  0.51100000000E-03 0. -1.
</event>
<event>
 8    1  0.9952977E+004  0.1043930E+01  0.7957747E-01            NaN
         13   -1    0    0    0    0  0.00000000000E+00  0.00000000000E+00  0.74505805969E-08  0.10566000000E+00  0.10566000000E+00 0. -1.
     999900   -1    0    0    0    0 -0.00000000000E+00 -0.00000000000E+00 -0.74505805969E-08  0.93827000000E+00  0.93827000000E+00 0.  1.
     999902    2    1    2    0    0 -0.23217775476E-01 -0.97693368563E-02  0.50658545114E-03  0.10187355230E+01  0.10184239315E+01 0.  0.
     999903    2    3    3    0    0  0.13095786695E-01  0.11967039246E+00 -0.37759339721E-01  0.12770376190E+00  0.19747926609E-01 0.  0.
         14    1    1    2    0    0  0.23217775476E-01  0.97693368563E-02 -0.50658545114E-03  0.25194476964E-01  0.00000000000E+00 0. -1.
     999901    1    3    3    0    0 -0.36313562172E-01 -0.12943972932E+00  0.38265925173E-01  0.89103176114E+00  0.88000000000E+00 0.  1.
        -11    1    4    4    0    0  0.82729320505E-02  0.10237051153E+00 -0.38594242677E-01  0.10971754520E+00  0.51100000000E-03 0. -1.
         11    1    4    4    0    0  0.48228546450E-02  0.17299880935E-01  0.83490295527E-03  0.17986216702E-01  0.51100000000E-03 0.  1.
</event>
<event>
 8    1  0.9952977E+004  0.1043930E+01  0.7957747E-01            NaN
         13   -1    0    0    0    0  0.00000000000E+00  0.00000000000E+00  0.74505805969E-08  0.10566000000E+00  0.10566000000E+00 0.  1.
     999900   -1    0    0    0    0 -0.00000000000E+00 -0.00000000000E+00 -0.74505805969E-08  0.93827000000E+00  0.93827000000E+00 0.  1.
     999902    2    1    2    0    0 -0.56762743103E-02  0.19894943258E-01  0.11060412578E-01  0.10204702135E+01  0.10202005171E+01 0.  0.
     999903    2    3    3    0    0  0.66939407589E-01  0.51046355476E-01 -0.97421741603E-01  0.13029504784E+00  0.19979716187E-01 0.  0.
         14    1    1    2    0    0  0.56762743103E-02 -0.19894943258E-01 -0.11060412578E-01  0.23459786522E-01  0.00000000000E+00 0. -1.
     999901    1    3    3    0    0 -0.72615681900E-01 -0.31151412219E-01  0.10848215418E+00  0.89017516564E+00  0.88000000000E+00 0. -1.
        -11    1    4    4    0    0  0.46537724140E-01  0.45005070610E-01 -0.79057483316E-01  0.10218396615E+00  0.51100000000E-03 0. -1.
         11    1    4    4    0    0  0.20401683450E-01  0.60412848664E-02 -0.18364258287E-01  0.28111081691E-01  0.51100000000E-03 0.  1.
</event>
<event>
 8    1  0.9952977E+004  0.1043930E+01  0.7957747E-01            NaN
         13   -1    0    0    0    0  0.00000000000E+00  0.00000000000E+00  0.74505805969E-08  0.10566000000E+00  0.10566000000E+00 0.  1.
     999900   -1    0    0    0    0 -0.00000000000E+00 -0.00000000000E+00 -0.74505805969E-08  0.93827000000E+00  0.93827000000E+00 0. -1.
     999902    2    1    2    0    0 -0.10093661052E-01 -0.12472526105E-01 -0.17583874917E-01  0.10201258290E+01  0.10198480614E+01 0.  0.
     999903    2    3    3    0    0  0.69199634342E-01  0.29061976421E-01 -0.10578678869E+00  0.13119821911E+00  0.19721566061E-01 0.  0.
         14    1    1    2    0    0  0.10093661052E-01  0.12472526105E-01  0.17583874917E-01  0.23804171021E-01  0.00000000000E+00 0.  1.
     999901    1    3    3    0    0 -0.79293295394E-01 -0.41534502526E-01  0.88202913777E-01  0.88892760987E+00  0.88000000000E+00 0.  1.
        -11    1    4    4    0    0  0.12076421883E-01 -0.12632430370E-02 -0.24253022703E-01  0.27127587060E-01  0.51100000000E-03 0. -1.
         11    1    4    4    0    0  0.57123212459E-01  0.30325219458E-01 -0.81533765992E-01  0.10407063205E+00  0.51100000000E-03 0.  1.
</event>
<event>
 8    1  0.9952977E+004  0.1043930E+01  0.7957747E-01            NaN
         13   -1    0    0    0    0  0.00000000000E+00  0.00000000000E+00  0.74505805969E-08  0.10566000000E+00  0.10566000000E+00 0.  1.
     999900   -1    0    0    0    0 -0.00000000000E+00 -0.00000000000E+00 -0.74505805969E-08  0.93827000000E+00  0.93827000000E+00 0.  1.
     999902    2    1    2    0    0  0.19041190201E-01 -0.18406804703E-01 -0.28630127400E-02  0.10172921655E+01  0.10169433494E+01 0.  0.
     999903    2    3    3    0    0  0.20157182102E-01  0.12246145721E+00  0.96740326709E-02  0.12599968258E+00  0.19473382073E-01 0.  0.
         14    1    1    2    0    0 -0.19041190201E-01  0.18406804703E-01  0.28630127400E-02  0.26637834476E-01  0.00000000000E+00 0. -1.
     999901    1    3    3    0    0 -0.11159919007E-02 -0.14086826191E+00 -0.12537045411E-01  0.89129248295E+00  0.88000000000E+00 0. -1.
        -11    1    4    4    0    0  0.20130086033E-01  0.76348672953E-01  0.39857139998E-03  0.78960497754E-01  0.51100000000E-03 0. -1.
         11    1    4    4    0    0  0.27096068692E-04  0.46112784255E-01  0.92754612709E-02  0.47039184822E-01  0.51100000000E-03 0.  1.
</event>
<event>
 8    1  0.9952977E+004  0.1043930E+01  0.7957747E-01            NaN
         13   -1    0    0    0    0  0.00000000000E+00  0.00000000000E+00  0.74505805969E-08  0.10566000000E+00  0.10566000000E+00 0.  1.
     999900   -1    0    0    0    0 -0.00000000000E+00 -0.00000000000E+00 -0.74505805969E-08  0.93827000000E+00  0.93827000000E+00 0. -1.
     999902    2    1    2    0    0  0.18920733595E-01 -0.97432623081E-02 -0.20033777006E-01  0.10147019734E+01  0.10142809360E+01 0.  0.
     999903    2    3    3    0    0 -0.10265753570E+00  0.62330346256E-01 -0.20643400455E-01  0.12342409735E+00  0.19588673389E-01 0.  0.
         14    1    1    2    0    0 -0.18920733595E-01  0.97432623081E-02  0.20033777006E-01  0.29228026641E-01  0.00000000000E+00 0.  1.
     999901    1    3    3    0    0  0.12157826929E+00 -0.72073608565E-01  0.60962344902E-03  0.89127787601E+00  0.88000000000E+00 0. -1.
        -11    1    4    4    0    0 -0.37595776407E-01  0.15891533988E-01  0.17898772123E-03  0.40820049164E-01  0.51100000000E-03 0. -1.
         11    1    4    4    0    0 -0.65061759291E-01  0.46438812268E-01 -0.20822388176E-01  0.82604048189E-01  0.51100000000E-03 0.  1.
</event>
<event>
 8    1  0.9952977E+004  0.1043930E+01  0.7957747E-01            NaN
         13   -1    0    0    0    0  0.00000000000E+00  0.00000000000E+00  0.74505805969E-08  0.10566000000E+00  0.10566000000E+00 0. -1.
     999900   -1    0    0    0    0 -0.00000000000E+00 -0.00000000000E+00 -0.74505805969E-08  0.93827000000E+00  0.93827000000E+00 0. -1.
     999902    2    1    2    0    0  0.20875304436E-01 -0.98071873403E-02  0.15335106865E-03  0.10208652482E+01  0.10206046601E+01 0.  0.
     999903    2    3    3    0    0 -0.97562172035E-01  0.79477211684E-01 -0.20831310023E-01  0.12820658122E+00  0.12960686769E-01 0.  0.
         14    1    1    2    0    0 -0.20875304436E-01  0.98071873403E-02 -0.15335106865E-03  0.23064751795E-01  0.00000000000E+00 0.  1.
     999901    1    3    3    0    0  0.11843747647E+00 -0.89284399024E-01  0.20984661092E-01  0.89265866698E+00  0.88000000000E+00 0.  1.
        -11    1    4    4    0    0 -0.48464818417E-01  0.33884505621E-01 -0.49365505595E-02  0.59343314685E-01  0.51100000000E-03 0. -1.
         11    1    4    4    0    0 -0.49097353619E-01  0.45592706063E-01 -0.15894759463E-01  0.68863266535E-01  0.51100000000E-03 0.  1.
</event>
<event>
 8    1  0.9952977E+004  0.1043930E+01  0.7957747E-01            NaN
         13   -1    0    0    0    0  0.00000000000E+00  0.00000000000E+00  0.74505805969E-08  0.10566000000E+00  0.10566000000E+00 0. -1.
     999900   -1    0    0    0    0 -0.00000000000E+00 -0.00000000000E+00 -0.74505805969E-08  0.93827000000E+00  0.93827000000E+00 0. -1.
     999902    2    1    2    0    0 -0.11524280509E-02 -0.62958546765E-02 -0.22408674631E-01  0.10206251813E+01  0.10203590770E+01 0.  0.
     999903    2    3    3    0    0  0.65779854312E-01  0.71148132147E-01 -0.87942192615E-01  0.13227156729E+00  0.19310420268E-01 0.  0.
         14    1    1    2    0    0  0.11524280509E-02  0.62958546765E-02  0.22408674631E-01  0.23304818713E-01  0.00000000000E+00 0. -1.
     999901    1    3    3    0    0 -0.66932282363E-01 -0.77443986823E-01  0.65533517983E-01  0.88835361399E+00  0.88000000000E+00 0.  1.
        -11    1    4    4    0    0  0.23758284890E-01  0.19850425080E-01 -0.17673411682E-01  0.35652574637E-01  0.51100000000E-03 0. -1.
         11    1    4    4    0    0  0.42021569422E-01  0.51297707067E-01 -0.70268780933E-01  0.96618992656E-01  0.51100000000E-03 0.  1.
</event>
<event>
 8    1  0.9952977E+004  0.1043930E+01  0.7957747E-01            NaN
         13   -1    0    0    0    0  0.00000000000E+00  0.00000000000E+00  0.74505805969E-08  0.10566000000E+00  0.10566000000E+00 0. -1.
     999900   -1    0    0    0    0 -0.00000000000E+00 -0.00000000000E+00 -0.74505805969E-08  0.93827000000E+00  0.93827000000E+00 0.  1.
     999902    2    1    2    0    0 -0.31876127193E-02 -0.29300377099E-01 -0.21433844688E-02  0.10143789075E+01  0.10139483719E+01 0.  0.
     999903    2    3    3    0    0 -0.98628934471E-01 -0.16240847743E-01 -0.74487514689E-01  0.12617100929E+00  0.19475674326E-01 0.  0.
         14    1    1    2    0    0  0.31876127193E-02  0.29300377099E-01  0.21433844688E-02  0.29551092534E-01  0.00000000000E+00 0. -1.
     999901    1    3    3    0    0  0.95441321752E-01 -0.13059529356E-01  0.72344130220E-01  0.88820789818E+00  0.88000000000E+00 0. -1.
        -11    1    4    4    0    0 -0.54327010229E-01 -0.14633027953E-01 -0.51290596746E-01  0.76134985277E-01  0.51100000000E-03 0. -1.
         11    1    4    4    0    0 -0.44301924242E-01 -0.16078197893E-02 -0.23196917942E-01  0.50036024013E-01  0.51100000000E-03 0.  1.
</event>
<event>
 8    1  0.1023332E+005  0.1043930E+01  0.7957747E-01            NaN
         13   -1    0    0    0    0  0.00000000000E+00  0.00000000000E+00  0.74505805969E-08  0.10566000000E+00  0.10566000000E+00 0.  1.
     999900   -1    0    0    0    0 -0.00000000000E+00 -0.00000000000E+00 -0.74505805969E-08  0.93827000000E+00  0.93827000000E+00 0. -1.
     999902    2    1    2    0    0  0.78776315259E-02  0.20024351456E-01  0.93000481862E-02  0.10204881011E+01  0.10202188205E+01 0.  0.
     999903    2    3    3    0    0 -0.22757892337E-01 -0.12105365496E+00  0.31356728666E-01  0.12845220695E+00  0.18569221731E-01 0.  0.
         14    1    1    2    0    0 -0.78776315259E-02 -0.20024351456E-01 -0.93000481862E-02  0.23441898941E-01  0.00000000000E+00 0. -1.
     999901    1    3    3    0    0  0.30635523863E-01  0.14107800642E+00 -0.22056680480E-01  0.89203589410E+00  0.88000000000E+00 0.  1.
        -11    1    4    4    0    0 -0.17220755510E-01 -0.53828721435E-01  0.20544134486E-01  0.60136580003E-01  0.51100000000E-03 0. -1.
         11    1    4    4    0    0 -0.55371368264E-02 -0.67224933526E-01  0.10812594180E-01  0.68315626951E-01  0.51100000000E-03 0.  1.
</event>
<event>
 8    1  0.9952977E+004  0.1043930E+01  0.7957747E-01            NaN
         13   -1    0    0    0    0  0.00000000000E+00  0.00000000000E+00  0.74505805969E-08  0.10566000000E+00  0.10566000000E+00 0. -1.
     999900   -1    0    0    0    0 -0.00000000000E+00 -0.00000000000E+00 -0.74505805969E-08  0.93827000000E+00  0.93827000000E+00 0.  1.
     999902    2    1    2    0    0  0.80277697654E-02  0.15905330833E-01 -0.15884507812E-01  0.10200607263E+01  0.10197814193E+01 0.  0.
     999903    2    3    3    0    0  0.58135040656E-01  0.11125868190E+00 -0.39586438578E-01  0.13317585125E+00  0.20261885070E-01 0.  0.
         14    1    1    2    0    0 -0.80277697654E-02 -0.15905330833E-01  0.15884507812E-01  0.23869273653E-01  0.00000000000E+00 0. -1.
     999901    1    3    3    0    0 -0.50107270890E-01 -0.95353351065E-01  0.23701930767E-01  0.88688487510E+00  0.88000000000E+00 0.  1.
        -11    1    4    4    0    0  0.27087647402E-01  0.72969525786E-01 -0.23030682595E-01  0.81172444814E-01  0.51100000000E-03 0.  1.
         11    1    4    4    0    0  0.31047393253E-01  0.38289156112E-01 -0.16555755984E-01  0.52003406435E-01  0.51100000000E-03 0. -1.
</event>
<event>
 8    1  0.9952977E+004  0.1043930E+01  0.7957747E-01            NaN
         13   -1    0    0    0    0  0.00000000000E+00  0.00000000000E+00  0.74505805969E-08  0.10566000000E+00  0.10566000000E+00 0. -1.
     999900   -1    0    0    0    0 -0.00000000000E+00 -0.00000000000E+00 -0.74505805969E-08  0.93827000000E+00  0.93827000000E+00 0.  1.
     999902    2    1    2    0    0 -0.11825108678E-01 -0.19342466824E-01  0.26827109429E-02  0.10211010457E+01  0.10208458181E+01 0.  0.
     999903    2    3    3    0    0  0.91608341858E-01  0.73556759811E-02 -0.89643601162E-01  0.12984607798E+00  0.19437964646E-01 0.  0.
         14    1    1    2    0    0  0.11825108678E-01  0.19342466824E-01 -0.26827109429E-02  0.22828954336E-01  0.00000000000E+00 0. -1.
     999901    1    3    3    0    0 -0.10343345054E+00 -0.26698142805E-01  0.92326312105E-01  0.89125496769E+00  0.88000000000E+00 0. -1.
        -11    1    4    4    0    0  0.82072822368E-01  0.31946630076E-02 -0.85708253031E-01  0.11871107700E+00  0.51100000000E-03 0. -1.
         11    1    4    4    0    0  0.95355194899E-02  0.41610129735E-02 -0.39353481313E-02  0.11135000980E-01  0.51100000000E-03 0.  1.
</event>
<event>
 8    1  0.9952977E+004  0.1043930E+01  0.7957747E-01            NaN
         13   -1    0    0    0    0  0.00000000000E+00  0.00000000000E+00  0.74505805969E-08  0.10566000000E+00  0.10566000000E+00 0. -1.
     999900   -1    0    0    0    0 -0.00000000000E+00 -0.00000000000E+00 -0.74505805969E-08  0.93827000000E+00  0.93827000000E+00 0. -1.
     999902    2    1    2    0    0  0.31377533390E-02 -0.52458243086E-02  0.23330653673E-01  0.10198118830E+01  0.10195266515E+01 0.  0.
     999903    2    3    3    0    0  0.21246767335E-01  0.99751077263E-01  0.78320235488E-01  0.13168118321E+00  0.28357929897E-01 0.  0.
         14    1    1    2    0    0 -0.31377533390E-02  0.52458243086E-02 -0.23330653673E-01  0.24118117039E-01  0.00000000000E+00 0.  1.
     999901    1    3    3    0    0 -0.18109013996E-01 -0.10499690157E+00 -0.54989581815E-01  0.88813069975E+00  0.88000000000E+00 0.  1.
        -11    1    4    4    0    0  0.14637938836E-01  0.89827405521E-01  0.57417366925E-01  0.10761155691E+00  0.51100000000E-03 0. -1.
         11    1    4    4    0    0  0.66088284991E-02  0.99236717422E-02  0.20902868562E-01  0.24069626298E-01  0.51100000000E-03 0.  1.
</event>
<event>
 8    1  0.9952977E+004  0.1043930E+01  0.7957747E-01            NaN
         13   -1    0    0    0    0  0.00000000000E+00  0.00000000000E+00  0.74505805969E-08  0.10566000000E+00  0.10566000000E+00 0.  1.
     999900   -1    0    0    0    0 -0.00000000000E+00 -0.00000000000E+00 -0.74505805969E-08  0.93827000000E+00  0.93827000000E+00 0. -1.
     999902    2    1    2    0    0  0.11458023616E-01 -0.18481364427E-01  0.10299304435E-02  0.10221605744E+01  0.10219287313E+01 0.  0.
     999903    2    3    3    0    0  0.25773031211E-01  0.12272879309E+00  0.29819964906E-01  0.13032309246E+00  0.19190422885E-01 0.  0.
         14    1    1    2    0    0 -0.11458023616E-01  0.18481364427E-01 -0.10299304435E-02  0.21769425647E-01  0.00000000000E+00 0. -1.
     999901    1    3    3    0    0 -0.14315007596E-01 -0.14121015751E+00 -0.28790034462E-01  0.89183748189E+00  0.88000000000E+00 0.  1.
        -11    1    4    4    0    0  0.25782288440E-01  0.10375109650E+00  0.19356621149E-01  0.10864601385E+00  0.51100000000E-03 0. -1.
         11    1    4    4    0    0 -0.92572282409E-05  0.18977696590E-01  0.10463343756E-01  0.21677078612E-01  0.51100000000E-03 0.  1.
</event>
<event>
 8    1  0.9952977E+004  0.1043930E+01  0.7957747E-01            NaN
         13   -1    0    0    0    0  0.00000000000E+00  0.00000000000E+00  0.74505805969E-08  0.10566000000E+00  0.10566000000E+00 0.  1.
     999900   -1    0    0    0    0 -0.00000000000E+00 -0.00000000000E+00 -0.74505805969E-08  0.93827000000E+00  0.93827000000E+00 0.  1.
     999902    2    1    2    0    0 -0.18552014531E-01  0.13776178606E-01 -0.42036913181E-02  0.10204431662E+01  0.10201728403E+01 0.  0.
     999903    2    3    3    0    0 -0.85687254849E-01 -0.33265688953E-02  0.98118152710E-01  0.13180971860E+00  0.19830741861E-01 0.  0.
         14    1    1    2    0    0  0.18552014531E-01 -0.13776178606E-01  0.42036913181E-02  0.23486833776E-01  0.00000000000E+00 0. -1.
     999901    1    3    3    0    0  0.67135240319E-01  0.17102747502E-01 -0.10232184403E+00  0.88863344762E+00  0.88000000000E+00 0. -1.
        -11    1    4    4    0    0 -0.78231670317E-01  0.25808814917E-02  0.90148502008E-01  0.11938956707E+00  0.51100000000E-03 0.  1.
         11    1    4    4    0    0 -0.74555845325E-02 -0.59074503870E-02  0.79696507019E-02  0.12420151533E-01  0.51100000000E-03 0. -1.
</event>
<event>
 8    1  0.9952977E+004  0.1043930E+01  0.7957747E-01            NaN
         13   -1    0    0    0    0  0.00000000000E+00  0.00000000000E+00  0.74505805969E-08  0.10566000000E+00  0.10566000000E+00 0.  1.
     999900   -1    0    0    0    0 -0.00000000000E+00 -0.00000000000E+00 -0.74505805969E-08  0.93827000000E+00  0.93827000000E+00 0. -1.
     999902    2    1    2    0    0  0.23012844160E-01 -0.48527399940E-03 -0.75632581733E-02  0.10197013112E+01  0.10194134268E+01 0.  0.
     999903    2    3    3    0    0  0.91454126953E-01  0.84919606547E-02 -0.93838154977E-01  0.13279198226E+00  0.19802537458E-01 0.  0.
         14    1    1    2    0    0 -0.23012844160E-01  0.48527399940E-03  0.75632581733E-02  0.24228688809E-01  0.00000000000E+00 0. -1.
     999901    1    3    3    0    0 -0.68441282792E-01 -0.89772346542E-02  0.86274896804E-01  0.88690932893E+00  0.88000000000E+00 0.  1.
        -11    1    4    4    0    0  0.48783500311E-01  0.29441672416E-02 -0.36004622317E-01  0.60704958385E-01  0.51100000000E-03 0. -1.
         11    1    4    4    0    0  0.42670626641E-01  0.55477934132E-02 -0.57833532660E-01  0.72087023872E-01  0.51100000000E-03 0.  1.
</event>
<event>
 8    1  0.9952977E+004  0.1043930E+01  0.7957747E-01            NaN
         13   -1    0    0    0    0  0.00000000000E+00  0.00000000000E+00  0.74505805969E-08  0.10566000000E+00  0.10566000000E+00 0.  1.
     999900   -1    0    0    0    0 -0.00000000000E+00 -0.00000000000E+00 -0.74505805969E-08  0.93827000000E+00  0.93827000000E+00 0.  1.
     999902    2    1    2    0    0 -0.19688087304E-01  0.93587843316E-02  0.86932380689E-02  0.10204612971E+01  0.10201913933E+01 0.  0.
     999903    2    3    3    0    0  0.11063245470E+00 -0.53574318227E-02  0.63177330434E-01  0.12907556301E+00  0.20022082230E-01 0.  0.
         14    1    1    2    0    0  0.19688087304E-01 -0.93587843316E-02 -0.86932380689E-02  0.23468702861E-01  0.00000000000E+00 0. -1.
     999901    1    3    3    0    0 -0.13032054201E+00  0.14716216154E-01 -0.54484092365E-01  0.89138573413E+00  0.88000000000E+00 0.  1.
        -11    1    4    4    0    0  0.17445635974E-01 -0.11351376223E-02  0.19114244027E-01  0.25908573825E-01  0.51100000000E-03 0. -1.
         11    1    4    4    0    0  0.93186818727E-01 -0.42222942003E-02  0.44063086408E-01  0.10316698919E+00  0.51100000000E-03 0.  1.
</event>
<event>
 8    1  0.9952977E+004  0.1043930E+01  0.7957747E-01            NaN
         13   -1    0    0    0    0  0.00000000000E+00  0.00000000000E+00  0.74505805969E-08  0.10566000000E+00  0.10566000000E+00 0. -1.
     999900   -1    0    0    0    0 -0.00000000000E+00 -0.00000000000E+00 -0.74505805969E-08  0.93827000000E+00  0.93827000000E+00 0.  1.
     999902    2    1    2    0    0  0.20455395364E-01  0.80860518192E-02  0.82437687939E-02  0.10204402755E+01  0.10201698823E+01 0.  0.
     999903    2    3    3    0    0  0.10084158276E-01 -0.12095538001E+00 -0.42866039244E-01  0.12950174441E+00  0.14188385565E-01 0.  0.
         14    1    1    2    0    0 -0.20455395364E-01 -0.80860518192E-02 -0.82437687939E-02  0.23489724507E-01  0.00000000000E+00 0.  1.
     999901    1    3    3    0    0  0.10371237088E-01  0.12904143182E+00  0.51109808038E-01  0.89093853108E+00  0.88000000000E+00 0.  1.
        -11    1    4    4    0    0  0.18452663149E-02 -0.16115801762E-01 -0.83868955268E-03  0.16250802915E-01  0.51100000000E-03 0. -1.
         11    1    4    4    0    0  0.82388919608E-02 -0.10483957824E+00 -0.42027349691E-01  0.11325094150E+00  0.51100000000E-03 0.  1.
</event>
<event>
 8    1  0.9952977E+004  0.1043930E+01  0.7957747E-01            NaN
         13   -1    0    0    0    0  0.00000000000E+00  0.00000000000E+00  0.74505805969E-08  0.10566000000E+00  0.10566000000E+00 0. -1.
     999900   -1    0    0    0    0 -0.00000000000E+00 -0.00000000000E+00 -0.74505805969E-08  0.93827000000E+00  0.93827000000E+00 0.  1.
     999902    2    1    2    0    0  0.11481239209E-01 -0.21370468226E-01 -0.81733147430E-02  0.10183308039E+01  0.10180089918E+01 0.  0.
     999903    2    3    3    0    0  0.51436683885E-01  0.78347893526E-01  0.83501699643E-01  0.12707074227E+00  0.19756387041E-01 0.  0.
         14    1    1    2    0    0 -0.11481239209E-01  0.21370468226E-01  0.81733147430E-02  0.25599196079E-01  0.00000000000E+00 0.  1.
     999901    1    3    3    0    0 -0.39955444676E-01 -0.99718361752E-01 -0.91675014386E-01  0.89126006165E+00  0.88000000000E+00 0.  1.
        -11    1    4    4    0    0  0.33048635186E-01  0.33520716546E-01  0.36536868395E-01  0.59590725776E-01  0.51100000000E-03 0. -1.
         11    1    4    4    0    0  0.18388048699E-01  0.44827176980E-01  0.46964831248E-01  0.67480016495E-01  0.51100000000E-03 0.  1.
</event>
<event>
 8    1  0.9952977E+004  0.1043930E+01  0.7957747E-01            NaN
         13   -1    0    0    0    0  0.00000000000E+00  0.00000000000E+00  0.74505805969E-08  0.10566000000E+00  0.10566000000E+00 0. -1.
     999900   -1    0    0    0    0 -0.00000000000E+00 -0.00000000000E+00 -0.74505805969E-08  0.93827000000E+00  0.93827000000E+00 0. -1.
     999902    2    1    2    0    0  0.57163053970E-02 -0.16322967524E-01  0.16636998186E-01  0.10199319766E+01  0.10196496123E+01 0.  0.
     999903    2    3    3    0    0 -0.23419100405E-01  0.92181299131E-01  0.86396844817E-01  0.13005081382E+00  0.20073694420E-01 0.  0.
         14    1    1    2    0    0 -0.57163053970E-02  0.16322967524E-01 -0.16636998186E-01  0.23998023352E-01  0.00000000000E+00 0. -1.
     999901    1    3    3    0    0  0.29135405802E-01 -0.10850426665E+00 -0.69759846631E-01  0.88988116283E+00  0.88000000000E+00 0. -1.
        -11    1    4    4    0    0 -0.56938371032E-02  0.49444833615E-02  0.11248136696E-01  0.13551730399E-01  0.51100000000E-03 0. -1.
         11    1    4    4    0    0 -0.17725263301E-01  0.87236815769E-01  0.75148708121E-01  0.11649908342E+00  0.51100000000E-03 0.  1.
</event>
<event>
 8    1  0.9952977E+004  0.1043930E+01  0.7957747E-01            NaN
         13   -1    0    0    0    0  0.00000000000E+00  0.00000000000E+00  0.74505805969E-08  0.10566000000E+00  0.10566000000E+00 0. -1.
     999900   -1    0    0    0    0 -0.00000000000E+00 -0.00000000000E+00 -0.74505805969E-08  0.93827000000E+00  0.93827000000E+00 0. -1.
     999902    2    1    2    0    0 -0.22921280161E-01  0.39899180504E-02 -0.39039516025E-02  0.10203387862E+01  0.10200660240E+01 0.  0.
     999903    2    3    3    0    0  0.16181271635E-01  0.92057663097E-02  0.12681799557E+00  0.12980835882E+00  0.20514052089E-01 0.  0.
         14    1    1    2    0    0  0.22921280161E-01 -0.39899180504E-02  0.39039516025E-02  0.23591213796E-01  0.00000000000E+00 0. -1.
     999901    1    3    3    0    0 -0.39102551796E-01 -0.52158482593E-02 -0.13072194717E+00  0.89053042739E+00  0.88000000000E+00 0. -1.
        -11    1    4    4    0    0  0.55272512459E-02 -0.78299305185E-03  0.90317553441E-01  0.90491354090E-01  0.51100000000E-03 0. -1.
         11    1    4    4    0    0  0.10654020389E-01  0.99887593615E-02  0.36500442129E-01  0.39317004726E-01  0.51100000000E-03 0.  1.
</event>
<event>
 8    1  0.9952977E+004  0.1043930E+01  0.7957747E-01            NaN
         13   -1    0    0    0    0  0.00000000000E+00  0.00000000000E+00  0.74505805969E-08  0.10566000000E+00  0.10566000000E+00 0.  1.
     999900   -1    0    0    0    0 -0.00000000000E+00 -0.00000000000E+00 -0.74505805969E-08  0.93827000000E+00  0.93827000000E+00 0.  1.
     999902    2    1    2    0    0 -0.21548115633E-01  0.50266037236E-02 -0.87439452667E-02  0.10201383079E+01  0.10198608350E+01 0.  0.
     999903    2    3    3    0    0 -0.25013404033E-01 -0.57429312951E-01 -0.11399437777E+00  0.13166185733E+00  0.20404169771E-01 0.  0.
         14    1    1    2    0    0  0.21548115633E-01 -0.50266037236E-02  0.87439452667E-02  0.23791692062E-01  0.00000000000E+00 0.  1.
     999901    1    3    3    0    0  0.34652884003E-02  0.62455916674E-01  0.10525043250E+00  0.88847645061E+00  0.88000000000E+00 0. -1.
        -11    1    4    4    0    0 -0.26004212559E-01 -0.37174434881E-01 -0.83644344409E-01  0.95156687375E-01  0.51100000000E-03 0.  1.
         11    1    4    4    0    0  0.99080852595E-03 -0.20254878069E-01 -0.30350033360E-01  0.36505169950E-01  0.51100000000E-03 0. -1.
</event>
<event>
 8    1  0.9952977E+004  0.1043930E+01  0.7957747E-01            NaN
         13   -1    0    0    0    0  0.00000000000E+00  0.00000000000E+00  0.74505805969E-08  0.10566000000E+00  0.10566000000E+00 0. -1.
     999900   -1    0    0    0    0 -0.00000000000E+00 -0.00000000000E+00 -0.74505805969E-08  0.93827000000E+00  0.93827000000E+00 0. -1.
     999902    2    1    2    0    0  0.87146068653E-02  0.22453687096E-01  0.28762252732E-02  0.10196733492E+01  0.10193847919E+01 0.  0.
     999903    2    3    3    0    0 -0.39154776007E-01  0.65970644634E-01  0.10478951518E+00  0.13143265992E+00  0.20210867458E-01 0.  0.
         14    1    1    2    0    0 -0.87146068653E-02 -0.22453687096E-01 -0.28762252732E-02  0.24256650816E-01  0.00000000000E+00 0.  1.
     999901    1    3    3    0    0  0.47869382872E-01 -0.43516957539E-01 -0.10191328991E+00  0.88824068927E+00  0.88000000000E+00 0. -1.
        -11    1    4    4    0    0 -0.27986556845E-01  0.51050629490E-01  0.63624266293E-01  0.86242231637E-01  0.51100000000E-03 0.  1.
         11    1    4    4    0    0 -0.11168219162E-01  0.14920015144E-01  0.41165248888E-01  0.45190428280E-01  0.51100000000E-03 0. -1.
</event>
<event>
 8    1  0.9952977E+004  0.1043930E+01  0.7957747E-01            NaN
         13   -1    0    0    0    0  0.00000000000E+00  0.00000000000E+00  0.74505805969E-08  0.10566000000E+00  0.10566000000E+00 0. -1.
     999900   -1    0    0    0    0 -0.00000000000E+00 -0.00000000000E+00 -0.74505805969E-08  0.93827000000E+00  0.93827000000E+00 0.  1.
     999902    2    1    2    0    0  0.17024113896E-01 -0.17919059351E-01  0.53826468246E-02  0.10186340314E+01  0.10183198927E+01 0.  0.
     999903    2    3    3    0    0 -0.50700293849E-01 -0.78103338205E-01  0.88470344152E-01  0.13008898003E+00  0.20627401548E-01 0.  0.
         14    1    1    2    0    0 -0.17024113896E-01  0.17919059351E-01 -0.53826468246E-02  0.25295968627E-01  0.00000000000E+00 0. -1.
     999901    1    3    3    0    0  0.67724407745E-01  0.60184278855E-01 -0.83087697327E-01  0.88854505135E+00  0.88000000000E+00 0. -1.
        -11    1    4    4    0    0 -0.55004455839E-02 -0.13556022729E-01  0.24721686064E-01  0.28730533178E-01  0.51100000000E-03 0.  1.
         11    1    4    4    0    0 -0.45199848265E-01 -0.64547315476E-01  0.63748658088E-01  0.10135844685E+00  0.51100000000E-03 0. -1.
</event>
<event>
 8    1  0.9952977E+004  0.1043930E+01  0.7957747E-01            NaN
         13   -1    0    0    0    0  0.00000000000E+00  0.00000000000E+00  0.74505805969E-08  0.10566000000E+00  0.10566000000E+00 0. -1.
     999900   -1    0    0    0    0 -0.00000000000E+00 -0.00000000000E+00 -0.74505805969E-08  0.93827000000E+00  0.93827000000E+00 0. -1.
     999902    2    1    2    0    0  0.22198360178E-02  0.21054117276E-01 -0.70556993578E-02  0.10216143907E+01  0.10213706364E+01 0.  0.
     999903    2    3    3    0    0  0.42096380917E-01  0.63198914369E-01 -0.10841155137E+00  0.13389859635E+00  0.20237627559E-01 0.  0.
         14    1    1    2    0    0 -0.22198360178E-02 -0.21054117276E-01  0.70556993578E-02  0.22315609327E-01  0.00000000000E+00 0.  1.
     999901    1    3    3    0    0 -0.39876544899E-01 -0.42144797093E-01  0.10135585202E+00  0.88771579432E+00  0.88000000000E+00 0.  1.
        -11    1    4    4    0    0  0.92609032410E-02  0.30251632718E-01 -0.37162572225E-01  0.48808231952E-01  0.51100000000E-03 0.  1.
         11    1    4    4    0    0  0.32835477676E-01  0.32947281651E-01 -0.71248979148E-01  0.85090364396E-01  0.51100000000E-03 0. -1.
</event>
<event>
 8    1  0.9952977E+004  0.1043930E+01  0.7957747E-01            NaN
         13   -1    0    0    0    0  0.00000000000E+00  0.00000000000E+00  0.74505805969E-08  0.10566000000E+00  0.10566000000E+00 0. -1.
     999900   -1    0    0    0    0 -0.00000000000E+00 -0.00000000000E+00 -0.74505805969E-08  0.93827000000E+00  0.93827000000E+00 0.  1.
     999902    2    1    2    0    0 -0.21995148684E-02  0.21129356330E-01 -0.98472049211E-02  0.10205151541E+01  0.10202465019E+01 0.  0.
     999903    2    3    3    0    0  0.27363080300E-01 -0.86236074389E-01 -0.90859430760E-01  0.12980517688E+00  0.20212597512E-01 0.  0.
         14    1    1    2    0    0  0.21995148684E-02 -0.21129356330E-01  0.98472049211E-02  0.23414845918E-01  0.00000000000E+00 0.  1.
     999901    1    3    3    0    0 -0.29562595168E-01  0.10736543072E+00  0.81012225839E-01  0.89070997720E+00  0.88000000000E+00 0. -1.
        -11    1    4    4    0    0  0.28200101266E-01 -0.59870405278E-01 -0.61702959682E-01  0.90483299531E-01  0.51100000000E-03 0. -1.
         11    1    4    4    0    0 -0.83702096589E-03 -0.26365669111E-01 -0.29156471078E-01  0.39321877352E-01  0.51100000000E-03 0.  1.
</event>
<event>
 8    1  0.9952977E+004  0.1043930E+01  0.7957747E-01            NaN
         13   -1    0    0    0    0  0.00000000000E+00  0.00000000000E+00  0.74505805969E-08  0.10566000000E+00  0.10566000000E+00 0. -1.
     999900   -1    0    0    0    0 -0.00000000000E+00 -0.00000000000E+00 -0.74505805969E-08  0.93827000000E+00  0.93827000000E+00 0. -1.
     999902    2    1    2    0    0  0.16221936709E-01 -0.18122492636E-01  0.40914206339E-02  0.10192659433E+01  0.10189674909E+01 0.  0.
     999903    2    3    3    0    0 -0.89316605769E-01 -0.78205053480E-01  0.48622459230E-01  0.12981031683E+00  0.19826456012E-01 0.  0.
         14    1    1    2    0    0 -0.16221936709E-01  0.18122492636E-01 -0.40914206339E-02  0.24664056697E-01  0.00000000000E+00 0.  1.
     999901    1    3    3    0    0  0.10553854248E+00  0.60082560844E-01 -0.44531038596E-01  0.88945562647E+00  0.88000000000E+00 0. -1.
        -11    1    4    4    0    0 -0.33275312757E-01 -0.23205393345E-01  0.78146642274E-02  0.41316665129E-01  0.51100000000E-03 0. -1.
         11    1    4    4    0    0 -0.56041293012E-01 -0.54999660135E-01  0.40807795002E-01  0.88493651701E-01  0.51100000000E-03 0.  1.
</event>
<event>
 8    1  0.9952977E+004  0.1043930E+01  0.7957747E-01            NaN
         13   -1    0    0    0    0  0.00000000000E+00  0.00000000000E+00  0.74505805969E-08  0.10566000000E+00  0.10566000000E+00 0.  1.
     999900   -1    0    0    0    0 -0.00000000000E+00 -0.00000000000E+00 -0.74505805969E-08  0.93827000000E+00  0.93827000000E+00 0.  1.
     999902    2    1    2    0    0 -0.10119261728E-01 -0.17794905259E-01 -0.11221622906E-01  0.10205851305E+01  0.10203181002E+01 0.  0.
     999903    2    3    3    0    0 -0.12538270861E+00  0.10164990776E-01 -0.35208144837E-01  0.13230433526E+00  0.20992213051E-01 0.  0.
         14    1    1    2    0    0  0.10119261728E-01  0.17794905259E-01  0.11221622906E-01  0.23344869495E-01  0.00000000000E+00 0.  1.
     999901    1    3    3    0    0  0.11526344688E+00 -0.27959896036E-01  0.23986521931E-01  0.88828079525E+00  0.88000000000E+00 0.  1.
        -11    1    4    4    0    0 -0.77002419061E-01 -0.25770975164E-02 -0.26767987586E-01  0.81564699799E-01  0.51100000000E-03 0. -1.
         11    1    4    4    0    0 -0.48380289549E-01  0.12742088293E-01 -0.84401572504E-02  0.50739635457E-01  0.51100000000E-03 0.  1.
</event>
<event>
 8    1  0.9952977E+004  0.1043930E+01  0.7957747E-01            NaN
         13   -1    0    0    0    0  0.00000000000E+00  0.00000000000E+00  0.74505805969E-08  0.10566000000E+00  0.10566000000E+00 0.  1.
     999900   -1    0    0    0    0 -0.00000000000E+00 -0.00000000000E+00 -0.74505805969E-08  0.93827000000E+00  0.93827000000E+00 0.  1.
     999902    2    1    2    0    0 -0.22196159958E-01 -0.21787636306E-03  0.74915855314E-02  0.10205026476E+01  0.10202337050E+01 0.  0.
     999903    2    3    3    0    0 -0.83699069572E-01  0.99798059448E-01 -0.12891132903E-01  0.13247041253E+00  0.20421605485E-01 0.  0.
         14    1    1    2    0    0  0.22196159958E-01  0.21787636306E-03 -0.74915855314E-02  0.23427352407E-01  0.00000000000E+00 0. -1.
     999901    1    3    3    0    0  0.61502909614E-01 -0.10001593581E+00  0.20382718435E-01  0.88803223507E+00  0.88000000000E+00 0. -1.
        -11    1    4    4    0    0 -0.18728561057E-01  0.14686484260E-01  0.37792721717E-02  0.24103855259E-01  0.51100000000E-03 0.  1.
         11    1    4    4    0    0 -0.64970508515E-01  0.85111575188E-01 -0.16670405075E-01  0.10836655727E+00  0.51100000000E-03 0. -1.
</event>
<event>
 8    1  0.9952977E+004  0.1043930E+01  0.7957747E-01            NaN
         13   -1    0    0    0    0  0.00000000000E+00  0.00000000000E+00  0.74505805969E-08  0.10566000000E+00  0.10566000000E+00 0.  1.
     999900   -1    0    0    0    0 -0.00000000000E+00 -0.00000000000E+00 -0.74505805969E-08  0.93827000000E+00  0.93827000000E+00 0.  1.
     999902    2    1    2    0    0 -0.62922601649E-02 -0.86003462651E-02  0.17608779344E-01  0.10233477843E+01  0.10231407821E+01 0.  0.
     999903    2    3    3    0    0 -0.11291463892E+00  0.64993390415E-01  0.23021549324E-01  0.13384586309E+00  0.20269850832E-01 0.  0.
         14    1    1    2    0    0  0.62922601649E-02  0.86003462651E-02 -0.17608779344E-01  0.20582215717E-01  0.00000000000E+00 0. -1.
     999901    1    3    3    0    0  0.10662237875E+00 -0.73593736680E-01 -0.54127699805E-02  0.88950192119E+00  0.88000000000E+00 0.  1.
        -11    1    4    4    0    0 -0.86101918130E-01  0.55016857118E-01  0.24904576712E-01  0.10517078461E+00  0.51100000000E-03 0.  1.
         11    1    4    4    0    0 -0.26812720788E-01  0.99765332970E-02 -0.18830273878E-02  0.28675078480E-01  0.51100000000E-03 0. -1.
</event>
<event>
 8    1  0.9952977E+004  0.1043930E+01  0.7957747E-01            NaN
         13   -1    0    0    0    0  0.00000000000E+00  0.00000000000E+00  0.74505805969E-08  0.10566000000E+00  0.10566000000E+00 0. -1.
     999900   -1    0    0    0    0 -0.00000000000E+00 -0.00000000000E+00 -0.74505805969E-08  0.93827000000E+00  0.93827000000E+00 0.  1.
     999902    2    1    2    0    0  0.41365300707E-02 -0.14191072533E-01  0.18930387521E-01  0.10199121526E+01  0.10196293160E+01 0.  0.
     999903    2    3    3    0    0  0.12511668991E+00  0.24062873401E-01 -0.17288819312E-01  0.13007430538E+00  0.19677745693E-01 0.  0.
         14    1    1    2    0    0 -0.41365300707E-02  0.14191072533E-01 -0.18930387521E-01  0.24017847372E-01  0.00000000000E+00 0.  1.
     999901    1    3    3    0    0 -0.12098015984E+00 -0.38253945934E-01  0.36219206833E-01  0.88983784725E+00  0.88000000000E+00 0. -1.
        -11    1    4    4    0    0  0.10954444494E+00  0.19178718417E-01 -0.21363900960E-01  0.11324524733E+00  0.51100000000E-03 0.  1.
         11    1    4    4    0    0  0.15572244969E-01  0.48841549842E-02  0.40750816486E-02  0.16829058046E-01  0.51100000000E-03 0. -1.
</event>
<event>
 8    1  0.9952977E+004  0.1043930E+01  0.7957747E-01            NaN
         13   -1    0    0    0    0  0.00000000000E+00  0.00000000000E+00  0.74505805969E-08  0.10566000000E+00  0.10566000000E+00 0.  1.
     999900   -1    0    0    0    0 -0.00000000000E+00 -0.00000000000E+00 -0.74505805969E-08  0.93827000000E+00  0.93827000000E+00 0. -1.
     999902    2    1    2    0    0 -0.19330117496E-01  0.13426410041E-01 -0.10570477295E-02  0.10203707284E+01  0.10200987129E+01 0.  0.
     999903    2    3    3    0    0  0.85355359190E-01  0.20835634521E-01 -0.92749096466E-01  0.12940418724E+00  0.20576388713E-01 0.  0.
         14    1    1    2    0    0  0.19330117496E-01 -0.13426410041E-01  0.10570477295E-02  0.23559271613E-01  0.00000000000E+00 0.  1.
     999901    1    3    3    0    0 -0.10468547669E+00 -0.74092244801E-02  0.91692048737E-01  0.89096654114E+00  0.88000000000E+00 0. -1.
        -11    1    4    4    0    0  0.71920606497E-01  0.12329015727E-01 -0.66595726849E-01  0.98791853021E-01  0.51100000000E-03 0. -1.
         11    1    4    4    0    0  0.13434752693E-01  0.85066187941E-02 -0.26153369617E-01  0.30612334222E-01  0.51100000000E-03 0.  1.
</event>
<event>
 8    1  0.9952977E+004  0.1043930E+01  0.7957747E-01            NaN
         13   -1    0    0    0    0  0.00000000000E+00  0.00000000000E+00  0.74505805969E-08  0.10566000000E+00  0.10566000000E+00 0. -1.
     999900   -1    0    0    0    0 -0.00000000000E+00 -0.00000000000E+00 -0.74505805969E-08  0.93827000000E+00  0.93827000000E+00 0.  1.
     999902    2    1    2    0    0  0.12568775760E-01  0.46771966061E-02  0.18886259815E-01  0.10207666431E+01  0.10205037965E+01 0.  0.
     999903    2    3    3    0    0 -0.15837088794E-01  0.10687253765E+00  0.74330741336E-01  0.13266480695E+00  0.20058395037E-01 0.  0.
         14    1    1    2    0    0 -0.12568775760E-01 -0.46771966061E-02 -0.18886259815E-01  0.23163356882E-01  0.00000000000E+00 0.  1.
     999901    1    3    3    0    0  0.28405864554E-01 -0.10219534104E+00 -0.55444481520E-01  0.88810183617E+00  0.88000000000E+00 0.  1.
        -11    1    4    4    0    0 -0.52434218895E-02  0.53458693476E-01  0.48580789452E-01  0.72427064044E-01  0.51100000000E-03 0.  1.
         11    1    4    4    0    0 -0.10593666904E-01  0.53413844171E-01  0.25749951884E-01  0.60237742908E-01  0.51100000000E-03 0. -1.
</event>
<event>
 8    1  0.9952977E+004  0.1043930E+01  0.7957747E-01            NaN
         13   -1    0    0    0    0  0.00000000000E+00  0.00000000000E+00  0.74505805969E-08  0.10566000000E+00  0.10566000000E+00 0.  1.
     999900   -1    0    0    0    0 -0.00000000000E+00 -0.00000000000E+00 -0.74505805969E-08  0.93827000000E+00  0.93827000000E+00 0. -1.
     999902    2    1    2    0    0  0.59682329100E-02  0.10745137647E-01 -0.22268466531E-01  0.10184945447E+01  0.10181768879E+01 0.  0.
     999903    2    3    3    0    0 -0.12569148110E+00  0.15396431093E-01 -0.93080106854E-02  0.12859348934E+00  0.20353081489E-01 0.  0.
         14    1    1    2    0    0 -0.59682329100E-02 -0.10745137647E-01  0.22268466531E-01  0.25435455348E-01  0.00000000000E+00 0.  1.
     999901    1    3    3    0    0  0.13165971401E+00 -0.46512934462E-02 -0.12960455846E-01  0.88990105531E+00  0.88000000000E+00 0. -1.
        -11    1    4    4    0    0 -0.62561804956E-01  0.17774207884E-01 -0.31167734132E-02  0.65114340224E-01  0.51100000000E-03 0.  1.
         11    1    4    4    0    0 -0.63129676147E-01 -0.23777767910E-02 -0.61912372722E-02  0.63479149119E-01  0.51100000000E-03 0. -1.
</event>
<event>
 8    1  0.9952977E+004  0.1043930E+01  0.7957747E-01            NaN
         13   -1    0    0    0    0  0.00000000000E+00  0.00000000000E+00  0.74505805969E-08  0.10566000000E+00  0.10566000000E+00 0. -1.
     999900   -1    0    0    0    0 -0.00000000000E+00 -0.00000000000E+00 -0.74505805969E-08  0.93827000000E+00  0.93827000000E+00 0.  1.
     999902    2    1    2    0    0  0.18885985910E-01  0.46853863294E-02  0.15419612549E-01  0.10191026409E+01  0.10188001742E+01 0.  0.
     999903    2    3    3    0    0 -0.98229198913E-01 -0.23190198558E-01 -0.73462395246E-01  0.12647000310E+00  0.20277508253E-01 0.  0.
         14    1    1    2    0    0 -0.18885985910E-01 -0.46853863294E-02 -0.15419612549E-01  0.24827359102E-01  0.00000000000E+00 0.  1.
     999901    1    3    3    0    0  0.11711518482E+00  0.27875584888E-01  0.88882007795E-01  0.89263263780E+00  0.88000000000E+00 0. -1.
        -11    1    4    4    0    0 -0.30971747662E-01 -0.13425039580E-01 -0.33832926415E-01  0.47795490078E-01  0.51100000000E-03 0. -1.
         11    1    4    4    0    0 -0.67257451252E-01 -0.97651589780E-02 -0.39629468830E-01  0.78674513024E-01  0.51100000000E-03 0.  1.
</event>
<event>
 8    1  0.9952977E+004  0.1043930E+01  0.7957747E-01            NaN
         13   -1    0    0    0    0  0.00000000000E+00  0.00000000000E+00  0.74505805969E-08  0.10566000000E+00  0.10566000000E+00 0.  1.
     999900   -1    0    0    0    0 -0.00000000000E+00 -0.00000000000E+00 -0.74505805969E-08  0.93827000000E+00  0.93827000000E+00 0.  1.
     999902    2    1    2    0    0 -0.24261207590E-01  0.13936167565E-01  0.15544698056E-01  0.10119228040E+01  0.10114164823E+01 0.  0.
     999903    2    3    3    0    0 -0.84044981835E-01  0.75387656947E-01  0.54586252783E-01  0.12689476588E+00  0.19384654316E-01 0.  0.
         14    1    1    2    0    0  0.24261207590E-01 -0.13936167565E-01 -0.15544698056E-01  0.32007196031E-01  0.00000000000E+00 0.  1.
     999901    1    3    3    0    0  0.59783774245E-01 -0.61451489383E-01 -0.39041554728E-01  0.88502803809E+00  0.88000000000E+00 0. -1.
        -11    1    4    4    0    0 -0.26848679296E-01  0.24430007550E-01  0.27858881700E-01  0.45760848544E-01  0.51100000000E-03 0.  1.
         11    1    4    4    0    0 -0.57196302538E-01  0.50957649397E-01  0.26727371083E-01  0.81133917335E-01  0.51100000000E-03 0. -1.
</event>
<event>
 8    1  0.9952977E+004  0.1043930E+01  0.7957747E-01            NaN
         13   -1    0    0    0    0  0.00000000000E+00  0.00000000000E+00  0.74505805969E-08  0.10566000000E+00  0.10566000000E+00 0. -1.
     999900   -1    0    0    0    0 -0.00000000000E+00 -0.00000000000E+00 -0.74505805969E-08  0.93827000000E+00  0.93827000000E+00 0.  1.
     999902    2    1    2    0    0  0.21129683220E-01 -0.16561859243E-01  0.14326450122E-01  0.10134996555E+01  0.10130427167E+01 0.  0.
     999903    2    3    3    0    0  0.10280333479E+00 -0.23482484810E-01 -0.65939063059E-01  0.12605330047E+00  0.20530995680E-01 0.  0.
         14    1    1    2    0    0 -0.21129683220E-01  0.16561859243E-01 -0.14326450122E-01  0.30430344521E-01  0.00000000000E+00 0.  1.
     999901    1    3    3    0    0 -0.81673651575E-01  0.69206255664E-02  0.80265513180E-01  0.88744635501E+00  0.88000000000E+00 0. -1.
        -11    1    4    4    0    0  0.37252024338E-01 -0.17687909786E-01 -0.30620515694E-01  0.51365869722E-01  0.51100000000E-03 0.  1.
         11    1    4    4    0    0  0.65551310457E-01 -0.57945750236E-02 -0.35318547365E-01  0.74687430745E-01  0.51100000000E-03 0. -1.
</event>
<event>
 8    1  0.9952977E+004  0.1043930E+01  0.7957747E-01            NaN
         13   -1    0    0    0    0  0.00000000000E+00  0.00000000000E+00  0.74505805969E-08  0.10566000000E+00  0.10566000000E+00 0. -1.
     999900   -1    0    0    0    0 -0.00000000000E+00 -0.00000000000E+00 -0.74505805969E-08  0.93827000000E+00  0.93827000000E+00 0.  1.
     999902    2    1    2    0    0  0.14715229052E-01  0.57656899430E-02  0.18660020033E-01  0.10194764216E+01  0.10191831027E+01 0.  0.
     999903    2    3    3    0    0  0.61969826621E-01  0.83069656191E-02  0.11538174201E+00  0.13291308687E+00  0.21063645981E-01 0.  0.
         14    1    1    2    0    0 -0.14715229052E-01 -0.57656899430E-02 -0.18660020033E-01  0.24453578351E-01  0.00000000000E+00 0.  1.
     999901    1    3    3    0    0 -0.47254597570E-01 -0.25412756761E-02 -0.96721721979E-01  0.88656333478E+00  0.88000000000E+00 0.  1.
        -11    1    4    4    0    0  0.58371134126E-01  0.91318612486E-02  0.92704894199E-01  0.10993197314E+00  0.51100000000E-03 0.  1.
         11    1    4    4    0    0  0.35986924950E-02 -0.82489562948E-03  0.22676847813E-01  0.22981113728E-01  0.51100000000E-03 0. -1.
</event>
<event>
 8    1  0.9952977E+004  0.1043930E+01  0.7957747E-01            NaN
         13   -1    0    0    0    0  0.00000000000E+00  0.00000000000E+00  0.74505805969E-08  0.10566000000E+00  0.10566000000E+00 0. -1.
     999900   -1    0    0    0    0 -0.00000000000E+00 -0.00000000000E+00 -0.74505805969E-08  0.93827000000E+00  0.93827000000E+00 0. -1.
     999902    2    1    2    0    0  0.18870225808E-01  0.13487903671E-01 -0.80557027030E-02  0.10193759105E+01  0.10190801458E+01 0.  0.
     999903    2    3    3    0    0  0.18981965377E-02 -0.34357800428E-01  0.12201959634E+00  0.12836701903E+00  0.20130774540E-01 0.  0.
         14    1    1    2    0    0 -0.18870225808E-01 -0.13487903671E-01  0.80557027030E-02  0.24554089548E-01  0.00000000000E+00 0.  1.
     999901    1    3    3    0    0  0.16972029270E-01  0.47845704098E-01 -0.13007529904E+00  0.89100889142E+00  0.88000000000E+00 0. -1.
        -11    1    4    4    0    0  0.10861135708E-01 -0.18601456803E-01  0.60045142904E-01  0.63793877226E-01  0.51100000000E-03 0.  1.
         11    1    4    4    0    0 -0.89629391699E-02 -0.15756343624E-01  0.61974453432E-01  0.64573141801E-01  0.51100000000E-03 0. -1.
</event>
<event>
 8    1  0.9952977E+004  0.1043930E+01  0.7957747E-01            NaN
         13   -1    0    0    0    0  0.00000000000E+00  0.00000000000E+00  0.74505805969E-08  0.10566000000E+00  0.10566000000E+00 0. -1.
     999900   -1    0    0    0    0 -0.00000000000E+00 -0.00000000000E+00 -0.74505805969E-08  0.93827000000E+00  0.93827000000E+00 0. -1.
     999902    2    1    2    0    0  0.27256367422E-01  0.18519995123E-02  0.67205193601E-02  0.10157963041E+01  0.10154066311E+01 0.  0.
     999903    2    3    3    0    0  0.12456640414E+00  0.29710573240E-01  0.88175243543E-02  0.12999173147E+00  0.20508396108E-01 0.  0.
         14    1    1    2    0    0 -0.27256367422E-01 -0.18519995123E-02 -0.67205193601E-02  0.28133695948E-01  0.00000000000E+00 0.  1.
     999901    1    3    3    0    0 -0.97310036723E-01 -0.27858573728E-01 -0.20970049942E-02  0.88580457258E+00  0.88000000000E+00 0.  1.
        -11    1    4    4    0    0  0.72296211846E-01  0.14677857216E-01  0.14896129901E-01  0.75261793407E-01  0.51100000000E-03 0.  1.
         11    1    4    4    0    0  0.52270192299E-01  0.15032716024E-01 -0.60786055466E-02  0.54729938063E-01  0.51100000000E-03 0. -1.
</event>
<event>
 8    1  0.9952977E+004  0.1043930E+01  0.7957747E-01            NaN
         13   -1    0    0    0    0  0.00000000000E+00  0.00000000000E+00  0.74505805969E-08  0.10566000000E+00  0.10566000000E+00 0.  1.
     999900   -1    0    0    0    0 -0.00000000000E+00 -0.00000000000E+00 -0.74505805969E-08  0.93827000000E+00  0.93827000000E+00 0.  1.
     999902    2    1    2    0    0  0.18766722233E-01  0.37636227661E-02 -0.10745573236E-01  0.10219795544E+01  0.10217437974E+01 0.  0.
     999903    2    3    3    0    0 -0.68563995186E-01  0.95334765437E-01 -0.55930758112E-01  0.13178090838E+00  0.21171187328E-01 0.  0.
         14    1    1    2    0    0 -0.18766722233E-01 -0.37636227661E-02  0.10745573236E-01  0.21950445642E-01  0.00000000000E+00 0. -1.
     999901    1    3    3    0    0  0.87330717419E-01 -0.91571142671E-01  0.45185184876E-01  0.89019864598E+00  0.88000000000E+00 0. -1.
        -11    1    4    4    0    0 -0.47682418411E-01  0.66719076958E-01 -0.27964610894E-01  0.86644843119E-01  0.51100000000E-03 0. -1.
         11    1    4    4    0    0 -0.20881576775E-01  0.28615688479E-01 -0.27966147219E-01  0.45136065258E-01  0.51100000000E-03 0.  1.
</event>
<event>
 8    1  0.9952977E+004  0.1043930E+01  0.7957747E-01            NaN
         13   -1    0    0    0    0  0.00000000000E+00  0.00000000000E+00  0.74505805969E-08  0.10566000000E+00  0.10566000000E+00 0.  1.
     999900   -1    0    0    0    0 -0.00000000000E+00 -0.00000000000E+00 -0.74505805969E-08  0.93827000000E+00  0.93827000000E+00 0.  1.
     999902    2    1    2    0    0 -0.52729496562E-02 -0.13452717704E-01 -0.19096912473E-01  0.10199827313E+01  0.10197015742E+01 0.  0.
     999903    2    3    3    0    0 -0.31997345273E-01  0.11697142760E+00  0.36513520365E-01  0.12823323104E+00  0.20109186808E-01 0.  0.
         14    1    1    2    0    0  0.52729496562E-02  0.13452717704E-01  0.19096912473E-01  0.23947268690E-01  0.00000000000E+00 0.  1.
     999901    1    3    3    0    0  0.26724395617E-01 -0.13042414530E+00 -0.55610432839E-01  0.89174950027E+00  0.88000000000E+00 0.  1.
        -11    1    4    4    0    0 -0.25112959099E-01  0.56815381552E-01  0.14370868888E-01  0.63760734698E-01  0.51100000000E-03 0.  1.
         11    1    4    4    0    0 -0.68843861744E-02  0.60156046044E-01  0.22142651477E-01  0.64472496338E-01  0.51100000000E-03 0. -1.
</event>
<event>
 8    1  0.9952977E+004  0.1043930E+01  0.7957747E-01            NaN
         13   -1    0    0    0    0  0.00000000000E+00  0.00000000000E+00  0.74505805969E-08  0.10566000000E+00  0.10566000000E+00 0.  1.
     999900   -1    0    0    0    0 -0.00000000000E+00 -0.00000000000E+00 -0.74505805969E-08  0.93827000000E+00  0.93827000000E+00 0. -1.
     999902    2    1    2    0    0  0.22450037118E-01  0.49087751077E-03 -0.28928051170E-03  0.10214727337E+01  0.10212258403E+01 0.  0.
     999903    2    3    3    0    0  0.11567924031E-01 -0.97106976366E-01 -0.86492142204E-01  0.13182409808E+00  0.18251587484E-01 0.  0.
         14    1    1    2    0    0 -0.22450037118E-01 -0.49087751077E-03  0.28928051170E-03  0.22457266319E-01  0.00000000000E+00 0. -1.
     999901    1    3    3    0    0  0.10882113086E-01  0.97597853877E-01  0.86202861692E-01  0.88964863560E+00  0.88000000000E+00 0. -1.
        -11    1    4    4    0    0  0.47443413338E-02 -0.48838180303E-01 -0.55373239176E-01  0.73987386546E-01  0.51100000000E-03 0. -1.
         11    1    4    4    0    0  0.68235826976E-02 -0.48268796063E-01 -0.31118903027E-01  0.57836711532E-01  0.51100000000E-03 0.  1.
</event>
<event>
 8    1  0.9952977E+004  0.1043930E+01  0.7957747E-01            NaN
         13   -1    0    0    0    0  0.00000000000E+00  0.00000000000E+00  0.74505805969E-08  0.10566000000E+00  0.10566000000E+00 0. -1.
     999900   -1    0    0    0    0 -0.00000000000E+00 -0.00000000000E+00 -0.74505805969E-08  0.93827000000E+00  0.93827000000E+00 0. -1.
     999902    2    1    2    0    0 -0.10634710635E-01 -0.20317490242E-01 -0.32520130366E-02  0.10207681117E+01  0.10205052988E+01 0.  0.
     999903    2    3    3    0    0  0.81887523111E-01  0.96735779837E-01  0.12684115312E-02  0.12819751730E+00  0.19225426733E-01 0.  0.
         14    1    1    2    0    0  0.10634710635E-01  0.20317490242E-01  0.32520130366E-02  0.23161888283E-01  0.00000000000E+00 0. -1.
     999901    1    3    3    0    0 -0.92522233746E-01 -0.11705327008E+00 -0.45204245678E-02  0.89257059441E+00  0.88000000000E+00 0.  1.
        -11    1    4    4    0    0  0.31876705429E-01  0.45327243638E-01  0.86833989890E-02  0.56092298079E-01  0.51100000000E-03 0.  1.
         11    1    4    4    0    0  0.50010817683E-01  0.51408536199E-01 -0.74149874578E-02  0.72105219224E-01  0.51100000000E-03 0. -1.
</event>
<event>
 8    1  0.9952977E+004  0.1043930E+01  0.7957747E-01            NaN
         13   -1    0    0    0    0  0.00000000000E+00  0.00000000000E+00  0.74505805969E-08  0.10566000000E+00  0.10566000000E+00 0.  1.
     999900   -1    0    0    0    0 -0.00000000000E+00 -0.00000000000E+00 -0.74505805969E-08  0.93827000000E+00  0.93827000000E+00 0.  1.
     999902    2    1    2    0    0  0.21521118874E-02  0.17204754650E-01  0.15755897102E-01  0.10205017380E+01  0.10202327743E+01 0.  0.
     999903    2    3    3    0    0 -0.11925621045E+00 -0.46006358845E-01  0.16123367578E-01  0.12992004007E+00  0.16751866889E-01 0.  0.
         14    1    1    2    0    0 -0.21521118874E-02 -0.17204754650E-01 -0.15755897102E-01  0.23428262028E-01  0.00000000000E+00 0.  1.
     999901    1    3    3    0    0  0.12140832234E+00  0.63211113495E-01 -0.36747047569E-03  0.89058169790E+00  0.88000000000E+00 0. -1.
        -11    1    4    4    0    0 -0.11187694454E+00 -0.39603707497E-01  0.17755455011E-01  0.12000175695E+00  0.51100000000E-03 0. -1.
         11    1    4    4    0    0 -0.73792659097E-02 -0.64026513481E-02 -0.16320874330E-02  0.99182831196E-02  0.51100000000E-03 0.  1.
</event>
<event>
 8    1  0.9952977E+004  0.1043930E+01  0.7957747E-01            NaN
         13   -1    0    0    0    0  0.00000000000E+00  0.00000000000E+00  0.74505805969E-08  0.10566000000E+00  0.10566000000E+00 0. -1.
     999900   -1    0    0    0    0 -0.00000000000E+00 -0.00000000000E+00 -0.74505805969E-08  0.93827000000E+00  0.93827000000E+00 0.  1.
     999902    2    1    2    0    0 -0.58740422048E-02 -0.20386215592E-01  0.10408315061E-01  0.10202987668E+01  0.10200250676E+01 0.  0.
     999903    2    3    3    0    0 -0.43700265017E-01  0.21495574043E-01  0.12061393979E+00  0.13163111966E+00  0.20180592769E-01 0.  0.
         14    1    1    2    0    0  0.58740422048E-02  0.20386215592E-01 -0.10408315061E-01  0.23631233155E-01  0.00000000000E+00 0.  1.
     999901    1    3    3    0    0  0.37826222812E-01 -0.41881789636E-01 -0.11020562473E+00  0.88866764719E+00  0.88000000000E+00 0.  1.
        -11    1    4    4    0    0 -0.68263323480E-03 -0.28992029216E-02  0.44662001460E-02  0.53925346970E-02  0.51100000000E-03 0. -1.
         11    1    4    4    0    0 -0.43017631782E-01  0.24394776965E-01  0.11614773965E+00  0.12623858496E+00  0.51100000000E-03 0.  1.
</event>
<event>
 8    1  0.9952977E+004  0.1043930E+01  0.7957747E-01            NaN
         13   -1    0    0    0    0  0.00000000000E+00  0.00000000000E+00  0.74505805969E-08  0.10566000000E+00  0.10566000000E+00 0. -1.
     999900   -1    0    0    0    0 -0.00000000000E+00 -0.00000000000E+00 -0.74505805969E-08  0.93827000000E+00  0.93827000000E+00 0. -1.
     999902    2    1    2    0    0  0.87122241315E-02  0.12638634595E-01  0.18087513976E-01  0.10202066761E+01  0.10199308143E+01 0.  0.
     999903    2    3    3    0    0  0.28100796958E-01 -0.50925878524E-02 -0.12370371618E+00  0.12846957027E+00  0.19652782229E-01 0.  0.
         14    1    1    2    0    0 -0.87122241315E-02 -0.12638634595E-01 -0.18087513976E-01  0.23723323873E-01  0.00000000000E+00 0.  1.
     999901    1    3    3    0    0 -0.19388572827E-01  0.17731222447E-01  0.14179123015E+00  0.89173710585E+00  0.88000000000E+00 0.  1.
        -11    1    4    4    0    0  0.16857729323E-01  0.31528885567E-02 -0.38761041355E-01  0.42388715387E-01  0.51100000000E-03 0.  1.
         11    1    4    4    0    0  0.11243067635E-01 -0.82454764091E-02 -0.84942674823E-01  0.86080854887E-01  0.51100000000E-03 0. -1.
</event>
<event>
 8    1  0.9952977E+004  0.1043930E+01  0.7957747E-01            NaN
         13   -1    0    0    0    0  0.00000000000E+00  0.00000000000E+00  0.74505805969E-08  0.10566000000E+00  0.10566000000E+00 0. -1.
     999900   -1    0    0    0    0 -0.00000000000E+00 -0.00000000000E+00 -0.74505805969E-08  0.93827000000E+00  0.93827000000E+00 0.  1.
     999902    2    1    2    0    0 -0.17127971160E-01  0.67552361118E-02 -0.16910920891E-01  0.10189304029E+01  0.10186236724E+01 0.  0.
     999903    2    3    3    0    0  0.86769071138E-01  0.87585195162E-01  0.27922968550E-01  0.12801056623E+00  0.20173615867E-01 0.  0.
         14    1    1    2    0    0  0.17127971160E-01 -0.67552361118E-02  0.16910920891E-01  0.24999597125E-01  0.00000000000E+00 0. -1.
     999901    1    3    3    0    0 -0.10389704230E+00 -0.80829959050E-01 -0.44833889442E-01  0.89091983664E+00  0.88000000000E+00 0.  1.
        -11    1    4    4    0    0  0.46488078640E-01  0.34574304581E-01  0.18165597193E-01  0.60718811215E-01  0.51100000000E-03 0.  1.
         11    1    4    4    0    0  0.40280992498E-01  0.53010890581E-01  0.97573713576E-02  0.67291755020E-01  0.51100000000E-03 0. -1.
</event>
<event>
 8    1  0.9952977E+004  0.1043930E+01  0.7957747E-01            NaN
         13   -1    0    0    0    0  0.00000000000E+00  0.00000000000E+00  0.74505805969E-08  0.10566000000E+00  0.10566000000E+00 0.  1.
     999900   -1    0    0    0    0 -0.00000000000E+00 -0.00000000000E+00 -0.74505805969E-08  0.93827000000E+00  0.93827000000E+00 0. -1.
     999902    2    1    2    0    0 -0.90227319285E-02  0.31375357400E-02  0.24157521467E-01  0.10179523237E+01  0.10176208005E+01 0.  0.
     999903    2    3    3    0    0 -0.47829748901E-01  0.11500544354E+00 -0.25701336286E-01  0.12862318382E+00  0.19220504804E-01 0.  0.
         14    1    1    2    0    0  0.90227319285E-02 -0.31375357400E-02 -0.24157521467E-01  0.25977676290E-01  0.00000000000E+00 0. -1.
     999901    1    3    3    0    0  0.38807016973E-01 -0.11186790780E+00  0.49858857753E-01  0.88932913989E+00  0.88000000000E+00 0.  1.
        -11    1    4    4    0    0 -0.32406344568E-01  0.77381458671E-01 -0.80113955758E-02  0.84276360235E-01  0.51100000000E-03 0. -1.
         11    1    4    4    0    0 -0.15423404333E-01  0.37623984870E-01 -0.17689940710E-01  0.44346823585E-01  0.51100000000E-03 0.  1.
</event>
<event>
 8    1  0.9952977E+004  0.1043930E+01  0.7957747E-01            NaN
         13   -1    0    0    0    0  0.00000000000E+00  0.00000000000E+00  0.74505805969E-08  0.10566000000E+00  0.10566000000E+00 0. -1.
     999900   -1    0    0    0    0 -0.00000000000E+00 -0.00000000000E+00 -0.74505805969E-08  0.93827000000E+00  0.93827000000E+00 0. -1.
     999902    2    1    2    0    0 -0.20409669990E-01 -0.11065688225E-01  0.29418483147E-02  0.10205278942E+01  0.10202595377E+01 0.  0.
     999903    2    3    3    0    0 -0.55582095739E-01 -0.10531919946E+00  0.55768252453E-01  0.13322216734E+00  0.21366907783E-01 0.  0.
         14    1    1    2    0    0  0.20409669990E-01  0.11065688225E-01 -0.29418483147E-02  0.23402105813E-01  0.00000000000E+00 0. -1.
     999901    1    3    3    0    0  0.35172425749E-01  0.94253511237E-01 -0.52826404138E-01  0.88730572684E+00  0.88000000000E+00 0.  1.
        -11    1    4    4    0    0 -0.17496913420E-01 -0.47414498841E-01  0.32598710583E-01  0.60143276701E-01  0.51100000000E-03 0.  1.
         11    1    4    4    0    0 -0.38085182320E-01 -0.57904700620E-01  0.23169541870E-01  0.73078890643E-01  0.51100000000E-03 0. -1.
</event>
<event>
 8    1  0.9952977E+004  0.1043930E+01  0.7957747E-01            NaN
         13   -1    0    0    0    0  0.00000000000E+00  0.00000000000E+00  0.74505805969E-08  0.10566000000E+00  0.10566000000E+00 0. -1.
     999900   -1    0    0    0    0 -0.00000000000E+00 -0.00000000000E+00 -0.74505805969E-08  0.93827000000E+00  0.93827000000E+00 0. -1.
     999902    2    1    2    0    0 -0.21443905322E-01  0.35317352112E-02  0.98550244073E-02  0.10200671474E+01  0.10197879924E+01 0.  0.
     999903    2    3    3    0    0 -0.56098740790E-01  0.90980628343E-01  0.75778409651E-01  0.13260212877E+00  0.20406218019E-01 0.  0.
         14    1    1    2    0    0  0.21443905322E-01 -0.35317352112E-02 -0.98550244073E-02  0.23862852619E-01  0.00000000000E+00 0.  1.
     999901    1    3    3    0    0  0.34654835468E-01 -0.87448893132E-01 -0.65923385244E-01  0.88746501861E+00  0.88000000000E+00 0. -1.
        -11    1    4    4    0    0 -0.32915134953E-01  0.34134288447E-01  0.32875907052E-01  0.57703051413E-01  0.51100000000E-03 0.  1.
         11    1    4    4    0    0 -0.23183605837E-01  0.56846339896E-01  0.42902502599E-01  0.74899077360E-01  0.51100000000E-03 0. -1.
</event>
<event>
 8    1  0.9952977E+004  0.1043930E+01  0.7957747E-01            NaN
         13   -1    0    0    0    0  0.00000000000E+00  0.00000000000E+00  0.74505805969E-08  0.10566000000E+00  0.10566000000E+00 0. -1.
     999900   -1    0    0    0    0 -0.00000000000E+00 -0.00000000000E+00 -0.74505805969E-08  0.93827000000E+00  0.93827000000E+00 0. -1.
     999902    2    1    2    0    0 -0.93698608958E-02  0.16135263719E-01  0.11199878172E-01  0.10221681458E+01  0.10219364657E+01 0.  0.
     999903    2    3    3    0    0  0.18797122750E-01  0.59870125563E-01 -0.11438899711E+00  0.13173079104E+00  0.18176767857E-01 0.  0.
         14    1    1    2    0    0  0.93698608958E-02 -0.16135263719E-01 -0.11199878172E-01  0.21761854231E-01  0.00000000000E+00 0. -1.
     999901    1    3    3    0    0 -0.28166983646E-01 -0.43734861843E-01  0.12558887528E+00  0.89043735473E+00  0.88000000000E+00 0.  1.
        -11    1    4    4    0    0  0.37357659842E-02  0.32154086569E-01 -0.44299766857E-01  0.54868676813E-01  0.51100000000E-03 0.  1.
         11    1    4    4    0    0  0.15061356766E-01  0.27716038993E-01 -0.70089230249E-01  0.76862114225E-01  0.51100000000E-03 0. -1.
</event>
<event>
 8    1  0.9952977E+004  0.1043930E+01  0.7957747E-01            NaN
         13   -1    0    0    0    0  0.00000000000E+00  0.00000000000E+00  0.74505805969E-08  0.10566000000E+00  0.10566000000E+00 0. -1.
     999900   -1    0    0    0    0 -0.00000000000E+00 -0.00000000000E+00 -0.74505805969E-08  0.93827000000E+00  0.93827000000E+00 0. -1.
     999902    2    1    2    0    0  0.49617587444E-02 -0.17047439139E-03  0.27553740917E-01  0.10159325582E+01  0.10155467030E+01 0.  0.
     999903    2    3    3    0    0  0.93135722219E-01  0.84166757899E-01  0.84713544722E-02  0.12730915420E+00  0.19430671831E-01 0.  0.
         14    1    1    2    0    0 -0.49617587444E-02  0.17047439139E-03 -0.27553740917E-01  0.27997441846E-01  0.00000000000E+00 0.  1.
     999901    1    3    3    0    0 -0.88173963475E-01 -0.84337232290E-01  0.19082386445E-01  0.88862340396E+00  0.88000000000E+00 0. -1.
        -11    1    4    4    0    0  0.49273102261E-01  0.33334347217E-01 -0.10102574777E-02  0.59500412200E-01  0.51100000000E-03 0.  1.
         11    1    4    4    0    0  0.43862619958E-01  0.50832410681E-01  0.94816119499E-02  0.67808741999E-01  0.51100000000E-03 0. -1.
</event>
<event>
 8    1  0.9952977E+004  0.1043930E+01  0.7957747E-01            NaN
         13   -1    0    0    0    0  0.00000000000E+00  0.00000000000E+00  0.74505805969E-08  0.10566000000E+00  0.10566000000E+00 0.  1.
     999900   -1    0    0    0    0 -0.00000000000E+00 -0.00000000000E+00 -0.74505805969E-08  0.93827000000E+00  0.93827000000E+00 0. -1.
     999902    2    1    2    0    0 -0.11512715043E-01 -0.88561179283E-02  0.18217711459E-01  0.10206306772E+01  0.10203646999E+01 0.  0.
     999903    2    3    3    0    0 -0.22215420081E-01  0.77479246631E-01 -0.98282063349E-01  0.12869988358E+00  0.20192511212E-01 0.  0.
         14    1    1    2    0    0  0.11512715043E-01  0.88561179283E-02 -0.18217711459E-01  0.23299322806E-01  0.00000000000E+00 0. -1.
     999901    1    3    3    0    0  0.10702705037E-01 -0.86335364560E-01  0.11649977481E+00  0.89193079362E+00  0.88000000000E+00 0.  1.
        -11    1    4    4    0    0 -0.11080609695E-01  0.62853870006E-01 -0.67916021312E-01  0.93199978314E-01  0.51100000000E-03 0.  1.
         11    1    4    4    0    0 -0.11134810386E-01  0.14625376625E-01 -0.30366042037E-01  0.35499905264E-01  0.51100000000E-03 0. -1.
</event>
<event>
 8    1  0.9952977E+004  0.1043930E+01  0.7957747E-01            NaN
         13   -1    0    0    0    0  0.00000000000E+00  0.00000000000E+00  0.74505805969E-08  0.10566000000E+00  0.10566000000E+00 0. -1.
     999900   -1    0    0    0    0 -0.00000000000E+00 -0.00000000000E+00 -0.74505805969E-08  0.93827000000E+00  0.93827000000E+00 0.  1.
     999902    2    1    2    0    0  0.12608660631E-01 -0.78309292244E-02  0.18866823024E-01  0.10199246092E+01  0.10196420694E+01 0.  0.
     999903    2    3    3    0    0 -0.64067875278E-01 -0.48800994395E-01 -0.97318851610E-01  0.12804067709E+00  0.20909959708E-01 0.  0.
         14    1    1    2    0    0 -0.12608660631E-01  0.78309292244E-02 -0.18866823024E-01  0.24005390779E-01  0.00000000000E+00 0.  1.
     999901    1    3    3    0    0  0.76676535909E-01  0.40970065171E-01  0.11618567463E+00  0.89188393213E+00  0.88000000000E+00 0. -1.
        -11    1    4    4    0    0 -0.43529811816E-01 -0.24323131824E-01 -0.70312370671E-01  0.86200637172E-01  0.51100000000E-03 0. -1.
         11    1    4    4    0    0 -0.20538063462E-01 -0.24477862571E-01 -0.27006480938E-01  0.41840039920E-01  0.51100000000E-03 0.  1.
</event>
<event>
 8    1  0.9952977E+004  0.1043930E+01  0.7957747E-01            NaN
         13   -1    0    0    0    0  0.00000000000E+00  0.00000000000E+00  0.74505805969E-08  0.10566000000E+00  0.10566000000E+00 0.  1.
     999900   -1    0    0    0    0 -0.00000000000E+00 -0.00000000000E+00 -0.74505805969E-08  0.93827000000E+00  0.93827000000E+00 0.  1.
     999902    2    1    2    0    0 -0.20650243057E-01 -0.12040878184E-01 -0.94807138340E-03  0.10200069123E+01  0.10197263295E+01 0.  0.
     999903    2    3    3    0    0 -0.75254256306E-01 -0.40474022323E-01  0.98898509465E-01  0.13222350310E+00  0.20019740799E-01 0.  0.
         14    1    1    2    0    0  0.20650243057E-01  0.12040878184E-01  0.94807138340E-03  0.23923087700E-01  0.00000000000E+00 0.  1.
     999901    1    3    3    0    0  0.54604013249E-01  0.28433144140E-01 -0.99846580848E-01  0.88778340920E+00  0.88000000000E+00 0. -1.
        -11    1    4    4    0    0 -0.44780760648E-01 -0.12972943791E-01  0.55502731640E-01  0.72487434327E-01  0.51100000000E-03 0. -1.
         11    1    4    4    0    0 -0.30473495658E-01 -0.27501078532E-01  0.43395777825E-01  0.59736068770E-01  0.51100000000E-03 0.  1.
</event>
<event>
 8    1  0.9952977E+004  0.1043930E+01  0.7957747E-01            NaN
         13   -1    0    0    0    0  0.00000000000E+00  0.00000000000E+00  0.74505805969E-08  0.10566000000E+00  0.10566000000E+00 0. -1.
     999900   -1    0    0    0    0 -0.00000000000E+00 -0.00000000000E+00 -0.74505805969E-08  0.93827000000E+00  0.93827000000E+00 0. -1.
     999902    2    1    2    0    0  0.11825637885E-01  0.20459598234E-01  0.28728176962E-02  0.10201246655E+01  0.10198468704E+01 0.  0.
     999903    2    3    3    0    0 -0.33827836201E-01  0.11464102603E+00 -0.52867731179E-01  0.13217118141E+00  0.19680875105E-01 0.  0.
         14    1    1    2    0    0 -0.11825637885E-01 -0.20459598234E-01 -0.28728176962E-02  0.23805334544E-01  0.00000000000E+00 0.  1.
     999901    1    3    3    0    0  0.45653474086E-01 -0.94181427794E-01  0.55740548875E-01  0.88795348404E+00  0.88000000000E+00 0. -1.
        -11    1    4    4    0    0 -0.20884410013E-01  0.62514935313E-01 -0.39421180963E-01  0.76802124634E-01  0.51100000000E-03 0. -1.
         11    1    4    4    0    0 -0.12943426188E-01  0.52126090714E-01 -0.13446550216E-01  0.55369056777E-01  0.51100000000E-03 0.  1.
</event>
<event>
 8    1  0.9952977E+004  0.1043930E+01  0.7957747E-01            NaN
         13   -1    0    0    0    0  0.00000000000E+00  0.00000000000E+00  0.74505805969E-08  0.10566000000E+00  0.10566000000E+00 0.  1.
     999900   -1    0    0    0    0 -0.00000000000E+00 -0.00000000000E+00 -0.74505805969E-08  0.93827000000E+00  0.93827000000E+00 0.  1.
     999902    2    1    2    0    0 -0.36646009089E-02 -0.99311755769E-02 -0.21033878187E-01  0.10203825674E+01  0.10201108285E+01 0.  0.
     999903    2    3    3    0    0 -0.10910721521E-01 -0.12496584448E+00  0.33005968508E-01  0.13122240958E+00  0.19860027407E-01 0.  0.
         14    1    1    2    0    0  0.36646009089E-02  0.99311755769E-02  0.21033878187E-01  0.23547432551E-01  0.00000000000E+00 0.  1.
     999901    1    3    3    0    0  0.72461206119E-02  0.11503466890E+00 -0.54039846696E-01  0.88916015787E+00  0.88000000000E+00 0.  1.
        -11    1    4    4    0    0  0.54848556262E-02 -0.45225446695E-01  0.13298641740E-01  0.47460927753E-01  0.51100000000E-03 0. -1.
         11    1    4    4    0    0 -0.16395577147E-01 -0.79740397781E-01  0.19707326768E-01  0.83761481826E-01  0.51100000000E-03 0.  1.
</event>
<event>
 8    1  0.9952977E+004  0.1043930E+01  0.7957747E-01            NaN
         13   -1    0    0    0    0  0.00000000000E+00  0.00000000000E+00  0.74505805969E-08  0.10566000000E+00  0.10566000000E+00 0. -1.
     999900   -1    0    0    0    0 -0.00000000000E+00 -0.00000000000E+00 -0.74505805969E-08  0.93827000000E+00  0.93827000000E+00 0.  1.
     999902    2    1    2    0    0 -0.11646596188E-01 -0.49755169634E-03  0.20612025380E-01  0.10202499166E+01  0.10199750712E+01 0.  0.
     999903    2    3    3    0    0  0.34130745365E-01 -0.63626284704E-01  0.10940863303E+00  0.13235035049E+00  0.18252517905E-01 0.  0.
         14    1    1    2    0    0  0.11646596188E-01  0.49755169634E-03 -0.20612025380E-01  0.23680083419E-01  0.00000000000E+00 0.  1.
     999901    1    3    3    0    0 -0.45777341553E-01  0.63128733008E-01 -0.88796607649E-01  0.88789956609E+00  0.88000000000E+00 0.  1.
        -11    1    4    4    0    0  0.93576926357E-02 -0.66457942461E-02  0.10617187851E-01  0.15643490387E-01  0.51100000000E-03 0. -1.
         11    1    4    4    0    0  0.24773052729E-01 -0.56980490458E-01  0.98791445178E-01  0.11670686011E+00  0.51100000000E-03 0.  1.
</event>
<event>
 8    1  0.9952977E+004  0.1043930E+01  0.7957747E-01            NaN
         13   -1    0    0    0    0  0.00000000000E+00  0.00000000000E+00  0.74505805969E-08  0.10566000000E+00  0.10566000000E+00 0.  1.
     999900   -1    0    0    0    0 -0.00000000000E+00 -0.00000000000E+00 -0.74505805969E-08  0.93827000000E+00  0.93827000000E+00 0.  1.
     999902    2    1    2    0    0  0.35415516094E-02  0.16089854217E-01  0.16437264169E-01  0.10206574915E+01  0.10203921331E+01 0.  0.
     999903    2    3    3    0    0 -0.88616644504E-02 -0.76470571859E-01  0.10199703502E+00  0.13158958264E+00  0.31402956072E-01 0.  0.
         14    1    1    2    0    0 -0.35415516094E-02 -0.16089854217E-01 -0.16437264169E-01  0.23272508458E-01  0.00000000000E+00 0. -1.
     999901    1    3    3    0    0  0.12403216060E-01  0.92560426077E-01 -0.85559770852E-01  0.88906790890E+00  0.88000000000E+00 0.  1.
        -11    1    4    4    0    0 -0.16516583882E-01 -0.30132228560E-01  0.56917133994E-01  0.66487367253E-01  0.51100000000E-03 0.  1.
         11    1    4    4    0    0  0.76549194316E-02 -0.46338343300E-01  0.45079901027E-01  0.65102215392E-01  0.51100000000E-03 0. -1.
</event>
<event>
 8    1  0.9952977E+004  0.1043930E+01  0.7957747E-01            NaN
         13   -1    0    0    0    0  0.00000000000E+00  0.00000000000E+00  0.74505805969E-08  0.10566000000E+00  0.10566000000E+00 0. -1.
     999900   -1    0    0    0    0 -0.00000000000E+00 -0.00000000000E+00 -0.74505805969E-08  0.93827000000E+00  0.93827000000E+00 0.  1.
     999902    2    1    2    0    0 -0.23505372721E-01  0.29832461782E-02 -0.31315920962E-02  0.10200300173E+01  0.10197499826E+01 0.  0.
     999903    2    3    3    0    0  0.92741945492E-01 -0.85455102849E-01 -0.78750438815E-02  0.12797773132E+00  0.20313550669E-01 0.  0.
         14    1    1    2    0    0  0.23505372721E-01 -0.29832461782E-02  0.31315920962E-02  0.23899982711E-01  0.00000000000E+00 0. -1.
     999901    1    3    3    0    0 -0.11624731821E+00  0.88438349027E-01  0.47434517853E-02  0.89205228597E+00  0.88000000000E+00 0.  1.
        -11    1    4    4    0    0  0.40215534975E-01 -0.44493330976E-01  0.48078800448E-02  0.60169116548E-01  0.51100000000E-03 0. -1.
         11    1    4    4    0    0  0.52526410518E-01 -0.40961771873E-01 -0.12682923926E-01  0.67808614771E-01  0.51100000000E-03 0.  1.
</event>
<event>
 8    1  0.9952977E+004  0.1043930E+01  0.7957747E-01            NaN
         13   -1    0    0    0    0  0.00000000000E+00  0.00000000000E+00  0.74505805969E-08  0.10566000000E+00  0.10566000000E+00 0. -1.
     999900   -1    0    0    0    0 -0.00000000000E+00 -0.00000000000E+00 -0.74505805969E-08  0.93827000000E+00  0.93827000000E+00 0.  1.
     999902    2    1    2    0    0  0.14000473769E-01 -0.14582936613E-01  0.11181399986E-01  0.10208280734E+01  0.10205666350E+01 0.  0.
     999903    2    3    3    0    0 -0.16363205936E-01  0.12620058008E+00 -0.83516597621E-02  0.12890683696E+00  0.18785139716E-01 0.  0.
         14    1    1    2    0    0 -0.14000473769E-01  0.14582936613E-01 -0.11181399986E-01  0.23101926579E-01  0.00000000000E+00 0.  1.
     999901    1    3    3    0    0  0.30363679706E-01 -0.14078351669E+00  0.19533059748E-01  0.89192123646E+00  0.88000000000E+00 0. -1.
        -11    1    4    4    0    0 -0.12626255055E-01  0.44763452809E-01  0.29320952568E-02  0.46605228545E-01  0.51100000000E-03 0. -1.
         11    1    4    4    0    0 -0.37369508811E-02  0.81437127272E-01 -0.11283755019E-01  0.82301608420E-01  0.51100000000E-03 0.  1.
</event>
<event>
 8    1  0.9952977E+004  0.1043930E+01  0.7957747E-01            NaN
         13   -1    0    0    0    0  0.00000000000E+00  0.00000000000E+00  0.74505805969E-08  0.10566000000E+00  0.10566000000E+00 0.  1.
     999900   -1    0    0    0    0 -0.00000000000E+00 -0.00000000000E+00 -0.74505805969E-08  0.93827000000E+00  0.93827000000E+00 0. -1.
     999902    2    1    2    0    0 -0.93167851116E-02  0.78907592199E-02 -0.25402848187E-01  0.10157454074E+01  0.10153543033E+01 0.  0.
     999903    2    3    3    0    0 -0.13572015905E-01  0.12096958636E+00 -0.31607198196E-01  0.12847801695E+00  0.26263004841E-01 0.  0.
         14    1    1    2    0    0  0.93167851116E-02 -0.78907592199E-02  0.25402848187E-01  0.28184592633E-01  0.00000000000E+00 0.  1.
     999901    1    3    3    0    0  0.42552307931E-02 -0.11307882714E+00  0.62043500089E-02  0.88726739042E+00  0.88000000000E+00 0.  1.
        -11    1    4    4    0    0 -0.15163651280E-01  0.48482015260E-01 -0.21915802344E-01  0.55326355719E-01  0.51100000000E-03 0. -1.
         11    1    4    4    0    0  0.15916353749E-02  0.72487571095E-01 -0.96913958525E-02  0.73151661232E-01  0.51100000000E-03 0.  1.
</event>
<event>
 8    1  0.9952977E+004  0.1043930E+01  0.7957747E-01            NaN
         13   -1    0    0    0    0  0.00000000000E+00  0.00000000000E+00  0.74505805969E-08  0.10566000000E+00  0.10566000000E+00 0. -1.
     999900   -1    0    0    0    0 -0.00000000000E+00 -0.00000000000E+00 -0.74505805969E-08  0.93827000000E+00  0.93827000000E+00 0. -1.
     999902    2    1    2    0    0 -0.18569789761E-01 -0.90051154626E-02  0.11532796880E-01  0.10202882023E+01  0.10200142553E+01 0.  0.
     999903    2    3    3    0    0 -0.12520022505E+00  0.30401294122E-01 -0.22379900129E-01  0.13232818860E+00  0.20262145300E-01 0.  0.
         14    1    1    2    0    0  0.18569789761E-01  0.90051154626E-02 -0.11532796880E-01  0.23641797735E-01  0.00000000000E+00 0. -1.
     999901    1    3    3    0    0  0.10663043529E+00 -0.39406409584E-01  0.33912697009E-01  0.88796001366E+00  0.88000000000E+00 0.  1.
        -11    1    4    4    0    0 -0.48187431952E-01  0.16584793223E-02 -0.82940278455E-02  0.48926793996E-01  0.51100000000E-03 0. -1.
         11    1    4    4    0    0 -0.77012793097E-01  0.28742814799E-01 -0.14085872283E-01  0.83401394606E-01  0.51100000000E-03 0.  1.
</event>
<event>
 8    1  0.9952977E+004  0.1043930E+01  0.7957747E-01            NaN
         13   -1    0    0    0    0  0.00000000000E+00  0.00000000000E+00  0.74505805969E-08  0.10566000000E+00  0.10566000000E+00 0. -1.
     999900   -1    0    0    0    0 -0.00000000000E+00 -0.00000000000E+00 -0.74505805969E-08  0.93827000000E+00  0.93827000000E+00 0. -1.
     999902    2    1    2    0    0 -0.71654163613E-02 -0.17567259641E-01  0.13914987024E-01  0.10204017475E+01  0.10201304562E+01 0.  0.
     999903    2    3    3    0    0  0.10564675753E+00 -0.75026749282E-01 -0.23375459008E-02  0.13119292816E+00  0.20392885853E-01 0.  0.
         14    1    1    2    0    0  0.71654163613E-02  0.17567259641E-01 -0.13914987024E-01  0.23528252524E-01  0.00000000000E+00 0.  1.
     999901    1    3    3    0    0 -0.11281217389E+00  0.57459489641E-01  0.16252532925E-01  0.88920881932E+00  0.88000000000E+00 0. -1.
        -11    1    4    4    0    0  0.19308685659E-01 -0.23087848256E-01 -0.43504792417E-02  0.30414829764E-01  0.51100000000E-03 0.  1.
         11    1    4    4    0    0  0.86338071871E-01 -0.51938901027E-01  0.20129333409E-02  0.10077809839E+00  0.51100000000E-03 0. -1.
</event>
<event>
 8    1  0.9952977E+004  0.1043930E+01  0.7957747E-01            NaN
         13   -1    0    0    0    0  0.00000000000E+00  0.00000000000E+00  0.74505805969E-08  0.10566000000E+00  0.10566000000E+00 0.  1.
     999900   -1    0    0    0    0 -0.00000000000E+00 -0.00000000000E+00 -0.74505805969E-08  0.93827000000E+00  0.93827000000E+00 0.  1.
     999902    2    1    2    0    0 -0.10595897114E-02  0.19886079776E-01 -0.10346609862E-01  0.10214882702E+01  0.10212417221E+01 0.  0.
     999903    2    3    3    0    0  0.41933867571E-01 -0.34411039631E-01 -0.11878164610E+00  0.13213188968E+00  0.20178897995E-01 0.  0.
         14    1    1    2    0    0  0.10595897114E-02 -0.19886079776E-01  0.10346609862E-01  0.22441729765E-01  0.00000000000E+00 0.  1.
     999901    1    3    3    0    0 -0.42993457282E-01  0.54297119407E-01  0.10843503623E+00  0.88935638055E+00  0.88000000000E+00 0. -1.
        -11    1    4    4    0    0  0.20665781704E-01 -0.69465605931E-02 -0.32705776630E-01  0.39309772112E-01  0.51100000000E-03 0.  1.
         11    1    4    4    0    0  0.21268085866E-01 -0.27464479038E-01 -0.86075869465E-01  0.92822117571E-01  0.51100000000E-03 0. -1.
</event>
<event>
 8    1  0.9952977E+004  0.1043930E+01  0.7957747E-01            NaN
         13   -1    0    0    0    0  0.00000000000E+00  0.00000000000E+00  0.74505805969E-08  0.10566000000E+00  0.10566000000E+00 0. -1.
     999900   -1    0    0    0    0 -0.00000000000E+00 -0.00000000000E+00 -0.74505805969E-08  0.93827000000E+00  0.93827000000E+00 0.  1.
     999902    2    1    2    0    0 -0.24721666657E-01 -0.12516122954E-01  0.20329787328E-01  0.10095626552E+01  0.10089775222E+01 0.  0.
     999903    2    3    3    0    0  0.58459401400E-01 -0.84883249408E-01 -0.56675841145E-01  0.11934585133E+00  0.20214193463E-01 0.  0.
         14    1    1    2    0    0  0.24721666657E-01  0.12516122954E-01 -0.20329787328E-01  0.34367344804E-01  0.00000000000E+00 0.  1.
     999901    1    3    3    0    0 -0.83181068056E-01  0.72367126454E-01  0.77005628473E-01  0.89021680387E+00  0.88000000000E+00 0. -1.
        -11    1    4    4    0    0  0.21674421115E-01 -0.43011263039E-01 -0.17625353776E-01  0.51289994108E-01  0.51100000000E-03 0. -1.
         11    1    4    4    0    0  0.36784980284E-01 -0.41871986370E-01 -0.39050487369E-01  0.68055857219E-01  0.51100000000E-03 0.  1.
</event>
<event>
 8    1  0.9952977E+004  0.1043930E+01  0.7957747E-01            NaN
         13   -1    0    0    0    0  0.00000000000E+00  0.00000000000E+00  0.74505805969E-08  0.10566000000E+00  0.10566000000E+00 0. -1.
     999900   -1    0    0    0    0 -0.00000000000E+00 -0.00000000000E+00 -0.74505805969E-08  0.93827000000E+00  0.93827000000E+00 0. -1.
     999902    2    1    2    0    0 -0.83739561585E-02 -0.15203444425E-01 -0.17047675245E-01  0.10196011880E+01  0.10193108905E+01 0.  0.
     999903    2    3    3    0    0 -0.13253947532E-01  0.57806575685E-01  0.11091030384E+00  0.12734140417E+00  0.19936659720E-01 0.  0.
         14    1    1    2    0    0  0.83739561585E-02  0.15203444425E-01  0.17047675245E-01  0.24328812042E-01  0.00000000000E+00 0. -1.
     999901    1    3    3    0    0  0.48799913740E-02 -0.73010020110E-01 -0.12795797908E+00  0.89225978379E+00  0.88000000000E+00 0.  1.
        -11    1    4    4    0    0 -0.31058535876E-02  0.26227122204E-01  0.30452229272E-01  0.40312624006E-01  0.51100000000E-03 0.  1.
         11    1    4    4    0    0 -0.10148093945E-01  0.31579453481E-01  0.80458074568E-01  0.87028780166E-01  0.51100000000E-03 0. -1.
</event>
<event>
 8    1  0.9952977E+004  0.1043930E+01  0.7957747E-01            NaN
         13   -1    0    0    0    0  0.00000000000E+00  0.00000000000E+00  0.74505805969E-08  0.10566000000E+00  0.10566000000E+00 0. -1.
     999900   -1    0    0    0    0 -0.00000000000E+00 -0.00000000000E+00 -0.74505805969E-08  0.93827000000E+00  0.93827000000E+00 0. -1.
     999902    2    1    2    0    0 -0.10021262931E-02  0.11745264161E-01 -0.19674768731E-01  0.10209941762E+01  0.10207365262E+01 0.  0.
     999903    2    3    3    0    0  0.73758487590E-01 -0.24897686565E-01  0.10072824685E+00  0.12890183718E+00  0.20231031314E-01 0.  0.
         14    1    1    2    0    0  0.10021262931E-02 -0.11745264161E-01  0.19674768731E-01  0.22935823768E-01  0.00000000000E+00 0. -1.
     999901    1    3    3    0    0 -0.74760613883E-01  0.36642950726E-01 -0.12040301558E+00  0.89209233905E+00  0.88000000000E+00 0. -1.
        -11    1    4    4    0    0  0.41021979653E-01 -0.23286036212E-01  0.52405696203E-01  0.70510002216E-01  0.51100000000E-03 0.  1.
         11    1    4    4    0    0  0.32736507937E-01 -0.16116503537E-02  0.48322550648E-01  0.58391834968E-01  0.51100000000E-03 0. -1.
</event>
<event>
 8    1  0.9952977E+004  0.1043930E+01  0.7957747E-01            NaN
         13   -1    0    0    0    0  0.00000000000E+00  0.00000000000E+00  0.74505805969E-08  0.10566000000E+00  0.10566000000E+00 0.  1.
     999900   -1    0    0    0    0 -0.00000000000E+00 -0.00000000000E+00 -0.74505805969E-08  0.93827000000E+00  0.93827000000E+00 0.  1.
     999902    2    1    2    0    0 -0.87934666303E-02 -0.58366934356E-02  0.21133780451E-01  0.10203073684E+01  0.10200338707E+01 0.  0.
     999903    2    3    3    0    0  0.59021590595E-02 -0.64987424953E-01  0.11447554673E+00  0.13327441765E+00  0.19980458425E-01 0.  0.
         14    1    1    2    0    0  0.87934666303E-02  0.58366934356E-02 -0.21133780451E-01  0.23622631560E-01  0.00000000000E+00 0. -1.
     999901    1    3    3    0    0 -0.14695625690E-01  0.59150731517E-01 -0.93341766274E-01  0.88703295079E+00  0.88000000000E+00 0.  1.
        -11    1    4    4    0    0  0.41846775170E-02 -0.12009238149E-01  0.39147975024E-01  0.41165014227E-01  0.51100000000E-03 0.  1.
         11    1    4    4    0    0  0.17174815425E-02 -0.52978186804E-01  0.75327571701E-01  0.92109403425E-01  0.51100000000E-03 0. -1.
</event>
<event>
 8    1  0.9952977E+004  0.1043930E+01  0.7957747E-01            NaN
         13   -1    0    0    0    0  0.00000000000E+00  0.00000000000E+00  0.74505805969E-08  0.10566000000E+00  0.10566000000E+00 0. -1.
     999900   -1    0    0    0    0 -0.00000000000E+00 -0.00000000000E+00 -0.74505805969E-08  0.93827000000E+00  0.93827000000E+00 0.  1.
     999902    2    1    2    0    0  0.11999795122E-01 -0.13124003432E-01  0.14950434523E-01  0.10206974788E+01  0.10204330420E+01 0.  0.
     999903    2    3    3    0    0 -0.33029788876E-01 -0.11752405705E+00 -0.44580001550E-01  0.13138824830E+00  0.19303479307E-01 0.  0.
         14    1    1    2    0    0 -0.11999795122E-01  0.13124003432E-01 -0.14950434523E-01  0.23232521204E-01  0.00000000000E+00 0.  1.
     999901    1    3    3    0    0  0.45029583998E-01  0.10440005362E+00  0.59530436073E-01  0.88930923050E+00  0.88000000000E+00 0. -1.
        -11    1    4    4    0    0 -0.22769095494E-01 -0.73308972606E-01 -0.18224275505E-01  0.78898811859E-01  0.51100000000E-03 0.  1.
         11    1    4    4    0    0 -0.10260693382E-01 -0.44215084447E-01 -0.26355726045E-01  0.52489436439E-01  0.51100000000E-03 0. -1.
</event>
<event>
 8    1  0.9952977E+004  0.1043930E+01  0.7957747E-01            NaN
         13   -1    0    0    0    0  0.00000000000E+00  0.00000000000E+00  0.74505805969E-08  0.10566000000E+00  0.10566000000E+00 0.  1.
     999900   -1    0    0    0    0 -0.00000000000E+00 -0.00000000000E+00 -0.74505805969E-08  0.93827000000E+00  0.93827000000E+00 0. -1.
     999902    2    1    2    0    0 -0.16029774565E-01  0.86438036125E-02 -0.13053586711E-01  0.10215231899E+01  0.10212774169E+01 0.  0.
     999903    2    3    3    0    0 -0.12699855825E+00 -0.29134846497E-01 -0.22348521957E-01  0.13370130844E+00  0.19977746803E-01 0.  0.
         14    1    1    2    0    0  0.16029774565E-01 -0.86438036125E-02  0.13053586711E-01  0.22406810115E-01  0.00000000000E+00 0.  1.
     999901    1    3    3    0    0  0.11096878368E+00  0.37778650110E-01  0.92949352462E-02  0.88782188145E+00  0.88000000000E+00 0. -1.
        -11    1    4    4    0    0 -0.36797444743E-01  0.54847717949E-03 -0.45272728256E-02  0.37082476820E-01  0.51100000000E-03 0. -1.
         11    1    4    4    0    0 -0.90201113503E-01 -0.29683323677E-01 -0.17821249132E-01  0.96618831618E-01  0.51100000000E-03 0.  1.
</event>
<event>
 8    1  0.9952977E+004  0.1043930E+01  0.7957747E-01            NaN
         13   -1    0    0    0    0  0.00000000000E+00  0.00000000000E+00  0.74505805969E-08  0.10566000000E+00  0.10566000000E+00 0.  1.
     999900   -1    0    0    0    0 -0.00000000000E+00 -0.00000000000E+00 -0.74505805969E-08  0.93827000000E+00  0.93827000000E+00 0. -1.
     999902    2    1    2    0    0  0.14847023105E-01 -0.77600119178E-02 -0.18326923551E-01  0.10191000180E+01  0.10187974866E+01 0.  0.
     999903    2    3    3    0    0  0.28359152040E-01  0.10746677399E+00  0.58517951634E-01  0.12816515804E+00  0.25467784669E-01 0.  0.
         14    1    1    2    0    0 -0.14847023105E-01  0.77600119178E-02  0.18326923551E-01  0.24829982016E-01  0.00000000000E+00 0. -1.
     999901    1    3    3    0    0 -0.13512128935E-01 -0.11522678591E+00 -0.76844875185E-01  0.89093485994E+00  0.88000000000E+00 0. -1.
        -11    1    4    4    0    0  0.31537624025E-02  0.42682864487E-01  0.11765945453E-01  0.44389995849E-01  0.51100000000E-03 0.  1.
         11    1    4    4    0    0  0.25205389638E-01  0.64783909504E-01  0.46752006181E-01  0.83775162193E-01  0.51100000000E-03 0. -1.
</event>
<event>
 8    1  0.9952977E+004  0.1043930E+01  0.7957747E-01            NaN
         13   -1    0    0    0    0  0.00000000000E+00  0.00000000000E+00  0.74505805969E-08  0.10566000000E+00  0.10566000000E+00 0. -1.
     999900   -1    0    0    0    0 -0.00000000000E+00 -0.00000000000E+00 -0.74505805969E-08  0.93827000000E+00  0.93827000000E+00 0. -1.
     999902    2    1    2    0    0  0.15777258638E-01 -0.11527410745E-01 -0.15436192452E-01  0.10190286120E+01  0.10187243164E+01 0.  0.
     999903    2    3    3    0    0 -0.11538709471E+00 -0.46884462781E-01 -0.24361578512E-01  0.12856026821E+00  0.20540729772E-01 0.  0.
         14    1    1    2    0    0 -0.15777258638E-01  0.11527410745E-01  0.15436192452E-01  0.24901388034E-01  0.00000000000E+00 0. -1.
     999901    1    3    3    0    0  0.13116435334E+00  0.35357052036E-01  0.89253860593E-02  0.89046834376E+00  0.88000000000E+00 0. -1.
        -11    1    4    4    0    0 -0.86756075501E-01 -0.29760602359E-01 -0.25423463150E-01  0.95178378262E-01  0.51100000000E-03 0. -1.
         11    1    4    4    0    0 -0.28631019204E-01 -0.17123860422E-01  0.10618846380E-02  0.33381889947E-01  0.51100000000E-03 0.  1.
</event>
<event>
 8    1  0.9952977E+004  0.1043930E+01  0.7957747E-01            NaN
         13   -1    0    0    0    0  0.00000000000E+00  0.00000000000E+00  0.74505805969E-08  0.10566000000E+00  0.10566000000E+00 0. -1.
     999900   -1    0    0    0    0 -0.00000000000E+00 -0.00000000000E+00 -0.74505805969E-08  0.93827000000E+00  0.93827000000E+00 0.  1.
     999902    2    1    2    0    0  0.23469332507E-01 -0.38686158790E-02  0.36894283405E-03  0.10201410976E+01  0.10198636905E+01 0.  0.
     999903    2    3    3    0    0 -0.34449785385E-01 -0.10789531435E+00 -0.60673222671E-01  0.13002743962E+00  0.19942631022E-01 0.  0.
         14    1    1    2    0    0 -0.23469332507E-01  0.38686158790E-02 -0.36894283405E-03  0.23788902370E-01  0.00000000000E+00 0. -1.
     999901    1    3    3    0    0  0.57919117892E-01  0.10402669847E+00  0.61042165505E-01  0.89011365801E+00  0.88000000000E+00 0. -1.
        -11    1    4    4    0    0 -0.16860505879E-01 -0.78062203130E-01 -0.47804342862E-01  0.93077927208E-01  0.51100000000E-03 0. -1.
         11    1    4    4    0    0 -0.17589279506E-01 -0.29833111221E-01 -0.12868879810E-01  0.36949512409E-01  0.51100000000E-03 0.  1.
</event>
<event>
 8    1  0.9952977E+004  0.1043930E+01  0.7957747E-01            NaN
         13   -1    0    0    0    0  0.00000000000E+00  0.00000000000E+00  0.74505805969E-08  0.10566000000E+00  0.10566000000E+00 0.  1.
     999900   -1    0    0    0    0 -0.00000000000E+00 -0.00000000000E+00 -0.74505805969E-08  0.93827000000E+00  0.93827000000E+00 0. -1.
     999902    2    1    2    0    0 -0.22987338575E-01  0.65653581897E-02 -0.15927512881E-02  0.10199704816E+01  0.10196890334E+01 0.  0.
     999903    2    3    3    0    0  0.81941411580E-01 -0.38374964608E-01 -0.88755706782E-01  0.12832758450E+00  0.20083839712E-01 0.  0.
         14    1    1    2    0    0  0.22987338575E-01 -0.65653581897E-02  0.15927512881E-02  0.23959518350E-01  0.00000000000E+00 0. -1.
     999901    1    3    3    0    0 -0.10492875016E+00  0.44940322797E-01  0.87162955494E-01  0.89164289715E+00  0.88000000000E+00 0. -1.
        -11    1    4    4    0    0  0.45319130814E-01 -0.25447734041E-01 -0.63224120113E-01  0.81847182423E-01  0.51100000000E-03 0.  1.
         11    1    4    4    0    0  0.36622280767E-01 -0.12927230567E-01 -0.25531586669E-01  0.46480402080E-01  0.51100000000E-03 0. -1.
</event>
<event>
 8    1  0.9952977E+004  0.1043930E+01  0.7957747E-01            NaN
         13   -1    0    0    0    0  0.00000000000E+00  0.00000000000E+00  0.74505805969E-08  0.10566000000E+00  0.10566000000E+00 0. -1.
     999900   -1    0    0    0    0 -0.00000000000E+00 -0.00000000000E+00 -0.74505805969E-08  0.93827000000E+00  0.93827000000E+00 0. -1.
     999902    2    1    2    0    0 -0.14580136170E-03  0.16390391250E-01  0.15644897199E-01  0.10212710284E+01  0.10210196299E+01 0.  0.
     999903    2    3    3    0    0 -0.27216594016E-01  0.19338700884E-01  0.12788896388E+00  0.13372370529E+00  0.20290735125E-01 0.  0.
         14    1    1    2    0    0  0.14580136170E-03 -0.16390391250E-01 -0.15644897199E-01  0.22658971551E-01  0.00000000000E+00 0.  1.
     999901    1    3    3    0    0  0.27070792654E-01 -0.29483096334E-02 -0.11224406668E+00  0.88754732316E+00  0.88000000000E+00 0. -1.
        -11    1    4    4    0    0 -0.23487306382E-01  0.20368318052E-01  0.82458999786E-01  0.88126441594E-01  0.51100000000E-03 0. -1.
         11    1    4    4    0    0 -0.37292876338E-02 -0.10296171681E-02  0.45429964095E-01  0.45597263694E-01  0.51100000000E-03 0.  1.
</event>
<event>
 8    1  0.9952977E+004  0.1043930E+01  0.7957747E-01            NaN
         13   -1    0    0    0    0  0.00000000000E+00  0.00000000000E+00  0.74505805969E-08  0.10566000000E+00  0.10566000000E+00 0. -1.
     999900   -1    0    0    0    0 -0.00000000000E+00 -0.00000000000E+00 -0.74505805969E-08  0.93827000000E+00  0.93827000000E+00 0. -1.
     999902    2    1    2    0    0 -0.44773119064E-02  0.19887020319E-01 -0.10953353643E-01  0.10207887845E+01  0.10205264459E+01 0.  0.
     999903    2    3    3    0    0  0.68007773110E-01  0.40618902718E-01 -0.10452085812E+00  0.13262282230E+00  0.19729438726E-01 0.  0.
         14    1    1    2    0    0  0.44773119064E-02 -0.19887020319E-01  0.10953353643E-01  0.23141215507E-01  0.00000000000E+00 0.  1.
     999901    1    3    3    0    0 -0.72485085016E-01 -0.20731882399E-01  0.93567504476E-01  0.88816596219E+00  0.88000000000E+00 0. -1.
        -11    1    4    4    0    0  0.67421077485E-01  0.37236351149E-01 -0.93893225395E-01  0.12144277019E+00  0.51100000000E-03 0.  1.
         11    1    4    4    0    0  0.58669562479E-03  0.33825515690E-02 -0.10627632724E-01  0.11180052110E-01  0.51100000000E-03 0. -1.
</event>
<event>
 8    1  0.9952977E+004  0.1043930E+01  0.7957747E-01            NaN
         13   -1    0    0    0    0  0.00000000000E+00  0.00000000000E+00  0.74505805969E-08  0.10566000000E+00  0.10566000000E+00 0. -1.
     999900   -1    0    0    0    0 -0.00000000000E+00 -0.00000000000E+00 -0.74505805969E-08  0.93827000000E+00  0.93827000000E+00 0.  1.
     999902    2    1    2    0    0 -0.16592558963E-01 -0.44281989409E-02 -0.16049518198E-01  0.10204244902E+01  0.10201537292E+01 0.  0.
     999903    2    3    3    0    0  0.31964945675E-01  0.10255426903E+00 -0.72455441142E-01  0.13082643043E+00  0.18072855348E-01 0.  0.
         14    1    1    2    0    0  0.16592558963E-01  0.44281989409E-02  0.16049518198E-01  0.23505509848E-01  0.00000000000E+00 0. -1.
     999901    1    3    3    0    0 -0.48557504638E-01 -0.10698246797E+00  0.56405922944E-01  0.88959805972E+00  0.88000000000E+00 0. -1.
        -11    1    4    4    0    0  0.65381400879E-02  0.31495695990E-01 -0.31193764004E-01  0.44811138966E-01  0.51100000000E-03 0.  1.
         11    1    4    4    0    0  0.25426805587E-01  0.71058573043E-01 -0.41261677138E-01  0.86015291469E-01  0.51100000000E-03 0. -1.
</event>
<event>
 8    1  0.9952977E+004  0.1043930E+01  0.7957747E-01            NaN
         13   -1    0    0    0    0  0.00000000000E+00  0.00000000000E+00  0.74505805969E-08  0.10566000000E+00  0.10566000000E+00 0. -1.
     999900   -1    0    0    0    0 -0.00000000000E+00 -0.00000000000E+00 -0.74505805969E-08  0.93827000000E+00  0.93827000000E+00 0. -1.
     999902    2    1    2    0    0 -0.18358329279E-02 -0.22946054685E-01 -0.35807768631E-02  0.10206337842E+01  0.10203678786E+01 0.  0.
     999903    2    3    3    0    0  0.15038993183E-01 -0.84755721575E-01  0.98835908856E-01  0.13238023244E+00  0.18608745429E-01 0.  0.
         14    1    1    2    0    0  0.18358329279E-02  0.22946054685E-01  0.35807768631E-02  0.23296215811E-01  0.00000000000E+00 0. -1.
     999901    1    3    3    0    0 -0.16874826111E-01  0.61809666889E-01 -0.10241668572E+00  0.88825355175E+00  0.88000000000E+00 0. -1.
        -11    1    4    4    0    0 -0.44866913637E-03 -0.42811778431E-01  0.41069674036E-01  0.59329831644E-01  0.51100000000E-03 0.  1.
         11    1    4    4    0    0  0.15487662319E-01 -0.41943943143E-01  0.57766234820E-01  0.73050400798E-01  0.51100000000E-03 0. -1.
</event>
<event>
 8    1  0.9952977E+004  0.1043930E+01  0.7957747E-01            NaN
         13   -1    0    0    0    0  0.00000000000E+00  0.00000000000E+00  0.74505805969E-08  0.10566000000E+00  0.10566000000E+00 0.  1.
     999900   -1    0    0    0    0 -0.00000000000E+00 -0.00000000000E+00 -0.74505805969E-08  0.93827000000E+00  0.93827000000E+00 0. -1.
     999902    2    1    2    0    0  0.22268583823E-01 -0.13723422817E-02  0.11844772261E-01  0.10186699173E+01  0.10183566804E+01 0.  0.
     999903    2    3    3    0    0 -0.84827972962E-01 -0.89353230031E-01 -0.24055019968E-01  0.12709877365E+00  0.19891444480E-01 0.  0.
         14    1    1    2    0    0 -0.22268583823E-01  0.13723422817E-02 -0.11844772261E-01  0.25260082714E-01  0.00000000000E+00 0. -1.
     999901    1    3    3    0    0  0.10709655678E+00  0.87980887750E-01  0.35899792228E-01  0.89157114364E+00  0.88000000000E+00 0.  1.
        -11    1    4    4    0    0 -0.48472922575E-01 -0.37901015182E-01 -0.77402393121E-02  0.62018413398E-01  0.51100000000E-03 0.  1.
         11    1    4    4    0    0 -0.36355050387E-01 -0.51452214849E-01 -0.16314780656E-01  0.65080360250E-01  0.51100000000E-03 0. -1.
</event>
<event>
 7    1  0.9952977E+004  0.1043930E+01  0.7957747E-01            NaN
         13   -1    0    0    0    0  0.00000000000E+00  0.00000000000E+00  0.74505805969E-08  0.10566000000E+00  0.10566000000E+00 0. -1.
     999900   -1    0    0    0    0 -0.00000000000E+00 -0.00000000000E+00 -0.74505805969E-08  0.93827000000E+00  0.93827000000E+00 0. -1.
     999902    2    1    2    0    0 -0.85954947910E-02  0.22309386629E-01 -0.22814868481E-02  0.10199134131E+01  0.10196306066E+01 0.  0.
         14    1    1    2    0    0  0.85954947910E-02 -0.22309386629E-01  0.22814868481E-02  0.24016586866E-01  0.00000000000E+00 0.  1.
     999901    1    3    3    0    0 -0.12515641640E+00  0.11741258218E-01 -0.25036058687E-01  0.88928555029E+00  0.88000000000E+00 0. -1.
        -11    1    3    3    0    0  0.46175689755E-01  0.27298877493E-01 -0.32642660263E-02  0.53743274840E-01  0.51100000000E-03 0. -1.
         11    1    3    3    0    0  0.70385231858E-01 -0.16730749082E-01  0.26018837865E-01  0.76884588009E-01  0.51100000000E-03 0.  1.
</event>
<event>
 8    1  0.9952977E+004  0.1043930E+01  0.7957747E-01            NaN
         13   -1    0    0    0    0  0.00000000000E+00  0.00000000000E+00  0.74505805969E-08  0.10566000000E+00  0.10566000000E+00 0.  1.
     999900   -1    0    0    0    0 -0.00000000000E+00 -0.00000000000E+00 -0.74505805969E-08  0.93827000000E+00  0.93827000000E+00 0. -1.
     999902    2    1    2    0    0  0.15096692697E-01 -0.72510183730E-02  0.16198246041E-01  0.10206304169E+01  0.10203644336E+01 0.  0.
     999903    2    3    3    0    0  0.57304510503E-01 -0.29180995913E-01  0.11557955152E+00  0.13376003873E+00  0.19944367261E-01 0.  0.
         14    1    1    2    0    0 -0.15096692697E-01  0.72510183730E-02 -0.16198246041E-01  0.23299583100E-01  0.00000000000E+00 0. -1.
     999901    1    3    3    0    0 -0.42207817806E-01  0.21929977540E-01 -0.99381305476E-01  0.88687037817E+00  0.88000000000E+00 0. -1.
        -11    1    4    4    0    0  0.12042049098E-01  0.44462126545E-03  0.32027459751E-01  0.34223207530E-01  0.51100000000E-03 0. -1.
         11    1    4    4    0    0  0.45262461405E-01 -0.29625617178E-01  0.83552091766E-01  0.99536831199E-01  0.51100000000E-03 0.  1.
</event>
<event>
 8    1  0.9952977E+004  0.1043930E+01  0.7957747E-01            NaN
         13   -1    0    0    0    0  0.00000000000E+00  0.00000000000E+00  0.74505805969E-08  0.10566000000E+00  0.10566000000E+00 0. -1.
     999900   -1    0    0    0    0 -0.00000000000E+00 -0.00000000000E+00 -0.74505805969E-08  0.93827000000E+00  0.93827000000E+00 0.  1.
     999902    2    1    2    0    0  0.12206515226E-01  0.21641662865E-01  0.52742597500E-02  0.10185296378E+01  0.10182128680E+01 0.  0.
     999903    2    3    3    0    0 -0.11589509187E+00  0.45265271286E-01  0.26158131669E-01  0.12869581467E+00  0.19943614453E-01 0.  0.
         14    1    1    2    0    0 -0.12206515226E-01 -0.21641662865E-01 -0.52742597500E-02  0.25400362231E-01  0.00000000000E+00 0. -1.
     999901    1    3    3    0    0  0.12810160710E+00 -0.23623608421E-01 -0.20883871919E-01  0.88983382309E+00  0.88000000000E+00 0. -1.
        -11    1    4    4    0    0 -0.27696884163E-01  0.77427298416E-02 -0.18941476771E-02  0.28825616631E-01  0.51100000000E-03 0. -1.
         11    1    4    4    0    0 -0.88198207710E-01  0.37522541445E-01  0.28052279346E-01  0.99870198043E-01  0.51100000000E-03 0.  1.
</event>
<event>
 8    1  0.9952977E+004  0.1043930E+01  0.7957747E-01            NaN
         13   -1    0    0    0    0  0.00000000000E+00  0.00000000000E+00  0.74505805969E-08  0.10566000000E+00  0.10566000000E+00 0.  1.
     999900   -1    0    0    0    0 -0.00000000000E+00 -0.00000000000E+00 -0.74505805969E-08  0.93827000000E+00  0.93827000000E+00 0.  1.
     999902    2    1    2    0    0  0.13424696798E-01 -0.19687847406E-01  0.18143794986E-02  0.10200317617E+01  0.10197517684E+01 0.  0.
     999903    2    3    3    0    0 -0.11372924239E+00  0.47277623020E-01 -0.21303824992E-01  0.12807495231E+00  0.27925369094E-01 0.  0.
         14    1    1    2    0    0 -0.13424696798E-01  0.19687847406E-01 -0.18143794986E-02  0.23898238273E-01  0.00000000000E+00 0.  1.
     999901    1    3    3    0    0  0.12715393918E+00 -0.66965470427E-01  0.23118204490E-01  0.89195680941E+00  0.88000000000E+00 0.  1.
        -11    1    4    4    0    0 -0.10037210491E+00  0.35087820876E-01 -0.25840210446E-01  0.10942436756E+00  0.51100000000E-03 0. -1.
         11    1    4    4    0    0 -0.13357137473E-01  0.12189802144E-01  0.45363854546E-02  0.18650584757E-01  0.51100000000E-03 0.  1.
</event>
<event>
 8    1  0.9952977E+004  0.1043930E+01  0.7957747E-01            NaN
         13   -1    0    0    0    0  0.00000000000E+00  0.00000000000E+00  0.74505805969E-08  0.10566000000E+00  0.10566000000E+00 0. -1.
     999900   -1    0    0    0    0 -0.00000000000E+00 -0.00000000000E+00 -0.74505805969E-08  0.93827000000E+00  0.93827000000E+00 0.  1.
     999902    2    1    2    0    0 -0.18832696927E-01  0.12529744280E-01  0.10198059637E-01  0.10191173946E+01  0.10188152917E+01 0.  0.
     999903    2    3    3    0    0 -0.50560640354E-01 -0.11704519670E+00  0.83991051589E-03  0.12901408451E+00  0.19697008089E-01 0.  0.
         14    1    1    2    0    0  0.18832696927E-01 -0.12529744280E-01 -0.10198059637E-01  0.24812605378E-01  0.00000000000E+00 0. -1.
     999901    1    3    3    0    0  0.31727943427E-01  0.12957494098E+00  0.93581491216E-02  0.89010331012E+00  0.88000000000E+00 0.  1.
        -11    1    4    4    0    0 -0.46902368564E-01 -0.87890931808E-01  0.73917687714E-03  0.99626580662E-01  0.51100000000E-03 0.  1.
         11    1    4    4    0    0 -0.36582717898E-02 -0.29154264893E-01  0.10073363875E-03  0.29387503844E-01  0.51100000000E-03 0. -1.
</event>
<event>
 8    1  0.9952977E+004  0.1043930E+01  0.7957747E-01            NaN
         13   -1    0    0    0    0  0.00000000000E+00  0.00000000000E+00  0.74505805969E-08  0.10566000000E+00  0.10566000000E+00 0. -1.
     999900   -1    0    0    0    0 -0.00000000000E+00 -0.00000000000E+00 -0.74505805969E-08  0.93827000000E+00  0.93827000000E+00 0.  1.
     999902    2    1    2    0    0 -0.22253870967E-01 -0.13051574378E-01  0.39829785124E-02  0.10178255467E+01  0.10174907375E+01 0.  0.
     999903    2    3    3    0    0  0.12240550626E+00  0.17111725830E-02 -0.20033872787E-01  0.12556937085E+00  0.19500634917E-01 0.  0.
         14    1    1    2    0    0  0.22253870967E-01  0.13051574378E-01 -0.39829785124E-02  0.26104453348E-01  0.00000000000E+00 0. -1.
     999901    1    3    3    0    0 -0.14465937722E+00 -0.14762746961E-01  0.24016851300E-01  0.89225617581E+00  0.88000000000E+00 0. -1.
        -11    1    4    4    0    0  0.16949957931E-01 -0.50909792829E-02 -0.72141418462E-02  0.19118684774E-01  0.51100000000E-03 0.  1.
         11    1    4    4    0    0  0.10545554833E+00  0.68021518659E-02 -0.12819730941E-01  0.10645068607E+00  0.51100000000E-03 0. -1.
</event>
<event>
 8    1  0.9952977E+004  0.1043930E+01  0.7957747E-01            NaN
         13   -1    0    0    0    0  0.00000000000E+00  0.00000000000E+00  0.74505805969E-08  0.10566000000E+00  0.10566000000E+00 0.  1.
     999900   -1    0    0    0    0 -0.00000000000E+00 -0.00000000000E+00 -0.74505805969E-08  0.93827000000E+00  0.93827000000E+00 0.  1.
     999902    2    1    2    0    0 -0.12590563319E-01 -0.18361881646E-01  0.99246013145E-02  0.10195542191E+01  0.10192627861E+01 0.  0.
     999903    2    3    3    0    0  0.86115902419E-02  0.99634638197E-01 -0.76319468431E-01  0.12724779777E+00  0.19134266671E-01 0.  0.
         14    1    1    2    0    0  0.12590563319E-01  0.18361881646E-01 -0.99246013145E-02  0.24375780881E-01  0.00000000000E+00 0. -1.
     999901    1    3    3    0    0 -0.21202153561E-01 -0.11799651984E+00  0.86244069746E-01  0.89230642135E+00  0.88000000000E+00 0. -1.
        -11    1    4    4    0    0  0.39830455365E-03  0.45463623565E-01 -0.45764598516E-01  0.64511699036E-01  0.51100000000E-03 0. -1.
         11    1    4    4    0    0  0.82132856882E-02  0.54171014633E-01 -0.30554869915E-01  0.62736098736E-01  0.51100000000E-03 0.  1.
</event>
<event>
 8    1  0.9952977E+004  0.1043930E+01  0.7957747E-01            NaN
         13   -1    0    0    0    0  0.00000000000E+00  0.00000000000E+00  0.74505805969E-08  0.10566000000E+00  0.10566000000E+00 0. -1.
     999900   -1    0    0    0    0 -0.00000000000E+00 -0.00000000000E+00 -0.74505805969E-08  0.93827000000E+00  0.93827000000E+00 0.  1.
     999902    2    1    2    0    0  0.17061656318E-01  0.77788109672E-02 -0.13973464377E-01  0.10205447969E+01  0.10202768324E+01 0.  0.
     999903    2    3    3    0    0  0.11171434059E+00  0.69802781055E-01 -0.32541202898E-02  0.13323368584E+00  0.19700345349E-01 0.  0.
         14    1    1    2    0    0 -0.17061656318E-01 -0.77788109672E-02  0.13973464377E-01  0.23385203079E-01  0.00000000000E+00 0. -1.
     999901    1    3    3    0    0 -0.94652684276E-01 -0.62023970088E-01 -0.10719344087E-01  0.88731111108E+00  0.88000000000E+00 0. -1.
        -11    1    4    4    0    0  0.91079248231E-01  0.63301743293E-01 -0.75339771357E-02  0.11117356743E+00  0.51100000000E-03 0. -1.
         11    1    4    4    0    0  0.20635092362E-01  0.65010377617E-02  0.42798568459E-02  0.22060118413E-01  0.51100000000E-03 0.  1.
</event>
<event>
 8    1  0.9952977E+004  0.1043930E+01  0.7957747E-01            NaN
         13   -1    0    0    0    0  0.00000000000E+00  0.00000000000E+00  0.74505805969E-08  0.10566000000E+00  0.10566000000E+00 0.  1.
     999900   -1    0    0    0    0 -0.00000000000E+00 -0.00000000000E+00 -0.74505805969E-08  0.93827000000E+00  0.93827000000E+00 0. -1.
     999902    2    1    2    0    0  0.13329740311E-01  0.18393315123E-01 -0.46052103766E-02  0.10207523388E+01  0.10204891636E+01 0.  0.
     999903    2    3    3    0    0  0.12230028561E+00 -0.40059851315E-01 -0.20973075762E-01  0.13195581569E+00  0.20256254282E-01 0.  0.
         14    1    1    2    0    0 -0.13329740311E-01 -0.18393315123E-01  0.46052103766E-02  0.23177661241E-01  0.00000000000E+00 0. -1.
     999901    1    3    3    0    0 -0.10897054530E+00  0.58453166438E-01  0.16367865385E-01  0.88879652307E+00  0.88000000000E+00 0.  1.
        -11    1    4    4    0    0  0.10452728340E+00 -0.27106495936E-01 -0.14064275426E-01  0.10889802597E+00  0.51100000000E-03 0. -1.
         11    1    4    4    0    0  0.17773002217E-01 -0.12953355379E-01 -0.69088003362E-02  0.23057789713E-01  0.51100000000E-03 0.  1.
</event>
<event>
 8    1  0.9952977E+004  0.1043930E+01  0.7957747E-01            NaN
         13   -1    0    0    0    0  0.00000000000E+00  0.00000000000E+00  0.74505805969E-08  0.10566000000E+00  0.10566000000E+00 0. -1.
     999900   -1    0    0    0    0 -0.00000000000E+00 -0.00000000000E+00 -0.74505805969E-08  0.93827000000E+00  0.93827000000E+00 0.  1.
     999902    2    1    2    0    0  0.12750491062E-01  0.15199081797E-01 -0.37621683572E-02  0.10237374018E+01  0.10235382391E+01 0.  0.
     999903    2    3    3    0    0  0.60764618280E-01 -0.43789827453E-01  0.10839911842E+00  0.13336377123E+00  0.20631015022E-01 0.  0.
         14    1    1    2    0    0 -0.12750491062E-01 -0.15199081797E-01  0.37621683572E-02  0.20192598162E-01  0.00000000000E+00 0. -1.
     999901    1    3    3    0    0 -0.48014127218E-01  0.58988909250E-01 -0.11216128677E+00  0.89037363061E+00  0.88000000000E+00 0.  1.
        -11    1    4    4    0    0  0.24504680923E-01 -0.11921400119E-01  0.24921112002E-01  0.36931316147E-01  0.51100000000E-03 0. -1.
         11    1    4    4    0    0  0.36259937357E-01 -0.31868427334E-01  0.83478006414E-01  0.96432455085E-01  0.51100000000E-03 0.  1.
</event>
<event>
 8    1  0.9952977E+004  0.1043930E+01  0.7957747E-01            NaN
         13   -1    0    0    0    0  0.00000000000E+00  0.00000000000E+00  0.74505805969E-08  0.10566000000E+00  0.10566000000E+00 0. -1.
     999900   -1    0    0    0    0 -0.00000000000E+00 -0.00000000000E+00 -0.74505805969E-08  0.93827000000E+00  0.93827000000E+00 0.  1.
     999902    2    1    2    0    0 -0.12146361406E-01  0.11366742567E-01 -0.15766965682E-01  0.10210098312E+01  0.10207525367E+01 0.  0.
     999903    2    3    3    0    0  0.58971406106E-01  0.82614011904E-01 -0.83006047801E-01  0.13272215007E+00  0.20553915608E-01 0.  0.
         14    1    1    2    0    0  0.12146361406E-01 -0.11366742567E-01  0.15766965682E-01  0.22920168821E-01  0.00000000000E+00 0. -1.
     999901    1    3    3    0    0 -0.71117767512E-01 -0.71247269337E-01  0.67239082119E-01  0.88828768111E+00  0.88000000000E+00 0. -1.
        -11    1    4    4    0    0  0.80004027383E-02  0.12432566603E-01 -0.22639340258E-01  0.27043964292E-01  0.51100000000E-03 0.  1.
         11    1    4    4    0    0  0.50971003368E-01  0.70181445301E-01 -0.60366707543E-01  0.10567818578E+00  0.51100000000E-03 0. -1.
</event>
<event>
 8    1  0.9952977E+004  0.1043930E+01  0.7957747E-01            NaN
         13   -1    0    0    0    0  0.00000000000E+00  0.00000000000E+00  0.74505805969E-08  0.10566000000E+00  0.10566000000E+00 0. -1.
     999900   -1    0    0    0    0 -0.00000000000E+00 -0.00000000000E+00 -0.74505805969E-08  0.93827000000E+00  0.93827000000E+00 0. -1.
     999902    2    1    2    0    0 -0.15618688016E-01  0.18427883809E-01  0.25239351395E-02  0.10196421313E+01  0.10193528218E+01 0.  0.
     999903    2    3    3    0    0 -0.85502779271E-01  0.97034502142E-01 -0.24838359299E-01  0.13295645881E+00  0.18277198302E-01 0.  0.
         14    1    1    2    0    0  0.15618688016E-01 -0.18427883809E-01 -0.25239351395E-02  0.24287868692E-01  0.00000000000E+00 0.  1.
     999901    1    3    3    0    0  0.69884091255E-01 -0.78606618333E-01  0.27362294438E-01  0.88668567250E+00  0.88000000000E+00 0.  1.
        -11    1    4    4    0    0 -0.40063463890E-01  0.57847500855E-01 -0.17438951632E-01  0.72496845787E-01  0.51100000000E-03 0.  1.
         11    1    4    4    0    0 -0.45439315381E-01  0.39187001287E-01 -0.73994076672E-02  0.60459613023E-01  0.51100000000E-03 0. -1.
</event>
<event>
 8    1  0.9952977E+004  0.1043930E+01  0.7957747E-01            NaN
         13   -1    0    0    0    0  0.00000000000E+00  0.00000000000E+00  0.74505805969E-08  0.10566000000E+00  0.10566000000E+00 0. -1.
     999900   -1    0    0    0    0 -0.00000000000E+00 -0.00000000000E+00 -0.74505805969E-08  0.93827000000E+00  0.93827000000E+00 0.  1.
     999902    2    1    2    0    0  0.41586360782E-02 -0.14910183312E-01 -0.17746338386E-01  0.10203813196E+01  0.10201095515E+01 0.  0.
     999903    2    3    3    0    0 -0.11837165382E+00  0.37322679603E-01  0.28656968883E-01  0.12914890841E+00  0.21292905809E-01 0.  0.
         14    1    1    2    0    0 -0.41586360782E-02  0.14910183312E-01  0.17746338386E-01  0.23548680357E-01  0.00000000000E+00 0. -1.
     999901    1    3    3    0    0  0.12253028989E+00 -0.52232862915E-01 -0.46403307269E-01  0.89123241123E+00  0.88000000000E+00 0. -1.
        -11    1    4    4    0    0 -0.60823595762E-01  0.14488905422E-01  0.45026303728E-02  0.62689496593E-01  0.51100000000E-03 0. -1.
         11    1    4    4    0    0 -0.57548058053E-01  0.22833774181E-01  0.24154338510E-01  0.66459411815E-01  0.51100000000E-03 0.  1.
</event>
<event>
 8    1  0.9952977E+004  0.1043930E+01  0.7957747E-01            NaN
         13   -1    0    0    0    0  0.00000000000E+00  0.00000000000E+00  0.74505805969E-08  0.10566000000E+00  0.10566000000E+00 0. -1.
     999900   -1    0    0    0    0 -0.00000000000E+00 -0.00000000000E+00 -0.74505805969E-08  0.93827000000E+00  0.93827000000E+00 0.  1.
     999902    2    1    2    0    0  0.17224821296E-01 -0.55226615967E-02 -0.13656742223E-01  0.10212650299E+01  0.10210134967E+01 0.  0.
     999903    2    3    3    0    0  0.97621559711E-01  0.27696715839E-02  0.86301591823E-01  0.13192591189E+00  0.20465616939E-01 0.  0.
         14    1    1    2    0    0 -0.17224821296E-01  0.55226615967E-02  0.13656742223E-01  0.22664970063E-01  0.00000000000E+00 0. -1.
     999901    1    3    3    0    0 -0.80396738415E-01 -0.82923331806E-02 -0.99958334046E-01  0.88933911804E+00  0.88000000000E+00 0. -1.
        -11    1    4    4    0    0  0.73130684417E-02 -0.99901750725E-03  0.69263476445E-03  0.74310073294E-02  0.51100000000E-03 0.  1.
         11    1    4    4    0    0  0.90308491270E-01  0.37686890911E-02  0.85608957058E-01  0.12449490456E+00  0.51100000000E-03 0. -1.
</event>
<event>
 8    1  0.9952977E+004  0.1043930E+01  0.7957747E-01            NaN
         13   -1    0    0    0    0  0.00000000000E+00  0.00000000000E+00  0.74505805969E-08  0.10566000000E+00  0.10566000000E+00 0.  1.
     999900   -1    0    0    0    0 -0.00000000000E+00 -0.00000000000E+00 -0.74505805969E-08  0.93827000000E+00  0.93827000000E+00 0. -1.
     999902    2    1    2    0    0  0.18895101688E-01 -0.11572913962E-01  0.83239266536E-02  0.10202605057E+01  0.10199859090E+01 0.  0.
     999903    2    3    3    0    0  0.66567743999E-01  0.11048315533E+00  0.26466837707E-02  0.13053999006E+00  0.19897032859E-01 0.  0.
         14    1    1    2    0    0 -0.18895101688E-01  0.11572913962E-01 -0.83239266536E-02  0.23669494298E-01  0.00000000000E+00 0. -1.
     999901    1    3    3    0    0 -0.47672642311E-01 -0.12205606929E+00  0.56772428829E-02  0.88972051565E+00  0.88000000000E+00 0. -1.
        -11    1    4    4    0    0  0.16747601297E-01  0.17554314202E-01  0.61684142941E-02  0.25038900779E-01  0.51100000000E-03 0. -1.
         11    1    4    4    0    0  0.49820142702E-01  0.92928841126E-01 -0.35217305234E-02  0.10550108928E+00  0.51100000000E-03 0.  1.
</event>
<event>
 8    1  0.9952977E+004  0.1043930E+01  0.7957747E-01            NaN
         13   -1    0    0    0    0  0.00000000000E+00  0.00000000000E+00  0.74505805969E-08  0.10566000000E+00  0.10566000000E+00 0. -1.
     999900   -1    0    0    0    0 -0.00000000000E+00 -0.00000000000E+00 -0.74505805969E-08  0.93827000000E+00  0.93827000000E+00 0.  1.
     999902    2    1    2    0    0  0.17396818566E-01 -0.44498904172E-02  0.19054777949E-01  0.10177472694E+01  0.10174104230E+01 0.  0.
     999903    2    3    3    0    0  0.41908789759E-01  0.11941318163E+00  0.72239596001E-02  0.12865623600E+00  0.22008790582E-01 0.  0.
         14    1    1    2    0    0 -0.17396818566E-01  0.44498904172E-02 -0.19054777949E-01  0.26182730638E-01  0.00000000000E+00 0.  1.
     999901    1    3    3    0    0 -0.24511971193E-01 -0.12386307205E+00  0.11830818349E-01  0.88909103337E+00  0.88000000000E+00 0. -1.
        -11    1    4    4    0    0  0.16713772710E-01  0.42752794679E-01  0.13121138112E-01  0.47744916351E-01  0.51100000000E-03 0. -1.
         11    1    4    4    0    0  0.25195017049E-01  0.76660386950E-01 -0.58971785117E-02  0.80911319646E-01  0.51100000000E-03 0.  1.
</event>
<event>
 8    1  0.9952977E+004  0.1043930E+01  0.7957747E-01            NaN
         13   -1    0    0    0    0  0.00000000000E+00  0.00000000000E+00  0.74505805969E-08  0.10566000000E+00  0.10566000000E+00 0.  1.
     999900   -1    0    0    0    0 -0.00000000000E+00 -0.00000000000E+00 -0.74505805969E-08  0.93827000000E+00  0.93827000000E+00 0.  1.
     999902    2    1    2    0    0 -0.23345518240E-01 -0.43816769939E-02  0.17950689369E-02  0.10201091145E+01  0.10198309521E+01 0.  0.
     999903    2    3    3    0    0  0.62916177153E-01 -0.11008188961E+00  0.16196294054E-01  0.12947955605E+00  0.20643830188E-01 0.  0.
         14    1    1    2    0    0  0.23345518240E-01  0.43816769939E-02 -0.17950689369E-02  0.23820885535E-01  0.00000000000E+00 0. -1.
     999901    1    3    3    0    0 -0.86261695393E-01  0.10570021262E+00 -0.14401225117E-01  0.89062955842E+00  0.88000000000E+00 0.  1.
        -11    1    4    4    0    0  0.78375534790E-02 -0.31228161643E-01  0.59906432651E-02  0.32753232693E-01  0.51100000000E-03 0.  1.
         11    1    4    4    0    0  0.55078623674E-01 -0.78853727972E-01  0.10205650789E-01  0.96726323356E-01  0.51100000000E-03 0. -1.
</event>
<event>
 8    1  0.9952977E+004  0.1043930E+01  0.7957747E-01            NaN
         13   -1    0    0    0    0  0.00000000000E+00  0.00000000000E+00  0.74505805969E-08  0.10566000000E+00  0.10566000000E+00 0. -1.
     999900   -1    0    0    0    0 -0.00000000000E+00 -0.00000000000E+00 -0.74505805969E-08  0.93827000000E+00  0.93827000000E+00 0.  1.
     999902    2    1    2    0    0 -0.62970894602E-02 -0.20018490763E-01 -0.11029609735E-01  0.10202224991E+01  0.10199470094E+01 0.  0.
     999903    2    3    3    0    0  0.54357532583E-01 -0.61569500746E-01 -0.10204491142E+00  0.13247858628E+00  0.19795633463E-01 0.  0.
         14    1    1    2    0    0  0.62970894602E-02  0.20018490763E-01  0.11029609735E-01  0.23707500902E-01  0.00000000000E+00 0. -1.
     999901    1    3    3    0    0 -0.60654622043E-01  0.41551009982E-01  0.91015301690E-01  0.88774391282E+00  0.88000000000E+00 0. -1.
        -11    1    4    4    0    0  0.32479409779E-01 -0.48726969179E-01 -0.64013690903E-01  0.86759687234E-01  0.51100000000E-03 0.  1.
         11    1    4    4    0    0  0.21878122804E-01 -0.12842531566E-01 -0.38031220522E-01  0.45718899045E-01  0.51100000000E-03 0. -1.
</event>
<event>
 8    1  0.9952977E+004  0.1043930E+01  0.7957747E-01            NaN
         13   -1    0    0    0    0  0.00000000000E+00  0.00000000000E+00  0.74505805969E-08  0.10566000000E+00  0.10566000000E+00 0. -1.
     999900   -1    0    0    0    0 -0.00000000000E+00 -0.00000000000E+00 -0.74505805969E-08  0.93827000000E+00  0.93827000000E+00 0. -1.
     999902    2    1    2    0    0 -0.10195560278E-01  0.20096958185E-01 -0.62463754672E-02  0.10205450821E+01  0.10202771242E+01 0.  0.
     999903    2    3    3    0    0  0.66117582082E-01  0.11155063346E+00 -0.18132282368E-01  0.13244106502E+00  0.19919275887E-01 0.  0.
         14    1    1    2    0    0  0.10195560278E-01 -0.20096958185E-01  0.62463754672E-02  0.23384917878E-01  0.00000000000E+00 0. -1.
     999901    1    3    3    0    0 -0.76313142360E-01 -0.91453675279E-01  0.11885906901E-01  0.88810401711E+00  0.88000000000E+00 0. -1.
        -11    1    4    4    0    0  0.37952372497E-01  0.62058031358E-01 -0.22941484619E-03  0.72745416256E-01  0.51100000000E-03 0. -1.
         11    1    4    4    0    0  0.28165209585E-01  0.49492602107E-01 -0.17902867522E-01  0.59695648759E-01  0.51100000000E-03 0.  1.
</event>
<event>
 8    1  0.9952977E+004  0.1043930E+01  0.7957747E-01            NaN
         13   -1    0    0    0    0  0.00000000000E+00  0.00000000000E+00  0.74505805969E-08  0.10566000000E+00  0.10566000000E+00 0. -1.
     999900   -1    0    0    0    0 -0.00000000000E+00 -0.00000000000E+00 -0.74505805969E-08  0.93827000000E+00  0.93827000000E+00 0. -1.
     999902    2    1    2    0    0  0.13636637042E-01  0.17949978266E-01  0.88960059032E-02  0.10196957575E+01  0.10194077395E+01 0.  0.
     999903    2    3    3    0    0  0.25029741756E-01  0.75940513648E-01  0.10401636537E+00  0.13259903907E+00  0.19226318180E-01 0.  0.
         14    1    1    2    0    0 -0.13636637042E-01 -0.17949978266E-01 -0.88960059032E-02  0.24234242522E-01  0.00000000000E+00 0. -1.
     999901    1    3    3    0    0 -0.11393104715E-01 -0.57990535382E-01 -0.95120359470E-01  0.88709671841E+00  0.88000000000E+00 0. -1.
        -11    1    4    4    0    0  0.31016127260E-02  0.36163641921E-01  0.53633110832E-01  0.64762648935E-01  0.51100000000E-03 0.  1.
         11    1    4    4    0    0  0.21928129030E-01  0.39776871727E-01  0.50383254541E-01  0.67836390133E-01  0.51100000000E-03 0. -1.
</event>
<event>
 8    1  0.9952977E+004  0.1043930E+01  0.7957747E-01            NaN
         13   -1    0    0    0    0  0.00000000000E+00  0.00000000000E+00  0.74505805969E-08  0.10566000000E+00  0.10566000000E+00 0.  1.
     999900   -1    0    0    0    0 -0.00000000000E+00 -0.00000000000E+00 -0.74505805969E-08  0.93827000000E+00  0.93827000000E+00 0.  1.
     999902    2    1    2    0    0 -0.78244154522E-02  0.17909427400E-01 -0.13398232477E-01  0.10202343949E+01  0.10199591849E+01 0.  0.
     999903    2    3    3    0    0 -0.99066488690E-01 -0.37568344671E-01  0.71485047439E-01  0.12972438917E+00  0.22198095295E-01 0.  0.
         14    1    1    2    0    0  0.78244154522E-02 -0.17909427400E-01  0.13398232477E-01  0.23695605088E-01  0.00000000000E+00 0. -1.
     999901    1    3    3    0    0  0.91242073238E-01  0.55477772072E-01 -0.84883279916E-01  0.89051000575E+00  0.88000000000E+00 0.  1.
        -11    1    4    4    0    0 -0.76074785743E-01 -0.20974928652E-01  0.44595132391E-01  0.90643850381E-01  0.51100000000E-03 0.  1.
         11    1    4    4    0    0 -0.22991702947E-01 -0.16593416019E-01  0.26889915047E-01  0.39080538787E-01  0.51100000000E-03 0. -1.
</event>
<event>
 8    1  0.9952977E+004  0.1043930E+01  0.7957747E-01            NaN
         13   -1    0    0    0    0  0.00000000000E+00  0.00000000000E+00  0.74505805969E-08  0.10566000000E+00  0.10566000000E+00 0. -1.
     999900   -1    0    0    0    0 -0.00000000000E+00 -0.00000000000E+00 -0.74505805969E-08  0.93827000000E+00  0.93827000000E+00 0.  1.
     999902    2    1    2    0    0 -0.25575267242E-02 -0.20024144502E-01 -0.13386468034E-01  0.10197080093E+01  0.10194202860E+01 0.  0.
     999903    2    3    3    0    0  0.61852709316E-01 -0.88823110248E-01  0.70419451359E-01  0.13071677859E+00  0.20314391720E-01 0.  0.
         14    1    1    2    0    0  0.25575267242E-02  0.20024144502E-01  0.13386468034E-01  0.24221990678E-01  0.00000000000E+00 0. -1.
     999901    1    3    3    0    0 -0.64410236040E-01  0.68798965747E-01 -0.83805919394E-01  0.88899123073E+00  0.88000000000E+00 0.  1.
        -11    1    4    4    0    0  0.62161919826E-01 -0.85191784292E-01  0.70792132369E-01  0.12701783935E+00  0.51100000000E-03 0. -1.
         11    1    4    4    0    0 -0.30921051034E-03 -0.36313259564E-02 -0.37268100963E-03  0.36989392366E-02  0.51100000000E-03 0.  1.
</event>
<event>
 8    1  0.9952977E+004  0.1043930E+01  0.7957747E-01            NaN
         13   -1    0    0    0    0  0.00000000000E+00  0.00000000000E+00  0.74505805969E-08  0.10566000000E+00  0.10566000000E+00 0. -1.
     999900   -1    0    0    0    0 -0.00000000000E+00 -0.00000000000E+00 -0.74505805969E-08  0.93827000000E+00  0.93827000000E+00 0.  1.
     999902    2    1    2    0    0 -0.13259408602E-01 -0.18886871064E-01  0.80500340876E-02  0.10194896877E+01  0.10191966908E+01 0.  0.
     999903    2    3    3    0    0 -0.18860145290E-01 -0.78275263142E-01  0.10263693105E+00  0.13241301098E+00  0.22718801898E-01 0.  0.
         14    1    1    2    0    0  0.13259408602E-01  0.18886871064E-01 -0.80500340876E-02  0.24440312270E-01  0.00000000000E+00 0.  1.
     999901    1    3    3    0    0  0.56007366884E-02  0.59388392079E-01 -0.94586896963E-01  0.88707667675E+00  0.88000000000E+00 0.  1.
        -11    1    4    4    0    0 -0.36736747431E-02 -0.18106550366E-01  0.40872968214E-01  0.44857593604E-01  0.51100000000E-03 0. -1.
         11    1    4    4    0    0 -0.15186470547E-01 -0.60168712777E-01  0.61763962837E-01  0.87555417372E-01  0.51100000000E-03 0.  1.
</event>
<event>
 8    1  0.9952977E+004  0.1043930E+01  0.7957747E-01            NaN
         13   -1    0    0    0    0  0.00000000000E+00  0.00000000000E+00  0.74505805969E-08  0.10566000000E+00  0.10566000000E+00 0. -1.
     999900   -1    0    0    0    0 -0.00000000000E+00 -0.00000000000E+00 -0.74505805969E-08  0.93827000000E+00  0.93827000000E+00 0. -1.
     999902    2    1    2    0    0  0.21297954658E-02  0.58690104121E-02 -0.23029361445E-01  0.10200693043E+01  0.10197902003E+01 0.  0.
     999903    2    3    3    0    0 -0.35846175627E-01 -0.80336155748E-02  0.12047854731E+00  0.12752800144E+00  0.19970565885E-01 0.  0.
         14    1    1    2    0    0 -0.21297954658E-02 -0.58690104121E-02  0.23029361445E-01  0.23860695726E-01  0.00000000000E+00 0. -1.
     999901    1    3    3    0    0  0.37975971093E-01  0.13902625987E-01 -0.14350790876E+00  0.89254130284E+00  0.88000000000E+00 0.  1.
        -11    1    4    4    0    0 -0.10571219944E-02 -0.57959570916E-02  0.93915251526E-02  0.11098310286E-01  0.51100000000E-03 0.  1.
         11    1    4    4    0    0 -0.34789053633E-01 -0.22376584832E-02  0.11108702216E+00  0.11642969115E+00  0.51100000000E-03 0. -1.
</event>
<event>
 7    1  0.9952977E+004  0.1043930E+01  0.7957747E-01            NaN
         13   -1    0    0    0    0  0.00000000000E+00  0.00000000000E+00  0.74505805969E-08  0.10566000000E+00  0.10566000000E+00 0. -1.
     999900   -1    0    0    0    0 -0.00000000000E+00 -0.00000000000E+00 -0.74505805969E-08  0.93827000000E+00  0.93827000000E+00 0.  1.
     999903    2    1    2    0    0 -0.80987887200E-01 -0.31031124481E-01  0.55289775811E-01  0.10752873209E+00  0.31360809220E-01 0.  0.
         14    1    1    2    0    0  0.18942572496E-01 -0.16597365802E-01 -0.46506713169E-01  0.52888259322E-01  0.00000000000E+00 0.  1.
     999901    1    1    2    0    0  0.62045314704E-01  0.47628490283E-01 -0.87830626422E-02  0.88351300859E+00  0.88000000000E+00 0.  1.
        -11    1    3    3    0    0 -0.72576525485E-01 -0.25252155088E-01  0.34237693947E-01  0.84127903789E-01  0.51100000000E-03 0. -1.
         11    1    3    3    0    0 -0.84113617148E-02 -0.57789693935E-02  0.21052081864E-01  0.23400828296E-01  0.51100000000E-03 0.  1.
</event>
<event>
 8    1  0.9952977E+004  0.1043930E+01  0.7957747E-01            NaN
         13   -1    0    0    0    0  0.00000000000E+00  0.00000000000E+00  0.74505805969E-08  0.10566000000E+00  0.10566000000E+00 0. -1.
     999900   -1    0    0    0    0 -0.00000000000E+00 -0.00000000000E+00 -0.74505805969E-08  0.93827000000E+00  0.93827000000E+00 0.  1.
     999902    2    1    2    0    0  0.16803332586E-01  0.16091483508E-01 -0.22496214599E-01  0.10115669424E+01  0.10110491142E+01 0.  0.
     999903    2    3    3    0    0 -0.66145335097E-02  0.12246979292E+00  0.63542401367E-02  0.12438201808E+00  0.19695375659E-01 0.  0.
         14    1    1    2    0    0 -0.16803332586E-01 -0.16091483508E-01  0.22496214599E-01  0.32363057624E-01  0.00000000000E+00 0. -1.
     999901    1    3    3    0    0  0.23417866095E-01 -0.10637830941E+00 -0.28850454735E-01  0.88718492430E+00  0.88000000000E+00 0.  1.
        -11    1    4    4    0    0 -0.43466357659E-03  0.10275609729E+00  0.10536680421E-01  0.10329708234E+00  0.51100000000E-03 0.  1.
         11    1    4    4    0    0 -0.61798699331E-02  0.19713695623E-01 -0.41824402847E-02  0.21084935742E-01  0.51100000000E-03 0. -1.
</event>
<event>
 8    1  0.9952977E+004  0.1043930E+01  0.7957747E-01            NaN
         13   -1    0    0    0    0  0.00000000000E+00  0.00000000000E+00  0.74505805969E-08  0.10566000000E+00  0.10566000000E+00 0.  1.
     999900   -1    0    0    0    0 -0.00000000000E+00 -0.00000000000E+00 -0.74505805969E-08  0.93827000000E+00  0.93827000000E+00 0. -1.
     999902    2    1    2    0    0 -0.11377282950E-01  0.68832766738E-02 -0.19889150881E-01  0.10200051094E+01  0.10197244838E+01 0.  0.
     999903    2    3    3    0    0  0.95820737881E-01 -0.22573641851E-01 -0.83605261816E-01  0.13072513750E+00  0.20199966740E-01 0.  0.
         14    1    1    2    0    0  0.11377282950E-01 -0.68832766738E-02  0.19889150881E-01  0.23924890551E-01  0.00000000000E+00 0.  1.
     999901    1    3    3    0    0 -0.10719802083E+00  0.29456918525E-01  0.63716110935E-01  0.88927997195E+00  0.88000000000E+00 0.  1.
        -11    1    4    4    0    0  0.88510477300E-02 -0.39604829883E-02 -0.17827129207E-02  0.98724696898E-02  0.51100000000E-03 0.  1.
         11    1    4    4    0    0  0.86969690151E-01 -0.18613158863E-01 -0.81822548896E-01  0.12085266781E+00  0.51100000000E-03 0. -1.
</event>
<event>
 7    1  0.9952977E+004  0.1043930E+01  0.7957747E-01            NaN
         13   -1    0    0    0    0  0.00000000000E+00  0.00000000000E+00  0.74505805969E-08  0.10566000000E+00  0.10566000000E+00 0. -1.
     999900   -1    0    0    0    0 -0.00000000000E+00 -0.00000000000E+00 -0.74505805969E-08  0.93827000000E+00  0.93827000000E+00 0.  1.
     999902    2    1    2    0    0  0.20335691748E-01  0.11768561940E-01 -0.65637160407E-02  0.10195348821E+01  0.10192429809E+01 0.  0.
         14    1    1    2    0    0 -0.20335691748E-01 -0.11768561940E-01  0.65637160407E-02  0.24395117898E-01  0.00000000000E+00 0. -1.
     999901    1    3    3    0    0 -0.41810354418E-01 -0.92615634570E-01  0.33212553234E-01  0.88646987269E+00  0.88000000000E+00 0.  1.
        -11    1    3    3    0    0  0.14354895734E-01  0.53509165664E-01 -0.28674756099E-01  0.62384265644E-01  0.51100000000E-03 0.  1.
         11    1    3    3    0    0  0.47791150432E-01  0.50875030845E-01 -0.11101513175E-01  0.70680743763E-01  0.51100000000E-03 0. -1.
</event>
<event>
 8    1  0.9952977E+004  0.1043930E+01  0.7957747E-01            NaN
         13   -1    0    0    0    0  0.00000000000E+00  0.00000000000E+00  0.74505805969E-08  0.10566000000E+00  0.10566000000E+00 0. -1.
     999900   -1    0    0    0    0 -0.00000000000E+00 -0.00000000000E+00 -0.74505805969E-08  0.93827000000E+00  0.93827000000E+00 0. -1.
     999902    2    1    2    0    0 -0.18068258807E-01 -0.19334568298E-02 -0.15492669593E-01  0.10200506566E+01  0.10197711110E+01 0.  0.
     999903    2    3    3    0    0  0.18281714569E-01  0.11631331701E+00  0.48989715806E-01  0.12906154434E+00  0.19846439723E-01 0.  0.
         14    1    1    2    0    0  0.18068258807E-01  0.19334568298E-02  0.15492669593E-01  0.23879343432E-01  0.00000000000E+00 0.  1.
     999901    1    3    3    0    0 -0.36349973376E-01 -0.11824677384E+00 -0.64482385400E-01  0.89098911223E+00  0.88000000000E+00 0. -1.
        -11    1    4    4    0    0  0.15134272812E-01  0.36938773677E-01  0.17995940962E-01  0.43790800705E-01  0.51100000000E-03 0.  1.
         11    1    4    4    0    0  0.31474417579E-02  0.79374543335E-01  0.30993774845E-01  0.85270743631E-01  0.51100000000E-03 0. -1.
</event>
<event>
 8    1  0.9952977E+004  0.1043930E+01  0.7957747E-01            NaN
         13   -1    0    0    0    0  0.00000000000E+00  0.00000000000E+00  0.74505805969E-08  0.10566000000E+00  0.10566000000E+00 0.  1.
     999900   -1    0    0    0    0 -0.00000000000E+00 -0.00000000000E+00 -0.74505805969E-08  0.93827000000E+00  0.93827000000E+00 0.  1.
     999902    2    1    2    0    0  0.24950289435E-01 -0.25434720040E-02 -0.99225276649E-03  0.10188307817E+01  0.10185215712E+01 0.  0.
     999903    2    3    3    0    0 -0.14448053569E-01 -0.12051609061E+00 -0.39574401706E-01  0.12924753638E+00  0.20147407856E-01 0.  0.
         14    1    1    2    0    0 -0.24950289435E-01  0.25434720040E-02  0.99225276649E-03  0.25099218280E-01  0.00000000000E+00 0. -1.
     999901    1    3    3    0    0  0.39398343004E-01  0.11797261860E+00  0.38582148940E-01  0.88958324534E+00  0.88000000000E+00 0.  1.
        -11    1    4    4    0    0 -0.10213276836E-01 -0.39199279492E-01 -0.21397025574E-01  0.45814717732E-01  0.51100000000E-03 0. -1.
         11    1    4    4    0    0 -0.42347767328E-02 -0.81316811114E-01 -0.18177376132E-01  0.83432818649E-01  0.51100000000E-03 0.  1.
</event>
<event>
 8    1  0.9952977E+004  0.1043930E+01  0.7957747E-01            NaN
         13   -1    0    0    0    0  0.00000000000E+00  0.00000000000E+00  0.74505805969E-08  0.10566000000E+00  0.10566000000E+00 0.  1.
     999900   -1    0    0    0    0 -0.00000000000E+00 -0.00000000000E+00 -0.74505805969E-08  0.93827000000E+00  0.93827000000E+00 0.  1.
     999902    2    1    2    0    0  0.10356987336E-01 -0.19972339288E-02  0.21656196698E-01  0.10198416836E+01  0.10195571650E+01 0.  0.
     999903    2    3    3    0    0 -0.74859570279E-02 -0.11259601655E+00 -0.59388047968E-01  0.12904505646E+00  0.19793530811E-01 0.  0.
         14    1    1    2    0    0 -0.10356987336E-01  0.19972339288E-02 -0.21656196698E-01  0.24088316368E-01  0.00000000000E+00 0. -1.
     999901    1    3    3    0    0  0.17842944363E-01  0.11059878262E+00  0.81044244666E-01  0.89079662717E+00  0.88000000000E+00 0. -1.
        -11    1    4    4    0    0  0.36360042415E-02 -0.58487244140E-01 -0.23326949144E-01  0.63074447530E-01  0.51100000000E-03 0. -1.
         11    1    4    4    0    0 -0.11121961269E-01 -0.54108772406E-01 -0.36061098825E-01  0.65970608934E-01  0.51100000000E-03 0.  1.
</event>
<event>
 8    1  0.9952977E+004  0.1043930E+01  0.7957747E-01            NaN
         13   -1    0    0    0    0  0.00000000000E+00  0.00000000000E+00  0.74505805969E-08  0.10566000000E+00  0.10566000000E+00 0. -1.
     999900   -1    0    0    0    0 -0.00000000000E+00 -0.00000000000E+00 -0.74505805969E-08  0.93827000000E+00  0.93827000000E+00 0.  1.
     999902    2    1    2    0    0  0.26318990793E-01 -0.23432496397E-02  0.12784231673E-01  0.10145766923E+01  0.10141519846E+01 0.  0.
     999903    2    3    3    0    0 -0.72131464867E-01 -0.44816982002E-01 -0.86119306786E-01  0.12256860930E+00  0.19875082017E-01 0.  0.
         14    1    1    2    0    0 -0.26318990793E-01  0.23432496397E-02 -0.12784231673E-01  0.29353307730E-01  0.00000000000E+00 0. -1.
     999901    1    3    3    0    0  0.98450455660E-01  0.42473732362E-01  0.98903538459E-01  0.89200808297E+00  0.88000000000E+00 0.  1.
        -11    1    4    4    0    0 -0.33716805289E-01 -0.32580708992E-01 -0.45546201315E-01  0.65368517901E-01  0.51100000000E-03 0. -1.
         11    1    4    4    0    0 -0.38414659578E-01 -0.12236273009E-01 -0.40573105471E-01  0.57200091401E-01  0.51100000000E-03 0.  1.
</event>
<event>
 8    1  0.9952977E+004  0.1043930E+01  0.7957747E-01            NaN
         13   -1    0    0    0    0  0.00000000000E+00  0.00000000000E+00  0.74505805969E-08  0.10566000000E+00  0.10566000000E+00 0. -1.
     999900   -1    0    0    0    0 -0.00000000000E+00 -0.00000000000E+00 -0.74505805969E-08  0.93827000000E+00  0.93827000000E+00 0. -1.
     999902    2    1    2    0    0  0.19093257005E-01  0.50513289160E-02  0.27143997890E-02  0.10239941942E+01  0.10238001140E+01 0.  0.
     999903    2    3    3    0    0 -0.12311509226E+00  0.32007933250E-01  0.14716132315E-01  0.13208953858E+00  0.32392096568E-01 0.  0.
         14    1    1    2    0    0 -0.19093257005E-01 -0.50513289160E-02 -0.27143997890E-02  0.19935805805E-01  0.00000000000E+00 0.  1.
     999901    1    3    3    0    0  0.14220834926E+00 -0.26956604334E-01 -0.12001732526E-01  0.89190465561E+00  0.88000000000E+00 0. -1.
        -11    1    4    4    0    0 -0.76464924889E-01  0.34023453493E-02  0.84298084519E-02  0.77005087389E-01  0.51100000000E-03 0. -1.
         11    1    4    4    0    0 -0.46650167369E-01  0.28605587900E-01  0.62863238631E-02  0.55084451195E-01  0.51100000000E-03 0.  1.
</event>
<event>
 8    1  0.9952977E+004  0.1043930E+01  0.7957747E-01            NaN
         13   -1    0    0    0    0  0.00000000000E+00  0.00000000000E+00  0.74505805969E-08  0.10566000000E+00  0.10566000000E+00 0. -1.
     999900   -1    0    0    0    0 -0.00000000000E+00 -0.00000000000E+00 -0.74505805969E-08  0.93827000000E+00  0.93827000000E+00 0.  1.
     999902    2    1    2    0    0 -0.25523757368E-02 -0.22468111759E-01  0.15137810562E-02  0.10212667654E+01  0.10210152712E+01 0.  0.
     999903    2    3    3    0    0  0.12778691610E+00 -0.24804484756E-01 -0.19566754244E-02  0.13165683198E+00  0.19619746114E-01 0.  0.
         14    1    1    2    0    0  0.25523757368E-02  0.22468111759E-01 -0.15137810562E-02  0.22663234567E-01  0.00000000000E+00 0. -1.
     999901    1    3    3    0    0 -0.13033929184E+00  0.23363729965E-02  0.34704564806E-02  0.88960993346E+00  0.88000000000E+00 0.  1.
        -11    1    4    4    0    0  0.66961339301E-01 -0.17112708738E-01  0.78710820877E-02  0.69562064486E-01  0.51100000000E-03 0. -1.
         11    1    4    4    0    0  0.60825576798E-01 -0.76917760177E-02 -0.98277575121E-02  0.62094767491E-01  0.51100000000E-03 0.  1.
</event>
<event>
 8    1  0.9952977E+004  0.1043930E+01  0.7957747E-01            NaN
         13   -1    0    0    0    0  0.00000000000E+00  0.00000000000E+00  0.74505805969E-08  0.10566000000E+00  0.10566000000E+00 0. -1.
     999900   -1    0    0    0    0 -0.00000000000E+00 -0.00000000000E+00 -0.74505805969E-08  0.93827000000E+00  0.93827000000E+00 0. -1.
     999902    2    1    2    0    0 -0.13383731859E-01  0.75313080609E-02 -0.17179627925E-01  0.10208868992E+01  0.10206268057E+01 0.  0.
     999903    2    3    3    0    0  0.54579842485E-01  0.25122879075E-01  0.11209095500E+00  0.12867650112E+00  0.19574000288E-01 0.  0.
         14    1    1    2    0    0  0.13383731859E-01 -0.75313080609E-02  0.17179627925E-01  0.23043100816E-01  0.00000000000E+00 0. -1.
     999901    1    3    3    0    0 -0.67963574345E-01 -0.17591571014E-01 -0.12927058293E+00  0.89221039807E+00  0.88000000000E+00 0. -1.
        -11    1    4    4    0    0  0.18276688111E-01  0.94147617591E-02  0.58904589727E-01  0.62391400683E-01  0.51100000000E-03 0. -1.
         11    1    4    4    0    0  0.36303154375E-01  0.15708117316E-01  0.53186365277E-01  0.66285100434E-01  0.51100000000E-03 0.  1.
</event>
<event>
 8    1  0.9952977E+004  0.1043930E+01  0.7957747E-01            NaN
         13   -1    0    0    0    0  0.00000000000E+00  0.00000000000E+00  0.74505805969E-08  0.10566000000E+00  0.10566000000E+00 0. -1.
     999900   -1    0    0    0    0 -0.00000000000E+00 -0.00000000000E+00 -0.74505805969E-08  0.93827000000E+00  0.93827000000E+00 0.  1.
     999902    2    1    2    0    0 -0.18937826758E-01  0.26432183740E-02 -0.13370729591E-01  0.10205975270E+01  0.10203307835E+01 0.  0.
     999903    2    3    3    0    0  0.16325224703E-01  0.15294340438E-01 -0.12891643715E+00  0.13225393120E+00  0.19267193391E-01 0.  0.
         14    1    1    2    0    0  0.18937826758E-01 -0.26432183740E-02  0.13370729591E-01  0.23332472982E-01  0.00000000000E+00 0. -1.
     999901    1    3    3    0    0 -0.35263051460E-01 -0.12651122064E-01  0.11554570756E+00  0.88834359581E+00  0.88000000000E+00 0. -1.
        -11    1    4    4    0    0  0.44358438772E-02 -0.64873208022E-03 -0.68452845193E-01  0.68601389929E-01  0.51100000000E-03 0. -1.
         11    1    4    4    0    0  0.11889380826E-01  0.15943072518E-01 -0.60463591955E-01  0.63652541275E-01  0.51100000000E-03 0.  1.
</event>
<event>
 8    1  0.9952977E+004  0.1043930E+01  0.7957747E-01            NaN
         13   -1    0    0    0    0  0.00000000000E+00  0.00000000000E+00  0.74505805969E-08  0.10566000000E+00  0.10566000000E+00 0.  1.
     999900   -1    0    0    0    0 -0.00000000000E+00 -0.00000000000E+00 -0.74505805969E-08  0.93827000000E+00  0.93827000000E+00 0. -1.
     999902    2    1    2    0    0 -0.45836625460E-02 -0.23539044769E-01 -0.18947002683E-02  0.10198740968E+01  0.10195903524E+01 0.  0.
     999903    2    3    3    0    0  0.10166821083E+00  0.65649403942E-01  0.35200393408E-01  0.12823510819E+00  0.23641191737E-01 0.  0.
         14    1    1    2    0    0  0.45836625460E-02  0.23539044769E-01  0.18947002683E-02  0.24055903227E-01  0.00000000000E+00 0.  1.
     999901    1    3    3    0    0 -0.10625187337E+00 -0.89188448711E-01 -0.37095093677E-01  0.89163898858E+00  0.88000000000E+00 0.  1.
        -11    1    4    4    0    0  0.44346495615E-01  0.40148019309E-01  0.10144630046E-01  0.60676599835E-01  0.51100000000E-03 0.  1.
         11    1    4    4    0    0  0.57321715212E-01  0.25501384633E-01  0.25055763362E-01  0.67558508359E-01  0.51100000000E-03 0. -1.
</event>
<event>
 8    1  0.9952977E+004  0.1043930E+01  0.7957747E-01            NaN
         13   -1    0    0    0    0  0.00000000000E+00  0.00000000000E+00  0.74505805969E-08  0.10566000000E+00  0.10566000000E+00 0.  1.
     999900   -1    0    0    0    0 -0.00000000000E+00 -0.00000000000E+00 -0.74505805969E-08  0.93827000000E+00  0.93827000000E+00 0.  1.
     999902    2    1    2    0    0 -0.15709381991E-01  0.10990254063E-01  0.13441405426E-01  0.10205154373E+01  0.10202467917E+01 0.  0.
     999903    2    3    3    0    0 -0.37334343413E-01  0.10179790357E+00 -0.71099758917E-01  0.13154925310E+00  0.22211796537E-01 0.  0.
         14    1    1    2    0    0  0.15709381991E-01 -0.10990254063E-01 -0.13441405426E-01  0.23414562706E-01  0.00000000000E+00 0. -1.
     999901    1    3    3    0    0  0.21624961422E-01 -0.90807649503E-01  0.84541164343E-01  0.88896618419E+00  0.88000000000E+00 0. -1.
        -11    1    4    4    0    0 -0.18313375264E-01  0.56012177889E-01 -0.25593215657E-01  0.64249650537E-01  0.51100000000E-03 0. -1.
         11    1    4    4    0    0 -0.19020968149E-01  0.45785725678E-01 -0.45506543260E-01  0.67299602567E-01  0.51100000000E-03 0.  1.
</event>
<event>
 8    1  0.9952977E+004  0.1043930E+01  0.7957747E-01            NaN
         13   -1    0    0    0    0  0.00000000000E+00  0.00000000000E+00  0.74505805969E-08  0.10566000000E+00  0.10566000000E+00 0. -1.
     999900   -1    0    0    0    0 -0.00000000000E+00 -0.00000000000E+00 -0.74505805969E-08  0.93827000000E+00  0.93827000000E+00 0. -1.
     999902    2    1    2    0    0 -0.44927299722E-02  0.15525317731E-01 -0.19036553075E-01  0.10189578061E+01  0.10186517561E+01 0.  0.
     999903    2    3    3    0    0 -0.12607528724E+00 -0.11952331357E-01 -0.22586284129E-01  0.13016652579E+00  0.19883358041E-01 0.  0.
         14    1    1    2    0    0  0.44927299722E-02 -0.15525317731E-01  0.19036553075E-01  0.24972193862E-01  0.00000000000E+00 0. -1.
     999901    1    3    3    0    0  0.12158255727E+00  0.27477649089E-01  0.35497310532E-02  0.88879128035E+00  0.88000000000E+00 0. -1.
        -11    1    4    4    0    0 -0.70502672970E-01 -0.79682824577E-02 -0.26941991166E-02  0.71004508668E-01  0.51100000000E-03 0. -1.
         11    1    4    4    0    0 -0.55572614274E-01 -0.39840488994E-02 -0.19892085012E-01  0.59162017122E-01  0.51100000000E-03 0.  1.
</event>
<event>
 8    1  0.9952977E+004  0.1043930E+01  0.7957747E-01            NaN
         13   -1    0    0    0    0  0.00000000000E+00  0.00000000000E+00  0.74505805969E-08  0.10566000000E+00  0.10566000000E+00 0. -1.
     999900   -1    0    0    0    0 -0.00000000000E+00 -0.00000000000E+00 -0.74505805969E-08  0.93827000000E+00  0.93827000000E+00 0. -1.
     999902    2    1    2    0    0  0.15326865615E-02  0.24176203884E-01 -0.16547374185E-02  0.10196488114E+01  0.10193596630E+01 0.  0.
     999903    2    3    3    0    0  0.26465241204E-01 -0.10952525877E+00 -0.56284835143E-01  0.12752653227E+00  0.19971040646E-01 0.  0.
         14    1    1    2    0    0 -0.15326865615E-02 -0.24176203884E-01  0.16547374185E-02  0.24281188567E-01  0.00000000000E+00 0. -1.
     999901    1    3    3    0    0 -0.24932554642E-01  0.13370146266E+00  0.54630097725E-01  0.89212227916E+00  0.88000000000E+00 0.  1.
        -11    1    4    4    0    0  0.11129158061E-02 -0.12725152658E-01 -0.13810113430E-01  0.18818832209E-01  0.51100000000E-03 0. -1.
         11    1    4    4    0    0  0.25352325398E-01 -0.96800106117E-01 -0.42474721713E-01  0.10870770006E+00  0.51100000000E-03 0.  1.
</event>
<event>
 8    1  0.9952977E+004  0.1043930E+01  0.7957747E-01            NaN
         13   -1    0    0    0    0  0.00000000000E+00  0.00000000000E+00  0.74505805969E-08  0.10566000000E+00  0.10566000000E+00 0.  1.
     999900   -1    0    0    0    0 -0.00000000000E+00 -0.00000000000E+00 -0.74505805969E-08  0.93827000000E+00  0.93827000000E+00 0.  1.
     999902    2    1    2    0    0 -0.14397335608E-02  0.12876838789E-01 -0.20166511479E-01  0.10199597268E+01  0.10196780229E+01 0.  0.
     999903    2    3    3    0    0  0.78299650352E-01  0.12587549247E-02 -0.10467194849E+00  0.13224664363E+00  0.20013451527E-01 0.  0.
         14    1    1    2    0    0  0.14397335608E-02 -0.12876838789E-01  0.20166511479E-01  0.23970273155E-01  0.00000000000E+00 0.  1.
     999901    1    3    3    0    0 -0.79739383913E-01  0.11618083864E-01  0.84505437014E-01  0.88771308321E+00  0.88000000000E+00 0. -1.
        -11    1    4    4    0    0  0.11863225351E-01  0.60691129981E-02 -0.10900079707E-01  0.17223330309E-01  0.51100000000E-03 0. -1.
         11    1    4    4    0    0  0.66436425001E-01 -0.48103580734E-02 -0.93771868786E-01  0.11502331332E+00  0.51100000000E-03 0.  1.
</event>
<event>
 8    1  0.9952977E+004  0.1043930E+01  0.7957747E-01            NaN
         13   -1    0    0    0    0  0.00000000000E+00  0.00000000000E+00  0.74505805969E-08  0.10566000000E+00  0.10566000000E+00 0. -1.
     999900   -1    0    0    0    0 -0.00000000000E+00 -0.00000000000E+00 -0.74505805969E-08  0.93827000000E+00  0.93827000000E+00 0.  1.
     999902    2    1    2    0    0 -0.18178577643E-01 -0.44191235171E-02 -0.14893022713E-01  0.10200178386E+01  0.10197375150E+01 0.  0.
     999903    2    3    3    0    0 -0.49163431100E-01  0.10731267430E+00  0.50703871653E-01  0.12999142980E+00  0.19845306707E-01 0.  0.
         14    1    1    2    0    0  0.18178577643E-01  0.44191235171E-02  0.14893022713E-01  0.23912161410E-01  0.00000000000E+00 0. -1.
     999901    1    3    3    0    0  0.30984853458E-01 -0.11173179782E+00 -0.65596894367E-01  0.89002640879E+00  0.88000000000E+00 0.  1.
        -11    1    4    4    0    0 -0.31142400657E-01  0.72016557461E-01  0.23454089523E-01  0.81893767184E-01  0.51100000000E-03 0. -1.
         11    1    4    4    0    0 -0.18021030444E-01  0.35296116840E-01  0.27249782131E-01  0.48097662619E-01  0.51100000000E-03 0.  1.
</event>
<event>
 8    1  0.9952977E+004  0.1043930E+01  0.7957747E-01            NaN
         13   -1    0    0    0    0  0.00000000000E+00  0.00000000000E+00  0.74505805969E-08  0.10566000000E+00  0.10566000000E+00 0. -1.
     999900   -1    0    0    0    0 -0.00000000000E+00 -0.00000000000E+00 -0.74505805969E-08  0.93827000000E+00  0.93827000000E+00 0. -1.
     999902    2    1    2    0    0  0.29480146014E-02 -0.21979488766E-01 -0.82511646435E-02  0.10202684186E+01  0.10199940076E+01 0.  0.
     999903    2    3    3    0    0 -0.81765274509E-01  0.15418828884E-01  0.96474779616E-01  0.12923390809E+00  0.21696071038E-01 0.  0.
         14    1    1    2    0    0 -0.29480146014E-02  0.21979488766E-01  0.82511646435E-02  0.23661581402E-01  0.00000000000E+00 0.  1.
     999901    1    3    3    0    0  0.84713289110E-01 -0.37398317649E-01 -0.10472594426E+00  0.89103451051E+00  0.88000000000E+00 0. -1.
        -11    1    4    4    0    0 -0.29425287421E-02  0.62590729176E-03  0.13477881025E-01  0.13818995378E-01  0.51100000000E-03 0. -1.
         11    1    4    4    0    0 -0.78822745767E-01  0.14792921592E-01  0.82996898591E-01  0.11541491271E+00  0.51100000000E-03 0.  1.
</event>
<event>
 8    1  0.9952977E+004  0.1043930E+01  0.7957747E-01            NaN
         13   -1    0    0    0    0  0.00000000000E+00  0.00000000000E+00  0.74505805969E-08  0.10566000000E+00  0.10566000000E+00 0.  1.
     999900   -1    0    0    0    0 -0.00000000000E+00 -0.00000000000E+00 -0.74505805969E-08  0.93827000000E+00  0.93827000000E+00 0. -1.
     999902    2    1    2    0    0  0.12708696255E-01 -0.19397438282E-01 -0.41385596401E-02  0.10203737005E+01  0.10201017544E+01 0.  0.
     999903    2    3    3    0    0  0.90442911543E-01 -0.26510842499E-01 -0.91115152643E-01  0.13264731441E+00  0.20263118242E-01 0.  0.
         14    1    1    2    0    0 -0.12708696255E-01  0.19397438282E-01  0.41385596401E-02  0.23556299546E-01  0.00000000000E+00 0.  1.
     999901    1    3    3    0    0 -0.77734215288E-01  0.71134042171E-02  0.86976593003E-01  0.88772638604E+00  0.88000000000E+00 0. -1.
        -11    1    4    4    0    0  0.52682228807E-01 -0.17437592579E-01 -0.66717633515E-01  0.86781280296E-01  0.51100000000E-03 0. -1.
         11    1    4    4    0    0  0.37760682736E-01 -0.90732499206E-02 -0.24397519128E-01  0.45866034114E-01  0.51100000000E-03 0.  1.
</event>
<event>
 8    1  0.9952977E+004  0.1043930E+01  0.7957747E-01            NaN
         13   -1    0    0    0    0  0.00000000000E+00  0.00000000000E+00  0.74505805969E-08  0.10566000000E+00  0.10566000000E+00 0.  1.
     999900   -1    0    0    0    0 -0.00000000000E+00 -0.00000000000E+00 -0.74505805969E-08  0.93827000000E+00  0.93827000000E+00 0. -1.
     999902    2    1    2    0    0 -0.11386389057E-01 -0.10692912260E-01 -0.18090766777E-01  0.10200288688E+01  0.10197488069E+01 0.  0.
     999903    2    3    3    0    0  0.79831032615E-01 -0.15797546649E-01  0.96669180012E-01  0.12788733259E+00  0.19689673037E-01 0.  0.
         14    1    1    2    0    0  0.11386389057E-01  0.10692912260E-01  0.18090766777E-01  0.23901131164E-01  0.00000000000E+00 0.  1.
     999901    1    3    3    0    0 -0.91217421672E-01  0.51046343890E-02 -0.11475994679E+00  0.89214153625E+00  0.88000000000E+00 0. -1.
        -11    1    4    4    0    0  0.67370100016E-01 -0.16859028803E-01  0.70943658169E-01  0.99278502123E-01  0.51100000000E-03 0.  1.
         11    1    4    4    0    0  0.12460932599E-01  0.10614821545E-02  0.25725521843E-01  0.28608830467E-01  0.51100000000E-03 0. -1.
</event>
<event>
 8    1  0.9952977E+004  0.1043930E+01  0.7957747E-01            NaN
         13   -1    0    0    0    0  0.00000000000E+00  0.00000000000E+00  0.74505805969E-08  0.10566000000E+00  0.10566000000E+00 0. -1.
     999900   -1    0    0    0    0 -0.00000000000E+00 -0.00000000000E+00 -0.74505805969E-08  0.93827000000E+00  0.93827000000E+00 0. -1.
     999902    2    1    2    0    0 -0.71317593454E-02  0.14879723078E-01  0.17202297713E-01  0.10200933224E+01  0.10198147868E+01 0.  0.
     999903    2    3    3    0    0  0.59713875966E-01 -0.10946767343E+00  0.24718225333E-01  0.12880935920E+00  0.20783210611E-01 0.  0.
         14    1    1    2    0    0  0.71317593454E-02 -0.14879723078E-01 -0.17202297713E-01  0.23836677555E-01  0.00000000000E+00 0.  1.
     999901    1    3    3    0    0 -0.66845635311E-01  0.12434739651E+00 -0.75159276196E-02  0.89128396325E+00  0.88000000000E+00 0. -1.
        -11    1    4    4    0    0  0.10480027425E-01 -0.33277434423E-01  0.41286530530E-03  0.34894844825E-01  0.51100000000E-03 0. -1.
         11    1    4    4    0    0  0.49233848541E-01 -0.76190239009E-01  0.24305360027E-01  0.93914514371E-01  0.51100000000E-03 0.  1.
</event>
<event>
 8    1  0.9952977E+004  0.1043930E+01  0.7957747E-01            NaN
         13   -1    0    0    0    0  0.00000000000E+00  0.00000000000E+00  0.74505805969E-08  0.10566000000E+00  0.10566000000E+00 0. -1.
     999900   -1    0    0    0    0 -0.00000000000E+00 -0.00000000000E+00 -0.74505805969E-08  0.93827000000E+00  0.93827000000E+00 0. -1.
     999902    2    1    2    0    0  0.11026124199E-01  0.92528173577E-02  0.14719386378E-01  0.10233423732E+01  0.10231352610E+01 0.  0.
     999903    2    3    3    0    0  0.43257126301E-01  0.10816108287E+00  0.64697194048E-01  0.13580676049E+00  0.26224996739E-01 0.  0.
         14    1    1    2    0    0 -0.11026124199E-01 -0.92528173577E-02 -0.14719386378E-01  0.20587626848E-01  0.00000000000E+00 0.  1.
     999901    1    3    3    0    0 -0.32231002102E-01 -0.98908265511E-01 -0.49977807670E-01  0.88753561266E+00  0.88000000000E+00 0. -1.
        -11    1    4    4    0    0  0.14233408872E-01  0.27276797690E-01  0.30473701828E-01  0.43307288583E-01  0.51100000000E-03 0. -1.
         11    1    4    4    0    0  0.29023717429E-01  0.80884285179E-01  0.34223492220E-01  0.92499471907E-01  0.51100000000E-03 0.  1.
</event>
<event>
 8    1  0.9952977E+004  0.1043930E+01  0.7957747E-01            NaN
         13   -1    0    0    0    0  0.00000000000E+00  0.00000000000E+00  0.74505805969E-08  0.10566000000E+00  0.10566000000E+00 0. -1.
     999900   -1    0    0    0    0 -0.00000000000E+00 -0.00000000000E+00 -0.74505805969E-08  0.93827000000E+00  0.93827000000E+00 0.  1.
     999902    2    1    2    0    0 -0.14072563700E-01 -0.14775485141E-01  0.12274076358E-01  0.10201181340E+01  0.10198401847E+01 0.  0.
     999903    2    3    3    0    0 -0.97516785633E-01  0.82255270293E-01  0.20788842048E-01  0.13082042972E+00  0.20158271412E-01 0.  0.
         14    1    1    2    0    0  0.14072563700E-01  0.14775485141E-01 -0.12274076358E-01  0.23811865964E-01  0.00000000000E+00 0.  1.
     999901    1    3    3    0    0  0.83444221932E-01 -0.97030755434E-01 -0.85147656903E-02  0.88929770432E+00  0.88000000000E+00 0.  1.
        -11    1    4    4    0    0 -0.33398381516E-01  0.23370834592E-01 -0.20502184680E-02  0.40818039078E-01  0.51100000000E-03 0. -1.
         11    1    4    4    0    0 -0.64118404117E-01  0.58884435701E-01  0.22839060516E-01  0.90002390638E-01  0.51100000000E-03 0.  1.
</event>
<event>
 8    1  0.9952977E+004  0.1043930E+01  0.7957747E-01            NaN
         13   -1    0    0    0    0  0.00000000000E+00  0.00000000000E+00  0.74505805969E-08  0.10566000000E+00  0.10566000000E+00 0. -1.
     999900   -1    0    0    0    0 -0.00000000000E+00 -0.00000000000E+00 -0.74505805969E-08  0.93827000000E+00  0.93827000000E+00 0. -1.
     999902    2    1    2    0    0  0.32807852026E-02 -0.38736924881E-02 -0.22846407908E-01  0.10205264234E+01  0.10202580327E+01 0.  0.
     999903    2    3    3    0    0  0.92051028409E-01  0.65563986671E-01 -0.66602792503E-01  0.13226048990E+00  0.16878300838E-01 0.  0.
         14    1    1    2    0    0 -0.32807852026E-02  0.38736924881E-02  0.22846407908E-01  0.23403576636E-01  0.00000000000E+00 0. -1.
     999901    1    3    3    0    0 -0.88770243206E-01 -0.69437679159E-01  0.43756384594E-01  0.88826593347E+00  0.88000000000E+00 0. -1.
        -11    1    4    4    0    0  0.28459740688E-01  0.15580291152E-01 -0.26933936878E-01  0.42171084753E-01  0.51100000000E-03 0. -1.
         11    1    4    4    0    0  0.63591287720E-01  0.49983695519E-01 -0.39668855624E-01  0.90089405144E-01  0.51100000000E-03 0.  1.
</event>
<event>
 8    1  0.9952977E+004  0.1043930E+01  0.7957747E-01            NaN
         13   -1    0    0    0    0  0.00000000000E+00  0.00000000000E+00  0.74505805969E-08  0.10566000000E+00  0.10566000000E+00 0.  1.
     999900   -1    0    0    0    0 -0.00000000000E+00 -0.00000000000E+00 -0.74505805969E-08  0.93827000000E+00  0.93827000000E+00 0. -1.
     999902    2    1    2    0    0  0.93475605934E-02 -0.20200760282E-01 -0.78162860960E-03  0.10216576281E+01  0.10214148279E+01 0.  0.
     999903    2    3    3    0    0  0.40326718144E-01  0.25523912855E-01 -0.12114614764E+00  0.13174860392E+00  0.20089579971E-01 0.  0.
         14    1    1    2    0    0 -0.93475605934E-02  0.20200760282E-01  0.78162860960E-03  0.22272371861E-01  0.00000000000E+00 0. -1.
     999901    1    3    3    0    0 -0.30979157550E-01 -0.45724673136E-01  0.12036451903E+00  0.88990902421E+00  0.88000000000E+00 0.  1.
        -11    1    4    4    0    0  0.10406382290E-01  0.61112892027E-02 -0.57813617594E-01  0.59061968714E-01  0.51100000000E-03 0. -1.
         11    1    4    4    0    0  0.29920335854E-01  0.19412623652E-01 -0.63332530050E-01  0.72686635210E-01  0.51100000000E-03 0.  1.
</event>
<event>
 8    1  0.9952977E+004  0.1043930E+01  0.7957747E-01            NaN
         13   -1    0    0    0    0  0.00000000000E+00  0.00000000000E+00  0.74505805969E-08  0.10566000000E+00  0.10566000000E+00 0. -1.
     999900   -1    0    0    0    0 -0.00000000000E+00 -0.00000000000E+00 -0.74505805969E-08  0.93827000000E+00  0.93827000000E+00 0.  1.
     999902    2    1    2    0    0  0.55056098016E-02 -0.80789384699E-02  0.21569824137E-01  0.10202479752E+01  0.10199730842E+01 0.  0.
     999903    2    3    3    0    0 -0.12269490521E+00  0.30355282748E-01 -0.18178247266E-01  0.12924153829E+00  0.19935987321E-01 0.  0.
         14    1    1    2    0    0 -0.55056098016E-02  0.80789384699E-02 -0.21569824137E-01  0.23682024816E-01  0.00000000000E+00 0.  1.
     999901    1    3    3    0    0  0.12820051501E+00 -0.38434221218E-01  0.39748071403E-01  0.89100643690E+00  0.88000000000E+00 0.  1.
        -11    1    4    4    0    0 -0.69656521392E-01  0.17240319546E-01 -0.32636008336E-03  0.71760903160E-01  0.51100000000E-03 0. -1.
         11    1    4    4    0    0 -0.53038383817E-01  0.13114963202E-01 -0.17851887183E-01  0.57480635128E-01  0.51100000000E-03 0.  1.
</event>
<event>
 8    1  0.9952977E+004  0.1043930E+01  0.7957747E-01            NaN
         13   -1    0    0    0    0  0.00000000000E+00  0.00000000000E+00  0.74505805969E-08  0.10566000000E+00  0.10566000000E+00 0. -1.
     999900   -1    0    0    0    0 -0.00000000000E+00 -0.00000000000E+00 -0.74505805969E-08  0.93827000000E+00  0.93827000000E+00 0.  1.
     999902    2    1    2    0    0 -0.17557753752E-01  0.28860150514E-02 -0.15138260841E-01  0.10205682633E+01  0.10203008426E+01 0.  0.
     999903    2    3    3    0    0 -0.86638894088E-01 -0.84663812469E-01 -0.50464530425E-01  0.13282667841E+00  0.20542603421E-01 0.  0.
         14    1    1    2    0    0  0.17557753752E-01 -0.28860150514E-02  0.15138260841E-01  0.23361736685E-01  0.00000000000E+00 0. -1.
     999901    1    3    3    0    0  0.69081140337E-01  0.87549827520E-01  0.35326269584E-01  0.88774158491E+00  0.88000000000E+00 0. -1.
        -11    1    4    4    0    0 -0.72855586960E-01 -0.79873437201E-01 -0.42248437354E-01  0.11607279656E+00  0.51100000000E-03 0. -1.
         11    1    4    4    0    0 -0.13783307129E-01 -0.47903752678E-02 -0.82160930709E-02  0.16753881848E-01  0.51100000000E-03 0.  1.
</event>
<event>
 8    1  0.9952977E+004  0.1043930E+01  0.7957747E-01            NaN
         13   -1    0    0    0    0  0.00000000000E+00  0.00000000000E+00  0.74505805969E-08  0.10566000000E+00  0.10566000000E+00 0.  1.
     999900   -1    0    0    0    0 -0.00000000000E+00 -0.00000000000E+00 -0.74505805969E-08  0.93827000000E+00  0.93827000000E+00 0.  1.
     999902    2    1    2    0    0  0.11902051768E-01  0.73534147623E-02  0.19351110747E-01  0.10200512012E+01  0.10197716686E+01 0.  0.
     999903    2    3    3    0    0  0.30533249366E-01  0.69557931739E-01 -0.10344219460E+00  0.12915574196E+00  0.14502857437E-01 0.  0.
         14    1    1    2    0    0 -0.11902051768E-01 -0.73534147623E-02 -0.19351110747E-01  0.23878798799E-01  0.00000000000E+00 0.  1.
     999901    1    3    3    0    0 -0.18631197598E-01 -0.62204516977E-01  0.12279330534E+00  0.89089545924E+00  0.88000000000E+00 0. -1.
        -11    1    4    4    0    0  0.19218604554E-01  0.32473019721E-01 -0.60429452787E-01  0.71244871086E-01  0.51100000000E-03 0. -1.
         11    1    4    4    0    0  0.11314644812E-01  0.37084912018E-01 -0.43012741810E-01  0.57910870876E-01  0.51100000000E-03 0.  1.
</event>
<event>
 8    1  0.9952977E+004  0.1043930E+01  0.7957747E-01            NaN
         13   -1    0    0    0    0  0.00000000000E+00  0.00000000000E+00  0.74505805969E-08  0.10566000000E+00  0.10566000000E+00 0. -1.
     999900   -1    0    0    0    0 -0.00000000000E+00 -0.00000000000E+00 -0.74505805969E-08  0.93827000000E+00  0.93827000000E+00 0.  1.
     999902    2    1    2    0    0 -0.69795870928E-02  0.71221318795E-02  0.21464174070E-01  0.10202625082E+01  0.10199879585E+01 0.  0.
     999903    2    3    3    0    0 -0.16235310359E-01  0.11701070927E+00  0.56668006201E-01  0.13268125693E+00  0.20927532733E-01 0.  0.
         14    1    1    2    0    0  0.69795870928E-02 -0.71221318795E-02 -0.21464174070E-01  0.23667491776E-01  0.00000000000E+00 0.  1.
     999901    1    3    3    0    0  0.92557232661E-02 -0.10988857739E+00 -0.35203832131E-01  0.88758125130E+00  0.88000000000E+00 0. -1.
        -11    1    4    4    0    0 -0.19041156019E-01  0.71737200373E-01  0.40281354289E-01  0.84449038859E-01  0.51100000000E-03 0.  1.
         11    1    4    4    0    0  0.28058456601E-02  0.45273508900E-01  0.16386651911E-01  0.48232218069E-01  0.51100000000E-03 0. -1.
</event>
<event>
 8    1  0.9952977E+004  0.1043930E+01  0.7957747E-01            NaN
         13   -1    0    0    0    0  0.00000000000E+00  0.00000000000E+00  0.74505805969E-08  0.10566000000E+00  0.10566000000E+00 0. -1.
     999900   -1    0    0    0    0 -0.00000000000E+00 -0.00000000000E+00 -0.74505805969E-08  0.93827000000E+00  0.93827000000E+00 0.  1.
     999902    2    1    2    0    0  0.20198073111E-01 -0.36618711574E-02 -0.11050731109E-01  0.10206171255E+01  0.10203508352E+01 0.  0.
     999903    2    3    3    0    0  0.49682425923E-01 -0.97660594256E-01 -0.73231916155E-01  0.13293948879E+00  0.17437288198E-01 0.  0.
         14    1    1    2    0    0 -0.20198073111E-01  0.36618711574E-02  0.11050731109E-01  0.23312874465E-01  0.00000000000E+00 0. -1.
     999901    1    3    3    0    0 -0.29484352812E-01  0.93998723099E-01  0.62181185046E-01  0.88767763675E+00  0.88000000000E+00 0. -1.
        -11    1    4    4    0    0  0.24751863962E-01 -0.66805264720E-01 -0.45463922577E-01  0.84515250346E-01  0.51100000000E-03 0.  1.
         11    1    4    4    0    0  0.24930561961E-01 -0.30855329537E-01 -0.27767993578E-01  0.48424238444E-01  0.51100000000E-03 0. -1.
</event>
<event>
 8    1  0.9952977E+004  0.1043930E+01  0.7957747E-01            NaN
         13   -1    0    0    0    0  0.00000000000E+00  0.00000000000E+00  0.74505805969E-08  0.10566000000E+00  0.10566000000E+00 0.  1.
     999900   -1    0    0    0    0 -0.00000000000E+00 -0.00000000000E+00 -0.74505805969E-08  0.93827000000E+00  0.93827000000E+00 0.  1.
     999902    2    1    2    0    0  0.18894654991E-01  0.11178916187E-01 -0.91239578047E-02  0.10201555860E+01  0.10198785207E+01 0.  0.
     999903    2    3    3    0    0  0.88144486133E-01 -0.37117932213E-01 -0.88475838379E-01  0.13256060764E+00  0.24436640409E-01 0.  0.
         14    1    1    2    0    0 -0.18894654991E-01 -0.11178916187E-01  0.91239578047E-02  0.23774413986E-01  0.00000000000E+00 0.  1.
     999901    1    3    3    0    0 -0.69249831143E-01  0.48296848400E-01  0.79351880574E-01  0.88759497837E+00  0.88000000000E+00 0. -1.
        -11    1    4    4    0    0  0.17460573564E-01 -0.13838455448E-02 -0.68240709852E-02  0.18804672917E-01  0.51100000000E-03 0.  1.
         11    1    4    4    0    0  0.70683912569E-01 -0.35734086668E-01 -0.81651767394E-01  0.11375593473E+00  0.51100000000E-03 0. -1.
</event>
<event>
 8    1  0.9952977E+004  0.1043930E+01  0.7957747E-01            NaN
         13   -1    0    0    0    0  0.00000000000E+00  0.00000000000E+00  0.74505805969E-08  0.10566000000E+00  0.10566000000E+00 0.  1.
     999900   -1    0    0    0    0 -0.00000000000E+00 -0.00000000000E+00 -0.74505805969E-08  0.93827000000E+00  0.93827000000E+00 0.  1.
     999902    2    1    2    0    0 -0.57911415211E-02 -0.21885218154E-01  0.25773152773E-02  0.10211452979E+01  0.10208910700E+01 0.  0.
     999903    2    3    3    0    0  0.10313638564E+00 -0.65466179631E-02 -0.77093025985E-01  0.13072526105E+00  0.21582098379E-01 0.  0.
         14    1    1    2    0    0  0.57911415211E-02  0.21885218154E-01 -0.25773152773E-02  0.22784702056E-01  0.00000000000E+00 0.  1.
     999901    1    3    3    0    0 -0.10892752716E+00 -0.15338600191E-01  0.79670341262E-01  0.89042003690E+00  0.88000000000E+00 0.  1.
        -11    1    4    4    0    0  0.64803956965E-01 -0.25724775423E-02 -0.35173676408E-01  0.73780885818E-01  0.51100000000E-03 0. -1.
         11    1    4    4    0    0  0.38332428677E-01 -0.39741404209E-02 -0.41919349576E-01  0.56944375229E-01  0.51100000000E-03 0.  1.
</event>
<event>
 8    1  0.9952977E+004  0.1043930E+01  0.7957747E-01            NaN
         13   -1    0    0    0    0  0.00000000000E+00  0.00000000000E+00  0.74505805969E-08  0.10566000000E+00  0.10566000000E+00 0. -1.
     999900   -1    0    0    0    0 -0.00000000000E+00 -0.00000000000E+00 -0.74505805969E-08  0.93827000000E+00  0.93827000000E+00 0.  1.
     999902    2    1    2    0    0  0.20429962727E-01 -0.11717706951E-01 -0.61664931102E-03  0.10203701127E+01  0.10200980828E+01 0.  0.
     999903    2    3    3    0    0  0.46852401143E-01  0.71082564683E-01 -0.97222891306E-01  0.13082708607E+00  0.20385224077E-01 0.  0.
         14    1    1    2    0    0 -0.20429962727E-01  0.11717706951E-01  0.61664931102E-03  0.23559887301E-01  0.00000000000E+00 0. -1.
     999901    1    3    3    0    0 -0.26422438416E-01 -0.82800271634E-01  0.96606241995E-01  0.88954302663E+00  0.88000000000E+00 0. -1.
        -11    1    4    4    0    0  0.31861933305E-01  0.62719611424E-01 -0.79173262668E-01  0.10591316771E+00  0.51100000000E-03 0. -1.
         11    1    4    4    0    0  0.14990467838E-01  0.83629532593E-02 -0.18049628638E-01  0.24913918363E-01  0.51100000000E-03 0.  1.
</event>
<event>
 8    1  0.9952977E+004  0.1043930E+01  0.7957747E-01            NaN
         13   -1    0    0    0    0  0.00000000000E+00  0.00000000000E+00  0.74505805969E-08  0.10566000000E+00  0.10566000000E+00 0.  1.
     999900   -1    0    0    0    0 -0.00000000000E+00 -0.00000000000E+00 -0.74505805969E-08  0.93827000000E+00  0.93827000000E+00 0.  1.
     999902    2    1    2    0    0  0.22039851460E-01 -0.86019483186E-02  0.18596892687E-02  0.10201980171E+01  0.10199219515E+01 0.  0.
     999903    2    3    3    0    0 -0.82114250882E-01 -0.68094831929E-01  0.70447508670E-01  0.12941646747E+00  0.20152276298E-01 0.  0.
         14    1    1    2    0    0 -0.22039851460E-01  0.86019483186E-02 -0.18596892687E-02  0.23731982880E-01  0.00000000000E+00 0. -1.
     999901    1    3    3    0    0  0.10415410234E+00  0.59492883611E-01 -0.68587819401E-01  0.89078154965E+00  0.88000000000E+00 0.  1.
        -11    1    4    4    0    0 -0.36167300388E-01 -0.22843159732E-01  0.18514603299E-01  0.46614753246E-01  0.51100000000E-03 0. -1.
         11    1    4    4    0    0 -0.45946950495E-01 -0.45251672197E-01  0.51932905370E-01  0.82801714219E-01  0.51100000000E-03 0.  1.
</event>
<event>
 8    1  0.9952977E+004  0.1043930E+01  0.7957747E-01            NaN
         13   -1    0    0    0    0  0.00000000000E+00  0.00000000000E+00  0.74505805969E-08  0.10566000000E+00  0.10566000000E+00 0.  1.
     999900   -1    0    0    0    0 -0.00000000000E+00 -0.00000000000E+00 -0.74505805969E-08  0.93827000000E+00  0.93827000000E+00 0.  1.
     999902    2    1    2    0    0  0.19704058714E-01 -0.88588552313E-02  0.96013846888E-02  0.10202885992E+01  0.10200146615E+01 0.  0.
     999903    2    3    3    0    0  0.88179592659E-01 -0.83434087085E-01  0.51727846462E-01  0.13348253088E+00  0.20122835313E-01 0.  0.
         14    1    1    2    0    0 -0.19704058714E-01  0.88588552313E-02 -0.96013846888E-02  0.23641400842E-01  0.00000000000E+00 0.  1.
     999901    1    3    3    0    0 -0.68475533945E-01  0.74575231854E-01 -0.42126461773E-01  0.88680606828E+00  0.88000000000E+00 0. -1.
        -11    1    4    4    0    0  0.22071106646E-01 -0.15581787603E-01  0.37144791842E-02  0.27276076149E-01  0.51100000000E-03 0.  1.
         11    1    4    4    0    0  0.66108486013E-01 -0.67852299482E-01  0.48013367278E-01  0.10620645473E+00  0.51100000000E-03 0. -1.
</event>
<event>
 8    1  0.9952977E+004  0.1043930E+01  0.7957747E-01            NaN
         13   -1    0    0    0    0  0.00000000000E+00  0.00000000000E+00  0.74505805969E-08  0.10566000000E+00  0.10566000000E+00 0.  1.
     999900   -1    0    0    0    0 -0.00000000000E+00 -0.00000000000E+00 -0.74505805969E-08  0.93827000000E+00  0.93827000000E+00 0.  1.
     999902    2    1    2    0    0  0.39839138820E-02  0.12467797528E-01  0.19292743945E-01  0.10206163235E+01  0.10203500146E+01 0.  0.
     999903    2    3    3    0    0  0.82997245213E-01  0.92916305351E-01  0.42418830584E-01  0.13311990948E+00  0.19989262090E-01 0.  0.
         14    1    1    2    0    0 -0.39839138820E-02 -0.12467797528E-01 -0.19292743945E-01  0.23313676543E-01  0.00000000000E+00 0. -1.
     999901    1    3    3    0    0 -0.79013331331E-01 -0.80448507822E-01 -0.23126086639E-01  0.88749641398E+00  0.88000000000E+00 0. -1.
        -11    1    4    4    0    0  0.15641025319E-01  0.30781366281E-01  0.12345068179E-01  0.36671460464E-01  0.51100000000E-03 0. -1.
         11    1    4    4    0    0  0.67356219893E-01  0.62134939069E-01  0.30073762405E-01  0.96448449016E-01  0.51100000000E-03 0.  1.
</event>
<event>
 8    1  0.9952977E+004  0.1043930E+01  0.7957747E-01            NaN
         13   -1    0    0    0    0  0.00000000000E+00  0.00000000000E+00  0.74505805969E-08  0.10566000000E+00  0.10566000000E+00 0. -1.
     999900   -1    0    0    0    0 -0.00000000000E+00 -0.00000000000E+00 -0.74505805969E-08  0.93827000000E+00  0.93827000000E+00 0.  1.
     999902    2    1    2    0    0 -0.13307111586E-01 -0.19037494856E-01 -0.54630168489E-02  0.10200689442E+01  0.10197898318E+01 0.  0.
     999903    2    3    3    0    0 -0.56714550639E-01 -0.30869505601E-01  0.11247523046E+00  0.13106183941E+00  0.18896075095E-01 0.  0.
         14    1    1    2    0    0  0.13307111586E-01  0.19037494856E-01  0.54630168489E-02  0.23861055765E-01  0.00000000000E+00 0. -1.
     999901    1    3    3    0    0  0.43407439053E-01  0.11832010745E-01 -0.11793824731E+00  0.88900710482E+00  0.88000000000E+00 0.  1.
        -11    1    4    4    0    0 -0.10172645493E-01  0.18504826620E-02  0.18824669136E-01  0.21483395716E-01  0.51100000000E-03 0.  1.
         11    1    4    4    0    0 -0.46541905146E-01 -0.32719988263E-01  0.93650561321E-01  0.10957844370E+00  0.51100000000E-03 0. -1.
</event>
<event>
 8    1  0.9952977E+004  0.1043930E+01  0.7957747E-01            NaN
         13   -1    0    0    0    0  0.00000000000E+00  0.00000000000E+00  0.74505805969E-08  0.10566000000E+00  0.10566000000E+00 0. -1.
     999900   -1    0    0    0    0 -0.00000000000E+00 -0.00000000000E+00 -0.74505805969E-08  0.93827000000E+00  0.93827000000E+00 0.  1.
     999902    2    1    2    0    0  0.23089088019E-01 -0.18637329651E-02 -0.42425529106E-02  0.10203805044E+01  0.10201087173E+01 0.  0.
     999903    2    3    3    0    0  0.46142722157E-01 -0.28508511492E-01 -0.11891564650E+00  0.13224125147E+00  0.20122911635E-01 0.  0.
         14    1    1    2    0    0 -0.23089088019E-01  0.18637329651E-02  0.42425529106E-02  0.23549495564E-01  0.00000000000E+00 0.  1.
     999901    1    3    3    0    0 -0.23053634138E-01  0.26644778527E-01  0.11467309359E+00  0.88813925297E+00  0.88000000000E+00 0. -1.
        -11    1    4    4    0    0  0.10344806154E-01 -0.11462779555E-01 -0.54062181672E-01  0.56226247765E-01  0.51100000000E-03 0.  1.
         11    1    4    4    0    0  0.35797916002E-01 -0.17045731937E-01 -0.64853464824E-01  0.76015003704E-01  0.51100000000E-03 0. -1.
</event>
<event>
 8    1  0.9952977E+004  0.1043930E+01  0.7957747E-01            NaN
         13   -1    0    0    0    0  0.00000000000E+00  0.00000000000E+00  0.74505805969E-08  0.10566000000E+00  0.10566000000E+00 0. -1.
     999900   -1    0    0    0    0 -0.00000000000E+00 -0.00000000000E+00 -0.74505805969E-08  0.93827000000E+00  0.93827000000E+00 0. -1.
     999902    2    1    2    0    0  0.63063293665E-03  0.18542540857E-01  0.13609402055E-01  0.10209204510E+01  0.10206611230E+01 0.  0.
     999903    2    3    3    0    0 -0.46695025273E-01 -0.11777616173E+00  0.14002668106E-01  0.12916787254E+00  0.20895332610E-01 0.  0.
         14    1    1    2    0    0 -0.63063293665E-03 -0.18542540857E-01 -0.13609402055E-01  0.23009548966E-01  0.00000000000E+00 0.  1.
     999901    1    3    3    0    0  0.47325658209E-01  0.13631870258E+00 -0.39326605113E-03  0.89175257850E+00  0.88000000000E+00 0. -1.
        -11    1    4    4    0    0 -0.11728293967E-01 -0.57288665194E-01  0.83235779311E-02  0.59068495068E-01  0.51100000000E-03 0.  1.
         11    1    4    4    0    0 -0.34966731306E-01 -0.60487496534E-01  0.56790901749E-02  0.70099377468E-01  0.51100000000E-03 0. -1.
</event>
<event>
 8    1  0.9952977E+004  0.1043930E+01  0.7957747E-01            NaN
         13   -1    0    0    0    0  0.00000000000E+00  0.00000000000E+00  0.74505805969E-08  0.10566000000E+00  0.10566000000E+00 0.  1.
     999900   -1    0    0    0    0 -0.00000000000E+00 -0.00000000000E+00 -0.74505805969E-08  0.93827000000E+00  0.93827000000E+00 0. -1.
     999902    2    1    2    0    0  0.52751011094E-02 -0.54602886024E-02  0.23542329665E-01  0.10191937366E+01  0.10188935125E+01 0.  0.
     999903    2    3    3    0    0  0.13963997039E-01 -0.92247774654E-01 -0.86176005200E-01  0.12810132964E+00  0.16703342227E-01 0.  0.
         14    1    1    2    0    0 -0.52751011094E-02  0.54602886024E-02 -0.23542329665E-01  0.24736263448E-01  0.00000000000E+00 0. -1.
     999901    1    3    3    0    0 -0.86888959301E-02  0.86787486052E-01  0.10971833487E+00  0.89109240691E+00  0.88000000000E+00 0.  1.
        -11    1    4    4    0    0  0.57906486344E-02 -0.43554801203E-01 -0.51851635042E-01  0.67966208494E-01  0.51100000000E-03 0. -1.
         11    1    4    4    0    0  0.81733484051E-02 -0.48692973451E-01 -0.34324370158E-01  0.60135121147E-01  0.51100000000E-03 0.  1.
</event>
<event>
 8    1  0.9952977E+004  0.1043930E+01  0.7957747E-01            NaN
         13   -1    0    0    0    0  0.00000000000E+00  0.00000000000E+00  0.74505805969E-08  0.10566000000E+00  0.10566000000E+00 0.  1.
     999900   -1    0    0    0    0 -0.00000000000E+00 -0.00000000000E+00 -0.74505805969E-08  0.93827000000E+00  0.93827000000E+00 0. -1.
     999902    2    1    2    0    0 -0.70074240372E-02  0.16603734660E-01 -0.15905832256E-01  0.10198928725E+01  0.10196095763E+01 0.  0.
     999903    2    3    3    0    0  0.45751088663E-01 -0.11398412650E+00 -0.32220368630E-01  0.12854399908E+00  0.19996608083E-01 0.  0.
         14    1    1    2    0    0  0.70074240372E-02 -0.16603734660E-01  0.15905832256E-01  0.24037127450E-01  0.00000000000E+00 0.  1.
     999901    1    3    3    0    0 -0.52758512701E-01  0.13058786117E+00  0.16314536374E-01  0.89134887347E+00  0.88000000000E+00 0.  1.
        -11    1    4    4    0    0  0.11821147107E-01 -0.40922584131E-01 -0.20017562418E-01  0.47067625148E-01  0.51100000000E-03 0. -1.
         11    1    4    4    0    0  0.33929941556E-01 -0.73061542374E-01 -0.12202806212E-01  0.81476373928E-01  0.51100000000E-03 0.  1.
</event>
<event>
 8    1  0.9952977E+004  0.1043930E+01  0.7957747E-01            NaN
         13   -1    0    0    0    0  0.00000000000E+00  0.00000000000E+00  0.74505805969E-08  0.10566000000E+00  0.10566000000E+00 0.  1.
     999900   -1    0    0    0    0 -0.00000000000E+00 -0.00000000000E+00 -0.74505805969E-08  0.93827000000E+00  0.93827000000E+00 0.  1.
     999902    2    1    2    0    0 -0.89009428656E-02  0.13317684249E-01  0.18169457535E-01  0.10197077647E+01  0.10194200354E+01 0.  0.
     999903    2    3    3    0    0 -0.35654318374E-01  0.12159585777E+00 -0.28410989387E-01  0.13144561642E+00  0.20346565131E-01 0.  0.
         14    1    1    2    0    0  0.89009428656E-02 -0.13317684249E-01 -0.18169457535E-01  0.24222235338E-01  0.00000000000E+00 0. -1.
     999901    1    3    3    0    0  0.26753375509E-01 -0.10827817352E+00  0.46580446923E-01  0.88826214824E+00  0.88000000000E+00 0. -1.
        -11    1    4    4    0    0 -0.14614924023E-01  0.44169188176E-01 -0.20425941198E-01  0.50813318954E-01  0.51100000000E-03 0.  1.
         11    1    4    4    0    0 -0.21039394352E-01  0.77426669594E-01 -0.79850481893E-02  0.80632297467E-01  0.51100000000E-03 0. -1.
</event>
<event>
 8    1  0.9952977E+004  0.1043930E+01  0.7957747E-01            NaN
         13   -1    0    0    0    0  0.00000000000E+00  0.00000000000E+00  0.74505805969E-08  0.10566000000E+00  0.10566000000E+00 0.  1.
     999900   -1    0    0    0    0 -0.00000000000E+00 -0.00000000000E+00 -0.74505805969E-08  0.93827000000E+00  0.93827000000E+00 0.  1.
     999902    2    1    2    0    0  0.17764670866E-01  0.15443465965E-01  0.36844732208E-02  0.10201043937E+01  0.10198261198E+01 0.  0.
     999903    2    3    3    0    0  0.58488856938E-01  0.10170066995E+00  0.59815932983E-01  0.13317175515E+00  0.19819129103E-01 0.  0.
         14    1    1    2    0    0 -0.17764670866E-01 -0.15443465965E-01 -0.36844732208E-02  0.23825606286E-01  0.00000000000E+00 0.  1.
     999901    1    3    3    0    0 -0.40724186072E-01 -0.86257203982E-01 -0.56131459762E-01  0.88693263856E+00  0.88000000000E+00 0. -1.
        -11    1    4    4    0    0  0.35845093292E-01  0.43459147315E-01  0.31754813186E-01  0.64669911706E-01  0.51100000000E-03 0.  1.
         11    1    4    4    0    0  0.22643763646E-01  0.58241522631E-01  0.28061119797E-01  0.68501843447E-01  0.51100000000E-03 0. -1.
</event>
<event>
 8    1  0.9952977E+004  0.1043930E+01  0.7957747E-01            NaN
         13   -1    0    0    0    0  0.00000000000E+00  0.00000000000E+00  0.74505805969E-08  0.10566000000E+00  0.10566000000E+00 0.  1.
     999900   -1    0    0    0    0 -0.00000000000E+00 -0.00000000000E+00 -0.74505805969E-08  0.93827000000E+00  0.93827000000E+00 0. -1.
     999902    2    1    2    0    0 -0.14369313648E-01 -0.90687705727E-03 -0.14475961093E-01  0.10235130205E+01  0.10233093619E+01 0.  0.
     999903    2    3    3    0    0  0.14356123080E-01 -0.12232709814E+00 -0.48867612154E-01  0.13404643518E+00  0.20257987552E-01 0.  0.
         14    1    1    2    0    0  0.14369313648E-01  0.90687705727E-03  0.14475961093E-01  0.20416979461E-01  0.00000000000E+00 0.  1.
     999901    1    3    3    0    0 -0.28725436729E-01  0.12142022108E+00  0.34391651061E-01  0.88946658536E+00  0.88000000000E+00 0.  1.
        -11    1    4    4    0    0  0.69307979750E-02 -0.55429417711E-01 -0.11414328599E-01  0.57017579103E-01  0.51100000000E-03 0. -1.
         11    1    4    4    0    0  0.74253251052E-02 -0.66897680424E-01 -0.37453283555E-01  0.77028856081E-01  0.51100000000E-03 0.  1.
</event>
<event>
 8    1  0.9952977E+004  0.1043930E+01  0.7957747E-01            NaN
         13   -1    0    0    0    0  0.00000000000E+00  0.00000000000E+00  0.74505805969E-08  0.10566000000E+00  0.10566000000E+00 0. -1.
     999900   -1    0    0    0    0 -0.00000000000E+00 -0.00000000000E+00 -0.74505805969E-08  0.93827000000E+00  0.93827000000E+00 0. -1.
     999902    2    1    2    0    0  0.20585533400E-01 -0.80137014745E-02 -0.98758906331E-02  0.10197325453E+01  0.10194454116E+01 0.  0.
     999903    2    3    3    0    0 -0.46692724373E-01  0.49480479412E-01  0.10626023898E+00  0.12770141056E+00  0.19694758631E-01 0.  0.
         14    1    1    2    0    0 -0.20585533400E-01  0.80137014745E-02  0.98758906331E-02  0.24197454670E-01  0.00000000000E+00 0.  1.
     999901    1    3    3    0    0  0.67278257773E-01 -0.57494180886E-01 -0.11613612961E+00  0.89203113477E+00  0.88000000000E+00 0. -1.
        -11    1    4    4    0    0 -0.14266056543E-01  0.28297786243E-01  0.41165897021E-01  0.51953606940E-01  0.51100000000E-03 0. -1.
         11    1    4    4    0    0 -0.32426667830E-01  0.21182693169E-01  0.65094341961E-01  0.75747803616E-01  0.51100000000E-03 0.  1.
</event>
<event>
 8    1  0.9952977E+004  0.1043930E+01  0.7957747E-01            NaN
         13   -1    0    0    0    0  0.00000000000E+00  0.00000000000E+00  0.74505805969E-08  0.10566000000E+00  0.10566000000E+00 0. -1.
     999900   -1    0    0    0    0 -0.00000000000E+00 -0.00000000000E+00 -0.74505805969E-08  0.93827000000E+00  0.93827000000E+00 0. -1.
     999902    2    1    2    0    0  0.13643447530E-02  0.20777780844E-01 -0.13377066390E-01  0.10191807875E+01  0.10188802452E+01 0.  0.
     999903    2    3    3    0    0  0.89098046653E-02  0.17807518251E-01  0.12517536092E+00  0.12830339329E+00  0.19909731887E-01 0.  0.
         14    1    1    2    0    0 -0.13643447530E-02 -0.20777780844E-01  0.13377066390E-01  0.24749212484E-01  0.00000000000E+00 0.  1.
     999901    1    3    3    0    0 -0.75454599123E-02  0.29702625929E-02 -0.13855242731E+00  0.89087739422E+00  0.88000000000E+00 0. -1.
        -11    1    4    4    0    0 -0.35706347639E-02  0.14794076500E-01  0.72721117662E-01  0.74298292087E-01  0.51100000000E-03 0. -1.
         11    1    4    4    0    0  0.12480439429E-01  0.30134417509E-02  0.52454243257E-01  0.54005101205E-01  0.51100000000E-03 0.  1.
</event>
<event>
 8    1  0.9952977E+004  0.1043930E+01  0.7957747E-01            NaN
         13   -1    0    0    0    0  0.00000000000E+00  0.00000000000E+00  0.74505805969E-08  0.10566000000E+00  0.10566000000E+00 0. -1.
     999900   -1    0    0    0    0 -0.00000000000E+00 -0.00000000000E+00 -0.74505805969E-08  0.93827000000E+00  0.93827000000E+00 0.  1.
     999902    2    1    2    0    0 -0.14393670388E-02  0.16558658930E-01  0.20376282824E-01  0.10176344896E+01  0.10172946971E+01 0.  0.
     999903    2    3    3    0    0  0.90236893007E-01 -0.85417744759E-01  0.16555304069E-01  0.12700643965E+00  0.20436967481E-01 0.  0.
         14    1    1    2    0    0  0.14393670388E-02 -0.16558658930E-01 -0.20376282824E-01  0.26295510354E-01  0.00000000000E+00 0.  1.
     999901    1    3    3    0    0 -0.91676260046E-01  0.10197640369E+00  0.38209787550E-02  0.89062805000E+00  0.88000000000E+00 0.  1.
        -11    1    4    4    0    0  0.19126665423E-01 -0.30786764413E-01  0.49450279736E-02  0.36583720640E-01  0.51100000000E-03 0.  1.
         11    1    4    4    0    0  0.71110227585E-01 -0.54630980346E-01  0.11610276096E-01  0.90422719008E-01  0.51100000000E-03 0. -1.
</event>
<event>
 8    1  0.9952977E+004  0.1043930E+01  0.7957747E-01            NaN
         13   -1    0    0    0    0  0.00000000000E+00  0.00000000000E+00  0.74505805969E-08  0.10566000000E+00  0.10566000000E+00 0.  1.
     999900   -1    0    0    0    0 -0.00000000000E+00 -0.00000000000E+00 -0.74505805969E-08  0.93827000000E+00  0.93827000000E+00 0.  1.
     999902    2    1    2    0    0  0.18992677394E-01 -0.33715142715E-02 -0.88752228228E-02  0.10226965716E+01  0.10224761215E+01 0.  0.
     999903    2    3    3    0    0  0.12773554243E+00  0.19201049030E-01  0.32553876497E-01  0.13474899339E+00  0.20309782426E-01 0.  0.
         14    1    1    2    0    0 -0.18992677394E-01  0.33715142715E-02  0.88752228228E-02  0.21233428438E-01  0.00000000000E+00 0. -1.
     999901    1    3    3    0    0 -0.10874286503E+00 -0.22572563301E-01 -0.41429099319E-01  0.88794757817E+00  0.88000000000E+00 0.  1.
        -11    1    4    4    0    0  0.27503828429E-01 -0.33086590498E-03  0.14323984148E-01  0.31016248860E-01  0.51100000000E-03 0. -1.
         11    1    4    4    0    0  0.10023171400E+00  0.19531914935E-01  0.18229892349E-01  0.10373274453E+00  0.51100000000E-03 0.  1.
</event>
<event>
 8    1  0.9952977E+004  0.1043930E+01  0.7957747E-01            NaN
         13   -1    0    0    0    0  0.00000000000E+00  0.00000000000E+00  0.74505805969E-08  0.10566000000E+00  0.10566000000E+00 0. -1.
     999900   -1    0    0    0    0 -0.00000000000E+00 -0.00000000000E+00 -0.74505805969E-08  0.93827000000E+00  0.93827000000E+00 0. -1.
     999902    2    1    2    0    0 -0.53939882277E-02 -0.57612024888E-03 -0.23054859725E-01  0.10202455414E+01  0.10199705933E+01 0.  0.
     999903    2    3    3    0    0 -0.10383903175E-01  0.51464637997E-01 -0.12097358498E+00  0.13327247722E+00  0.19248649679E-01 0.  0.
         14    1    1    2    0    0  0.53939882277E-02  0.57612024888E-03  0.23054859725E-01  0.23684458627E-01  0.00000000000E+00 0. -1.
     999901    1    3    3    0    0  0.49899149472E-02 -0.52040758246E-01  0.97918725250E-01  0.88697306415E+00  0.88000000000E+00 0.  1.
        -11    1    4    4    0    0 -0.75843332105E-03  0.42883067263E-01 -0.89160197428E-01  0.98941066324E-01  0.51100000000E-03 0.  1.
         11    1    4    4    0    0 -0.96254698539E-02  0.85815707345E-02 -0.31813387547E-01  0.34331410900E-01  0.51100000000E-03 0. -1.
</event>
<event>
 8    1  0.9952977E+004  0.1043930E+01  0.7957747E-01            NaN
         13   -1    0    0    0    0  0.00000000000E+00  0.00000000000E+00  0.74505805969E-08  0.10566000000E+00  0.10566000000E+00 0. -1.
     999900   -1    0    0    0    0 -0.00000000000E+00 -0.00000000000E+00 -0.74505805969E-08  0.93827000000E+00  0.93827000000E+00 0. -1.
     999902    2    1    2    0    0 -0.19828562497E-01 -0.24722337962E-02 -0.11499921203E-01  0.10208750218E+01  0.10206146570E+01 0.  0.
     999903    2    3    3    0    0 -0.62988066383E-01 -0.93041219401E-01 -0.68853622103E-01  0.13331942868E+00  0.20225819452E-01 0.  0.
         14    1    1    2    0    0  0.19828562497E-01  0.24722337962E-02  0.11499921203E-01  0.23054978167E-01  0.00000000000E+00 0. -1.
     999901    1    3    3    0    0  0.43159503886E-01  0.90568985605E-01  0.57353700900E-01  0.88755559315E+00  0.88000000000E+00 0.  1.
        -11    1    4    4    0    0 -0.32322548392E-01 -0.60458841904E-01 -0.49532275515E-01  0.84579702870E-01  0.51100000000E-03 0.  1.
         11    1    4    4    0    0 -0.30665517991E-01 -0.32582377498E-01 -0.19321346588E-01  0.48739725810E-01  0.51100000000E-03 0. -1.
</event>
<event>
 8    1  0.9952977E+004  0.1043930E+01  0.7957747E-01            NaN
         13   -1    0    0    0    0  0.00000000000E+00  0.00000000000E+00  0.74505805969E-08  0.10566000000E+00  0.10566000000E+00 0. -1.
     999900   -1    0    0    0    0 -0.00000000000E+00 -0.00000000000E+00 -0.74505805969E-08  0.93827000000E+00  0.93827000000E+00 0. -1.
     999902    2    1    2    0    0  0.24815713006E-02  0.17100908204E-01 -0.24845503307E-02  0.10264722725E+01  0.10263238057E+01 0.  0.
     999903    2    3    3    0    0 -0.11996610614E+00 -0.57753576072E-01 -0.52022776252E-02  0.13484229684E+00  0.20689107140E-01 0.  0.
         14    1    1    2    0    0 -0.24815713006E-02 -0.17100908204E-01  0.24845503307E-02  0.17457727455E-01  0.00000000000E+00 0.  1.
     999901    1    3    3    0    0  0.12244767744E+00  0.74854484276E-01  0.27177272946E-02  0.89162997570E+00  0.88000000000E+00 0.  1.
        -11    1    4    4    0    0 -0.41335676284E-01 -0.12665059152E-01 -0.88290997816E-02  0.44127723498E-01  0.51100000000E-03 0.  1.
         11    1    4    4    0    0 -0.78630429857E-01 -0.45088516920E-01  0.36268221564E-02  0.90714573347E-01  0.51100000000E-03 0. -1.
</event>
<event>
 8    1  0.9952977E+004  0.1043930E+01  0.7957747E-01            NaN
         13   -1    0    0    0    0  0.00000000000E+00  0.00000000000E+00  0.74505805969E-08  0.10566000000E+00  0.10566000000E+00 0.  1.
     999900   -1    0    0    0    0 -0.00000000000E+00 -0.00000000000E+00 -0.74505805969E-08  0.93827000000E+00  0.93827000000E+00 0.  1.
     999902    2    1    2    0    0  0.78137155006E-02 -0.19570984935E-01  0.10304338115E-01  0.10204724429E+01  0.10202027983E+01 0.  0.
     999903    2    3    3    0    0 -0.84412133673E-01 -0.93174694013E-01 -0.32859953804E-01  0.13154822265E+00  0.20450584409E-01 0.  0.
         14    1    1    2    0    0 -0.78137155006E-02  0.19570984935E-01 -0.10304338115E-01  0.23457557103E-01  0.00000000000E+00 0. -1.
     999901    1    3    3    0    0  0.92225849174E-01  0.73603709078E-01  0.43164291918E-01  0.88892422025E+00  0.88000000000E+00 0. -1.
        -11    1    4    4    0    0 -0.39311023155E-01 -0.46276586679E-01 -0.26225580339E-01  0.66143187111E-01  0.51100000000E-03 0. -1.
         11    1    4    4    0    0 -0.45101110518E-01 -0.46898107334E-01 -0.66343734645E-02  0.65405035538E-01  0.51100000000E-03 0.  1.
</event>
<event>
 8    1  0.9952977E+004  0.1043930E+01  0.7957747E-01            NaN
         13   -1    0    0    0    0  0.00000000000E+00  0.00000000000E+00  0.74505805969E-08  0.10566000000E+00  0.10566000000E+00 0. -1.
     999900   -1    0    0    0    0 -0.00000000000E+00 -0.00000000000E+00 -0.74505805969E-08  0.93827000000E+00  0.93827000000E+00 0. -1.
     999902    2    1    2    0    0 -0.15889672756E-02 -0.20754303120E-01  0.10520245101E-01  0.10206074471E+01  0.10203409331E+01 0.  0.
     999903    2    3    3    0    0 -0.82847191483E-01  0.85164067814E-01  0.48215587656E-01  0.12974127360E+00  0.19785843410E-01 0.  0.
         14    1    1    2    0    0  0.15889672756E-02  0.20754303120E-01 -0.10520245101E-01  0.23322552862E-01  0.00000000000E+00 0.  1.
     999901    1    3    3    0    0  0.81258224207E-01 -0.10591837093E+00 -0.37695342556E-01  0.89086617354E+00  0.88000000000E+00 0.  1.
        -11    1    4    4    0    0 -0.48576444255E-01  0.44373722480E-01  0.36309083828E-01  0.75148578646E-01  0.51100000000E-03 0.  1.
         11    1    4    4    0    0 -0.34270747228E-01  0.40790345334E-01  0.11906503829E-01  0.54592694955E-01  0.51100000000E-03 0. -1.
</event>
<event>
 7    1  0.9952977E+004  0.1043930E+01  0.7957747E-01            NaN
         13   -1    0    0    0    0  0.00000000000E+00  0.00000000000E+00  0.74505805969E-08  0.10566000000E+00  0.10566000000E+00 0.  1.
     999900   -1    0    0    0    0 -0.00000000000E+00 -0.00000000000E+00 -0.74505805969E-08  0.93827000000E+00  0.93827000000E+00 0. -1.
     999903    2    1    2    0    0 -0.75432364692E-01 -0.56011136471E-01  0.18749261700E-01  0.98584282553E-01  0.23238694033E-01 0.  0.
         14    1    1    2    0    0  0.13982281135E-01 -0.27127233068E-01 -0.50185235200E-01  0.58736264707E-01  0.00000000000E+00 0. -1.
     999901    1    1    2    0    0  0.61450083557E-01  0.83138369538E-01  0.31435973499E-01  0.88660945274E+00  0.88000000000E+00 0.  1.
        -11    1    3    3    0    0 -0.73651736392E-01 -0.52670871685E-01  0.22424067127E-01  0.93283969175E-01  0.51100000000E-03 0.  1.
         11    1    3    3    0    0 -0.17806283003E-02 -0.33402647861E-02 -0.36748054260E-02  0.53003133779E-02  0.51100000000E-03 0. -1.
</event>
<event>
 8    1  0.9952977E+004  0.1043930E+01  0.7957747E-01            NaN
         13   -1    0    0    0    0  0.00000000000E+00  0.00000000000E+00  0.74505805969E-08  0.10566000000E+00  0.10566000000E+00 0.  1.
     999900   -1    0    0    0    0 -0.00000000000E+00 -0.00000000000E+00 -0.74505805969E-08  0.93827000000E+00  0.93827000000E+00 0.  1.
     999902    2    1    2    0    0  0.41010124987E-02 -0.23986005658E-01  0.82999125743E-03  0.10195817833E+01  0.10192910169E+01 0.  0.
     999903    2    3    3    0    0 -0.50720150324E-01 -0.12063491742E+00 -0.55751929369E-02  0.13257141221E+00  0.20464105409E-01 0.  0.
         14    1    1    2    0    0 -0.41010124987E-02  0.23986005658E-01 -0.82999125743E-03  0.24348216699E-01  0.00000000000E+00 0.  1.
     999901    1    3    3    0    0  0.54821162823E-01  0.96648911758E-01  0.64051841943E-02  0.88701037109E+00  0.88000000000E+00 0.  1.
        -11    1    4    4    0    0 -0.30039581527E-01 -0.46319802037E-01  0.25482531265E-03  0.55210746925E-01  0.51100000000E-03 0. -1.
         11    1    4    4    0    0 -0.20680568798E-01 -0.74315115379E-01 -0.58300182495E-02  0.77360665285E-01  0.51100000000E-03 0.  1.
</event>
<event>
 8    1  0.9952977E+004  0.1043930E+01  0.7957747E-01            NaN
         13   -1    0    0    0    0  0.00000000000E+00  0.00000000000E+00  0.74505805969E-08  0.10566000000E+00  0.10566000000E+00 0.  1.
     999900   -1    0    0    0    0 -0.00000000000E+00 -0.00000000000E+00 -0.74505805969E-08  0.93827000000E+00  0.93827000000E+00 0.  1.
     999902    2    1    2    0    0 -0.20630944774E-01 -0.93964379056E-02  0.36239535985E-02  0.10209721698E+01  0.10207140195E+01 0.  0.
     999903    2    3    3    0    0 -0.37688698639E-01  0.10985345421E-02  0.12533671154E+00  0.13236927376E+00  0.19765844075E-01 0.  0.
         14    1    1    2    0    0  0.20630944774E-01  0.93964379056E-02 -0.36239535985E-02  0.22957830195E-01  0.00000000000E+00 0.  1.
     999901    1    3    3    0    0  0.17057753864E-01 -0.10494972448E-01 -0.12171275794E+00  0.88860289605E+00  0.88000000000E+00 0.  1.
        -11    1    4    4    0    0 -0.28013947885E-01 -0.77367515371E-02  0.77627434563E-01  0.82891002638E-01  0.51100000000E-03 0. -1.
         11    1    4    4    0    0 -0.96747507538E-02  0.88352860792E-02  0.47709276980E-01  0.49478271122E-01  0.51100000000E-03 0.  1.
</event>
<event>
 8    1  0.9952977E+004  0.1043930E+01  0.7957747E-01            NaN
         13   -1    0    0    0    0  0.00000000000E+00  0.00000000000E+00  0.74505805969E-08  0.10566000000E+00  0.10566000000E+00 0. -1.
     999900   -1    0    0    0    0 -0.00000000000E+00 -0.00000000000E+00 -0.74505805969E-08  0.93827000000E+00  0.93827000000E+00 0.  1.
     999902    2    1    2    0    0 -0.16316989572E-01 -0.55066373509E-03 -0.16676820662E-01  0.10205919682E+01  0.10203250962E+01 0.  0.
     999903    2    3    3    0    0  0.34960454174E-01  0.12116213984E+00  0.24058702016E-01  0.12980424627E+00  0.19178730931E-01 0.  0.
         14    1    1    2    0    0  0.16316989572E-01  0.55066373509E-03  0.16676820662E-01  0.23338031765E-01  0.00000000000E+00 0. -1.
     999901    1    3    3    0    0 -0.51277443747E-01 -0.12171280358E+00 -0.40735522678E-01  0.89078772196E+00  0.88000000000E+00 0.  1.
        -11    1    4    4    0    0  0.21250542929E-01  0.95154611778E-01  0.23955396052E-01  0.10039974023E+00  0.51100000000E-03 0. -1.
         11    1    4    4    0    0  0.13709911245E-01  0.26007528065E-01  0.10330596410E-03  0.29404506042E-01  0.51100000000E-03 0.  1.
</event>
<event>
 8    1  0.9952977E+004  0.1043930E+01  0.7957747E-01            NaN
         13   -1    0    0    0    0  0.00000000000E+00  0.00000000000E+00  0.74505805969E-08  0.10566000000E+00  0.10566000000E+00 0.  1.
     999900   -1    0    0    0    0 -0.00000000000E+00 -0.00000000000E+00 -0.74505805969E-08  0.93827000000E+00  0.93827000000E+00 0.  1.
     999902    2    1    2    0    0  0.19928567477E-01 -0.14984210872E-01  0.10959652318E-02  0.10189725258E+01  0.10186668410E+01 0.  0.
     999903    2    3    3    0    0 -0.49862146964E-01  0.39716494421E-01 -0.10875673302E+00  0.12772030211E+00  0.20513774977E-01 0.  0.
         14    1    1    2    0    0 -0.19928567477E-01  0.14984210872E-01 -0.10959652318E-02  0.24957474170E-01  0.00000000000E+00 0.  1.
     999901    1    3    3    0    0  0.69790714441E-01 -0.54700705293E-01  0.10985269825E+00  0.89125222373E+00  0.88000000000E+00 0. -1.
        -11    1    4    4    0    0 -0.22918251146E-01  0.22213353997E-01 -0.72836979417E-01  0.79524625261E-01  0.51100000000E-03 0.  1.
         11    1    4    4    0    0 -0.26943895819E-01  0.17503140424E-01 -0.35919753603E-01  0.48195676844E-01  0.51100000000E-03 0. -1.
</event>
<event>
 8    1  0.9952977E+004  0.1043930E+01  0.7957747E-01            NaN
         13   -1    0    0    0    0  0.00000000000E+00  0.00000000000E+00  0.74505805969E-08  0.10566000000E+00  0.10566000000E+00 0. -1.
     999900   -1    0    0    0    0 -0.00000000000E+00 -0.00000000000E+00 -0.74505805969E-08  0.93827000000E+00  0.93827000000E+00 0.  1.
     999902    2    1    2    0    0  0.17775302154E-02 -0.21145278203E-01 -0.12605280056E-01  0.10192485193E+01  0.10189496399E+01 0.  0.
     999903    2    3    3    0    0  0.78119820884E-01  0.96739395043E-01  0.13853897568E-01  0.12771891822E+00  0.25670501074E-01 0.  0.
         14    1    1    2    0    0 -0.17775302154E-02  0.21145278203E-01  0.12605280056E-01  0.24681480694E-01  0.00000000000E+00 0. -1.
     999901    1    3    3    0    0 -0.76342290669E-01 -0.11788467325E+00 -0.26459177625E-01  0.89152960109E+00  0.88000000000E+00 0. -1.
        -11    1    4    4    0    0  0.36643812621E-01  0.26107671456E-01  0.30573778588E-02  0.45099758232E-01  0.51100000000E-03 0.  1.
         11    1    4    4    0    0  0.41476008263E-01  0.70631723587E-01  0.10796519710E-01  0.82619159988E-01  0.51100000000E-03 0. -1.
</event>
<event>
 8    1  0.9952977E+004  0.1043930E+01  0.7957747E-01            NaN
         13   -1    0    0    0    0  0.00000000000E+00  0.00000000000E+00  0.74505805969E-08  0.10566000000E+00  0.10566000000E+00 0. -1.
     999900   -1    0    0    0    0 -0.00000000000E+00 -0.00000000000E+00 -0.74505805969E-08  0.93827000000E+00  0.93827000000E+00 0.  1.
     999902    2    1    2    0    0 -0.10057296099E-01 -0.16462733635E-01  0.13753809919E-01  0.10202374254E+01  0.10199622866E+01 0.  0.
     999903    2    3    3    0    0 -0.57093382416E-01  0.10641039553E+00  0.43121022430E-01  0.12997194115E+00  0.21223956233E-01 0.  0.
         14    1    1    2    0    0  0.10057296099E-01  0.16462733635E-01 -0.13753809919E-01  0.23692574593E-01  0.00000000000E+00 0.  1.
     999901    1    3    3    0    0  0.47036086317E-01 -0.12287312917E+00 -0.29367212512E-01  0.89026548426E+00  0.88000000000E+00 0. -1.
        -11    1    4    4    0    0 -0.51417056023E-01  0.85456621087E-01  0.42034092284E-01  0.10822972684E+00  0.51100000000E-03 0. -1.
         11    1    4    4    0    0 -0.56763263930E-02  0.20953774445E-01  0.10869301463E-02  0.21742214307E-01  0.51100000000E-03 0.  1.
</event>
<event>
 8    1  0.9952977E+004  0.1043930E+01  0.7957747E-01            NaN
         13   -1    0    0    0    0  0.00000000000E+00  0.00000000000E+00  0.74505805969E-08  0.10566000000E+00  0.10566000000E+00 0.  1.
     999900   -1    0    0    0    0 -0.00000000000E+00 -0.00000000000E+00 -0.74505805969E-08  0.93827000000E+00  0.93827000000E+00 0. -1.
     999902    2    1    2    0    0 -0.21573120625E-01  0.20156675835E-01  0.21050875862E-01  0.10076694086E+01  0.10070167856E+01 0.  0.
     999903    2    3    3    0    0 -0.15162429276E-01 -0.11442951233E+00  0.94635702983E-03  0.11718710631E+00  0.20196775524E-01 0.  0.
         14    1    1    2    0    0  0.21573120625E-01 -0.20156675835E-01 -0.21050875862E-01  0.36260591401E-01  0.00000000000E+00 0. -1.
     999901    1    3    3    0    0 -0.64106913487E-02  0.13458618816E+00  0.20104518832E-01  0.89048230229E+00  0.88000000000E+00 0.  1.
        -11    1    4    4    0    0 -0.12178430945E-01 -0.10549144324E+00 -0.45050620821E-02  0.10628883047E+00  0.51100000000E-03 0. -1.
         11    1    4    4    0    0 -0.29839983307E-02 -0.89380690858E-02  0.54514191120E-02  0.10898275843E-01  0.51100000000E-03 0.  1.
</event>
<event>
 8    1  0.9952977E+004  0.1043930E+01  0.7957747E-01            NaN
         13   -1    0    0    0    0  0.00000000000E+00  0.00000000000E+00  0.74505805969E-08  0.10566000000E+00  0.10566000000E+00 0. -1.
     999900   -1    0    0    0    0 -0.00000000000E+00 -0.00000000000E+00 -0.74505805969E-08  0.93827000000E+00  0.93827000000E+00 0.  1.
     999902    2    1    2    0    0  0.23032370201E-01 -0.53928872575E-02  0.15961163249E-02  0.10202209111E+01  0.10199453841E+01 0.  0.
     999903    2    3    3    0    0 -0.54537714535E-01  0.84476891877E-01  0.78939118110E-01  0.12888728377E+00  0.16426806816E-01 0.  0.
         14    1    1    2    0    0 -0.23032370201E-01  0.53928872575E-02 -0.15961163249E-02  0.23709088919E-01  0.00000000000E+00 0.  1.
     999901    1    3    3    0    0  0.77570084736E-01 -0.89869779135E-01 -0.77343001785E-01  0.89133362731E+00  0.88000000000E+00 0.  1.
        -11    1    4    4    0    0 -0.19268644535E-01  0.17033135626E-01  0.18180604467E-01  0.31499267790E-01  0.51100000000E-03 0.  1.
         11    1    4    4    0    0 -0.35269070000E-01  0.67443756251E-01  0.60758513643E-01  0.97388015982E-01  0.51100000000E-03 0. -1.
</event>
<event>
 8    1  0.9952977E+004  0.1043930E+01  0.7957747E-01            NaN
         13   -1    0    0    0    0  0.00000000000E+00  0.00000000000E+00  0.74505805969E-08  0.10566000000E+00  0.10566000000E+00 0.  1.
     999900   -1    0    0    0    0 -0.00000000000E+00 -0.00000000000E+00 -0.74505805969E-08  0.93827000000E+00  0.93827000000E+00 0.  1.
     999902    2    1    2    0    0  0.46954414597E-02 -0.30483034008E-02 -0.24334292656E-01  0.10189600756E+01  0.10186540819E+01 0.  0.
     999903    2    3    3    0    0  0.18690300487E-02 -0.10173150478E+00 -0.80883908236E-01  0.13163588354E+00  0.20808817532E-01 0.  0.
         14    1    1    2    0    0 -0.46954414597E-02  0.30483034008E-02  0.24334292656E-01  0.24969924373E-01  0.00000000000E+00 0.  1.
     999901    1    3    3    0    0  0.28264114110E-02  0.98683201376E-01  0.56549615580E-01  0.88732419208E+00  0.88000000000E+00 0. -1.
        -11    1    4    4    0    0  0.10277833604E-01 -0.44959983571E-01 -0.30785690425E-01  0.55453168010E-01  0.51100000000E-03 0.  1.
         11    1    4    4    0    0 -0.84088035555E-02 -0.56771521205E-01 -0.50098217811E-01  0.76182715533E-01  0.51100000000E-03 0. -1.
</event>
<event>
 7    1  0.9952977E+004  0.1043930E+01  0.7957747E-01            NaN
         13   -1    0    0    0    0  0.00000000000E+00  0.00000000000E+00  0.74505805969E-08  0.10566000000E+00  0.10566000000E+00 0.  1.
     999900   -1    0    0    0    0 -0.00000000000E+00 -0.00000000000E+00 -0.74505805969E-08  0.93827000000E+00  0.93827000000E+00 0. -1.
     999902    2    1    2    0    0  0.17361716591E-02  0.13370867103E-01  0.18964127119E-01  0.10206612979E+01  0.10203960273E+01 0.  0.
         14    1    1    2    0    0 -0.17361716591E-02 -0.13370867103E-01 -0.18964127119E-01  0.23268702080E-01  0.00000000000E+00 0. -1.
     999901    1    3    3    0    0 -0.51818056995E-02  0.64929880553E-01 -0.98119556433E-01  0.88784581311E+00  0.88000000000E+00 0. -1.
        -11    1    3    3    0    0  0.22877276879E-02 -0.55604154618E-01  0.11089615112E+00  0.12407769003E+00  0.51100000000E-03 0. -1.
         11    1    3    3    0    0  0.46302496706E-02  0.40451411679E-02  0.61875324339E-02  0.87377947848E-02  0.51100000000E-03 0.  1.
</event>
<event>
 8    1  0.9952977E+004  0.1043930E+01  0.7957747E-01            NaN
         13   -1    0    0    0    0  0.00000000000E+00  0.00000000000E+00  0.74505805969E-08  0.10566000000E+00  0.10566000000E+00 0.  1.
     999900   -1    0    0    0    0 -0.00000000000E+00 -0.00000000000E+00 -0.74505805969E-08  0.93827000000E+00  0.93827000000E+00 0.  1.
     999902    2    1    2    0    0  0.10753529725E-01 -0.10911764435E-01  0.19320848081E-01  0.10192723404E+01  0.10189740447E+01 0.  0.
     999903    2    3    3    0    0 -0.13896214109E-01  0.12172077749E+00  0.34386660918E-01  0.12886458004E+00  0.20361362964E-01 0.  0.
         14    1    1    2    0    0 -0.10753529725E-01  0.10911764435E-01 -0.19320848081E-01  0.24657659565E-01  0.00000000000E+00 0. -1.
     999901    1    3    3    0    0  0.24649743834E-01 -0.13263254192E+00 -0.15065812837E-01  0.89040776039E+00  0.88000000000E+00 0.  1.
        -11    1    4    4    0    0 -0.72679048185E-02  0.64783642676E-01  0.28796236087E-01  0.71268696723E-01  0.51100000000E-03 0.  1.
         11    1    4    4    0    0 -0.66283092900E-02  0.56937134812E-01  0.55904248316E-02  0.57595883321E-01  0.51100000000E-03 0. -1.
</event>
<event>
 8    1  0.9952977E+004  0.1043930E+01  0.7957747E-01            NaN
         13   -1    0    0    0    0  0.00000000000E+00  0.00000000000E+00  0.74505805969E-08  0.10566000000E+00  0.10566000000E+00 0. -1.
     999900   -1    0    0    0    0 -0.00000000000E+00 -0.00000000000E+00 -0.74505805969E-08  0.93827000000E+00  0.93827000000E+00 0. -1.
     999902    2    1    2    0    0  0.21139676490E-04 -0.10074165064E-01  0.22313124567E-01  0.10194480725E+01  0.10191540647E+01 0.  0.
     999903    2    3    3    0    0 -0.58193776755E-01 -0.10236056355E+00 -0.49961874914E-01  0.12976867436E+00  0.21897928607E-01 0.  0.
         14    1    1    2    0    0 -0.21139676490E-04  0.10074165064E-01 -0.22313124567E-01  0.24481927550E-01  0.00000000000E+00 0.  1.
     999901    1    3    3    0    0  0.58214916432E-01  0.92286398481E-01  0.72274999481E-01  0.88967939809E+00  0.88000000000E+00 0. -1.
        -11    1    4    4    0    0 -0.32499240802E-01 -0.47418024437E-01 -0.34963701659E-01  0.67285891901E-01  0.51100000000E-03 0. -1.
         11    1    4    4    0    0 -0.25694535953E-01 -0.54942539109E-01 -0.14998173255E-01  0.62482782457E-01  0.51100000000E-03 0.  1.
</event>
<event>
 8    1  0.9952977E+004  0.1043930E+01  0.7957747E-01            NaN
         13   -1    0    0    0    0  0.00000000000E+00  0.00000000000E+00  0.74505805969E-08  0.10566000000E+00  0.10566000000E+00 0.  1.
     999900   -1    0    0    0    0 -0.00000000000E+00 -0.00000000000E+00 -0.74505805969E-08  0.93827000000E+00  0.93827000000E+00 0.  1.
     999902    2    1    2    0    0 -0.22689183369E-02 -0.20978792284E-01 -0.89989373079E-02  0.10209901092E+01  0.10207323668E+01 0.  0.
     999903    2    3    3    0    0  0.12751604872E+00 -0.24345009378E-01  0.60675817535E-02  0.13133710435E+00  0.18963050046E-01 0.  0.
         14    1    1    2    0    0  0.22689183369E-02  0.20978792284E-01  0.89989373079E-02  0.22939890775E-01  0.00000000000E+00 0. -1.
     999901    1    3    3    0    0 -0.12978496706E+00  0.33662170938E-02 -0.15066519061E-01  0.88965300488E+00  0.88000000000E+00 0. -1.
        -11    1    4    4    0    0  0.94957671340E-01 -0.96194772643E-02  0.52865498904E-02  0.95591330255E-01  0.51100000000E-03 0. -1.
         11    1    4    4    0    0  0.32558377380E-01 -0.14725532113E-01  0.78103186315E-03  0.35745774092E-01  0.51100000000E-03 0.  1.
</event>
<event>
 8    1  0.9952977E+004  0.1043930E+01  0.7957747E-01            NaN
         13   -1    0    0    0    0  0.00000000000E+00  0.00000000000E+00  0.74505805969E-08  0.10566000000E+00  0.10566000000E+00 0. -1.
     999900   -1    0    0    0    0 -0.00000000000E+00 -0.00000000000E+00 -0.74505805969E-08  0.93827000000E+00  0.93827000000E+00 0. -1.
     999902    2    1    2    0    0  0.17817937324E-01  0.89636835112E-03 -0.14198361536E-01  0.10211292141E+01  0.10208746231E+01 0.  0.
     999903    2    3    3    0    0 -0.10929795604E+00 -0.35271572121E-01  0.54478124983E-01  0.12861421140E+00  0.19586277850E-01 0.  0.
         14    1    1    2    0    0 -0.17817937324E-01 -0.89636835112E-03  0.14198361536E-01  0.22800785886E-01  0.00000000000E+00 0. -1.
     999901    1    3    3    0    0  0.12711589336E+00  0.36167940472E-01 -0.68676486519E-01  0.89251500271E+00  0.88000000000E+00 0. -1.
        -11    1    4    4    0    0 -0.34493848410E-01 -0.17462936304E-01  0.10654987031E-01  0.40106976851E-01  0.51100000000E-03 0. -1.
         11    1    4    4    0    0 -0.74804107625E-01 -0.17808635817E-01  0.43823137952E-01  0.88507234553E-01  0.51100000000E-03 0.  1.
</event>
<event>
 8    1  0.9952977E+004  0.1043930E+01  0.7957747E-01            NaN
         13   -1    0    0    0    0  0.00000000000E+00  0.00000000000E+00  0.74505805969E-08  0.10566000000E+00  0.10566000000E+00 0.  1.
     999900   -1    0    0    0    0 -0.00000000000E+00 -0.00000000000E+00 -0.74505805969E-08  0.93827000000E+00  0.93827000000E+00 0. -1.
     999902    2    1    2    0    0 -0.75255042386E-03  0.17598803892E-01  0.13994088018E-01  0.10214329173E+01  0.10211851379E+01 0.  0.
     999903    2    3    3    0    0 -0.36539840425E-01 -0.11543648383E+00 -0.38571681529E-01  0.12916486451E+00  0.23131058535E-01 0.  0.
         14    1    1    2    0    0  0.75255042386E-03 -0.17598803892E-01 -0.13994088018E-01  0.22497082700E-01  0.00000000000E+00 0. -1.
     999901    1    3    3    0    0  0.35787290002E-01  0.13303528773E+00  0.52565769547E-01  0.89226805279E+00  0.88000000000E+00 0.  1.
        -11    1    4    4    0    0 -0.13789615481E-01 -0.43540545779E-01 -0.26464413729E-01  0.52787867326E-01  0.51100000000E-03 0.  1.
         11    1    4    4    0    0 -0.22750224945E-01 -0.71895938055E-01 -0.12107267801E-01  0.76376997181E-01  0.51100000000E-03 0. -1.
</event>
<event>
 8    1  0.9952977E+004  0.1043930E+01  0.7957747E-01            NaN
         13   -1    0    0    0    0  0.00000000000E+00  0.00000000000E+00  0.74505805969E-08  0.10566000000E+00  0.10566000000E+00 0. -1.
     999900   -1    0    0    0    0 -0.00000000000E+00 -0.00000000000E+00 -0.74505805969E-08  0.93827000000E+00  0.93827000000E+00 0.  1.
     999902    2    1    2    0    0 -0.40701446256E-02  0.17338014926E-01  0.15765564369E-01  0.10201450077E+01  0.10198676928E+01 0.  0.
     999903    2    3    3    0    0 -0.84620347328E-01  0.78683937227E-01  0.62916390650E-01  0.13308533792E+00  0.20036711216E-01 0.  0.
         14    1    1    2    0    0  0.40701446256E-02 -0.17338014926E-01 -0.15765564369E-01  0.23784992300E-01  0.00000000000E+00 0.  1.
     999901    1    3    3    0    0  0.80550202702E-01 -0.61345922302E-01 -0.47150826281E-01  0.88705966978E+00  0.88000000000E+00 0.  1.
        -11    1    4    4    0    0 -0.32345093051E-01  0.40477706890E-01  0.20757411636E-01  0.55819181814E-01  0.51100000000E-03 0.  1.
         11    1    4    4    0    0 -0.52275254277E-01  0.38206230337E-01  0.42158979014E-01  0.77266156102E-01  0.51100000000E-03 0. -1.
</event>
<event>
 8    1  0.9952977E+004  0.1043930E+01  0.7957747E-01            NaN
         13   -1    0    0    0    0  0.00000000000E+00  0.00000000000E+00  0.74505805969E-08  0.10566000000E+00  0.10566000000E+00 0.  1.
     999900   -1    0    0    0    0 -0.00000000000E+00 -0.00000000000E+00 -0.74505805969E-08  0.93827000000E+00  0.93827000000E+00 0.  1.
     999902    2    1    2    0    0  0.16450060018E-03 -0.22809885297E-01 -0.83268001043E-02  0.10196472175E+01  0.10193580306E+01 0.  0.
     999903    2    3    3    0    0  0.85251410166E-01 -0.72645551610E-01 -0.67115333631E-01  0.13219047627E+00  0.20607641887E-01 0.  0.
         14    1    1    2    0    0 -0.16450060018E-03  0.22809885297E-01  0.83268001043E-02  0.24282782536E-01  0.00000000000E+00 0.  1.
     999901    1    3    3    0    0 -0.85086909566E-01  0.49835666314E-01  0.58788533527E-01  0.88745674119E+00  0.88000000000E+00 0.  1.
        -11    1    4    4    0    0  0.33753894976E-01 -0.17087912854E-01 -0.26884087994E-01  0.46414841377E-01  0.51100000000E-03 0. -1.
         11    1    4    4    0    0  0.51497515190E-01 -0.55557638756E-01 -0.40231245637E-01  0.85775634894E-01  0.51100000000E-03 0.  1.
</event>
<event>
 8    1  0.9952977E+004  0.1043930E+01  0.7957747E-01            NaN
         13   -1    0    0    0    0  0.00000000000E+00  0.00000000000E+00  0.74505805969E-08  0.10566000000E+00  0.10566000000E+00 0. -1.
     999900   -1    0    0    0    0 -0.00000000000E+00 -0.00000000000E+00 -0.74505805969E-08  0.93827000000E+00  0.93827000000E+00 0.  1.
     999902    2    1    2    0    0 -0.14602308382E-01  0.45184414387E-02  0.18060891465E-01  0.10202690718E+01  0.10199946761E+01 0.  0.
     999903    2    3    3    0    0  0.43329004590E-01  0.56629332598E-01  0.10955517538E+00  0.13210085237E+00  0.19079171791E-01 0.  0.
         14    1    1    2    0    0  0.14602308382E-01 -0.45184414387E-02 -0.18060891465E-01  0.23660928207E-01  0.00000000000E+00 0.  1.
     999901    1    3    3    0    0 -0.57931312972E-01 -0.52110891159E-01 -0.91494283913E-01  0.88816821942E+00  0.88000000000E+00 0.  1.
        -11    1    4    4    0    0  0.75931713781E-03  0.17427053418E-02  0.13044025022E-01  0.13191713088E-01  0.51100000000E-03 0.  1.
         11    1    4    4    0    0  0.42569687452E-01  0.54886627256E-01  0.96511150355E-01  0.11890913928E+00  0.51100000000E-03 0. -1.
</event>
<event>
 8    1  0.9952977E+004  0.1043930E+01  0.7957747E-01            NaN
         13   -1    0    0    0    0  0.00000000000E+00  0.00000000000E+00  0.74505805969E-08  0.10566000000E+00  0.10566000000E+00 0. -1.
     999900   -1    0    0    0    0 -0.00000000000E+00 -0.00000000000E+00 -0.74505805969E-08  0.93827000000E+00  0.93827000000E+00 0.  1.
     999902    2    1    2    0    0  0.12616390333E-01 -0.12331277870E-01  0.18355883967E-01  0.10184707739E+01  0.10181525156E+01 0.  0.
     999903    2    3    3    0    0  0.49045270419E-01  0.28936151541E-01 -0.11186307791E+00  0.12718684489E+00  0.20503802009E-01 0.  0.
         14    1    1    2    0    0 -0.12616390333E-01  0.12331277870E-01 -0.18355883967E-01  0.25459226130E-01  0.00000000000E+00 0.  1.
     999901    1    3    3    0    0 -0.36428880086E-01 -0.41267429411E-01  0.13021896187E+00  0.89128392898E+00  0.88000000000E+00 0. -1.
        -11    1    4    4    0    0  0.37561828533E-01  0.27325630493E-01 -0.72135989837E-01  0.85798853112E-01  0.51100000000E-03 0. -1.
         11    1    4    4    0    0  0.11483441886E-01  0.16105210481E-02 -0.39727088069E-01  0.41387991774E-01  0.51100000000E-03 0.  1.
</event>
<event>
 8    1  0.1033796E+005  0.1043930E+01  0.7957747E-01            NaN
         13   -1    0    0    0    0  0.00000000000E+00  0.00000000000E+00  0.74505805969E-08  0.10566000000E+00  0.10566000000E+00 0. -1.
     999900   -1    0    0    0    0 -0.00000000000E+00 -0.00000000000E+00 -0.74505805969E-08  0.93827000000E+00  0.93827000000E+00 0.  1.
     999902    2    1    2    0    0  0.10427400401E-01  0.16650102494E-01  0.13305700251E-01  0.10202024158E+01  0.10199264537E+01 0.  0.
     999903    2    3    3    0    0 -0.11219729647E+00 -0.51423039498E-01  0.30021165218E-01  0.12893916867E+00  0.22169269939E-01 0.  0.
         14    1    1    2    0    0 -0.10427400401E-01 -0.16650102494E-01 -0.13305700251E-01  0.23727584187E-01  0.00000000000E+00 0.  1.
     999901    1    3    3    0    0  0.12262469687E+00  0.68073141992E-01 -0.16715464967E-01  0.89126324715E+00  0.88000000000E+00 0. -1.
        -11    1    4    4    0    0 -0.50708492959E-01 -0.11366663787E-01  0.10859169727E-01  0.53091760114E-01  0.51100000000E-03 0. -1.
         11    1    4    4    0    0 -0.61488803509E-01 -0.40056375712E-01  0.19161995491E-01  0.75847408554E-01  0.51100000000E-03 0.  1.
</event>
<event>
 8    1  0.9952977E+004  0.1043930E+01  0.7957747E-01            NaN
         13   -1    0    0    0    0  0.00000000000E+00  0.00000000000E+00  0.74505805969E-08  0.10566000000E+00  0.10566000000E+00 0.  1.
     999900   -1    0    0    0    0 -0.00000000000E+00 -0.00000000000E+00 -0.74505805969E-08  0.93827000000E+00  0.93827000000E+00 0. -1.
     999902    2    1    2    0    0  0.53444173598E-02  0.91368206123E-02  0.22109718043E-01  0.10194170663E+01  0.10191223043E+01 0.  0.
     999903    2    3    3    0    0  0.15424006696E-01 -0.71755394905E-01  0.10696169551E+00  0.13158543430E+00  0.22072279755E-01 0.  0.
         14    1    1    2    0    0 -0.53444173598E-02 -0.91368206123E-02 -0.22109718043E-01  0.24512933724E-01  0.00000000000E+00 0. -1.
     999901    1    3    3    0    0 -0.10079589337E-01  0.80892215518E-01 -0.84851977468E-01  0.88783163197E+00  0.88000000000E+00 0. -1.
        -11    1    4    4    0    0  0.32379066764E-02 -0.89608527882E-02  0.39472653151E-02  0.10325838794E-01  0.51100000000E-03 0. -1.
         11    1    4    4    0    0  0.12186100020E-01 -0.62794542117E-01  0.10301443020E+00  0.12125959551E+00  0.51100000000E-03 0.  1.
</event>
<event>
 8    1  0.9952977E+004  0.1043930E+01  0.7957747E-01            NaN
         13   -1    0    0    0    0  0.00000000000E+00  0.00000000000E+00  0.74505805969E-08  0.10566000000E+00  0.10566000000E+00 0.  1.
     999900   -1    0    0    0    0 -0.00000000000E+00 -0.00000000000E+00 -0.74505805969E-08  0.93827000000E+00  0.93827000000E+00 0.  1.
     999902    2    1    2    0    0 -0.18105153784E-01 -0.12471093803E-01  0.89658407214E-02  0.10201873996E+01  0.10199110840E+01 0.  0.
     999903    2    3    3    0    0  0.39004931888E-01  0.11073749964E+00 -0.46935820801E-01  0.12801762027E+00  0.20034003282E-01 0.  0.
         14    1    1    2    0    0  0.18105153784E-01  0.12471093803E-01 -0.89658407214E-02  0.23742600406E-01  0.00000000000E+00 0. -1.
     999901    1    3    3    0    0 -0.57110085672E-01 -0.12320859344E+00  0.55901661523E-01  0.89216977933E+00  0.88000000000E+00 0. -1.
        -11    1    4    4    0    0  0.22484436208E-02  0.30470892680E-01 -0.84122893389E-02  0.31694771372E-01  0.51100000000E-03 0. -1.
         11    1    4    4    0    0  0.36756488267E-01  0.80266606956E-01 -0.38523531462E-01  0.96322848895E-01  0.51100000000E-03 0.  1.
</event>
<event>
 8    1  0.9952977E+004  0.1043930E+01  0.7957747E-01            NaN
         13   -1    0    0    0    0  0.00000000000E+00  0.00000000000E+00  0.74505805969E-08  0.10566000000E+00  0.10566000000E+00 0.  1.
     999900   -1    0    0    0    0 -0.00000000000E+00 -0.00000000000E+00 -0.74505805969E-08  0.93827000000E+00  0.93827000000E+00 0. -1.
     999902    2    1    2    0    0 -0.21821788249E-01 -0.52586598200E-02  0.24372865034E-02  0.10213515964E+01  0.10211020023E+01 0.  0.
     999903    2    3    3    0    0  0.15265411945E-01 -0.12826144603E+00 -0.16788336110E-01  0.13181532931E+00  0.20233671715E-01 0.  0.
         14    1    1    2    0    0  0.21821788249E-01  0.52586598200E-02 -0.24372865034E-02  0.22578403641E-01  0.00000000000E+00 0. -1.
     999901    1    3    3    0    0 -0.37087200194E-01  0.12300278621E+00  0.19225622613E-01  0.88953626705E+00  0.88000000000E+00 0.  1.
        -11    1    4    4    0    0  0.78302062962E-02 -0.10949732683E+00 -0.19326692269E-01  0.11146640242E+00  0.51100000000E-03 0.  1.
         11    1    4    4    0    0  0.74352056490E-02 -0.18764119206E-01  0.25383561592E-02  0.20348926891E-01  0.51100000000E-03 0. -1.
</event>
<event>
 8    1  0.9952977E+004  0.1043930E+01  0.7957747E-01            NaN
         13   -1    0    0    0    0  0.00000000000E+00  0.00000000000E+00  0.74505805969E-08  0.10566000000E+00  0.10566000000E+00 0. -1.
     999900   -1    0    0    0    0 -0.00000000000E+00 -0.00000000000E+00 -0.74505805969E-08  0.93827000000E+00  0.93827000000E+00 0. -1.
     999902    2    1    2    0    0  0.34819945209E-02  0.22131760939E-01  0.63061954692E-02  0.10206553952E+01  0.10203899884E+01 0.  0.
     999903    2    3    3    0    0  0.93529056508E-01 -0.70318263393E-01 -0.51384684790E-01  0.12937333094E+00  0.20117911179E-01 0.  0.
         14    1    1    2    0    0 -0.34819945209E-02 -0.22131760939E-01 -0.63061954692E-02  0.23274604817E-01  0.00000000000E+00 0.  1.
     999901    1    3    3    0    0 -0.90047061987E-01  0.92450024332E-01  0.57690880259E-01  0.89128206424E+00  0.88000000000E+00 0.  1.
        -11    1    4    4    0    0  0.72967113978E-01 -0.47561697600E-01 -0.45011397630E-01  0.98043877109E-01  0.51100000000E-03 0.  1.
         11    1    4    4    0    0  0.20561942530E-01 -0.22756565792E-01 -0.63732871601E-02  0.31329453833E-01  0.51100000000E-03 0. -1.
</event>
<event>
 8    1  0.9952977E+004  0.1043930E+01  0.7957747E-01            NaN
         13   -1    0    0    0    0  0.00000000000E+00  0.00000000000E+00  0.74505805969E-08  0.10566000000E+00  0.10566000000E+00 0.  1.
     999900   -1    0    0    0    0 -0.00000000000E+00 -0.00000000000E+00 -0.74505805969E-08  0.93827000000E+00  0.93827000000E+00 0. -1.
     999902    2    1    2    0    0  0.17518324213E-01  0.27101197150E-01 -0.20134628997E-01  0.10058935720E+01  0.10051741682E+01 0.  0.
     999903    2    3    3    0    0  0.34311951936E-01 -0.89821859585E-01 -0.63506533635E-01  0.11694242079E+00  0.19929211237E-01 0.  0.
         14    1    1    2    0    0 -0.17518324213E-01 -0.27101197150E-01  0.20134628997E-01  0.38036428000E-01  0.00000000000E+00 0.  1.
     999901    1    3    3    0    0 -0.16793627723E-01  0.11692305673E+00  0.43371904639E-01  0.88895115121E+00  0.88000000000E+00 0.  1.
        -11    1    4    4    0    0  0.15836556654E-01 -0.30546670033E-01 -0.33334681840E-01  0.47909891580E-01  0.51100000000E-03 0.  1.
         11    1    4    4    0    0  0.18475395282E-01 -0.59275189552E-01 -0.30171851795E-01  0.69032529209E-01  0.51100000000E-03 0. -1.
</event>
<event>
 8    1  0.9952977E+004  0.1043930E+01  0.7957747E-01            NaN
         13   -1    0    0    0    0  0.00000000000E+00  0.00000000000E+00  0.74505805969E-08  0.10566000000E+00  0.10566000000E+00 0.  1.
     999900   -1    0    0    0    0 -0.00000000000E+00 -0.00000000000E+00 -0.74505805969E-08  0.93827000000E+00  0.93827000000E+00 0.  1.
     999902    2    1    2    0    0 -0.20253824454E-01  0.63598882637E-02  0.30749761642E-02  0.10224795673E+01  0.10222545400E+01 0.  0.
     999903    2    3    3    0    0 -0.11511195013E+00  0.39014253682E-02 -0.66915405020E-01  0.13461541020E+00  0.19433348921E-01 0.  0.
         14    1    1    2    0    0  0.20253824454E-01 -0.63598882637E-02 -0.30749761642E-02  0.21450432680E-01  0.00000000000E+00 0. -1.
     999901    1    3    3    0    0  0.94858125678E-01  0.24584628955E-02  0.69990381184E-01  0.88786415712E+00  0.88000000000E+00 0. -1.
        -11    1    4    4    0    0 -0.10183775772E+00  0.18976683584E-02 -0.51396475992E-01  0.11408938999E+00  0.51100000000E-03 0.  1.
         11    1    4    4    0    0 -0.13274192408E-01  0.20037570098E-02 -0.15518929028E-01  0.20526020204E-01  0.51100000000E-03 0. -1.
</event>
<event>
 8    1  0.9952977E+004  0.1043930E+01  0.7957747E-01            NaN
         13   -1    0    0    0    0  0.00000000000E+00  0.00000000000E+00  0.74505805969E-08  0.10566000000E+00  0.10566000000E+00 0. -1.
     999900   -1    0    0    0    0 -0.00000000000E+00 -0.00000000000E+00 -0.74505805969E-08  0.93827000000E+00  0.93827000000E+00 0. -1.
     999902    2    1    2    0    0  0.71723799408E-02  0.49321845579E-02  0.21742010121E-01  0.10205102544E+01  0.10202414885E+01 0.  0.
     999903    2    3    3    0    0  0.10097820566E+00  0.10229715301E-01  0.82644976039E-01  0.13341568899E+00  0.25851671360E-01 0.  0.
         14    1    1    2    0    0 -0.71723799408E-02 -0.49321845579E-02 -0.21742010121E-01  0.23419745571E-01  0.00000000000E+00 0.  1.
     999901    1    3    3    0    0 -0.93805825715E-01 -0.52975307429E-02 -0.60902965919E-01  0.88709456544E+00  0.88000000000E+00 0.  1.
        -11    1    4    4    0    0  0.41931621050E-01 -0.77883095733E-02  0.39153903881E-01  0.57898254896E-01  0.51100000000E-03 0.  1.
         11    1    4    4    0    0  0.59046584605E-01  0.18018024874E-01  0.43491072158E-01  0.75517434096E-01  0.51100000000E-03 0. -1.
</event>
<event>
 8    1  0.9952977E+004  0.1043930E+01  0.7957747E-01            NaN
         13   -1    0    0    0    0  0.00000000000E+00  0.00000000000E+00  0.74505805969E-08  0.10566000000E+00  0.10566000000E+00 0. -1.
     999900   -1    0    0    0    0 -0.00000000000E+00 -0.00000000000E+00 -0.74505805969E-08  0.93827000000E+00  0.93827000000E+00 0.  1.
     999902    2    1    2    0    0 -0.69232629990E-04 -0.15346951580E-01 -0.18036474828E-01  0.10202477674E+01  0.10199728716E+01 0.  0.
     999903    2    3    3    0    0 -0.44929042100E-01 -0.12210365784E+00 -0.16902897048E-01  0.13266076783E+00  0.19627768825E-01 0.  0.
         14    1    1    2    0    0  0.69232629990E-04  0.15346951580E-01  0.18036474828E-01  0.23682232585E-01  0.00000000000E+00 0. -1.
     999901    1    3    3    0    0  0.44859809470E-01  0.10675670626E+00 -0.11335777804E-02  0.88758699959E+00  0.88000000000E+00 0.  1.
        -11    1    4    4    0    0 -0.33020135222E-01 -0.88703857921E-01 -0.33964565612E-02  0.94712727647E-01  0.51100000000E-03 0. -1.
         11    1    4    4    0    0 -0.11908906878E-01 -0.33399799924E-01 -0.13506440487E-01  0.37948040181E-01  0.51100000000E-03 0.  1.
</event>
<event>
 8    1  0.9952977E+004  0.1043930E+01  0.7957747E-01            NaN
         13   -1    0    0    0    0  0.00000000000E+00  0.00000000000E+00  0.74505805969E-08  0.10566000000E+00  0.10566000000E+00 0. -1.
     999900   -1    0    0    0    0 -0.00000000000E+00 -0.00000000000E+00 -0.74505805969E-08  0.93827000000E+00  0.93827000000E+00 0. -1.
     999902    2    1    2    0    0  0.15416431372E-01  0.79283693448E-02  0.17168354280E-01  0.10195316848E+01  0.10192397061E+01 0.  0.
     999903    2    3    3    0    0 -0.16226265270E-01 -0.11256311028E+00 -0.53756288327E-01  0.12793213238E+00  0.23305503229E-01 0.  0.
         14    1    1    2    0    0 -0.15416431372E-01 -0.79283693448E-02 -0.17168354280E-01  0.24398315216E-01  0.00000000000E+00 0.  1.
     999901    1    3    3    0    0  0.31642696642E-01  0.12049147962E+00  0.70924642607E-01  0.89159955240E+00  0.88000000000E+00 0.  1.
        -11    1    4    4    0    0 -0.21547483299E-01 -0.71473309812E-01 -0.34878832950E-01  0.82398556789E-01  0.51100000000E-03 0.  1.
         11    1    4    4    0    0  0.53212180286E-02 -0.41089800468E-01 -0.18877455377E-01  0.45533575594E-01  0.51100000000E-03 0. -1.
</event>
<event>
 8    1  0.9952977E+004  0.1043930E+01  0.7957747E-01            NaN
         13   -1    0    0    0    0  0.00000000000E+00  0.00000000000E+00  0.74505805969E-08  0.10566000000E+00  0.10566000000E+00 0.  1.
     999900   -1    0    0    0    0 -0.00000000000E+00 -0.00000000000E+00 -0.74505805969E-08  0.93827000000E+00  0.93827000000E+00 0.  1.
     999902    2    1    2    0    0 -0.17511684643E-01 -0.36817961585E-02  0.16156932309E-01  0.10198206412E+01  0.10195356193E+01 0.  0.
     999903    2    3    3    0    0 -0.11452372996E+00 -0.18821373280E-02  0.64824310661E-01  0.13315097921E+00  0.20193188148E-01 0.  0.
         14    1    1    2    0    0  0.17511684643E-01  0.36817961585E-02 -0.16156932309E-01  0.24109358839E-01  0.00000000000E+00 0.  1.
     999901    1    3    3    0    0  0.97012045315E-01 -0.17996588305E-02 -0.48667378352E-01  0.88666966195E+00  0.88000000000E+00 0.  1.
        -11    1    4    4    0    0 -0.87338333874E-01 -0.28429942135E-02  0.58675916974E-01  0.10525773859E+00  0.51100000000E-03 0. -1.
         11    1    4    4    0    0 -0.27185396084E-01  0.96085688543E-03  0.61483936869E-02  0.27893240617E-01  0.51100000000E-03 0.  1.
</event>
<event>
 8    1  0.9952977E+004  0.1043930E+01  0.7957747E-01            NaN
         13   -1    0    0    0    0  0.00000000000E+00  0.00000000000E+00  0.74505805969E-08  0.10566000000E+00  0.10566000000E+00 0. -1.
     999900   -1    0    0    0    0 -0.00000000000E+00 -0.00000000000E+00 -0.74505805969E-08  0.93827000000E+00  0.93827000000E+00 0. -1.
     999902    2    1    2    0    0 -0.14953217364E-01 -0.80125151916E-02 -0.12252709924E-01  0.10230032704E+01  0.10227892077E+01 0.  0.
     999903    2    3    3    0    0  0.10337958579E+00 -0.22203055793E-01  0.73367752160E-01  0.13085144073E+00  0.23642293420E-01 0.  0.
         14    1    1    2    0    0  0.14953217364E-01  0.80125151916E-02  0.12252709924E-01  0.20926729551E-01  0.00000000000E+00 0.  1.
     999901    1    3    3    0    0 -0.11833280316E+00  0.14190540602E-01 -0.85620462084E-01  0.89215182972E+00  0.88000000000E+00 0. -1.
        -11    1    4    4    0    0  0.18310045929E-01 -0.40799978832E-02  0.25215530294E-01  0.31432280440E-01  0.51100000000E-03 0. -1.
         11    1    4    4    0    0  0.85069539865E-01 -0.18123057910E-01  0.48152221866E-01  0.99419160288E-01  0.51100000000E-03 0.  1.
</event>
<event>
 8    1  0.9952977E+004  0.1043930E+01  0.7957747E-01            NaN
         13   -1    0    0    0    0  0.00000000000E+00  0.00000000000E+00  0.74505805969E-08  0.10566000000E+00  0.10566000000E+00 0. -1.
     999900   -1    0    0    0    0 -0.00000000000E+00 -0.00000000000E+00 -0.74505805969E-08  0.93827000000E+00  0.93827000000E+00 0. -1.
     999902    2    1    2    0    0  0.18866850877E-01  0.15607044383E-03 -0.16817364585E-01  0.10186553848E+01  0.10183417829E+01 0.  0.
     999903    2    3    3    0    0 -0.88008036462E-01 -0.53974674224E-01  0.69922791394E-01  0.12631227049E+00  0.20172084195E-01 0.  0.
         14    1    1    2    0    0 -0.18866850877E-01 -0.15607044383E-03  0.16817364585E-01  0.25274615162E-01  0.00000000000E+00 0. -1.
     999901    1    3    3    0    0  0.10687488734E+00  0.54130744668E-01 -0.86740155980E-01  0.89234311435E+00  0.88000000000E+00 0. -1.
        -11    1    4    4    0    0 -0.74025564107E-02 -0.78912417536E-02  0.14153955860E-02  0.10924010412E-01  0.51100000000E-03 0.  1.
         11    1    4    4    0    0 -0.80605480051E-01 -0.46083432470E-01  0.68507395808E-01  0.11538826008E+00  0.51100000000E-03 0. -1.
</event>
<event>
 8    1  0.9952977E+004  0.1043930E+01  0.7957747E-01            NaN
         13   -1    0    0    0    0  0.00000000000E+00  0.00000000000E+00  0.74505805969E-08  0.10566000000E+00  0.10566000000E+00 0.  1.
     999900   -1    0    0    0    0 -0.00000000000E+00 -0.00000000000E+00 -0.74505805969E-08  0.93827000000E+00  0.93827000000E+00 0.  1.
     999902    2    1    2    0    0  0.20502891784E-01  0.51816102426E-02 -0.84302799192E-02  0.10211640764E+01  0.10209102721E+01 0.  0.
     999903    2    3    3    0    0  0.42143018210E-02  0.12365687701E+00  0.40430255728E-01  0.13173220218E+00  0.20248060160E-01 0.  0.
         14    1    1    2    0    0 -0.20502891784E-01 -0.51816102426E-02  0.84302799192E-02  0.22765923564E-01  0.00000000000E+00 0. -1.
     999901    1    3    3    0    0  0.16288589963E-01 -0.11847526677E+00 -0.48860535647E-01  0.88943187426E+00  0.88000000000E+00 0.  1.
        -11    1    4    4    0    0 -0.76660237027E-02  0.52561989976E-01  0.13757869982E-01  0.54873224956E-01  0.51100000000E-03 0. -1.
         11    1    4    4    0    0  0.11880325524E-01  0.71094887038E-01  0.26672385746E-01  0.76858977224E-01  0.51100000000E-03 0.  1.
</event>
<event>
 8    1  0.9952977E+004  0.1043930E+01  0.7957747E-01            NaN
         13   -1    0    0    0    0  0.00000000000E+00  0.00000000000E+00  0.74505805969E-08  0.10566000000E+00  0.10566000000E+00 0. -1.
     999900   -1    0    0    0    0 -0.00000000000E+00 -0.00000000000E+00 -0.74505805969E-08  0.93827000000E+00  0.93827000000E+00 0. -1.
     999902    2    1    2    0    0 -0.87667548172E-02 -0.66207624393E-03  0.22011945646E-01  0.10202272557E+01  0.10199518779E+01 0.  0.
     999903    2    3    3    0    0 -0.35628392289E-01 -0.32637987094E-01 -0.11705403701E+00  0.12832852046E+00  0.20783191387E-01 0.  0.
         14    1    1    2    0    0  0.87667548172E-02  0.66207624393E-03 -0.22011945646E-01  0.23702744274E-01  0.00000000000E+00 0.  1.
     999901    1    3    3    0    0  0.26861637471E-01  0.31975910850E-01  0.13906598265E+00  0.89189873527E+00  0.88000000000E+00 0.  1.
        -11    1    4    4    0    0 -0.34605191445E-01 -0.20134134370E-01 -0.88569733414E-01  0.97199595884E-01  0.51100000000E-03 0.  1.
         11    1    4    4    0    0 -0.10232008432E-02 -0.12503852724E-01 -0.28484303594E-01  0.31128924574E-01  0.51100000000E-03 0. -1.
</event>
<event>
 8    1  0.9952977E+004  0.1043930E+01  0.7957747E-01            NaN
         13   -1    0    0    0    0  0.00000000000E+00  0.00000000000E+00  0.74505805969E-08  0.10566000000E+00  0.10566000000E+00 0.  1.
     999900   -1    0    0    0    0 -0.00000000000E+00 -0.00000000000E+00 -0.74505805969E-08  0.93827000000E+00  0.93827000000E+00 0. -1.
     999902    2    1    2    0    0 -0.20290422739E-01  0.18134446110E-02 -0.14079812540E-01  0.10191664995E+01  0.10188656058E+01 0.  0.
     999903    2    3    3    0    0 -0.11384048708E+00 -0.51946178580E-01  0.31111710054E-01  0.13142555454E+00  0.25429823387E-01 0.  0.
         14    1    1    2    0    0  0.20290422739E-01 -0.18134446110E-02  0.14079812540E-01  0.24763500509E-01  0.00000000000E+00 0.  1.
     999901    1    3    3    0    0  0.93550064338E-01  0.53759623191E-01 -0.45191522594E-01  0.88774094495E+00  0.88000000000E+00 0. -1.
        -11    1    4    4    0    0 -0.64651959535E-01 -0.15670860917E-01  0.17934453111E-01  0.68901070260E-01  0.51100000000E-03 0.  1.
         11    1    4    4    0    0 -0.49188527541E-01 -0.36275317664E-01  0.13177256943E-01  0.62524484283E-01  0.51100000000E-03 0. -1.
</event>
<event>
 8    1  0.9952977E+004  0.1043930E+01  0.7957747E-01            NaN
         13   -1    0    0    0    0  0.00000000000E+00  0.00000000000E+00  0.74505805969E-08  0.10566000000E+00  0.10566000000E+00 0. -1.
     999900   -1    0    0    0    0 -0.00000000000E+00 -0.00000000000E+00 -0.74505805969E-08  0.93827000000E+00  0.93827000000E+00 0. -1.
     999902    2    1    2    0    0  0.10287005744E-01  0.10599068922E-01 -0.18290415557E-01  0.10204203839E+01  0.10201495272E+01 0.  0.
     999903    2    3    3    0    0  0.39993269050E-01 -0.21185651894E-01  0.11859689553E+00  0.12877534996E+00  0.21669649593E-01 0.  0.
         14    1    1    2    0    0 -0.10287005744E-01 -0.10599068922E-01  0.18290415557E-01  0.23509616127E-01  0.00000000000E+00 0.  1.
     999901    1    3    3    0    0 -0.29706263306E-01  0.31784720816E-01 -0.13688731109E+00  0.89164503391E+00  0.88000000000E+00 0. -1.
        -11    1    4    4    0    0  0.21963158022E-01 -0.15588057564E-01  0.93884709876E-01  0.97672758323E-01  0.51100000000E-03 0. -1.
         11    1    4    4    0    0  0.18030111029E-01 -0.55975943309E-02  0.24712185654E-01  0.31102591641E-01  0.51100000000E-03 0.  1.
</event>
<event>
 8    1  0.9952977E+004  0.1043930E+01  0.7957747E-01            NaN
         13   -1    0    0    0    0  0.00000000000E+00  0.00000000000E+00  0.74505805969E-08  0.10566000000E+00  0.10566000000E+00 0.  1.
     999900   -1    0    0    0    0 -0.00000000000E+00 -0.00000000000E+00 -0.74505805969E-08  0.93827000000E+00  0.93827000000E+00 0.  1.
     999902    2    1    2    0    0  0.10201931256E-02 -0.25449642576E-01  0.13951864749E-02  0.10184217338E+01  0.10181022327E+01 0.  0.
     999903    2    3    3    0    0 -0.67863006111E-01  0.79386735296E-01 -0.68921444372E-01  0.12674915381E+00  0.20187648646E-01 0.  0.
         14    1    1    2    0    0 -0.10201931256E-02  0.25449642576E-01 -0.13951864749E-02  0.25508266240E-01  0.00000000000E+00 0. -1.
     999901    1    3    3    0    0  0.68883199236E-01 -0.10483637787E+00  0.70316630847E-01  0.89167257995E+00  0.88000000000E+00 0. -1.
        -11    1    4    4    0    0 -0.57364383315E-01  0.76191681058E-01 -0.62408316178E-01  0.11397764599E+00  0.51100000000E-03 0.  1.
         11    1    4    4    0    0 -0.10498622796E-01  0.31950542375E-02 -0.65131281938E-02  0.12771507823E-01  0.51100000000E-03 0. -1.
</event>
<event>
 8    1  0.9952977E+004  0.1043930E+01  0.7957747E-01            NaN
         13   -1    0    0    0    0  0.00000000000E+00  0.00000000000E+00  0.74505805969E-08  0.10566000000E+00  0.10566000000E+00 0.  1.
     999900   -1    0    0    0    0 -0.00000000000E+00 -0.00000000000E+00 -0.74505805969E-08  0.93827000000E+00  0.93827000000E+00 0.  1.
     999902    2    1    2    0    0  0.11193716309E-01  0.72711239078E-02  0.17293731359E-01  0.10220841383E+01  0.10218506467E+01 0.  0.
     999903    2    3    3    0    0  0.60536844729E-01  0.63005442039E-01 -0.96336726519E-01  0.13166123909E+00  0.20482229025E-01 0.  0.
         14    1    1    2    0    0 -0.11193716309E-01 -0.72711239078E-02 -0.17293731359E-01  0.21845861667E-01  0.00000000000E+00 0. -1.
     999901    1    3    3    0    0 -0.49343128420E-01 -0.55734318131E-01  0.11363045788E+00  0.89042289924E+00  0.88000000000E+00 0.  1.
        -11    1    4    4    0    0  0.16393356026E-01  0.30522427819E-01 -0.42485133355E-01  0.54823429288E-01  0.51100000000E-03 0.  1.
         11    1    4    4    0    0  0.44143488702E-01  0.32483014220E-01 -0.53851593164E-01  0.76837809801E-01  0.51100000000E-03 0. -1.
</event>
<event>
 8    1  0.9952977E+004  0.1043930E+01  0.7957747E-01            NaN
         13   -1    0    0    0    0  0.00000000000E+00  0.00000000000E+00  0.74505805969E-08  0.10566000000E+00  0.10566000000E+00 0.  1.
     999900   -1    0    0    0    0 -0.00000000000E+00 -0.00000000000E+00 -0.74505805969E-08  0.93827000000E+00  0.93827000000E+00 0.  1.
     999902    2    1    2    0    0  0.17946225183E-01  0.12759334941E-01 -0.71319533586E-02  0.10207841065E+01  0.10205216606E+01 0.  0.
     999903    2    3    3    0    0 -0.10825681948E+00 -0.27722078768E-01  0.59939639980E-01  0.12833547944E+00  0.19727702047E-01 0.  0.
         14    1    1    2    0    0 -0.17946225183E-01 -0.12759334941E-01  0.71319533586E-02  0.23145893484E-01  0.00000000000E+00 0. -1.
     999901    1    3    3    0    0  0.12620304466E+00  0.40481413709E-01 -0.67071593338E-01  0.89244862708E+00  0.88000000000E+00 0.  1.
        -11    1    4    4    0    0 -0.87065652880E-01 -0.25836167028E-01  0.40235902514E-01  0.99333400275E-01  0.51100000000E-03 0. -1.
         11    1    4    4    0    0 -0.21191166595E-01 -0.18859117406E-02  0.19703737466E-01  0.29002079165E-01  0.51100000000E-03 0.  1.
</event>
<event>
 8    1  0.9952977E+004  0.1043930E+01  0.7957747E-01            NaN
         13   -1    0    0    0    0  0.00000000000E+00  0.00000000000E+00  0.74505805969E-08  0.10566000000E+00  0.10566000000E+00 0.  1.
     999900   -1    0    0    0    0 -0.00000000000E+00 -0.00000000000E+00 -0.74505805969E-08  0.93827000000E+00  0.93827000000E+00 0.  1.
     999902    2    1    2    0    0  0.13077589698E-01  0.91302793847E-02 -0.17320123292E-01  0.10203848938E+01  0.10201132092E+01 0.  0.
     999903    2    3    3    0    0  0.11690199735E+00  0.16793392597E-01 -0.58463442220E-01  0.13329357743E+00  0.20027698037E-01 0.  0.
         14    1    1    2    0    0 -0.13077589698E-01 -0.91302793847E-02  0.17320123292E-01  0.23545106176E-01  0.00000000000E+00 0.  1.
     999901    1    3    3    0    0 -0.10382440765E+00 -0.76631132126E-02  0.41143318927E-01  0.88709131639E+00  0.88000000000E+00 0. -1.
        -11    1    4    4    0    0  0.43088166869E-01  0.14731523989E-01 -0.17033578291E-01  0.48621104817E-01  0.51100000000E-03 0. -1.
         11    1    4    4    0    0  0.73813830481E-01  0.20618686084E-02 -0.41429863928E-01  0.84672472614E-01  0.51100000000E-03 0.  1.
</event>
<event>
 8    1  0.9952977E+004  0.1043930E+01  0.7957747E-01            NaN
         13   -1    0    0    0    0  0.00000000000E+00  0.00000000000E+00  0.74505805969E-08  0.10566000000E+00  0.10566000000E+00 0. -1.
     999900   -1    0    0    0    0 -0.00000000000E+00 -0.00000000000E+00 -0.74505805969E-08  0.93827000000E+00  0.93827000000E+00 0. -1.
     999902    2    1    2    0    0  0.86290449128E-02 -0.23181122204E-02  0.20381108589E-01  0.10216763790E+01  0.10214339919E+01 0.  0.
     999903    2    3    3    0    0 -0.12721019521E+00 -0.10078480208E-01  0.24343150901E-01  0.13121120829E+00  0.18433194400E-01 0.  0.
         14    1    1    2    0    0 -0.86290449128E-02  0.23181122204E-02 -0.20381108589E-01  0.22253621002E-01  0.00000000000E+00 0.  1.
     999901    1    3    3    0    0  0.13583924012E+00  0.77603679873E-02 -0.39620423118E-02  0.89046517071E+00  0.88000000000E+00 0. -1.
        -11    1    4    4    0    0 -0.86016964483E-01  0.62134312153E-03  0.11719313981E-01  0.86815365503E-01  0.51100000000E-03 0.  1.
         11    1    4    4    0    0 -0.41193230727E-01 -0.10699823329E-01  0.12623836920E-01  0.44395842785E-01  0.51100000000E-03 0. -1.
</event>
<event>
 8    1  0.1000292E+005  0.1043930E+01  0.7957747E-01            NaN
         13   -1    0    0    0    0  0.00000000000E+00  0.00000000000E+00  0.74505805969E-08  0.10566000000E+00  0.10566000000E+00 0. -1.
     999900   -1    0    0    0    0 -0.00000000000E+00 -0.00000000000E+00 -0.74505805969E-08  0.93827000000E+00  0.93827000000E+00 0. -1.
     999902    2    1    2    0    0 -0.13903388180E-01 -0.18676709596E-01 -0.43433606924E-02  0.10202448049E+01  0.10199698395E+01 0.  0.
     999903    2    3    3    0    0  0.33083020056E-01 -0.85533942044E-01 -0.92476492268E-01  0.13207530478E+00  0.21941810595E-01 0.  0.
         14    1    1    2    0    0  0.13903388180E-01  0.18676709596E-01  0.43433606924E-02  0.23685195087E-01  0.00000000000E+00 0. -1.
     999901    1    3    3    0    0 -0.46986408236E-01  0.66857232448E-01  0.88133131575E-01  0.88816950014E+00  0.88000000000E+00 0.  1.
        -11    1    4    4    0    0  0.20477938718E-01 -0.24519718303E-01 -0.33231395276E-01  0.46099341783E-01  0.51100000000E-03 0. -1.
         11    1    4    4    0    0  0.12605081338E-01 -0.61014223741E-01 -0.59245096992E-01  0.85975962995E-01  0.51100000000E-03 0.  1.
</event>
<event>
 8    1  0.9952977E+004  0.1043930E+01  0.7957747E-01            NaN
         13   -1    0    0    0    0  0.00000000000E+00  0.00000000000E+00  0.74505805969E-08  0.10566000000E+00  0.10566000000E+00 0.  1.
     999900   -1    0    0    0    0 -0.00000000000E+00 -0.00000000000E+00 -0.74505805969E-08  0.93827000000E+00  0.93827000000E+00 0.  1.
     999902    2    1    2    0    0 -0.18738635161E-02  0.21438571191E-01 -0.10504717451E-01  0.10199827081E+01  0.10197015505E+01 0.  0.
     999903    2    3    3    0    0  0.11754907583E+00  0.44129419577E-01  0.31049279691E-01  0.13065518257E+00  0.18480477844E-01 0.  0.
         14    1    1    2    0    0  0.18738635161E-02 -0.21438571191E-01  0.10504717451E-01  0.23947291870E-01  0.00000000000E+00 0.  1.
     999901    1    3    3    0    0 -0.11942293935E+00 -0.22690848386E-01 -0.41553997141E-01  0.88932752556E+00  0.88000000000E+00 0. -1.
        -11    1    4    4    0    0  0.75343454818E-01  0.31303140758E-01  0.28658415054E-01  0.86475942779E-01  0.51100000000E-03 0.  1.
         11    1    4    4    0    0  0.42205621015E-01  0.12826278819E-01  0.23908646362E-02  0.44179239789E-01  0.51100000000E-03 0. -1.
</event>
<event>
 8    1  0.9952977E+004  0.1043930E+01  0.7957747E-01            NaN
         13   -1    0    0    0    0  0.00000000000E+00  0.00000000000E+00  0.74505805969E-08  0.10566000000E+00  0.10566000000E+00 0. -1.
     999900   -1    0    0    0    0 -0.00000000000E+00 -0.00000000000E+00 -0.74505805969E-08  0.93827000000E+00  0.93827000000E+00 0. -1.
     999902    2    1    2    0    0 -0.13729852917E-01  0.44720294167E-03  0.18915551466E-01  0.10205525121E+01  0.10202847265E+01 0.  0.
     999903    2    3    3    0    0 -0.31971898105E-01  0.85833365074E-01 -0.89612711101E-01  0.12959687201E+00  0.19373755844E-01 0.  0.
         14    1    1    2    0    0  0.13729852917E-01 -0.44720294167E-03 -0.18915551466E-01  0.23377487864E-01  0.00000000000E+00 0.  1.
     999901    1    3    3    0    0  0.18242045188E-01 -0.85386162133E-01  0.10852826257E+00  0.89095564013E+00  0.88000000000E+00 0.  1.
        -11    1    4    4    0    0 -0.40197798402E-02  0.23423407300E-01 -0.13752376626E-01  0.27462767948E-01  0.51100000000E-03 0. -1.
         11    1    4    4    0    0 -0.27952118265E-01  0.62409957774E-01 -0.75860334475E-01  0.10213410406E+00  0.51100000000E-03 0.  1.
</event>
<event>
 8    1  0.9952977E+004  0.1043930E+01  0.7957747E-01            NaN
         13   -1    0    0    0    0  0.00000000000E+00  0.00000000000E+00  0.74505805969E-08  0.10566000000E+00  0.10566000000E+00 0.  1.
     999900   -1    0    0    0    0 -0.00000000000E+00 -0.00000000000E+00 -0.74505805969E-08  0.93827000000E+00  0.93827000000E+00 0. -1.
     999902    2    1    2    0    0 -0.54780207143E-02  0.68666548745E-02 -0.21301717778E-01  0.10208882370E+01  0.10206281741E+01 0.  0.
     999903    2    3    3    0    0  0.92895499381E-01  0.76080746508E-01  0.45725889461E-01  0.13018029384E+00  0.20933182844E-01 0.  0.
         14    1    1    2    0    0  0.54780207143E-02 -0.68666548745E-02  0.21301717778E-01  0.23041762962E-01  0.00000000000E+00 0.  1.
     999901    1    3    3    0    0 -0.98373520095E-01 -0.69214091633E-01 -0.67027607239E-01  0.89070794319E+00  0.88000000000E+00 0. -1.
        -11    1    4    4    0    0  0.15145142464E-01  0.10305154822E-01  0.15348791549E-01  0.23904352725E-01  0.51100000000E-03 0.  1.
         11    1    4    4    0    0  0.77750356917E-01  0.65775591685E-01  0.30377097911E-01  0.10627594112E+00  0.51100000000E-03 0. -1.
</event>
<event>
 8    1  0.9952977E+004  0.1043930E+01  0.7957747E-01            NaN
         13   -1    0    0    0    0  0.00000000000E+00  0.00000000000E+00  0.74505805969E-08  0.10566000000E+00  0.10566000000E+00 0.  1.
     999900   -1    0    0    0    0 -0.00000000000E+00 -0.00000000000E+00 -0.74505805969E-08  0.93827000000E+00  0.93827000000E+00 0. -1.
     999902    2    1    2    0    0  0.10021346147E-01  0.10849966715E-01  0.19298060328E-01  0.10196284715E+01  0.10193388326E+01 0.  0.
     999903    2    3    3    0    0 -0.62570924985E-01  0.91775175751E-01 -0.62803850290E-01  0.12914587703E+00  0.19913071182E-01 0.  0.
         14    1    1    2    0    0 -0.10021346147E-01 -0.10849966715E-01 -0.19298060328E-01  0.24301528527E-01  0.00000000000E+00 0. -1.
     999901    1    3    3    0    0  0.72592271132E-01 -0.80925209036E-01  0.82101910618E-01  0.89048259445E+00  0.88000000000E+00 0.  1.
        -11    1    4    4    0    0 -0.41893472809E-01  0.43888107640E-01 -0.32998165502E-01  0.69067858688E-01  0.51100000000E-03 0.  1.
         11    1    4    4    0    0 -0.20677452176E-01  0.47887068111E-01 -0.29805684787E-01  0.60078018338E-01  0.51100000000E-03 0. -1.
</event>
<event>
 8    1  0.9952977E+004  0.1043930E+01  0.7957747E-01            NaN
         13   -1    0    0    0    0  0.00000000000E+00  0.00000000000E+00  0.74505805969E-08  0.10566000000E+00  0.10566000000E+00 0. -1.
     999900   -1    0    0    0    0 -0.00000000000E+00 -0.00000000000E+00 -0.74505805969E-08  0.93827000000E+00  0.93827000000E+00 0.  1.
     999902    2    1    2    0    0  0.14664281657E-01 -0.18006486916E-01  0.73455554192E-02  0.10195736474E+01  0.10192826843E+01 0.  0.
     999903    2    3    3    0    0 -0.11656369007E+00 -0.36209389293E-01  0.37412620553E-01  0.12914894277E+00  0.19532831984E-01 0.  0.
         14    1    1    2    0    0 -0.14664281657E-01  0.18006486916E-01 -0.73455554192E-02  0.24356352600E-01  0.00000000000E+00 0.  1.
     999901    1    3    3    0    0  0.13122797173E+00  0.18202902378E-01 -0.30067065134E-01  0.89042470463E+00  0.88000000000E+00 0.  1.
        -11    1    4    4    0    0 -0.73644852664E-01 -0.23949746470E-01  0.13844307142E-01  0.78670710185E-01  0.51100000000E-03 0.  1.
         11    1    4    4    0    0 -0.42918837405E-01 -0.12259642824E-01  0.23568313411E-01  0.50478232580E-01  0.51100000000E-03 0. -1.
</event>
<event>
 8    1  0.9952977E+004  0.1043930E+01  0.7957747E-01            NaN
         13   -1    0    0    0    0  0.00000000000E+00  0.00000000000E+00  0.74505805969E-08  0.10566000000E+00  0.10566000000E+00 0.  1.
     999900   -1    0    0    0    0 -0.00000000000E+00 -0.00000000000E+00 -0.74505805969E-08  0.93827000000E+00  0.93827000000E+00 0.  1.
     999902    2    1    2    0    0  0.17602327607E-01 -0.11097227755E-01 -0.12250681808E-01  0.10197831657E+01  0.10194972464E+01 0.  0.
     999903    2    3    3    0    0  0.50345475775E-01  0.55893653287E-01  0.10315752267E+00  0.12912108302E+00  0.19287617465E-01 0.  0.
         14    1    1    2    0    0 -0.17602327607E-01  0.11097227755E-01  0.12250681808E-01  0.24146834281E-01  0.00000000000E+00 0.  1.
     999901    1    3    3    0    0 -0.32743148168E-01 -0.66990881042E-01 -0.11540820448E+00  0.89066208270E+00  0.88000000000E+00 0.  1.
        -11    1    4    4    0    0  0.55073187141E-02  0.17407143988E-01  0.29395723580E-01  0.34607931274E-01  0.51100000000E-03 0.  1.
         11    1    4    4    0    0  0.44838157060E-01  0.38486509298E-01  0.73761799094E-01  0.94513151747E-01  0.51100000000E-03 0. -1.
</event>
<event>
 8    1  0.9952977E+004  0.1043930E+01  0.7957747E-01            NaN
         13   -1    0    0    0    0  0.00000000000E+00  0.00000000000E+00  0.74505805969E-08  0.10566000000E+00  0.10566000000E+00 0.  1.
     999900   -1    0    0    0    0 -0.00000000000E+00 -0.00000000000E+00 -0.74505805969E-08  0.93827000000E+00  0.93827000000E+00 0. -1.
     999902    2    1    2    0    0 -0.11230509568E-01 -0.73970539535E-02  0.80404408738E-02  0.10282618973E+01  0.10281425193E+01 0.  0.
     999903    2    3    3    0    0 -0.56533053728E-01 -0.67688869815E-01 -0.10421335342E+00  0.13793143176E+00  0.19669457896E-01 0.  0.
         14    1    1    2    0    0  0.11230509568E-01  0.73970539535E-02 -0.80404408738E-02  0.15668102686E-01  0.00000000000E+00 0.  1.
     999901    1    3    3    0    0  0.45302544161E-01  0.60291815861E-01  0.11225379430E+00  0.89033046556E+00  0.88000000000E+00 0.  1.
        -11    1    4    4    0    0 -0.24566088075E-01 -0.20863716876E-01 -0.26475220485E-01  0.41713136850E-01  0.51100000000E-03 0.  1.
         11    1    4    4    0    0 -0.31966965654E-01 -0.46825152939E-01 -0.77738132938E-01  0.96218294906E-01  0.51100000000E-03 0. -1.
</event>
<event>
 8    1  0.9952977E+004  0.1043930E+01  0.7957747E-01            NaN
         13   -1    0    0    0    0  0.00000000000E+00  0.00000000000E+00  0.74505805969E-08  0.10566000000E+00  0.10566000000E+00 0.  1.
     999900   -1    0    0    0    0 -0.00000000000E+00 -0.00000000000E+00 -0.74505805969E-08  0.93827000000E+00  0.93827000000E+00 0.  1.
     999902    2    1    2    0    0  0.90064959895E-02 -0.12173229624E-01 -0.22557663386E-01  0.10167610349E+01  0.10163979778E+01 0.  0.
     999903    2    3    3    0    0  0.11530883881E+00  0.12672557076E-03  0.50507140623E-01  0.12727245001E+00  0.18739287912E-01 0.  0.
         14    1    1    2    0    0 -0.90064959895E-02  0.12173229624E-01  0.22557663386E-01  0.27168965142E-01  0.00000000000E+00 0.  1.
     999901    1    3    3    0    0 -0.10630234282E+00 -0.12299955195E-01 -0.73064804009E-01  0.88948858485E+00  0.88000000000E+00 0.  1.
        -11    1    4    4    0    0  0.37524553082E-01  0.67724024204E-02  0.22810183089E-01  0.44435606130E-01  0.51100000000E-03 0.  1.
         11    1    4    4    0    0  0.77784285726E-01 -0.66456768496E-02  0.27696957534E-01  0.82836843882E-01  0.51100000000E-03 0. -1.
</event>
<event>
 8    1  0.9952977E+004  0.1043930E+01  0.7957747E-01            NaN
         13   -1    0    0    0    0  0.00000000000E+00  0.00000000000E+00  0.74505805969E-08  0.10566000000E+00  0.10566000000E+00 0.  1.
     999900   -1    0    0    0    0 -0.00000000000E+00 -0.00000000000E+00 -0.74505805969E-08  0.93827000000E+00  0.93827000000E+00 0.  1.
     999902    2    1    2    0    0  0.29062165424E-02 -0.22176770601E-01  0.37701555536E-02  0.10212480838E+01  0.10209961701E+01 0.  0.
     999903    2    3    3    0    0 -0.15904310141E-01  0.56511184880E-01 -0.11432366314E+00  0.12968104749E+00  0.17343962248E-01 0.  0.
         14    1    1    2    0    0 -0.29062165424E-02  0.22176770601E-01 -0.37701555536E-02  0.22681916184E-01  0.00000000000E+00 0. -1.
     999901    1    3    3    0    0  0.18810526683E-01 -0.78687955481E-01  0.11809381869E+00  0.89156703633E+00  0.88000000000E+00 0. -1.
        -11    1    4    4    0    0 -0.77848288263E-02  0.32739729214E-01 -0.46887862456E-01  0.57716775686E-01  0.51100000000E-03 0.  1.
         11    1    4    4    0    0 -0.81194813144E-02  0.23771455667E-01 -0.67435800683E-01  0.71964271803E-01  0.51100000000E-03 0. -1.
</event>
<event>
 8    1  0.9952977E+004  0.1043930E+01  0.7957747E-01            NaN
         13   -1    0    0    0    0  0.00000000000E+00  0.00000000000E+00  0.74505805969E-08  0.10566000000E+00  0.10566000000E+00 0. -1.
     999900   -1    0    0    0    0 -0.00000000000E+00 -0.00000000000E+00 -0.74505805969E-08  0.93827000000E+00  0.93827000000E+00 0. -1.
     999902    2    1    2    0    0 -0.21922913311E-01  0.85322630839E-02  0.67274485536E-03  0.10203956373E+01  0.10201242034E+01 0.  0.
     999903    2    3    3    0    0 -0.11545918370E+00  0.50824382748E-01  0.39237664143E-01  0.13358962117E+00  0.19815438793E-01 0.  0.
         14    1    1    2    0    0  0.21922913311E-01 -0.85322630839E-02 -0.67274485536E-03  0.23534362685E-01  0.00000000000E+00 0.  1.
     999901    1    3    3    0    0  0.93536270393E-01 -0.42292119664E-01 -0.38564919288E-01  0.88680601614E+00  0.88000000000E+00 0. -1.
        -11    1    4    4    0    0 -0.70692639060E-01  0.21397788297E-01  0.18516089880E-01  0.76147365461E-01  0.51100000000E-03 0. -1.
         11    1    4    4    0    0 -0.44766544644E-01  0.29426594451E-01  0.20721574263E-01  0.57442255712E-01  0.51100000000E-03 0.  1.
</event>
<event>
 8    1  0.9952977E+004  0.1043930E+01  0.7957747E-01            NaN
         13   -1    0    0    0    0  0.00000000000E+00  0.00000000000E+00  0.74505805969E-08  0.10566000000E+00  0.10566000000E+00 0. -1.
     999900   -1    0    0    0    0 -0.00000000000E+00 -0.00000000000E+00 -0.74505805969E-08  0.93827000000E+00  0.93827000000E+00 0. -1.
     999902    2    1    2    0    0  0.23511777483E-01 -0.49716435231E-02  0.48513317273E-02  0.10194135496E+01  0.10191187020E+01 0.  0.
     999903    2    3    3    0    0 -0.39434451287E-01  0.64567359442E-01  0.10249900597E+00  0.12905802011E+00  0.20637501664E-01 0.  0.
         14    1    1    2    0    0 -0.23511777483E-01  0.49716435231E-02 -0.48513317273E-02  0.24516450380E-01  0.00000000000E+00 0. -1.
     999901    1    3    3    0    0  0.62946228769E-01 -0.69539002965E-01 -0.97647674245E-01  0.89035552951E+00  0.88000000000E+00 0.  1.
        -11    1    4    4    0    0 -0.46103906605E-02  0.13814162087E-01  0.33854654072E-01  0.36857638279E-01  0.51100000000E-03 0.  1.
         11    1    4    4    0    0 -0.34824060626E-01  0.50753197355E-01  0.68644351900E-01  0.92200381827E-01  0.51100000000E-03 0. -1.
</event>
<event>
 8    1  0.1082914E+005  0.1043930E+01  0.7957747E-01            NaN
         13   -1    0    0    0    0  0.00000000000E+00  0.00000000000E+00  0.74505805969E-08  0.10566000000E+00  0.10566000000E+00 0.  1.
     999900   -1    0    0    0    0 -0.00000000000E+00 -0.00000000000E+00 -0.74505805969E-08  0.93827000000E+00  0.93827000000E+00 0. -1.
     999902    2    1    2    0    0  0.14918896300E-01 -0.74216541080E-02 -0.15987602527E-01  0.10208376235E+01  0.10205764037E+01 0.  0.
     999903    2    3    3    0    0  0.96536282309E-02 -0.11484369400E+00  0.59196467443E-01  0.13110740482E+00  0.20066470821E-01 0.  0.
         14    1    1    2    0    0 -0.14918896300E-01  0.74216541080E-02  0.15987602527E-01  0.23092376470E-01  0.00000000000E+00 0.  1.
     999901    1    3    3    0    0  0.52652680687E-02  0.10742203990E+00 -0.75184069969E-01  0.88973021871E+00  0.88000000000E+00 0. -1.
        -11    1    4    4    0    0  0.92071154123E-02 -0.59274989614E-01  0.40883807801E-01  0.72595056507E-01  0.51100000000E-03 0.  1.
         11    1    4    4    0    0  0.44651281862E-03 -0.55568704390E-01  0.18312659642E-01  0.58512348316E-01  0.51100000000E-03 0. -1.
</event>
<event>
 8    1  0.9952977E+004  0.1043930E+01  0.7957747E-01            NaN
         13   -1    0    0    0    0  0.00000000000E+00  0.00000000000E+00  0.74505805969E-08  0.10566000000E+00  0.10566000000E+00 0.  1.
     999900   -1    0    0    0    0 -0.00000000000E+00 -0.00000000000E+00 -0.74505805969E-08  0.93827000000E+00  0.93827000000E+00 0.  1.
     999902    2    1    2    0    0  0.17035213778E-01  0.98972928923E-02 -0.12638789612E-02  0.10241878546E+01  0.10239975631E+01 0.  0.
     999903    2    3    3    0    0 -0.60053959647E-01 -0.73238949126E-01  0.89590720169E-01  0.13227477947E+00  0.22353934906E-01 0.  0.
         14    1    1    2    0    0 -0.17035213778E-01 -0.98972928923E-02  0.12638789612E-02  0.19742145402E-01  0.00000000000E+00 0.  1.
     999901    1    3    3    0    0  0.77089173425E-01  0.83136242018E-01 -0.90854599130E-01  0.89191307513E+00  0.88000000000E+00 0.  1.
        -11    1    4    4    0    0 -0.20614956271E-01 -0.25852950440E-01  0.46480734488E-01  0.57044467463E-01  0.51100000000E-03 0.  1.
         11    1    4    4    0    0 -0.39439003376E-01 -0.47385998686E-01  0.43109985680E-01  0.75230312010E-01  0.51100000000E-03 0. -1.
</event>
<event>
 8    1  0.9952977E+004  0.1043930E+01  0.7957747E-01            NaN
         13   -1    0    0    0    0  0.00000000000E+00  0.00000000000E+00  0.74505805969E-08  0.10566000000E+00  0.10566000000E+00 0.  1.
     999900   -1    0    0    0    0 -0.00000000000E+00 -0.00000000000E+00 -0.74505805969E-08  0.93827000000E+00  0.93827000000E+00 0.  1.
     999902    2    1    2    0    0  0.11328961060E-01 -0.75132834673E-02  0.19267091082E-01  0.10203500173E+01  0.10200775177E+01 0.  0.
     999903    2    3    3    0    0 -0.70908459855E-01 -0.94271581520E-02  0.10915327898E+00  0.13195473188E+00  0.19512354095E-01 0.  0.
         14    1    1    2    0    0 -0.11328961060E-01  0.75132834673E-02 -0.19267091082E-01  0.23579982738E-01  0.00000000000E+00 0. -1.
     999901    1    3    3    0    0  0.82237420916E-01  0.19138746847E-02 -0.89886187902E-01  0.88839528538E+00  0.88000000000E+00 0.  1.
        -11    1    4    4    0    0 -0.16278712860E-01 -0.98799282190E-02  0.35003599234E-01  0.39851255367E-01  0.51100000000E-03 0.  1.
         11    1    4    4    0    0 -0.54629746995E-01  0.45277006697E-03  0.74149679750E-01  0.92103476512E-01  0.51100000000E-03 0. -1.
</event>
<event>
 8    1  0.9952977E+004  0.1043930E+01  0.7957747E-01            NaN
         13   -1    0    0    0    0  0.00000000000E+00  0.00000000000E+00  0.74505805969E-08  0.10566000000E+00  0.10566000000E+00 0. -1.
     999900   -1    0    0    0    0 -0.00000000000E+00 -0.00000000000E+00 -0.74505805969E-08  0.93827000000E+00  0.93827000000E+00 0.  1.
     999902    2    1    2    0    0  0.25033190738E-03 -0.47701037335E-02  0.23057852901E-01  0.10203825769E+01  0.10201108381E+01 0.  0.
     999903    2    3    3    0    0  0.11498538380E+00  0.46969856762E-01 -0.32287278140E-01  0.12970629495E+00  0.18800231079E-01 0.  0.
         14    1    1    2    0    0 -0.25033190738E-03  0.47701037335E-02 -0.23057852901E-01  0.23547423131E-01  0.00000000000E+00 0.  1.
     999901    1    3    3    0    0 -0.11473505189E+00 -0.51739960495E-01  0.55345131041E-01  0.89067628192E+00  0.88000000000E+00 0. -1.
        -11    1    4    4    0    0  0.46365289805E-01  0.16934652535E-01 -0.36039743451E-02  0.49495174585E-01  0.51100000000E-03 0. -1.
         11    1    4    4    0    0  0.68620093993E-01  0.30035204227E-01 -0.28683303795E-01  0.80211120364E-01  0.51100000000E-03 0.  1.
</event>
<event>
 8    1  0.9952977E+004  0.1043930E+01  0.7957747E-01            NaN
         13   -1    0    0    0    0  0.00000000000E+00  0.00000000000E+00  0.74505805969E-08  0.10566000000E+00  0.10566000000E+00 0. -1.
     999900   -1    0    0    0    0 -0.00000000000E+00 -0.00000000000E+00 -0.74505805969E-08  0.93827000000E+00  0.93827000000E+00 0. -1.
     999902    2    1    2    0    0 -0.14262479627E-01 -0.11443101688E-01  0.26099387435E-01  0.10120624471E+01  0.10115606042E+01 0.  0.
     999903    2    3    3    0    0  0.11408702197E+00  0.81986623424E-02  0.39046954093E-01  0.12244059885E+00  0.19595126351E-01 0.  0.
         14    1    1    2    0    0  0.14262479627E-01  0.11443101688E-01 -0.26099387435E-01  0.31867552868E-01  0.00000000000E+00 0.  1.
     999901    1    3    3    0    0 -0.12834950160E+00 -0.19641764031E-01 -0.12947566658E-01  0.88962184828E+00  0.88000000000E+00 0.  1.
        -11    1    4    4    0    0  0.85046928385E-01  0.83899505758E-02  0.20199011173E-01  0.87815901019E-01  0.51100000000E-03 0. -1.
         11    1    4    4    0    0  0.29040093586E-01 -0.19128823337E-03  0.18847942920E-01  0.34624697832E-01  0.51100000000E-03 0.  1.
</event>
<event>
 8    1  0.9952977E+004  0.1043930E+01  0.7957747E-01            NaN
         13   -1    0    0    0    0  0.00000000000E+00  0.00000000000E+00  0.74505805969E-08  0.10566000000E+00  0.10566000000E+00 0. -1.
     999900   -1    0    0    0    0 -0.00000000000E+00 -0.00000000000E+00 -0.74505805969E-08  0.93827000000E+00  0.93827000000E+00 0. -1.
     999902    2    1    2    0    0 -0.11796126691E-02  0.23774723988E-01  0.29343243839E-02  0.10199458543E+01  0.10196638203E+01 0.  0.
     999903    2    3    3    0    0 -0.85229762539E-02  0.55171164560E-01  0.11802002279E+00  0.13186681531E+00  0.18537332003E-01 0.  0.
         14    1    1    2    0    0  0.11796126691E-02 -0.23774723988E-01 -0.29343243839E-02  0.23984145729E-01  0.00000000000E+00 0. -1.
     999901    1    3    3    0    0  0.73433635849E-02 -0.31396440571E-01 -0.11508569840E+00  0.88807903896E+00  0.88000000000E+00 0. -1.
        -11    1    4    4    0    0  0.44793379529E-02  0.27736269983E-01  0.49492494287E-01  0.56913383776E-01  0.51100000000E-03 0. -1.
         11    1    4    4    0    0 -0.13002314207E-01  0.27434894577E-01  0.68527528499E-01  0.74953431531E-01  0.51100000000E-03 0.  1.
</event>
<event>
 8    1  0.9952977E+004  0.1043930E+01  0.7957747E-01            NaN
         13   -1    0    0    0    0  0.00000000000E+00  0.00000000000E+00  0.74505805969E-08  0.10566000000E+00  0.10566000000E+00 0. -1.
     999900   -1    0    0    0    0 -0.00000000000E+00 -0.00000000000E+00 -0.74505805969E-08  0.93827000000E+00  0.93827000000E+00 0.  1.
     999902    2    1    2    0    0  0.12844367933E-01 -0.11809316192E-01  0.15541228068E-01  0.10205640524E+01  0.10202965341E+01 0.  0.
     999903    2    3    3    0    0  0.11689678888E+00  0.28934734087E-01 -0.48063348855E-01  0.13122017846E+00  0.20163621837E-01 0.  0.
         14    1    1    2    0    0 -0.12844367933E-01  0.11809316192E-01 -0.15541228068E-01  0.23365947581E-01  0.00000000000E+00 0.  1.
     999901    1    3    3    0    0 -0.10405242095E+00 -0.40744050279E-01  0.63604576923E-01  0.88934387396E+00  0.88000000000E+00 0. -1.
        -11    1    4    4    0    0  0.26620489286E-01  0.12383298774E-01 -0.18878914957E-01  0.34909469908E-01  0.51100000000E-03 0. -1.
         11    1    4    4    0    0  0.90276299594E-01  0.16551435313E-01 -0.29184433899E-01  0.96310708555E-01  0.51100000000E-03 0.  1.
</event>
<event>
 8    1  0.9952977E+004  0.1043930E+01  0.7957747E-01            NaN
         13   -1    0    0    0    0  0.00000000000E+00  0.00000000000E+00  0.74505805969E-08  0.10566000000E+00  0.10566000000E+00 0. -1.
     999900   -1    0    0    0    0 -0.00000000000E+00 -0.00000000000E+00 -0.74505805969E-08  0.93827000000E+00  0.93827000000E+00 0. -1.
     999902    2    1    2    0    0  0.16731893965E-01 -0.11161930369E-01  0.12814125641E-01  0.10200815875E+01  0.10198027742E+01 0.  0.
     999903    2    3    3    0    0 -0.82262709546E-01  0.82836504596E-01  0.50064978637E-01  0.12877733898E+00  0.21167453134E-01 0.  0.
         14    1    1    2    0    0 -0.16731893965E-01  0.11161930369E-01 -0.12814125641E-01  0.23848412550E-01  0.00000000000E+00 0. -1.
     999901    1    3    3    0    0  0.98994603511E-01 -0.93998434964E-01 -0.37250852996E-01  0.89130424847E+00  0.88000000000E+00 0.  1.
        -11    1    4    4    0    0 -0.52923231766E-01  0.56075884933E-01  0.43477473204E-01  0.88520761004E-01  0.51100000000E-03 0.  1.
         11    1    4    4    0    0 -0.29339477780E-01  0.26760619662E-01  0.65875054336E-02  0.40256577971E-01  0.51100000000E-03 0. -1.
</event>
<event>
 8    1  0.9952977E+004  0.1043930E+01  0.7957747E-01            NaN
         13   -1    0    0    0    0  0.00000000000E+00  0.00000000000E+00  0.74505805969E-08  0.10566000000E+00  0.10566000000E+00 0. -1.
     999900   -1    0    0    0    0 -0.00000000000E+00 -0.00000000000E+00 -0.74505805969E-08  0.93827000000E+00  0.93827000000E+00 0. -1.
     999902    2    1    2    0    0  0.13074365915E-01 -0.20699531154E-01  0.25255985250E-02  0.10193172334E+01  0.10190200361E+01 0.  0.
     999903    2    3    3    0    0  0.81578615266E-01  0.14708803493E-01 -0.98364441771E-01  0.13020228996E+00  0.20140842481E-01 0.  0.
         14    1    1    2    0    0 -0.13074365915E-01  0.20699531154E-01 -0.25255985250E-02  0.24612766647E-01  0.00000000000E+00 0.  1.
     999901    1    3    3    0    0 -0.68504249351E-01 -0.35408334648E-01  0.10089004030E+00  0.88911494340E+00  0.88000000000E+00 0.  1.
        -11    1    4    4    0    0  0.10979949362E-01 -0.30602788908E-02 -0.21455127200E-01  0.24300374463E-01  0.51100000000E-03 0.  1.
         11    1    4    4    0    0  0.70598665904E-01  0.17769082384E-01 -0.76909314571E-01  0.10590191549E+00  0.51100000000E-03 0. -1.
</event>
<event>
 8    1  0.9952977E+004  0.1043930E+01  0.7957747E-01            NaN
         13   -1    0    0    0    0  0.00000000000E+00  0.00000000000E+00  0.74505805969E-08  0.10566000000E+00  0.10566000000E+00 0. -1.
     999900   -1    0    0    0    0 -0.00000000000E+00 -0.00000000000E+00 -0.74505805969E-08  0.93827000000E+00  0.93827000000E+00 0.  1.
     999902    2    1    2    0    0  0.40205712587E-02  0.21234600005E-01 -0.78911462687E-02  0.10209225356E+01  0.10206632550E+01 0.  0.
     999903    2    3    3    0    0 -0.97468472154E-01  0.20712658489E-01 -0.83887622702E-01  0.13183549663E+00  0.20355531041E-01 0.  0.
         14    1    1    2    0    0 -0.40205712587E-02 -0.21234600005E-01  0.78911462687E-02  0.23007464442E-01  0.00000000000E+00 0. -1.
     999901    1    3    3    0    0  0.10148904341E+00  0.52194151649E-03  0.75996476433E-01  0.88908703893E+00  0.88000000000E+00 0. -1.
        -11    1    4    4    0    0 -0.54419853631E-01  0.49238740518E-02 -0.55595493327E-01  0.77954377710E-01  0.51100000000E-03 0.  1.
         11    1    4    4    0    0 -0.43048618522E-01  0.15788784437E-01 -0.28292129375E-01  0.53881118922E-01  0.51100000000E-03 0. -1.
</event>
<event>
 7    1  0.1005400E+005  0.1043930E+01  0.7957747E-01            NaN
         13   -1    0    0    0    0  0.00000000000E+00  0.00000000000E+00  0.74505805969E-08  0.10566000000E+00  0.10566000000E+00 0.  1.
     999900   -1    0    0    0    0 -0.00000000000E+00 -0.00000000000E+00 -0.74505805969E-08  0.93827000000E+00  0.93827000000E+00 0.  1.
     999903    2    1    2    0    0 -0.36487119965E-01 -0.95980644117E-01 -0.56255545716E-01  0.11880358997E+00  0.20149754303E-01 0.  0.
         14    1    1    2    0    0  0.32639002907E-01  0.44468370228E-02  0.22184939421E-01  0.39714612014E-01  0.00000000000E+00 0.  1.
     999901    1    1    2    0    0  0.38481170576E-02  0.91533807094E-01  0.34070606295E-01  0.88541179801E+00  0.88000000000E+00 0.  1.
        -11    1    3    3    0    0 -0.20276547461E-01 -0.27530397526E-01 -0.20851079460E-01  0.40051089879E-01  0.51100000000E-03 0.  1.
         11    1    3    3    0    0 -0.16210572503E-01 -0.68450246591E-01 -0.35404466257E-01  0.78752500095E-01  0.51100000000E-03 0. -1.
</event>
<event>
 8    1  0.9952977E+004  0.1043930E+01  0.7957747E-01            NaN
         13   -1    0    0    0    0  0.00000000000E+00  0.00000000000E+00  0.74505805969E-08  0.10566000000E+00  0.10566000000E+00 0.  1.
     999900   -1    0    0    0    0 -0.00000000000E+00 -0.00000000000E+00 -0.74505805969E-08  0.93827000000E+00  0.93827000000E+00 0.  1.
     999902    2    1    2    0    0 -0.79971368321E-02 -0.17041030795E-01  0.13467904065E-01  0.10207840421E+01  0.10205215947E+01 0.  0.
     999903    2    3    3    0    0 -0.12503205239E+00 -0.28753652047E-01 -0.24089319222E-01  0.13216438105E+00  0.20672244369E-01 0.  0.
         14    1    1    2    0    0  0.79971368321E-02  0.17041030795E-01 -0.13467904065E-01  0.23145957919E-01  0.00000000000E+00 0. -1.
     999901    1    3    3    0    0  0.11703491555E+00  0.11712621251E-01  0.37557223286E-01  0.88861966103E+00  0.88000000000E+00 0.  1.
        -11    1    4    4    0    0 -0.56733378177E-01 -0.30001320895E-02 -0.74939000541E-02  0.57307038407E-01  0.51100000000E-03 0. -1.
         11    1    4    4    0    0 -0.68298674209E-01 -0.25753519957E-01 -0.16595419167E-01  0.74857342640E-01  0.51100000000E-03 0.  1.
</event>
<event>
 8    1  0.9952977E+004  0.1043930E+01  0.7957747E-01            NaN
         13   -1    0    0    0    0  0.00000000000E+00  0.00000000000E+00  0.74505805969E-08  0.10566000000E+00  0.10566000000E+00 0.  1.
     999900   -1    0    0    0    0 -0.00000000000E+00 -0.00000000000E+00 -0.74505805969E-08  0.93827000000E+00  0.93827000000E+00 0.  1.
     999902    2    1    2    0    0  0.22814898731E-02  0.63919487176E-02 -0.22040898072E-01  0.10208678363E+01  0.10206073074E+01 0.  0.
     999903    2    3    3    0    0  0.20368144713E-01 -0.10952924693E+00 -0.67780354581E-01  0.13190386151E+00  0.19822587147E-01 0.  0.
         14    1    1    2    0    0 -0.22814898731E-02 -0.63919487176E-02  0.22040898072E-01  0.23062163651E-01  0.00000000000E+00 0.  1.
     999901    1    3    3    0    0 -0.18086654840E-01  0.11592119565E+00  0.45739456510E-01  0.88896397484E+00  0.88000000000E+00 0. -1.
        -11    1    4    4    0    0  0.56386089632E-02 -0.11203156853E-01 -0.14229986485E-01  0.18975201471E-01  0.51100000000E-03 0. -1.
         11    1    4    4    0    0  0.14729535750E-01 -0.98326090078E-01 -0.53550368096E-01  0.11292866004E+00  0.51100000000E-03 0.  1.
</event>
<event>
 8    1  0.9952977E+004  0.1043930E+01  0.7957747E-01            NaN
         13   -1    0    0    0    0  0.00000000000E+00  0.00000000000E+00  0.74505805969E-08  0.10566000000E+00  0.10566000000E+00 0. -1.
     999900   -1    0    0    0    0 -0.00000000000E+00 -0.00000000000E+00 -0.74505805969E-08  0.93827000000E+00  0.93827000000E+00 0.  1.
     999902    2    1    2    0    0 -0.11577312543E-01  0.17899320968E-02  0.20736921966E-01  0.10201128223E+01  0.10198347475E+01 0.  0.
     999903    2    3    3    0    0  0.52325168945E-01 -0.96363537345E-01  0.68944229266E-01  0.13104500979E+00  0.19890530579E-01 0.  0.
         14    1    1    2    0    0  0.11577312543E-01 -0.17899320968E-02 -0.20736921966E-01  0.23817177735E-01  0.00000000000E+00 0.  1.
     999901    1    3    3    0    0 -0.63902481488E-01  0.98153469442E-01 -0.48207307299E-01  0.88906781248E+00  0.88000000000E+00 0.  1.
        -11    1    4    4    0    0  0.12186058206E-01 -0.12520276394E-01  0.48723858754E-02  0.18145484306E-01  0.51100000000E-03 0. -1.
         11    1    4    4    0    0  0.40139110740E-01 -0.83843260951E-01  0.64071843390E-01  0.11289952548E+00  0.51100000000E-03 0.  1.
</event>
<event>
 8    1  0.9952977E+004  0.1043930E+01  0.7957747E-01            NaN
         13   -1    0    0    0    0  0.00000000000E+00  0.00000000000E+00  0.74505805969E-08  0.10566000000E+00  0.10566000000E+00 0.  1.
     999900   -1    0    0    0    0 -0.00000000000E+00 -0.00000000000E+00 -0.74505805969E-08  0.93827000000E+00  0.93827000000E+00 0.  1.
     999902    2    1    2    0    0 -0.50433358086E-02 -0.22471744471E-01 -0.13145397032E-02  0.10208617848E+01  0.10206011176E+01 0.  0.
     999903    2    3    3    0    0  0.34509378207E-01 -0.11882125387E+00  0.45937937540E-01  0.13346083728E+00  0.19801854103E-01 0.  0.
         14    1    1    2    0    0  0.50433358086E-02  0.22471744471E-01  0.13145397032E-02  0.23068215152E-01  0.00000000000E+00 0. -1.
     999901    1    3    3    0    0 -0.39552714016E-01  0.96349509396E-01 -0.47252477243E-01  0.88740094757E+00  0.88000000000E+00 0.  1.
        -11    1    4    4    0    0  0.58958946370E-02 -0.46847013540E-01  0.23946624442E-01  0.52944368864E-01  0.51100000000E-03 0. -1.
         11    1    4    4    0    0  0.28613483570E-01 -0.71974240328E-01  0.21991313097E-01  0.80516468412E-01  0.51100000000E-03 0.  1.
</event>
<event>
 8    1  0.9952977E+004  0.1043930E+01  0.7957747E-01            NaN
         13   -1    0    0    0    0  0.00000000000E+00  0.00000000000E+00  0.74505805969E-08  0.10566000000E+00  0.10566000000E+00 0.  1.
     999900   -1    0    0    0    0 -0.00000000000E+00 -0.00000000000E+00 -0.74505805969E-08  0.93827000000E+00  0.93827000000E+00 0.  1.
     999902    2    1    2    0    0  0.55139300185E-02  0.98455477726E-02  0.20116810906E-01  0.10208643477E+01  0.10206037390E+01 0.  0.
     999903    2    3    3    0    0  0.82485546534E-01  0.82724377699E-01 -0.56305194992E-01  0.13121482312E+00  0.19996668964E-01 0.  0.
         14    1    1    2    0    0 -0.55139300185E-02 -0.98455477726E-02 -0.20116810906E-01  0.23065652304E-01  0.00000000000E+00 0. -1.
     999901    1    3    3    0    0 -0.76971616515E-01 -0.72878829926E-01  0.76422005898E-01  0.88964952458E+00  0.88000000000E+00 0. -1.
        -11    1    4    4    0    0  0.28716887303E-01  0.41034372051E-01 -0.29181578144E-01  0.57968137196E-01  0.51100000000E-03 0. -1.
         11    1    4    4    0    0  0.53768659230E-01  0.41690005648E-01 -0.27123616848E-01  0.73246685920E-01  0.51100000000E-03 0.  1.
</event>
<event>
 8    1  0.9952977E+004  0.1043930E+01  0.7957747E-01            NaN
         13   -1    0    0    0    0  0.00000000000E+00  0.00000000000E+00  0.74505805969E-08  0.10566000000E+00  0.10566000000E+00 0.  1.
     999900   -1    0    0    0    0 -0.00000000000E+00 -0.00000000000E+00 -0.74505805969E-08  0.93827000000E+00  0.93827000000E+00 0.  1.
     999902    2    1    2    0    0  0.13691335375E-02  0.23089769715E-01  0.38758603544E-02  0.10204771902E+01  0.10202076561E+01 0.  0.
     999903    2    3    3    0    0  0.56972661603E-01  0.40321748012E-03  0.11662817355E+00  0.13125308119E+00  0.19472896575E-01 0.  0.
         14    1    1    2    0    0 -0.13691335375E-02 -0.23089769715E-01 -0.38758603544E-02  0.23452809759E-01  0.00000000000E+00 0.  1.
     999901    1    3    3    0    0 -0.55603528065E-01  0.22686552235E-01 -0.11275231320E+00  0.88922410905E+00  0.88000000000E+00 0.  1.
        -11    1    4    4    0    0  0.33918910749E-01 -0.52316057700E-02  0.51097640488E-01  0.61555602424E-01  0.51100000000E-03 0. -1.
         11    1    4    4    0    0  0.23053750854E-01  0.56348232501E-02  0.65530533066E-01  0.69697478766E-01  0.51100000000E-03 0.  1.
</event>
<event>
 8    1  0.9952977E+004  0.1043930E+01  0.7957747E-01            NaN
         13   -1    0    0    0    0  0.00000000000E+00  0.00000000000E+00  0.74505805969E-08  0.10566000000E+00  0.10566000000E+00 0. -1.
     999900   -1    0    0    0    0 -0.00000000000E+00 -0.00000000000E+00 -0.74505805969E-08  0.93827000000E+00  0.93827000000E+00 0.  1.
     999902    2    1    2    0    0  0.89593649788E-03 -0.12657597700E-02 -0.23833453104E-01  0.10200461490E+01  0.10197664967E+01 0.  0.
     999903    2    3    3    0    0  0.58465395232E-01  0.93421157993E-01 -0.69484765258E-01  0.13192234163E+00  0.20728155217E-01 0.  0.
         14    1    1    2    0    0 -0.89593649788E-03  0.12657597700E-02  0.23833453104E-01  0.23883850964E-01  0.00000000000E+00 0. -1.
     999901    1    3    3    0    0 -0.57569458734E-01 -0.94686917763E-01  0.45651312154E-01  0.88812380740E+00  0.88000000000E+00 0.  1.
        -11    1    4    4    0    0  0.15498463953E-01  0.22219861690E-01 -0.28083566105E-01  0.39023998317E-01  0.51100000000E-03 0.  1.
         11    1    4    4    0    0  0.42966931279E-01  0.71201296302E-01 -0.41401199153E-01  0.92898343317E-01  0.51100000000E-03 0. -1.
</event>
<event>
 8    1  0.9952977E+004  0.1043930E+01  0.7957747E-01            NaN
         13   -1    0    0    0    0  0.00000000000E+00  0.00000000000E+00  0.74505805969E-08  0.10566000000E+00  0.10566000000E+00 0. -1.
     999900   -1    0    0    0    0 -0.00000000000E+00 -0.00000000000E+00 -0.74505805969E-08  0.93827000000E+00  0.93827000000E+00 0. -1.
     999902    2    1    2    0    0  0.24287269469E-01  0.68791746921E-03 -0.21299053522E-02  0.10195398137E+01  0.10192480319E+01 0.  0.
     999903    2    3    3    0    0 -0.11195637842E+00 -0.49795305648E-01 -0.28507813921E-01  0.12723567195E+00  0.19037269442E-01 0.  0.
         14    1    1    2    0    0 -0.24287269469E-01 -0.68791746921E-03  0.21299053522E-02  0.24390186254E-01  0.00000000000E+00 0.  1.
     999901    1    3    3    0    0  0.13624364789E+00  0.50483223118E-01  0.26377908569E-01  0.89230414180E+00  0.88000000000E+00 0. -1.
        -11    1    4    4    0    0 -0.11039995263E+00 -0.50135374083E-01 -0.25666620621E-01  0.12393845977E+00  0.51100000000E-03 0.  1.
         11    1    4    4    0    0 -0.15564257933E-02  0.34006843478E-03 -0.28411933001E-02  0.32972121798E-02  0.51100000000E-03 0. -1.
</event>
<event>
 7    1  0.1019497E+005  0.1043930E+01  0.7957747E-01            NaN
         13   -1    0    0    0    0  0.00000000000E+00  0.00000000000E+00  0.74505805969E-08  0.10566000000E+00  0.10566000000E+00 0. -1.
     999900   -1    0    0    0    0 -0.00000000000E+00 -0.00000000000E+00 -0.74505805969E-08  0.93827000000E+00  0.93827000000E+00 0.  1.
     999903    2    1    2    0    0  0.10004648587E+00  0.54569763858E-01 -0.99204057987E-03  0.11539944181E+00  0.18135285048E-01 0.  0.
         14    1    1    2    0    0 -0.39807595170E-01 -0.16011002163E-01 -0.15088097632E-01  0.45482386851E-01  0.00000000000E+00 0.  1.
     999901    1    1    2    0    0 -0.60238890700E-01 -0.38558761695E-01  0.16080138212E-01  0.88304817134E+00  0.88000000000E+00 0.  1.
        -11    1    3    3    0    0  0.61303448925E-01  0.43256961467E-01 -0.44149542784E-03  0.75031550729E-01  0.51100000000E-03 0. -1.
         11    1    3    3    0    0  0.38743036945E-01  0.11312802390E-01 -0.55054515203E-03  0.40367891084E-01  0.51100000000E-03 0.  1.
</event>
<event>
 8    1  0.9952977E+004  0.1043930E+01  0.7957747E-01            NaN
         13   -1    0    0    0    0  0.00000000000E+00  0.00000000000E+00  0.74505805969E-08  0.10566000000E+00  0.10566000000E+00 0. -1.
     999900   -1    0    0    0    0 -0.00000000000E+00 -0.00000000000E+00 -0.74505805969E-08  0.93827000000E+00  0.93827000000E+00 0. -1.
     999902    2    1    2    0    0 -0.32033350694E-02  0.59280485414E-02 -0.25825167356E-01  0.10172402570E+01  0.10168900619E+01 0.  0.
     999903    2    3    3    0    0  0.37634110152E-01  0.26154217637E-01 -0.12069825150E+00  0.13096846064E+00  0.22006826669E-01 0.  0.
         14    1    1    2    0    0  0.32033350694E-02 -0.59280485414E-02  0.25825167356E-01  0.26689743049E-01  0.00000000000E+00 0. -1.
     999901    1    3    3    0    0 -0.40837445221E-01 -0.20226169096E-01  0.94873084141E-01  0.88627179631E+00  0.88000000000E+00 0.  1.
        -11    1    4    4    0    0  0.36937640689E-01  0.15366437067E-01 -0.95918834763E-01  0.10392882502E+00  0.51100000000E-03 0.  1.
         11    1    4    4    0    0  0.69646946300E-03  0.10787780571E-01 -0.24779416733E-01  0.27039635612E-01  0.51100000000E-03 0. -1.
</event>
<event>
 8    1  0.9952977E+004  0.1043930E+01  0.7957747E-01            NaN
         13   -1    0    0    0    0  0.00000000000E+00  0.00000000000E+00  0.74505805969E-08  0.10566000000E+00  0.10566000000E+00 0.  1.
     999900   -1    0    0    0    0 -0.00000000000E+00 -0.00000000000E+00 -0.74505805969E-08  0.93827000000E+00  0.93827000000E+00 0. -1.
     999902    2    1    2    0    0 -0.18199675998E-01 -0.14963173402E-01  0.59584857590E-02  0.10196271541E+01  0.10193374834E+01 0.  0.
     999903    2    3    3    0    0  0.58428737388E-01 -0.10397564119E+00 -0.47961419004E-01  0.13018772995E+00  0.20583877238E-01 0.  0.
         14    1    1    2    0    0  0.18199675998E-01  0.14963173402E-01 -0.59584857590E-02  0.24302845867E-01  0.00000000000E+00 0. -1.
     999901    1    3    3    0    0 -0.76628413386E-01  0.89012467793E-01  0.53919904763E-01  0.88943942418E+00  0.88000000000E+00 0.  1.
        -11    1    4    4    0    0  0.42195591703E-01 -0.88584050131E-01 -0.43685122513E-01  0.10740695018E+00  0.51100000000E-03 0. -1.
         11    1    4    4    0    0  0.16233145686E-01 -0.15391591063E-01 -0.42762964912E-02  0.22780779771E-01  0.51100000000E-03 0.  1.
</event>
<event>
 8    1  0.9952977E+004  0.1043930E+01  0.7957747E-01            NaN
         13   -1    0    0    0    0  0.00000000000E+00  0.00000000000E+00  0.74505805969E-08  0.10566000000E+00  0.10566000000E+00 0. -1.
     999900   -1    0    0    0    0 -0.00000000000E+00 -0.00000000000E+00 -0.74505805969E-08  0.93827000000E+00  0.93827000000E+00 0.  1.
     999902    2    1    2    0    0 -0.14388200903E-01 -0.16085134818E-01 -0.83943493848E-03  0.10223323951E+01  0.10221042361E+01 0.  0.
     999903    2    3    3    0    0 -0.44769200317E-01 -0.25941477361E-02 -0.12379262338E+00  0.13316283959E+00  0.19917764593E-01 0.  0.
         14    1    1    2    0    0  0.14388200903E-01  0.16085134818E-01  0.83943493848E-03  0.21597604922E-01  0.00000000000E+00 0.  1.
     999901    1    3    3    0    0  0.30380999414E-01 -0.13490987082E-01  0.12295318844E+00  0.88916955549E+00  0.88000000000E+00 0. -1.
        -11    1    4    4    0    0 -0.35160558564E-01  0.65316168381E-02 -0.87829979391E-01  0.94832975793E-01  0.51100000000E-03 0. -1.
         11    1    4    4    0    0 -0.96086417530E-02 -0.91257645743E-02 -0.35962643985E-01  0.38329863798E-01  0.51100000000E-03 0.  1.
</event>
<event>
 8    1  0.9952977E+004  0.1043930E+01  0.7957747E-01            NaN
         13   -1    0    0    0    0  0.00000000000E+00  0.00000000000E+00  0.74505805969E-08  0.10566000000E+00  0.10566000000E+00 0. -1.
     999900   -1    0    0    0    0 -0.00000000000E+00 -0.00000000000E+00 -0.74505805969E-08  0.93827000000E+00  0.93827000000E+00 0.  1.
     999902    2    1    2    0    0  0.19098547339E-01  0.11165102838E-01  0.76853030830E-02  0.10205103946E+01  0.10202416320E+01 0.  0.
     999903    2    3    3    0    0  0.10192155157E+00 -0.64883910722E-01 -0.48511807367E-01  0.13157776630E+00  0.19010223181E-01 0.  0.
         14    1    1    2    0    0 -0.19098547339E-01 -0.11165102838E-01 -0.76853030830E-02  0.23419605363E-01  0.00000000000E+00 0.  1.
     999901    1    3    3    0    0 -0.82823004235E-01  0.76049013561E-01  0.56197110450E-01  0.88893262833E+00  0.88000000000E+00 0. -1.
        -11    1    4    4    0    0  0.44133587857E-01 -0.17966231789E-01 -0.22779106782E-01  0.52817685377E-01  0.51100000000E-03 0. -1.
         11    1    4    4    0    0  0.57787963717E-01 -0.46917678933E-01 -0.25732700585E-01  0.78760080926E-01  0.51100000000E-03 0.  1.
</event>
<event>
 8    1  0.1069521E+005  0.1043930E+01  0.7957747E-01            NaN
         13   -1    0    0    0    0  0.00000000000E+00  0.00000000000E+00  0.74505805969E-08  0.10566000000E+00  0.10566000000E+00 0.  1.
     999900   -1    0    0    0    0 -0.00000000000E+00 -0.00000000000E+00 -0.74505805969E-08  0.93827000000E+00  0.93827000000E+00 0. -1.
     999902    2    1    2    0    0  0.13176148345E-01 -0.28637666884E-02 -0.20287616899E-01  0.10195702085E+01  0.10192791622E+01 0.  0.
     999903    2    3    3    0    0  0.46474406764E-01  0.63598533359E-01  0.99092885356E-01  0.12840371690E+00  0.21528368649E-01 0.  0.
         14    1    1    2    0    0 -0.13176148345E-01  0.28637666884E-02  0.20287616899E-01  0.24359791549E-01  0.00000000000E+00 0.  1.
     999901    1    3    3    0    0 -0.33298258418E-01 -0.66462300047E-01 -0.11938050225E+00  0.89116649155E+00  0.88000000000E+00 0. -1.
        -11    1    4    4    0    0  0.62318017147E-02  0.25141781787E-01  0.34242756999E-01  0.42939167108E-01  0.51100000000E-03 0.  1.
         11    1    4    4    0    0  0.40242605049E-01  0.38456751572E-01  0.64850128356E-01  0.85464549793E-01  0.51100000000E-03 0. -1.
</event>
<event>
 8    1  0.9952977E+004  0.1043930E+01  0.7957747E-01            NaN
         13   -1    0    0    0    0  0.00000000000E+00  0.00000000000E+00  0.74505805969E-08  0.10566000000E+00  0.10566000000E+00 0.  1.
     999900   -1    0    0    0    0 -0.00000000000E+00 -0.00000000000E+00 -0.74505805969E-08  0.93827000000E+00  0.93827000000E+00 0.  1.
     999902    2    1    2    0    0  0.13863511031E-01 -0.50232391138E-03  0.19263527047E-01  0.10201911554E+01  0.10199149283E+01 0.  0.
     999903    2    3    3    0    0 -0.59006070404E-01  0.75776070212E-01  0.87418299611E-01  0.13127415011E+00  0.19162834344E-01 0.  0.
         14    1    1    2    0    0 -0.13863511031E-01  0.50232391138E-03 -0.19263527047E-01  0.23738844574E-01  0.00000000000E+00 0. -1.
     999901    1    3    3    0    0  0.72869581435E-01 -0.76278394123E-01 -0.68154772565E-01  0.88891700531E+00  0.88000000000E+00 0.  1.
        -11    1    4    4    0    0 -0.33514538469E-01  0.31223621504E-01  0.49585385058E-01  0.67506372743E-01  0.51100000000E-03 0. -1.
         11    1    4    4    0    0 -0.25491531935E-01  0.44552448708E-01  0.37832914553E-01  0.63767777371E-01  0.51100000000E-03 0.  1.
</event>
<event>
 8    1  0.9952977E+004  0.1043930E+01  0.7957747E-01            NaN
         13   -1    0    0    0    0  0.00000000000E+00  0.00000000000E+00  0.74505805969E-08  0.10566000000E+00  0.10566000000E+00 0.  1.
     999900   -1    0    0    0    0 -0.00000000000E+00 -0.00000000000E+00 -0.74505805969E-08  0.93827000000E+00  0.93827000000E+00 0.  1.
     999902    2    1    2    0    0 -0.49333823526E-02  0.21867509818E-01 -0.86859545584E-02  0.10198889507E+01  0.10196055608E+01 0.  0.
     999903    2    3    3    0    0 -0.42218798926E-01 -0.11022277063E+00 -0.46191175526E-01  0.12846049807E+00  0.20904275172E-01 0.  0.
         14    1    1    2    0    0  0.49333823526E-02 -0.21867509818E-01  0.86859545584E-02  0.24041049346E-01  0.00000000000E+00 0.  1.
     999901    1    3    3    0    0  0.37285416573E-01  0.13209028044E+00  0.37505220967E-01  0.89142845258E+00  0.88000000000E+00 0. -1.
        -11    1    4    4    0    0 -0.43337586167E-01 -0.94434180971E-01 -0.42053510930E-01  0.11209246100E+00  0.51100000000E-03 0. -1.
         11    1    4    4    0    0  0.11187872412E-02 -0.15788589656E-01 -0.41376645955E-02  0.16368037070E-01  0.51100000000E-03 0.  1.
</event>
<event>
 8    1  0.9952977E+004  0.1043930E+01  0.7957747E-01            NaN
         13   -1    0    0    0    0  0.00000000000E+00  0.00000000000E+00  0.74505805969E-08  0.10566000000E+00  0.10566000000E+00 0. -1.
     999900   -1    0    0    0    0 -0.00000000000E+00 -0.00000000000E+00 -0.74505805969E-08  0.93827000000E+00  0.93827000000E+00 0.  1.
     999902    2    1    2    0    0 -0.24128839729E-01 -0.11409558541E-03 -0.67207406020E-02  0.10188823997E+01  0.10185744755E+01 0.  0.
     999903    2    3    3    0    0  0.51793599570E-01  0.11497773729E+00  0.87062180586E-02  0.12801297169E+00  0.20225371664E-01 0.  0.
         14    1    1    2    0    0  0.24128839729E-01  0.11409558541E-03  0.67207406020E-02  0.25047600258E-01  0.00000000000E+00 0.  1.
     999901    1    3    3    0    0 -0.75922439299E-01 -0.11509183288E+00 -0.15426958661E-01  0.89086942805E+00  0.88000000000E+00 0. -1.
        -11    1    4    4    0    0  0.18914069944E-01  0.35783892726E-01 -0.62835949854E-02  0.40963077368E-01  0.51100000000E-03 0. -1.
         11    1    4    4    0    0  0.32879529626E-01  0.79193844565E-01  0.14989813044E-01  0.87049894322E-01  0.51100000000E-03 0.  1.
</event>
<event>
 8    1  0.9952977E+004  0.1043930E+01  0.7957747E-01            NaN
         13   -1    0    0    0    0  0.00000000000E+00  0.00000000000E+00  0.74505805969E-08  0.10566000000E+00  0.10566000000E+00 0. -1.
     999900   -1    0    0    0    0 -0.00000000000E+00 -0.00000000000E+00 -0.74505805969E-08  0.93827000000E+00  0.93827000000E+00 0.  1.
     999902    2    1    2    0    0 -0.13016186438E-01  0.81894071437E-02 -0.32158274043E-01  0.10082839331E+01  0.10076536347E+01 0.  0.
     999903    2    3    3    0    0  0.83506390646E-01  0.14057151503E-01 -0.84514042223E-01  0.12143999822E+00  0.20835763645E-01 0.  0.
         14    1    1    2    0    0  0.13016186438E-01 -0.81894071437E-02  0.32158274043E-01  0.35646066939E-01  0.00000000000E+00 0. -1.
     999901    1    3    3    0    0 -0.96522577084E-01 -0.58677443596E-02  0.52355768180E-01  0.88684393485E+00  0.88000000000E+00 0. -1.
        -11    1    4    4    0    0  0.24575004265E-01 -0.51352640351E-02 -0.27252076611E-01  0.37057233733E-01  0.51100000000E-03 0.  1.
         11    1    4    4    0    0  0.58931386381E-01  0.19192415538E-01 -0.57261965612E-01  0.84382764483E-01  0.51100000000E-03 0. -1.
</event>
<event>
 8    1  0.9952977E+004  0.1043930E+01  0.7957747E-01            NaN
         13   -1    0    0    0    0  0.00000000000E+00  0.00000000000E+00  0.74505805969E-08  0.10566000000E+00  0.10566000000E+00 0. -1.
     999900   -1    0    0    0    0 -0.00000000000E+00 -0.00000000000E+00 -0.74505805969E-08  0.93827000000E+00  0.93827000000E+00 0.  1.
     999902    2    1    2    0    0 -0.23717974490E-01  0.33638283663E-03 -0.47362383839E-02  0.10197414196E+01  0.10194544990E+01 0.  0.
     999903    2    3    3    0    0 -0.27420914092E-02  0.28302373880E-01  0.12476137386E+00  0.12957754936E+00  0.20405819220E-01 0.  0.
         14    1    1    2    0    0  0.23717974490E-01 -0.33638283663E-03  0.47362383839E-02  0.24188580391E-01  0.00000000000E+00 0.  1.
     999901    1    3    3    0    0 -0.20975883081E-01 -0.27965991044E-01 -0.12949761224E+00  0.89016387025E+00  0.88000000000E+00 0.  1.
        -11    1    4    4    0    0 -0.24941037397E-03  0.74659000673E-02  0.77540990825E-01  0.77901657546E-01  0.51100000000E-03 0.  1.
         11    1    4    4    0    0 -0.24926810352E-02  0.20836473813E-01  0.47220383032E-01  0.51675891811E-01  0.51100000000E-03 0. -1.
</event>
<event>
 8    1  0.9952977E+004  0.1043930E+01  0.7957747E-01            NaN
         13   -1    0    0    0    0  0.00000000000E+00  0.00000000000E+00  0.74505805969E-08  0.10566000000E+00  0.10566000000E+00 0. -1.
     999900   -1    0    0    0    0 -0.00000000000E+00 -0.00000000000E+00 -0.74505805969E-08  0.93827000000E+00  0.93827000000E+00 0.  1.
     999902    2    1    2    0    0 -0.11638941071E-01 -0.16020035703E-02  0.20820976608E-01  0.10200230045E+01  0.10197428035E+01 0.  0.
     999903    2    3    3    0    0  0.34538503647E-01  0.11950618290E+00 -0.28335163899E-01  0.12917179622E+00  0.20194936013E-01 0.  0.
         14    1    1    2    0    0  0.11638941071E-01  0.16020035703E-02 -0.20820976608E-01  0.23906995453E-01  0.00000000000E+00 0.  1.
     999901    1    3    3    0    0 -0.46177444718E-01 -0.12110818647E+00  0.49156140507E-01  0.89085120833E+00  0.88000000000E+00 0.  1.
        -11    1    4    4    0    0  0.33745526471E-01  0.84666183014E-01 -0.21713653414E-01  0.93695608053E-01  0.51100000000E-03 0. -1.
         11    1    4    4    0    0  0.79297717551E-03  0.34839999883E-01 -0.66215104848E-02  0.35476188165E-01  0.51100000000E-03 0.  1.
</event>
<event>
 8    1  0.9952977E+004  0.1043930E+01  0.7957747E-01            NaN
         13   -1    0    0    0    0  0.00000000000E+00  0.00000000000E+00  0.74505805969E-08  0.10566000000E+00  0.10566000000E+00 0. -1.
     999900   -1    0    0    0    0 -0.00000000000E+00 -0.00000000000E+00 -0.74505805969E-08  0.93827000000E+00  0.93827000000E+00 0. -1.
     999902    2    1    2    0    0  0.56528251642E-02 -0.19308758862E-02  0.16570584907E-01  0.10263156025E+01  0.10261644357E+01 0.  0.
     999903    2    3    3    0    0 -0.11702530660E+00 -0.47382968727E-01  0.47005056571E-01  0.13612344697E+00  0.19494854780E-01 0.  0.
         14    1    1    2    0    0 -0.56528251642E-02  0.19308758862E-02 -0.16570584907E-01  0.17614397468E-01  0.00000000000E+00 0.  1.
     999901    1    3    3    0    0  0.12267813176E+00  0.45452092841E-01 -0.30434471664E-01  0.89019215556E+00  0.88000000000E+00 0. -1.
        -11    1    4    4    0    0 -0.63575040794E-01 -0.31475237914E-01  0.34871913688E-01  0.79049275133E-01  0.51100000000E-03 0.  1.
         11    1    4    4    0    0 -0.53450265801E-01 -0.15907730813E-01  0.12133142883E-01  0.57074171839E-01  0.51100000000E-03 0. -1.
</event>
<event>
 8    1  0.9952977E+004  0.1043930E+01  0.7957747E-01            NaN
         13   -1    0    0    0    0  0.00000000000E+00  0.00000000000E+00  0.74505805969E-08  0.10566000000E+00  0.10566000000E+00 0.  1.
     999900   -1    0    0    0    0 -0.00000000000E+00 -0.00000000000E+00 -0.74505805969E-08  0.93827000000E+00  0.93827000000E+00 0.  1.
     999902    2    1    2    0    0  0.48967884885E-02 -0.23532941449E-01 -0.84576254252E-02  0.10184484518E+01  0.10181296281E+01 0.  0.
     999903    2    3    3    0    0 -0.33229102673E-01 -0.23360625811E-02  0.12136760007E+00  0.12785455982E+00  0.22518074235E-01 0.  0.
         14    1    1    2    0    0 -0.48967884885E-02  0.23532941449E-01  0.84576254252E-02  0.25481548198E-01  0.00000000000E+00 0. -1.
     999901    1    3    3    0    0  0.38125891162E-01 -0.21196878868E-01 -0.12982522550E+00  0.89059389198E+00  0.88000000000E+00 0.  1.
        -11    1    4    4    0    0 -0.35644269832E-01 -0.56193236098E-02  0.10797953553E+00  0.11385048082E+00  0.51100000000E-03 0. -1.
         11    1    4    4    0    0  0.24151671592E-02  0.32832610287E-02  0.13388064546E-01  0.14004079002E-01  0.51100000000E-03 0.  1.
</event>
<event>
 8    1  0.9952977E+004  0.1043930E+01  0.7957747E-01            NaN
         13   -1    0    0    0    0  0.00000000000E+00  0.00000000000E+00  0.74505805969E-08  0.10566000000E+00  0.10566000000E+00 0.  1.
     999900   -1    0    0    0    0 -0.00000000000E+00 -0.00000000000E+00 -0.74505805969E-08  0.93827000000E+00  0.93827000000E+00 0.  1.
     999902    2    1    2    0    0  0.13696624462E-01 -0.10326876014E-01  0.17559257935E-01  0.10193827104E+01  0.10190871115E+01 0.  0.
     999903    2    3    3    0    0  0.10938631821E+00  0.53720667742E-01  0.44988905706E-01  0.13145760601E+00  0.20145068518E-01 0.  0.
         14    1    1    2    0    0 -0.13696624462E-01  0.10326876014E-01 -0.17559257935E-01  0.24547289649E-01  0.00000000000E+00 0. -1.
     999901    1    3    3    0    0 -0.95689693749E-01 -0.64047543756E-01 -0.27429647771E-01  0.88792510435E+00  0.88000000000E+00 0.  1.
        -11    1    4    4    0    0  0.45773261941E-01  0.33617235405E-01  0.21499552087E-01  0.60727274646E-01  0.51100000000E-03 0. -1.
         11    1    4    4    0    0  0.63613056270E-01  0.20103432337E-01  0.23489353619E-01  0.70730331359E-01  0.51100000000E-03 0.  1.
</event>
<event>
 8    1  0.9952977E+004  0.1043930E+01  0.7957747E-01            NaN
         13   -1    0    0    0    0  0.00000000000E+00  0.00000000000E+00  0.74505805969E-08  0.10566000000E+00  0.10566000000E+00 0. -1.
     999900   -1    0    0    0    0 -0.00000000000E+00 -0.00000000000E+00 -0.74505805969E-08  0.93827000000E+00  0.93827000000E+00 0.  1.
     999902    2    1    2    0    0 -0.29968942409E-01 -0.64519584055E-02  0.69634395396E-02  0.10124934804E+01  0.10120053325E+01 0.  0.
     999903    2    3    3    0    0  0.15408092289E-01 -0.69635269315E-01 -0.98005686166E-01  0.12284763881E+00  0.19998694930E-01 0.  0.
         14    1    1    2    0    0  0.29968942409E-01  0.64519584055E-02 -0.69634395396E-02  0.31436519633E-01  0.00000000000E+00 0.  1.
     999901    1    3    3    0    0 -0.45377034698E-01  0.63183310910E-01  0.10496912571E+00  0.88964584156E+00  0.88000000000E+00 0. -1.
        -11    1    4    4    0    0  0.43029749797E-02 -0.56747926390E-01 -0.78499902837E-01  0.96960500254E-01  0.51100000000E-03 0. -1.
         11    1    4    4    0    0  0.11105117309E-01 -0.12887342925E-01 -0.19505783329E-01  0.25887138552E-01  0.51100000000E-03 0.  1.
</event>
<event>
 8    1  0.9952977E+004  0.1043930E+01  0.7957747E-01            NaN
         13   -1    0    0    0    0  0.00000000000E+00  0.00000000000E+00  0.74505805969E-08  0.10566000000E+00  0.10566000000E+00 0.  1.
     999900   -1    0    0    0    0 -0.00000000000E+00 -0.00000000000E+00 -0.74505805969E-08  0.93827000000E+00  0.93827000000E+00 0.  1.
     999902    2    1    2    0    0  0.83891271543E-02  0.13109108509E-01 -0.15823640138E-01  0.10217350959E+01  0.10214940002E+01 0.  0.
     999903    2    3    3    0    0 -0.35876264939E-01  0.93841727369E-01  0.81784153226E-01  0.13156406627E+00  0.22958214938E-01 0.  0.
         14    1    1    2    0    0 -0.83891271543E-02 -0.13109108509E-01  0.15823640138E-01  0.22194904090E-01  0.00000000000E+00 0.  1.
     999901    1    3    3    0    0  0.44265392093E-01 -0.80732618860E-01 -0.97607793364E-01  0.89017102964E+00  0.88000000000E+00 0.  1.
        -11    1    4    4    0    0 -0.14990922263E-01  0.64311746914E-01  0.44599716831E-01  0.79687667828E-01  0.51100000000E-03 0. -1.
         11    1    4    4    0    0 -0.20885342676E-01  0.29529980455E-01  0.37184436395E-01  0.51876398443E-01  0.51100000000E-03 0.  1.
</event>
<event>
 8    1  0.9952977E+004  0.1043930E+01  0.7957747E-01            NaN
         13   -1    0    0    0    0  0.00000000000E+00  0.00000000000E+00  0.74505805969E-08  0.10566000000E+00  0.10566000000E+00 0. -1.
     999900   -1    0    0    0    0 -0.00000000000E+00 -0.00000000000E+00 -0.74505805969E-08  0.93827000000E+00  0.93827000000E+00 0.  1.
     999902    2    1    2    0    0  0.21778661832E-01 -0.60787518028E-03  0.86926071379E-02  0.10204727827E+01  0.10202031461E+01 0.  0.
     999903    2    3    3    0    0 -0.12471157333E+00  0.16110443214E-01  0.15389186353E-01  0.12818149882E+00  0.19522978250E-01 0.  0.
         14    1    1    2    0    0 -0.21778661832E-01  0.60787518028E-03 -0.86926071379E-02  0.23457217275E-01  0.00000000000E+00 0.  1.
     999901    1    3    3    0    0  0.14649023516E+00 -0.16718318394E-01 -0.66965792154E-02  0.89229128391E+00  0.88000000000E+00 0.  1.
        -11    1    4    4    0    0 -0.10390475941E+00  0.14072725575E-01  0.53684302499E-02  0.10499200826E+00  0.51100000000E-03 0. -1.
         11    1    4    4    0    0 -0.20806813916E-01  0.20377176384E-02  0.10020756103E-01  0.23189490559E-01  0.51100000000E-03 0.  1.
</event>
<event>
 8    1  0.9952977E+004  0.1043930E+01  0.7957747E-01            NaN
         13   -1    0    0    0    0  0.00000000000E+00  0.00000000000E+00  0.74505805969E-08  0.10566000000E+00  0.10566000000E+00 0. -1.
     999900   -1    0    0    0    0 -0.00000000000E+00 -0.00000000000E+00 -0.74505805969E-08  0.93827000000E+00  0.93827000000E+00 0.  1.
     999902    2    1    2    0    0  0.15084288827E-01  0.11088651647E-01  0.91007173336E-02  0.10231137318E+01  0.10229019460E+01 0.  0.
     999903    2    3    3    0    0 -0.11051475237E+00  0.50739724673E-01 -0.45434787642E-01  0.13164222468E+00  0.21847774258E-01 0.  0.
         14    1    1    2    0    0 -0.15084288827E-01 -0.11088651647E-01 -0.91007173336E-02  0.20816268176E-01  0.00000000000E+00 0.  1.
     999901    1    3    3    0    0  0.12559904120E+00 -0.39651073025E-01  0.54535504975E-01  0.89147150714E+00  0.88000000000E+00 0.  1.
        -11    1    4    4    0    0 -0.26703263101E-01  0.24459112989E-02 -0.10168982853E-01  0.28683027658E-01  0.51100000000E-03 0.  1.
         11    1    4    4    0    0 -0.83811489269E-01  0.48293813374E-01 -0.35265804789E-01  0.10295919703E+00  0.51100000000E-03 0. -1.
</event>
<event>
 8    1  0.9952977E+004  0.1043930E+01  0.7957747E-01            NaN
         13   -1    0    0    0    0  0.00000000000E+00  0.00000000000E+00  0.74505805969E-08  0.10566000000E+00  0.10566000000E+00 0.  1.
     999900   -1    0    0    0    0 -0.00000000000E+00 -0.00000000000E+00 -0.74505805969E-08  0.93827000000E+00  0.93827000000E+00 0. -1.
     999902    2    1    2    0    0 -0.35868111750E-02  0.22025384992E-01  0.63388974314E-02  0.10207316290E+01  0.10204679779E+01 0.  0.
     999903    2    3    3    0    0  0.24127963857E-02 -0.11125787037E+00  0.62871431125E-01  0.12888167026E+00  0.16538826192E-01 0.  0.
         14    1    1    2    0    0  0.35868111750E-02 -0.22025384992E-01 -0.63388974314E-02  0.23198371044E-01  0.00000000000E+00 0.  1.
     999901    1    3    3    0    0 -0.59996075607E-02  0.13328325537E+00 -0.56532533694E-01  0.89184995869E+00  0.88000000000E+00 0.  1.
        -11    1    4    4    0    0 -0.32222250235E-02 -0.62820713003E-01  0.27585300590E-01  0.68687951243E-01  0.51100000000E-03 0. -1.
         11    1    4    4    0    0  0.56350214092E-02 -0.48437157371E-01  0.35286130535E-01  0.60193719022E-01  0.51100000000E-03 0.  1.
</event>
<event>
 8    1  0.9952977E+004  0.1043930E+01  0.7957747E-01            NaN
         13   -1    0    0    0    0  0.00000000000E+00  0.00000000000E+00  0.74505805969E-08  0.10566000000E+00  0.10566000000E+00 0. -1.
     999900   -1    0    0    0    0 -0.00000000000E+00 -0.00000000000E+00 -0.74505805969E-08  0.93827000000E+00  0.93827000000E+00 0.  1.
     999902    2    1    2    0    0  0.12718625873E-01  0.21112962690E-02 -0.21613531554E-01  0.10187632409E+01  0.10184523432E+01 0.  0.
     999903    2    3    3    0    0 -0.88116941901E-01  0.79733606353E-01 -0.46959995615E-01  0.12924906004E+00  0.19443119653E-01 0.  0.
         14    1    1    2    0    0 -0.12718625873E-01 -0.21112962690E-02  0.21613531554E-01  0.25166759074E-01  0.00000000000E+00 0. -1.
     999901    1    3    3    0    0  0.10083556777E+00 -0.77622310084E-01  0.25346464061E-01  0.88951418088E+00  0.88000000000E+00 0.  1.
        -11    1    4    4    0    0 -0.84444875339E-01  0.73462480344E-01 -0.48189015294E-01  0.12186104917E+00  0.51100000000E-03 0. -1.
         11    1    4    4    0    0 -0.36720665619E-02  0.62711260098E-02  0.12290196791E-02  0.73880108715E-02  0.51100000000E-03 0.  1.
</event>
<event>
 8    1  0.9952977E+004  0.1043930E+01  0.7957747E-01            NaN
         13   -1    0    0    0    0  0.00000000000E+00  0.00000000000E+00  0.74505805969E-08  0.10566000000E+00  0.10566000000E+00 0. -1.
     999900   -1    0    0    0    0 -0.00000000000E+00 -0.00000000000E+00 -0.74505805969E-08  0.93827000000E+00  0.93827000000E+00 0.  1.
     999902    2    1    2    0    0 -0.89980132938E-02 -0.10271584629E-01  0.19725571132E-01  0.10199390048E+01  0.10196568078E+01 0.  0.
     999903    2    3    3    0    0 -0.26373917494E-01  0.10610314460E+00  0.68673153899E-01  0.13075912114E+00  0.20699876249E-01 0.  0.
         14    1    1    2    0    0  0.89980132938E-02  0.10271584629E-01 -0.19725571132E-01  0.23990995196E-01  0.00000000000E+00 0.  1.
     999901    1    3    3    0    0  0.17375904200E-01 -0.11637472923E+00 -0.48947582768E-01  0.88917988366E+00  0.88000000000E+00 0.  1.
        -11    1    4    4    0    0  0.19320996623E-02  0.14873728341E-01  0.14873919053E-01  0.21129491070E-01  0.51100000000E-03 0.  1.
         11    1    4    4    0    0 -0.28306017156E-01  0.91229416262E-01  0.53799234847E-01  0.10962963007E+00  0.51100000000E-03 0. -1.
</event>
<event>
 8    1  0.9952977E+004  0.1043930E+01  0.7957747E-01            NaN
         13   -1    0    0    0    0  0.00000000000E+00  0.00000000000E+00  0.74505805969E-08  0.10566000000E+00  0.10566000000E+00 0.  1.
     999900   -1    0    0    0    0 -0.00000000000E+00 -0.00000000000E+00 -0.74505805969E-08  0.93827000000E+00  0.93827000000E+00 0. -1.
     999902    2    1    2    0    0  0.22891230358E-01 -0.10376452027E-02  0.67533355378E-02  0.10200408251E+01  0.10197610467E+01 0.  0.
     999903    2    3    3    0    0 -0.99452006813E-01 -0.69160276010E-01  0.37161068131E-01  0.12845056570E+00  0.21089272347E-01 0.  0.
         14    1    1    2    0    0 -0.22891230358E-01  0.10376452027E-02 -0.67533355378E-02  0.23889174866E-01  0.00000000000E+00 0.  1.
     999901    1    3    3    0    0  0.12234323717E+00  0.68122630807E-01 -0.30407732593E-01  0.89159025943E+00  0.88000000000E+00 0.  1.
        -11    1    4    4    0    0 -0.12546599559E-01 -0.18418327995E-01  0.78456497541E-02  0.23631912908E-01  0.51100000000E-03 0. -1.
         11    1    4    4    0    0 -0.86905407254E-01 -0.50741948014E-01  0.29315418377E-01  0.10481865280E+00  0.51100000000E-03 0.  1.
</event>
<event>
 8    1  0.9952977E+004  0.1043930E+01  0.7957747E-01            NaN
         13   -1    0    0    0    0  0.00000000000E+00  0.00000000000E+00  0.74505805969E-08  0.10566000000E+00  0.10566000000E+00 0.  1.
     999900   -1    0    0    0    0 -0.00000000000E+00 -0.00000000000E+00 -0.74505805969E-08  0.93827000000E+00  0.93827000000E+00 0. -1.
     999902    2    1    2    0    0 -0.91879920560E-02  0.22093833124E-01 -0.43151252163E-02  0.10196158690E+01  0.10193259260E+01 0.  0.
     999903    2    3    3    0    0 -0.10550249744E+00 -0.63236919124E-01 -0.35915525929E-01  0.12969654314E+00  0.20039545755E-01 0.  0.
         14    1    1    2    0    0  0.91879920560E-02 -0.22093833124E-01  0.43151252163E-02  0.24314130990E-01  0.00000000000E+00 0.  1.
     999901    1    3    3    0    0  0.96314505384E-01  0.85330752249E-01  0.31600400713E-01  0.88991932587E+00  0.88000000000E+00 0. -1.
        -11    1    4    4    0    0 -0.90879040710E-01 -0.61659449344E-01 -0.30113704726E-01  0.11387705681E+00  0.51100000000E-03 0.  1.
         11    1    4    4    0    0 -0.14623456731E-01 -0.15774697799E-02 -0.58018212036E-02  0.15819486336E-01  0.51100000000E-03 0. -1.
</event>
<event>
 8    1  0.9952977E+004  0.1043930E+01  0.7957747E-01            NaN
         13   -1    0    0    0    0  0.00000000000E+00  0.00000000000E+00  0.74505805969E-08  0.10566000000E+00  0.10566000000E+00 0. -1.
     999900   -1    0    0    0    0 -0.00000000000E+00 -0.00000000000E+00 -0.74505805969E-08  0.93827000000E+00  0.93827000000E+00 0. -1.
     999902    2    1    2    0    0  0.93673554045E-02  0.21471368127E-01  0.11106518406E-02  0.10204779096E+01  0.10202083922E+01 0.  0.
     999903    2    3    3    0    0  0.96503979256E-01  0.79064347907E-01 -0.41841941025E-01  0.13326053614E+00  0.21057857008E-01 0.  0.
         14    1    1    2    0    0 -0.93673554045E-02 -0.21471368127E-01 -0.11106518406E-02  0.23452090398E-01  0.00000000000E+00 0. -1.
     999901    1    3    3    0    0 -0.87136623852E-01 -0.57592979780E-01  0.42952592865E-01  0.88721737346E+00  0.88000000000E+00 0.  1.
        -11    1    4    4    0    0  0.29242669282E-02 -0.85512869822E-03  0.47365989710E-03  0.31253890727E-02  0.51100000000E-03 0. -1.
         11    1    4    4    0    0  0.93579712328E-01  0.79919476605E-01 -0.42315600922E-01  0.13013514707E+00  0.51100000000E-03 0.  1.
</event>
<event>
 8    1  0.9952977E+004  0.1043930E+01  0.7957747E-01            NaN
         13   -1    0    0    0    0  0.00000000000E+00  0.00000000000E+00  0.74505805969E-08  0.10566000000E+00  0.10566000000E+00 0. -1.
     999900   -1    0    0    0    0 -0.00000000000E+00 -0.00000000000E+00 -0.74505805969E-08  0.93827000000E+00  0.93827000000E+00 0. -1.
     999902    2    1    2    0    0 -0.71612495152E-02 -0.12517730399E-01  0.20816218398E-01  0.10186062559E+01  0.10182914182E+01 0.  0.
     999903    2    3    3    0    0  0.84169240185E-01 -0.67465750814E-01 -0.65735981690E-01  0.12795939731E+00  0.20403419952E-01 0.  0.
         14    1    1    2    0    0  0.71612495152E-02  0.12517730399E-01 -0.20816218398E-01  0.25323744142E-01  0.00000000000E+00 0.  1.
     999901    1    3    3    0    0 -0.91330489700E-01  0.54948020415E-01  0.86552200088E-01  0.89064685855E+00  0.88000000000E+00 0.  1.
        -11    1    4    4    0    0  0.42412374351E-01 -0.29747447513E-01 -0.20332614269E-01  0.55654258199E-01  0.51100000000E-03 0.  1.
         11    1    4    4    0    0  0.41756865834E-01 -0.37718303301E-01 -0.45403367421E-01  0.72305139114E-01  0.51100000000E-03 0. -1.
</event>
<event>
 8    1  0.9952977E+004  0.1043930E+01  0.7957747E-01            NaN
         13   -1    0    0    0    0  0.00000000000E+00  0.00000000000E+00  0.74505805969E-08  0.10566000000E+00  0.10566000000E+00 0.  1.
     999900   -1    0    0    0    0 -0.00000000000E+00 -0.00000000000E+00 -0.74505805969E-08  0.93827000000E+00  0.93827000000E+00 0.  1.
     999902    2    1    2    0    0  0.11907339359E-01 -0.22916919024E-01  0.82238912200E-02  0.10168264524E+01  0.10164651651E+01 0.  0.
     999903    2    3    3    0    0  0.53566269733E-01 -0.11639668436E+00  0.18726755673E-01  0.13083308716E+00  0.18683466882E-01 0.  0.
         14    1    1    2    0    0 -0.11907339359E-01  0.22916919024E-01 -0.82238912200E-02  0.27103547645E-01  0.00000000000E+00 0.  1.
     999901    1    3    3    0    0 -0.41658930374E-01  0.93479765336E-01 -0.10502864453E-01  0.88599336519E+00  0.88000000000E+00 0.  1.
        -11    1    4    4    0    0  0.83795813999E-03 -0.72284373612E-02  0.49519005229E-02  0.88167409125E-02  0.51100000000E-03 0. -1.
         11    1    4    4    0    0  0.52728311593E-01 -0.10916824700E+00  0.13774855150E-01  0.12201634625E+00  0.51100000000E-03 0.  1.
</event>
<event>
 8    1  0.9952977E+004  0.1043930E+01  0.7957747E-01            NaN
         13   -1    0    0    0    0  0.00000000000E+00  0.00000000000E+00  0.74505805969E-08  0.10566000000E+00  0.10566000000E+00 0.  1.
     999900   -1    0    0    0    0 -0.00000000000E+00 -0.00000000000E+00 -0.74505805969E-08  0.93827000000E+00  0.93827000000E+00 0.  1.
     999902    2    1    2    0    0 -0.16399981373E-01 -0.16543467934E-01  0.18963547370E-02  0.10205581819E+01  0.10202905276E+01 0.  0.
     999903    2    3    3    0    0 -0.10070614053E+00  0.76503504748E-01 -0.31124984390E-01  0.13103264745E+00  0.14362348845E-01 0.  0.
         14    1    1    2    0    0  0.16399981373E-01  0.16543467934E-01 -0.18963547370E-02  0.23371818107E-01  0.00000000000E+00 0. -1.
     999901    1    3    3    0    0  0.84306159155E-01 -0.93046972682E-01  0.33021339127E-01  0.88952553445E+00  0.88000000000E+00 0. -1.
        -11    1    4    4    0    0 -0.90418668638E-01  0.73506713743E-01 -0.29231550103E-01  0.12013957402E+00  0.51100000000E-03 0. -1.
         11    1    4    4    0    0 -0.10287471890E-01  0.29967910053E-02 -0.18934342869E-02  0.10893073424E-01  0.51100000000E-03 0.  1.
</event>
<event>
 8    1  0.9952977E+004  0.1043930E+01  0.7957747E-01            NaN
         13   -1    0    0    0    0  0.00000000000E+00  0.00000000000E+00  0.74505805969E-08  0.10566000000E+00  0.10566000000E+00 0. -1.
     999900   -1    0    0    0    0 -0.00000000000E+00 -0.00000000000E+00 -0.74505805969E-08  0.93827000000E+00  0.93827000000E+00 0.  1.
     999902    2    1    2    0    0  0.23088163984E-01 -0.45054998914E-02 -0.10973590134E-02  0.10203807528E+01  0.10201089715E+01 0.  0.
     999903    2    3    3    0    0  0.10190805848E+00 -0.14640297188E-01  0.81765649613E-01  0.13292282815E+00  0.19577183157E-01 0.  0.
         14    1    1    2    0    0 -0.23088163984E-01  0.45054998914E-02  0.10973590134E-02  0.23549247169E-01  0.00000000000E+00 0. -1.
     999901    1    3    3    0    0 -0.78819894499E-01  0.10134797297E-01 -0.82863008627E-01  0.88745792468E+00  0.88000000000E+00 0.  1.
        -11    1    4    4    0    0  0.53307801685E-01 -0.20966212623E-02  0.31860801045E-01  0.62140882722E-01  0.51100000000E-03 0. -1.
         11    1    4    4    0    0  0.48600256798E-01 -0.12543675926E-01  0.49904848568E-01  0.70781945425E-01  0.51100000000E-03 0.  1.
</event>
<event>
 8    1  0.9952977E+004  0.1043930E+01  0.7957747E-01            NaN
         13   -1    0    0    0    0  0.00000000000E+00  0.00000000000E+00  0.74505805969E-08  0.10566000000E+00  0.10566000000E+00 0.  1.
     999900   -1    0    0    0    0 -0.00000000000E+00 -0.00000000000E+00 -0.74505805969E-08  0.93827000000E+00  0.93827000000E+00 0. -1.
     999902    2    1    2    0    0 -0.11490119658E-01 -0.61875585471E-02  0.16101314812E-01  0.10232041449E+01  0.10229942136E+01 0.  0.
     999903    2    3    3    0    0 -0.56792443637E-01 -0.77848901562E-01 -0.89256024804E-01  0.13287397152E+00  0.20075388282E-01 0.  0.
         14    1    1    2    0    0  0.11490119658E-01  0.61875585471E-02 -0.16101314812E-01  0.20725855090E-01  0.00000000000E+00 0. -1.
     999901    1    3    3    0    0  0.45302323979E-01  0.71661343015E-01  0.10535733962E+00  0.89033017339E+00  0.88000000000E+00 0.  1.
        -11    1    4    4    0    0 -0.28101965026E-01 -0.22252513381E-01 -0.31293540483E-01  0.47586149110E-01  0.51100000000E-03 0. -1.
         11    1    4    4    0    0 -0.28690478611E-01 -0.55596388181E-01 -0.57962484320E-01  0.85287822409E-01  0.51100000000E-03 0.  1.
</event>
<event>
 8    1  0.9952977E+004  0.1043930E+01  0.7957747E-01            NaN
         13   -1    0    0    0    0  0.00000000000E+00  0.00000000000E+00  0.74505805969E-08  0.10566000000E+00  0.10566000000E+00 0.  1.
     999900   -1    0    0    0    0 -0.00000000000E+00 -0.00000000000E+00 -0.74505805969E-08  0.93827000000E+00  0.93827000000E+00 0.  1.
     999902    2    1    2    0    0  0.16930333033E-01  0.16740570267E-01  0.56609756074E-02  0.10194569635E+01  0.10191631719E+01 0.  0.
     999903    2    3    3    0    0 -0.89339351349E-01  0.21108647100E-01 -0.87158866261E-01  0.12820624181E+00  0.20324315219E-01 0.  0.
         14    1    1    2    0    0 -0.16930333033E-01 -0.16740570267E-01 -0.56609756074E-02  0.24473036475E-01  0.00000000000E+00 0.  1.
     999901    1    3    3    0    0  0.10626968438E+00 -0.43680768329E-02  0.92819841868E-01  0.89125072172E+00  0.88000000000E+00 0. -1.
        -11    1    4    4    0    0 -0.62070874933E-01  0.17902007676E-01 -0.72392213553E-01  0.97026641176E-01  0.51100000000E-03 0. -1.
         11    1    4    4    0    0 -0.27268476416E-01  0.32066394243E-02 -0.14766652707E-01  0.31179600633E-01  0.51100000000E-03 0.  1.
</event>
<event>
 8    1  0.9952977E+004  0.1043930E+01  0.7957747E-01            NaN
         13   -1    0    0    0    0  0.00000000000E+00  0.00000000000E+00  0.74505805969E-08  0.10566000000E+00  0.10566000000E+00 0.  1.
     999900   -1    0    0    0    0 -0.00000000000E+00 -0.00000000000E+00 -0.74505805969E-08  0.93827000000E+00  0.93827000000E+00 0.  1.
     999902    2    1    2    0    0  0.22444441616E-01  0.54400846536E-02 -0.26734064293E-02  0.10206814606E+01  0.10204166549E+01 0.  0.
     999903    2    3    3    0    0  0.64043324111E-01 -0.45832054447E-01  0.10384648307E+00  0.13180251155E+00  0.19638875387E-01 0.  0.
         14    1    1    2    0    0 -0.22444441616E-01 -0.54400846536E-02  0.26734064293E-02  0.23248539361E-01  0.00000000000E+00 0.  1.
     999901    1    3    3    0    0 -0.41598882495E-01  0.51272139100E-01 -0.10651988950E+00  0.88887894909E+00  0.88000000000E+00 0.  1.
        -11    1    4    4    0    0  0.57833267646E-01 -0.41526118162E-01  0.81566524384E-01  0.10827032999E+00  0.51100000000E-03 0. -1.
         11    1    4    4    0    0  0.62100564658E-02 -0.43059362846E-02  0.22279958689E-01  0.23532181556E-01  0.51100000000E-03 0.  1.
</event>
<event>
 8    1  0.9952977E+004  0.1043930E+01  0.7957747E-01            NaN
         13   -1    0    0    0    0  0.00000000000E+00  0.00000000000E+00  0.74505805969E-08  0.10566000000E+00  0.10566000000E+00 0.  1.
     999900   -1    0    0    0    0 -0.00000000000E+00 -0.00000000000E+00 -0.74505805969E-08  0.93827000000E+00  0.93827000000E+00 0.  1.
     999902    2    1    2    0    0  0.19326248788E-01 -0.13178926224E-01  0.79614527529E-03  0.10205244059E+01  0.10202559685E+01 0.  0.
     999903    2    3    3    0    0 -0.70495580567E-01 -0.10504722754E+00 -0.18583699998E-01  0.13098333082E+00  0.28403030713E-01 0.  0.
         14    1    1    2    0    0 -0.19326248788E-01  0.13178926224E-01 -0.79614527529E-03  0.23405594116E-01  0.00000000000E+00 0. -1.
     999901    1    3    3    0    0  0.89821829355E-01  0.91868301321E-01  0.19379845273E-01  0.88954107506E+00  0.88000000000E+00 0.  1.
        -11    1    4    4    0    0 -0.29416558485E-01 -0.68087449721E-01 -0.14462630510E-01  0.75568932273E-01  0.51100000000E-03 0.  1.
         11    1    4    4    0    0 -0.41079022083E-01 -0.36959777824E-01 -0.41210694884E-02  0.55414398551E-01  0.51100000000E-03 0. -1.
</event>
<event>
 8    1  0.9952977E+004  0.1043930E+01  0.7957747E-01            NaN
         13   -1    0    0    0    0  0.00000000000E+00  0.00000000000E+00  0.74505805969E-08  0.10566000000E+00  0.10566000000E+00 0.  1.
     999900   -1    0    0    0    0 -0.00000000000E+00 -0.00000000000E+00 -0.74505805969E-08  0.93827000000E+00  0.93827000000E+00 0. -1.
     999902    2    1    2    0    0  0.16838240502E-01 -0.16911695995E-01 -0.44641702961E-02  0.10196511899E+01  0.10193620988E+01 0.  0.
     999903    2    3    3    0    0  0.44077311228E-01  0.68150322458E-01 -0.99203425503E-01  0.13007092906E+00  0.22132580929E-01 0.  0.
         14    1    1    2    0    0 -0.16838240502E-01  0.16911695995E-01  0.44641702961E-02  0.24278810124E-01  0.00000000000E+00 0.  1.
     999901    1    3    3    0    0 -0.27239070726E-01 -0.85062018453E-01  0.94739255207E-01  0.88958026082E+00  0.88000000000E+00 0.  1.
        -11    1    4    4    0    0  0.16198785945E-01  0.43884841322E-01 -0.49228364281E-01  0.67911508117E-01  0.51100000000E-03 0.  1.
         11    1    4    4    0    0  0.27878525283E-01  0.24265481136E-01 -0.49975061222E-01  0.62159420942E-01  0.51100000000E-03 0. -1.
</event>
<event>
 8    1  0.1023011E+005  0.1043930E+01  0.7957747E-01            NaN
         13   -1    0    0    0    0  0.00000000000E+00  0.00000000000E+00  0.74505805969E-08  0.10566000000E+00  0.10566000000E+00 0. -1.
     999900   -1    0    0    0    0 -0.00000000000E+00 -0.00000000000E+00 -0.74505805969E-08  0.93827000000E+00  0.93827000000E+00 0. -1.
     999902    2    1    2    0    0 -0.81655640024E-02  0.22225016220E-01 -0.37449877866E-02  0.10199580849E+01  0.10196763419E+01 0.  0.
     999903    2    3    3    0    0 -0.46442848330E-01 -0.11720717951E+00  0.95048267584E-02  0.12806008325E+00  0.20361289293E-01 0.  0.
         14    1    1    2    0    0  0.81655640024E-02 -0.22225016220E-01  0.37449877866E-02  0.23971915130E-01  0.00000000000E+00 0.  1.
     999901    1    3    3    0    0  0.38277284328E-01  0.13943219573E+00 -0.13249814545E-01  0.89189800162E+00  0.88000000000E+00 0. -1.
        -11    1    4    4    0    0 -0.18973681334E-01 -0.59745239266E-01  0.13921487616E-01  0.64214975953E-01  0.51100000000E-03 0. -1.
         11    1    4    4    0    0 -0.27469166996E-01 -0.57461940244E-01 -0.44166608574E-02  0.63845107301E-01  0.51100000000E-03 0.  1.
</event>
<event>
 8    1  0.9952977E+004  0.1043930E+01  0.7957747E-01            NaN
         13   -1    0    0    0    0  0.00000000000E+00  0.00000000000E+00  0.74505805969E-08  0.10566000000E+00  0.10566000000E+00 0.  1.
     999900   -1    0    0    0    0 -0.00000000000E+00 -0.00000000000E+00 -0.74505805969E-08  0.93827000000E+00  0.93827000000E+00 0.  1.
     999902    2    1    2    0    0 -0.13520612932E-01 -0.88622307709E-02 -0.13938801199E-01  0.10225843614E+01  0.10223615505E+01 0.  0.
     999903    2    3    3    0    0  0.13970929814E-01  0.11812829900E+00 -0.54016751865E-01  0.13214142572E+00  0.19851070594E-01 0.  0.
         14    1    1    2    0    0  0.13520612932E-01  0.88622307709E-02  0.13938801199E-01  0.21345638599E-01  0.00000000000E+00 0. -1.
     999901    1    3    3    0    0 -0.27491542746E-01 -0.12699052978E+00  0.40077950665E-01  0.89044293568E+00  0.88000000000E+00 0. -1.
        -11    1    4    4    0    0  0.14723089851E-01  0.10365846164E+00 -0.40316971466E-01  0.11219431961E+00  0.51100000000E-03 0.  1.
         11    1    4    4    0    0 -0.75216003725E-03  0.14469837368E-01 -0.13699780399E-01  0.19947106109E-01  0.51100000000E-03 0. -1.
</event>
<event>
 8    1  0.9952977E+004  0.1043930E+01  0.7957747E-01            NaN
         13   -1    0    0    0    0  0.00000000000E+00  0.00000000000E+00  0.74505805969E-08  0.10566000000E+00  0.10566000000E+00 0.  1.
     999900   -1    0    0    0    0 -0.00000000000E+00 -0.00000000000E+00 -0.74505805969E-08  0.93827000000E+00  0.93827000000E+00 0.  1.
     999902    2    1    2    0    0 -0.19291286376E-01 -0.20119725529E-01  0.26030332823E-02  0.10159347706E+01  0.10155489773E+01 0.  0.
     999903    2    3    3    0    0 -0.10352250461E+00 -0.65635385279E-01 -0.37457496518E-01  0.12983578098E+00  0.20720840107E-01 0.  0.
         14    1    1    2    0    0  0.19291286376E-01  0.20119725529E-01 -0.26030332823E-02  0.27995229374E-01  0.00000000000E+00 0.  1.
     999901    1    3    3    0    0  0.84231218236E-01  0.45515659750E-01  0.40060529800E-01  0.88609898965E+00  0.88000000000E+00 0. -1.
        -11    1    4    4    0    0 -0.99197435345E-01 -0.57133711074E-01 -0.36865446810E-01  0.12026518370E+00  0.51100000000E-03 0.  1.
         11    1    4    4    0    0 -0.43250692672E-02 -0.85016742051E-02 -0.59204970811E-03  0.95705972808E-02  0.51100000000E-03 0. -1.
</event>
<event>
 8    1  0.9952977E+004  0.1043930E+01  0.7957747E-01            NaN
         13   -1    0    0    0    0  0.00000000000E+00  0.00000000000E+00  0.74505805969E-08  0.10566000000E+00  0.10566000000E+00 0.  1.
     999900   -1    0    0    0    0 -0.00000000000E+00 -0.00000000000E+00 -0.74505805969E-08  0.93827000000E+00  0.93827000000E+00 0.  1.
     999902    2    1    2    0    0  0.15632216667E-01 -0.38087979056E-02 -0.17021211636E-01  0.10205078996E+01  0.10202390791E+01 0.  0.
     999903    2    3    3    0    0  0.10185975903E+00  0.66987863190E-01  0.44949548888E-01  0.13130166291E+00  0.18891278769E-01 0.  0.
         14    1    1    2    0    0 -0.15632216667E-01  0.38087979056E-02  0.17021211636E-01  0.23422100354E-01  0.00000000000E+00 0.  1.
     999901    1    3    3    0    0 -0.86227542366E-01 -0.70796661095E-01 -0.61970760524E-01  0.88920623673E+00  0.88000000000E+00 0.  1.
        -11    1    4    4    0    0  0.29495937646E-01  0.14915609799E-01  0.43585171541E-02  0.33342818508E-01  0.51100000000E-03 0.  1.
         11    1    4    4    0    0  0.72363821388E-01  0.52072253391E-01  0.40591031734E-01  0.97958844405E-01  0.51100000000E-03 0. -1.
</event>
<event>
 8    1  0.1000636E+005  0.1043930E+01  0.7957747E-01            NaN
         13   -1    0    0    0    0  0.00000000000E+00  0.00000000000E+00  0.74505805969E-08  0.10566000000E+00  0.10566000000E+00 0. -1.
     999900   -1    0    0    0    0 -0.00000000000E+00 -0.00000000000E+00 -0.74505805969E-08  0.93827000000E+00  0.93827000000E+00 0. -1.
     999902    2    1    2    0    0  0.20437547775E-01 -0.11223552749E-01 -0.45316694693E-02  0.10201771576E+01  0.10199006007E+01 0.  0.
     999903    2    3    3    0    0 -0.89405171936E-01 -0.46641818270E-01 -0.79240691801E-01  0.12950251741E+00  0.17974170293E-01 0.  0.
         14    1    1    2    0    0 -0.20437547775E-01  0.11223552749E-01  0.45316694693E-02  0.23752842431E-01  0.00000000000E+00 0.  1.
     999901    1    3    3    0    0  0.10984271971E+00  0.35418265521E-01  0.74709022332E-01  0.89067464016E+00  0.88000000000E+00 0.  1.
        -11    1    4    4    0    0 -0.59587301773E-01 -0.39111635547E-01 -0.50030696703E-01  0.87084432027E-01  0.51100000000E-03 0. -1.
         11    1    4    4    0    0 -0.29817870163E-01 -0.75301827223E-02 -0.29209995098E-01  0.42418085383E-01  0.51100000000E-03 0.  1.
</event>
<event>
 8    1  0.9952977E+004  0.1043930E+01  0.7957747E-01            NaN
         13   -1    0    0    0    0  0.00000000000E+00  0.00000000000E+00  0.74505805969E-08  0.10566000000E+00  0.10566000000E+00 0. -1.
     999900   -1    0    0    0    0 -0.00000000000E+00 -0.00000000000E+00 -0.74505805969E-08  0.93827000000E+00  0.93827000000E+00 0.  1.
     999902    2    1    2    0    0 -0.44570654177E-02  0.16102212362E-01  0.16630752000E-01  0.10203561037E+01  0.10200837464E+01 0.  0.
     999903    2    3    3    0    0 -0.35983600475E-01 -0.21846122941E-01  0.12402065461E+00  0.13245600247E+00  0.19783761777E-01 0.  0.
         14    1    1    2    0    0  0.44570654177E-02 -0.16102212362E-01 -0.16630752000E-01  0.23573896309E-01  0.00000000000E+00 0.  1.
     999901    1    3    3    0    0  0.31526535057E-01  0.37948335303E-01 -0.10738990261E+00  0.88790010122E+00  0.88000000000E+00 0.  1.
        -11    1    4    4    0    0 -0.12113887084E-01 -0.17766891568E-01  0.46382257898E-01  0.51127132376E-01  0.51100000000E-03 0. -1.
         11    1    4    4    0    0 -0.23869713391E-01 -0.40792313733E-02  0.77638396712E-01  0.81328870095E-01  0.51100000000E-03 0.  1.
</event>
<event>
 8    1  0.9952977E+004  0.1043930E+01  0.7957747E-01            NaN
         13   -1    0    0    0    0  0.00000000000E+00  0.00000000000E+00  0.74505805969E-08  0.10566000000E+00  0.10566000000E+00 0. -1.
     999900   -1    0    0    0    0 -0.00000000000E+00 -0.00000000000E+00 -0.74505805969E-08  0.93827000000E+00  0.93827000000E+00 0.  1.
     999902    2    1    2    0    0 -0.14480740602E-01 -0.15412150545E-01  0.11070017231E-01  0.10200601128E+01  0.10197807913E+01 0.  0.
     999903    2    3    3    0    0  0.39535996399E-01  0.77087466260E-01 -0.91586411723E-01  0.12764074425E+00  0.19962873391E-01 0.  0.
         14    1    1    2    0    0  0.14480740602E-01  0.15412150545E-01 -0.11070017231E-01  0.23869887187E-01  0.00000000000E+00 0.  1.
     999901    1    3    3    0    0 -0.54016737001E-01 -0.92499616806E-01  0.10265642895E+00  0.89241936857E+00  0.88000000000E+00 0. -1.
        -11    1    4    4    0    0 -0.11153448187E-02  0.12217598916E-01 -0.10968766359E-01  0.16464770687E-01  0.51100000000E-03 0. -1.
         11    1    4    4    0    0  0.40651341218E-01  0.64869867345E-01 -0.80617645363E-01  0.11117597356E+00  0.51100000000E-03 0.  1.
</event>
<event>
 8    1  0.9952977E+004  0.1043930E+01  0.7957747E-01            NaN
         13   -1    0    0    0    0  0.00000000000E+00  0.00000000000E+00  0.74505805969E-08  0.10566000000E+00  0.10566000000E+00 0.  1.
     999900   -1    0    0    0    0 -0.00000000000E+00 -0.00000000000E+00 -0.74505805969E-08  0.93827000000E+00  0.93827000000E+00 0. -1.
     999902    2    1    2    0    0  0.21202466755E-01 -0.62965644800E-02 -0.47204365718E-02  0.10213142125E+01  0.10210637820E+01 0.  0.
     999903    2    3    3    0    0 -0.68516716591E-01 -0.10078973926E+00 -0.45509956876E-01  0.13078500084E+00  0.13433103787E-01 0.  0.
         14    1    1    2    0    0 -0.21202466755E-01  0.62965644800E-02  0.47204365718E-02  0.22615787455E-01  0.00000000000E+00 0. -1.
     999901    1    3    3    0    0  0.89719183347E-01  0.94493174776E-01  0.40789520304E-01  0.89052921171E+00  0.88000000000E+00 0.  1.
        -11    1    4    4    0    0 -0.14691782391E-01 -0.14337929800E-01 -0.46541683237E-02  0.21055809283E-01  0.51100000000E-03 0.  1.
         11    1    4    4    0    0 -0.53824934200E-01 -0.86451809455E-01 -0.40855788553E-01  0.10972919155E+00  0.51100000000E-03 0. -1.
</event>
<event>
 8    1  0.9952977E+004  0.1043930E+01  0.7957747E-01            NaN
         13   -1    0    0    0    0  0.00000000000E+00  0.00000000000E+00  0.74505805969E-08  0.10566000000E+00  0.10566000000E+00 0. -1.
     999900   -1    0    0    0    0 -0.00000000000E+00 -0.00000000000E+00 -0.74505805969E-08  0.93827000000E+00  0.93827000000E+00 0. -1.
     999902    2    1    2    0    0 -0.17612650052E-01  0.85459092927E-02  0.13433324862E-01  0.10201877966E+01  0.10199114903E+01 0.  0.
     999903    2    3    3    0    0 -0.80338364868E-01  0.94573745513E-01  0.44237296282E-01  0.13323560587E+00  0.19908341964E-01 0.  0.
         14    1    1    2    0    0  0.17612650052E-01 -0.85459092927E-02 -0.13433324862E-01  0.23742203444E-01  0.00000000000E+00 0.  1.
     999901    1    3    3    0    0  0.62725714816E-01 -0.86027836221E-01 -0.30803971420E-01  0.88695219068E+00  0.88000000000E+00 0. -1.
        -11    1    4    4    0    0 -0.39026298447E-01  0.37897403669E-01  0.10495922119E-01  0.55404789300E-01  0.51100000000E-03 0.  1.
         11    1    4    4    0    0 -0.41312066421E-01  0.56676341845E-01  0.33741374162E-01  0.77830816572E-01  0.51100000000E-03 0. -1.
</event>
<event>
 8    1  0.9952977E+004  0.1043930E+01  0.7957747E-01            NaN
         13   -1    0    0    0    0  0.00000000000E+00  0.00000000000E+00  0.74505805969E-08  0.10566000000E+00  0.10566000000E+00 0.  1.
     999900   -1    0    0    0    0 -0.00000000000E+00 -0.00000000000E+00 -0.74505805969E-08  0.93827000000E+00  0.93827000000E+00 0.  1.
     999902    2    1    2    0    0  0.34153284118E-01  0.12756225393E-01  0.81300742350E-02  0.10065767376E+01  0.10058834239E+01 0.  0.
     999903    2    3    3    0    0 -0.44557287462E-02  0.32822088607E-01 -0.11066872370E+00  0.11752867980E+00  0.21639804774E-01 0.  0.
         14    1    1    2    0    0 -0.34153284118E-01 -0.12756225393E-01 -0.81300742350E-02  0.37353262366E-01  0.00000000000E+00 0. -1.
     999901    1    3    3    0    0  0.38609012864E-01 -0.20065863214E-01  0.11879879794E+00  0.88904805783E+00  0.88000000000E+00 0. -1.
        -11    1    4    4    0    0 -0.72190595153E-02  0.51622377440E-02 -0.50116909030E-01  0.50899206384E-01  0.51100000000E-03 0. -1.
         11    1    4    4    0    0  0.27633307691E-02  0.27659850863E-01 -0.60551814675E-01  0.66629473419E-01  0.51100000000E-03 0.  1.
</event>
<event>
 8    1  0.9952977E+004  0.1043930E+01  0.7957747E-01            NaN
         13   -1    0    0    0    0  0.00000000000E+00  0.00000000000E+00  0.74505805969E-08  0.10566000000E+00  0.10566000000E+00 0.  1.
     999900   -1    0    0    0    0 -0.00000000000E+00 -0.00000000000E+00 -0.74505805969E-08  0.93827000000E+00  0.93827000000E+00 0.  1.
     999902    2    1    2    0    0  0.20679315645E-01 -0.28380043162E-02  0.10919151018E-01  0.10203733402E+01  0.10201013857E+01 0.  0.
     999903    2    3    3    0    0 -0.12088423618E+00  0.37596554020E-01 -0.30164087455E-02  0.12803405909E+00  0.18897675328E-01 0.  0.
         14    1    1    2    0    0 -0.20679315645E-01  0.28380043162E-02 -0.10919151018E-01  0.23556659844E-01  0.00000000000E+00 0. -1.
     999901    1    3    3    0    0  0.14156355183E+00 -0.40434558336E-01  0.13935559764E-01  0.89233928107E+00  0.88000000000E+00 0. -1.
        -11    1    4    4    0    0 -0.25560943860E-01  0.15423721661E-01  0.28177045823E-02  0.29990892301E-01  0.51100000000E-03 0. -1.
         11    1    4    4    0    0 -0.95323292322E-01  0.22172832359E-01 -0.58341133279E-02  0.98043166785E-01  0.51100000000E-03 0.  1.
</event>
<event>
 8    1  0.9952977E+004  0.1043930E+01  0.7957747E-01            NaN
         13   -1    0    0    0    0  0.00000000000E+00  0.00000000000E+00  0.74505805969E-08  0.10566000000E+00  0.10566000000E+00 0. -1.
     999900   -1    0    0    0    0 -0.00000000000E+00 -0.00000000000E+00 -0.74505805969E-08  0.93827000000E+00  0.93827000000E+00 0. -1.
     999902    2    1    2    0    0 -0.23477564652E-01 -0.67590789210E-03  0.42754132782E-02  0.10200567503E+01  0.10197773491E+01 0.  0.
     999903    2    3    3    0    0 -0.12975368378E+00 -0.17236918612E-02  0.23952932258E-01  0.13344357865E+00  0.19860920238E-01 0.  0.
         14    1    1    2    0    0  0.23477564652E-01  0.67590789210E-03 -0.42754132782E-02  0.23873249720E-01  0.00000000000E+00 0. -1.
     999901    1    3    3    0    0  0.10627611913E+00  0.10477839691E-02 -0.19677518980E-01  0.88661317163E+00  0.88000000000E+00 0. -1.
        -11    1    4    4    0    0 -0.11933452949E+00  0.29115877920E-02  0.18511914222E-01  0.12079801058E+00  0.51100000000E-03 0.  1.
         11    1    4    4    0    0 -0.10419154291E-01 -0.46352796531E-02  0.54410180365E-02  0.12645568072E-01  0.51100000000E-03 0. -1.
</event>
<event>
 8    1  0.9952977E+004  0.1043930E+01  0.7957747E-01            NaN
         13   -1    0    0    0    0  0.00000000000E+00  0.00000000000E+00  0.74505805969E-08  0.10566000000E+00  0.10566000000E+00 0. -1.
     999900   -1    0    0    0    0 -0.00000000000E+00 -0.00000000000E+00 -0.74505805969E-08  0.93827000000E+00  0.93827000000E+00 0.  1.
     999902    2    1    2    0    0  0.19484138668E-01 -0.92011445866E-02  0.91731756030E-02  0.10205112069E+01  0.10202424631E+01 0.  0.
     999903    2    3    3    0    0  0.65009532267E-01  0.83913022999E-01 -0.73011904357E-01  0.13062514841E+00  0.21553572887E-01 0.  0.
         14    1    1    2    0    0 -0.19484138668E-01  0.92011445866E-02 -0.91731756030E-02  0.23418793136E-01  0.00000000000E+00 0.  1.
     999901    1    3    3    0    0 -0.45525393599E-01 -0.93114167585E-01  0.82185079960E-01  0.88988605846E+00  0.88000000000E+00 0.  1.
        -11    1    4    4    0    0  0.27687774278E-01  0.19570826980E-01 -0.24043770363E-01  0.41569148745E-01  0.51100000000E-03 0. -1.
         11    1    4    4    0    0  0.37321757989E-01  0.64342196019E-01 -0.48968133994E-01  0.89055999662E-01  0.51100000000E-03 0.  1.
</event>
<event>
 8    1  0.9952977E+004  0.1043930E+01  0.7957747E-01            NaN
         13   -1    0    0    0    0  0.00000000000E+00  0.00000000000E+00  0.74505805969E-08  0.10566000000E+00  0.10566000000E+00 0. -1.
     999900   -1    0    0    0    0 -0.00000000000E+00 -0.00000000000E+00 -0.74505805969E-08  0.93827000000E+00  0.93827000000E+00 0. -1.
     999902    2    1    2    0    0  0.81970377997E-02  0.19231413759E-01 -0.18427502148E-01  0.10160622491E+01  0.10156800099E+01 0.  0.
     999903    2    3    3    0    0 -0.33979232322E-01  0.78869938890E-01 -0.95091399557E-01  0.12971415463E+00  0.20207230170E-01 0.  0.
         14    1    1    2    0    0 -0.81970377997E-02 -0.19231413759E-01  0.18427502148E-01  0.27867750883E-01  0.00000000000E+00 0. -1.
     999901    1    3    3    0    0  0.42176270122E-01 -0.59638525130E-01  0.76663897408E-01  0.88634809449E+00  0.88000000000E+00 0.  1.
        -11    1    4    4    0    0 -0.73915733524E-02  0.74365915577E-02 -0.20681404077E-01  0.23193099108E-01  0.51100000000E-03 0. -1.
         11    1    4    4    0    0 -0.26587658970E-01  0.71433347332E-01 -0.74409995479E-01  0.10652105552E+00  0.51100000000E-03 0.  1.
</event>
<event>
 8    1  0.9952977E+004  0.1043930E+01  0.7957747E-01            NaN
         13   -1    0    0    0    0  0.00000000000E+00  0.00000000000E+00  0.74505805969E-08  0.10566000000E+00  0.10566000000E+00 0. -1.
     999900   -1    0    0    0    0 -0.00000000000E+00 -0.00000000000E+00 -0.74505805969E-08  0.93827000000E+00  0.93827000000E+00 0.  1.
     999902    2    1    2    0    0 -0.62381552488E-02  0.33458536965E-02 -0.22604006109E-01  0.10202434973E+01  0.10199685012E+01 0.  0.
     999903    2    3    3    0    0 -0.29854968655E-01  0.34485252028E-01  0.11824144032E+00  0.12818696558E+00  0.19243392997E-01 0.  0.
         14    1    1    2    0    0  0.62381552488E-02 -0.33458536965E-02  0.22604006109E-01  0.23686502698E-01  0.00000000000E+00 0. -1.
     999901    1    3    3    0    0  0.23616813406E-01 -0.31139398332E-01 -0.14084544643E+00  0.89205653172E+00  0.88000000000E+00 0. -1.
        -11    1    4    4    0    0 -0.31076456480E-02  0.15667566974E-01  0.50393774227E-01  0.52867038107E-01  0.51100000000E-03 0.  1.
         11    1    4    4    0    0 -0.26747323007E-01  0.18817685054E-01  0.67847666098E-01  0.75319927475E-01  0.51100000000E-03 0. -1.
</event>
<event>
 8    1  0.9952977E+004  0.1043930E+01  0.7957747E-01            NaN
         13   -1    0    0    0    0  0.00000000000E+00  0.00000000000E+00  0.74505805969E-08  0.10566000000E+00  0.10566000000E+00 0.  1.
     999900   -1    0    0    0    0 -0.00000000000E+00 -0.00000000000E+00 -0.74505805969E-08  0.93827000000E+00  0.93827000000E+00 0.  1.
     999902    2    1    2    0    0  0.32588071063E-02  0.12083302932E-01 -0.19620732133E-01  0.10206577169E+01  0.10203923637E+01 0.  0.
     999903    2    3    3    0    0 -0.17369389293E-01  0.64444189992E-01 -0.11424295472E+00  0.13379777865E+00  0.19890790837E-01 0.  0.
         14    1    1    2    0    0 -0.32588071063E-02 -0.12083302932E-01  0.19620732133E-01  0.23272283149E-01  0.00000000000E+00 0. -1.
     999901    1    3    3    0    0  0.20628196399E-01 -0.52360887060E-01  0.94622222587E-01  0.88685993820E+00  0.88000000000E+00 0. -1.
        -11    1    4    4    0    0 -0.14436839885E-01  0.63537768772E-01 -0.10100297423E+00  0.12019705625E+00  0.51100000000E-03 0. -1.
         11    1    4    4    0    0 -0.29325494076E-02  0.90642122053E-03 -0.13239980491E-01  0.13600722402E-01  0.51100000000E-03 0.  1.
</event>
<event>
 8    1  0.9952977E+004  0.1043930E+01  0.7957747E-01            NaN
         13   -1    0    0    0    0  0.00000000000E+00  0.00000000000E+00  0.74505805969E-08  0.10566000000E+00  0.10566000000E+00 0.  1.
     999900   -1    0    0    0    0 -0.00000000000E+00 -0.00000000000E+00 -0.74505805969E-08  0.93827000000E+00  0.93827000000E+00 0. -1.
     999902    2    1    2    0    0 -0.25546842172E-02  0.11276910748E-01 -0.19691402391E-01  0.10210947979E+01  0.10208394290E+01 0.  0.
     999903    2    3    3    0    0  0.55441346932E-01  0.53939992317E-01  0.10197137591E+00  0.12981172850E+00  0.21671585763E-01 0.  0.
         14    1    1    2    0    0  0.25546842172E-02 -0.11276910748E-01  0.19691402391E-01  0.22835202114E-01  0.00000000000E+00 0.  1.
     999901    1    3    3    0    0 -0.57996031149E-01 -0.42663081569E-01 -0.12166277830E+00  0.89128306939E+00  0.88000000000E+00 0. -1.
        -11    1    4    4    0    0  0.41551409260E-01  0.31229630810E-01  0.54048133121E-01  0.74988474227E-01  0.51100000000E-03 0. -1.
         11    1    4    4    0    0  0.13889937672E-01  0.22710361507E-01  0.47923242788E-01  0.54823254269E-01  0.51100000000E-03 0.  1.
</event>
<event>
 8    1  0.9952977E+004  0.1043930E+01  0.7957747E-01            NaN
         13   -1    0    0    0    0  0.00000000000E+00  0.00000000000E+00  0.74505805969E-08  0.10566000000E+00  0.10566000000E+00 0. -1.
     999900   -1    0    0    0    0 -0.00000000000E+00 -0.00000000000E+00 -0.74505805969E-08  0.93827000000E+00  0.93827000000E+00 0. -1.
     999902    2    1    2    0    0 -0.12917719110E-01  0.21179274822E-01 -0.16989799006E-02  0.10190640457E+01  0.10187606263E+01 0.  0.
     999903    2    3    3    0    0 -0.37908000131E-04  0.11539457231E+00 -0.60940530037E-01  0.13196091020E+00  0.19596552290E-01 0.  0.
         14    1    1    2    0    0  0.12917719110E-01 -0.21179274822E-01  0.16989799006E-02  0.24865954268E-01  0.00000000000E+00 0.  1.
     999901    1    3    3    0    0 -0.12879811110E-01 -0.94215297493E-01  0.59241550137E-01  0.88710313554E+00  0.88000000000E+00 0.  1.
        -11    1    4    4    0    0 -0.63606389496E-02  0.53694569404E-01 -0.36782680881E-01  0.65397180712E-01  0.51100000000E-03 0. -1.
         11    1    4    4    0    0  0.63227309494E-02  0.61700002911E-01 -0.24157849157E-01  0.66563729483E-01  0.51100000000E-03 0.  1.
</event>
<event>
 8    1  0.9952977E+004  0.1043930E+01  0.7957747E-01            NaN
         13   -1    0    0    0    0  0.00000000000E+00  0.00000000000E+00  0.74505805969E-08  0.10566000000E+00  0.10566000000E+00 0. -1.
     999900   -1    0    0    0    0 -0.00000000000E+00 -0.00000000000E+00 -0.74505805969E-08  0.93827000000E+00  0.93827000000E+00 0.  1.
     999902    2    1    2    0    0 -0.33098437472E-02 -0.17549918275E-01  0.16005825947E-01  0.10199478991E+01  0.10196659138E+01 0.  0.
     999903    2    3    3    0    0  0.50252298539E-01  0.83986652844E-01 -0.78915730669E-01  0.12742973111E+00  0.20774803488E-01 0.  0.
         14    1    1    2    0    0  0.33098437472E-02  0.17549918275E-01 -0.16005825947E-01  0.23982100853E-01  0.00000000000E+00 0.  1.
     999901    1    3    3    0    0 -0.53562142287E-01 -0.10153657112E+00  0.94921556616E-01  0.89251816803E+00  0.88000000000E+00 0. -1.
        -11    1    4    4    0    0  0.30951149038E-01  0.68619308643E-01 -0.61824125695E-01  0.97411841089E-01  0.51100000000E-03 0. -1.
         11    1    4    4    0    0  0.19301149502E-01  0.15367344201E-01 -0.17091604974E-01  0.30017890023E-01  0.51100000000E-03 0.  1.
</event>
<event>
 8    1  0.9952977E+004  0.1043930E+01  0.7957747E-01            NaN
         13   -1    0    0    0    0  0.00000000000E+00  0.00000000000E+00  0.74505805969E-08  0.10566000000E+00  0.10566000000E+00 0. -1.
     999900   -1    0    0    0    0 -0.00000000000E+00 -0.00000000000E+00 -0.74505805969E-08  0.93827000000E+00  0.93827000000E+00 0.  1.
     999902    2    1    2    0    0 -0.22440109171E-01  0.48076573978E-02  0.92339696712E-03  0.10209620935E+01  0.10207037139E+01 0.  0.
     999903    2    3    3    0    0  0.19566163793E-01  0.12799999237E+00 -0.99414109951E-02  0.13132232230E+00  0.19490712367E-01 0.  0.
         14    1    1    2    0    0  0.22440109171E-01 -0.48076573978E-02 -0.92339696712E-03  0.22967906548E-01  0.00000000000E+00 0. -1.
     999901    1    3    3    0    0 -0.42006272964E-01 -0.12319233497E+00  0.10864807962E-01  0.88963977115E+00  0.88000000000E+00 0. -1.
        -11    1    4    4    0    0  0.57787108642E-02  0.12223372344E-01 -0.56070944238E-02  0.14645987833E-01  0.51100000000E-03 0. -1.
         11    1    4    4    0    0  0.13787452929E-01  0.11577662003E+00 -0.43343165713E-02  0.11667633447E+00  0.51100000000E-03 0.  1.
</event>
<event>
 8    1  0.9952977E+004  0.1043930E+01  0.7957747E-01            NaN
         13   -1    0    0    0    0  0.00000000000E+00  0.00000000000E+00  0.74505805969E-08  0.10566000000E+00  0.10566000000E+00 0. -1.
     999900   -1    0    0    0    0 -0.00000000000E+00 -0.00000000000E+00 -0.74505805969E-08  0.93827000000E+00  0.93827000000E+00 0. -1.
     999902    2    1    2    0    0 -0.17439757684E-01  0.10275215517E-01 -0.11699281036E-01  0.10205505565E+01  0.10202827255E+01 0.  0.
     999903    2    3    3    0    0  0.72196758902E-01  0.10679827931E+00  0.45828974061E-02  0.13059745869E+00  0.20407077413E-01 0.  0.
         14    1    1    2    0    0  0.17439757684E-01 -0.10275215517E-01  0.11699281036E-01  0.23379443508E-01  0.00000000000E+00 0. -1.
     999901    1    3    3    0    0 -0.89636516586E-01 -0.96523063792E-01 -0.16282178442E-01  0.88995309780E+00  0.88000000000E+00 0. -1.
        -11    1    4    4    0    0  0.55543604163E-01  0.92295105445E-01  0.89098276309E-02  0.10808850356E+00  0.51100000000E-03 0.  1.
         11    1    4    4    0    0  0.16653154739E-01  0.14503173865E-01 -0.43269302248E-02  0.22508955131E-01  0.51100000000E-03 0. -1.
</event>
<event>
 8    1  0.9952977E+004  0.1043930E+01  0.7957747E-01            NaN
         13   -1    0    0    0    0  0.00000000000E+00  0.00000000000E+00  0.74505805969E-08  0.10566000000E+00  0.10566000000E+00 0.  1.
     999900   -1    0    0    0    0 -0.00000000000E+00 -0.00000000000E+00 -0.74505805969E-08  0.93827000000E+00  0.93827000000E+00 0. -1.
     999902    2    1    2    0    0  0.13433983696E-01  0.20052439703E-02 -0.19118177655E-01  0.10204779716E+01  0.10202084556E+01 0.  0.
     999903    2    3    3    0    0 -0.19169187912E-01 -0.86982130035E-01 -0.95374474753E-01  0.13211051246E+00  0.20580290507E-01 0.  0.
         14    1    1    2    0    0 -0.13433983696E-01 -0.20052439703E-02  0.19118177655E-01  0.23452028445E-01  0.00000000000E+00 0.  1.
     999901    1    3    3    0    0  0.32603171608E-01  0.88987374005E-01  0.76256297098E-01  0.88836745909E+00  0.88000000000E+00 0.  1.
        -11    1    4    4    0    0 -0.59538345877E-02 -0.64045267587E-01 -0.74266109492E-01  0.98249481356E-01  0.51100000000E-03 0. -1.
         11    1    4    4    0    0 -0.13215353324E-01 -0.22936862448E-01 -0.21108365261E-01  0.33861031104E-01  0.51100000000E-03 0.  1.
</event>
<event>
 8    1  0.9952977E+004  0.1043930E+01  0.7957747E-01            NaN
         13   -1    0    0    0    0  0.00000000000E+00  0.00000000000E+00  0.74505805969E-08  0.10566000000E+00  0.10566000000E+00 0. -1.
     999900   -1    0    0    0    0 -0.00000000000E+00 -0.00000000000E+00 -0.74505805969E-08  0.93827000000E+00  0.93827000000E+00 0.  1.
     999902    2    1    2    0    0 -0.21315949550E-01 -0.99202999215E-02  0.60596690630E-02  0.10196503450E+01  0.10193612336E+01 0.  0.
     999903    2    3    3    0    0 -0.11721179398E+00 -0.59055705550E-01  0.50359362221E-02  0.13307753410E+00  0.21403000341E-01 0.  0.
         14    1    1    2    0    0  0.21315949550E-01  0.99202999215E-02 -0.60596690630E-02  0.24279654958E-01  0.00000000000E+00 0.  1.
     999901    1    3    3    0    0  0.95895844430E-01  0.49135405629E-01  0.10237328409E-02  0.88657281094E+00  0.88000000000E+00 0. -1.
        -11    1    4    4    0    0 -0.68018238393E-01 -0.30024445156E-01 -0.70638624744E-02  0.74686727971E-01  0.51100000000E-03 0.  1.
         11    1    4    4    0    0 -0.49193555587E-01 -0.29031260394E-01  0.12099798696E-01  0.58390806133E-01  0.51100000000E-03 0. -1.
</event>
<event>
 8    1  0.9952977E+004  0.1043930E+01  0.7957747E-01            NaN
         13   -1    0    0    0    0  0.00000000000E+00  0.00000000000E+00  0.74505805969E-08  0.10566000000E+00  0.10566000000E+00 0.  1.
     999900   -1    0    0    0    0 -0.00000000000E+00 -0.00000000000E+00 -0.74505805969E-08  0.93827000000E+00  0.93827000000E+00 0.  1.
     999902    2    1    2    0    0 -0.21183849934E-01  0.55290291294E-02  0.21739213131E-02  0.10219288274E+01  0.10216919676E+01 0.  0.
     999903    2    3    3    0    0  0.12778098662E+00  0.50609535462E-02  0.43378247346E-03  0.12940780822E+00  0.19814107857E-01 0.  0.
         14    1    1    2    0    0  0.21183849934E-01 -0.55290291294E-02 -0.21739213131E-02  0.22001172582E-01  0.00000000000E+00 0. -1.
     999901    1    3    3    0    0 -0.14896483655E+00  0.46807558315E-03  0.17401388396E-02  0.89252101920E+00  0.88000000000E+00 0.  1.
        -11    1    4    4    0    0  0.38237230807E-01  0.55390538463E-03 -0.88943539261E-02  0.39265293628E-01  0.51100000000E-03 0. -1.
         11    1    4    4    0    0  0.89543755809E-01  0.45070481616E-02  0.93281363996E-02  0.90142514594E-01  0.51100000000E-03 0.  1.
</event>
<event>
 8    1  0.9952977E+004  0.1043930E+01  0.7957747E-01            NaN
         13   -1    0    0    0    0  0.00000000000E+00  0.00000000000E+00  0.74505805969E-08  0.10566000000E+00  0.10566000000E+00 0.  1.
     999900   -1    0    0    0    0 -0.00000000000E+00 -0.00000000000E+00 -0.74505805969E-08  0.93827000000E+00  0.93827000000E+00 0.  1.
     999902    2    1    2    0    0 -0.22964049327E-02  0.22848931803E-01 -0.65149009061E-02  0.10200597027E+01  0.10197803714E+01 0.  0.
     999903    2    3    3    0    0  0.18690238923E-01  0.12779169477E+00 -0.26451633366E-01  0.13335180488E+00  0.20074179282E-01 0.  0.
         14    1    1    2    0    0  0.22964049327E-02 -0.22848931803E-01  0.65149009061E-02  0.23870297316E-01  0.00000000000E+00 0. -1.
     999901    1    3    3    0    0 -0.20986643856E-01 -0.10494276297E+00  0.19936732460E-01  0.88670789780E+00  0.88000000000E+00 0. -1.
        -11    1    4    4    0    0 -0.26336351239E-02  0.42544593245E-01 -0.12094327350E-01  0.44311537137E-01  0.51100000000E-03 0.  1.
         11    1    4    4    0    0  0.21323874047E-01  0.85247101528E-01 -0.14357306016E-01  0.89040267747E-01  0.51100000000E-03 0. -1.
</event>
<event>
 8    1  0.9952977E+004  0.1043930E+01  0.7957747E-01            NaN
         13   -1    0    0    0    0  0.00000000000E+00  0.00000000000E+00  0.74505805969E-08  0.10566000000E+00  0.10566000000E+00 0.  1.
     999900   -1    0    0    0    0 -0.00000000000E+00 -0.00000000000E+00 -0.74505805969E-08  0.93827000000E+00  0.93827000000E+00 0. -1.
     999902    2    1    2    0    0  0.12738233685E-01  0.19066778072E-01 -0.58749306628E-02  0.10202589326E+01  0.10199842989E+01 0.  0.
     999903    2    3    3    0    0 -0.64339231895E-01 -0.73262236309E-01 -0.83298823117E-01  0.12870969571E+00  0.10981794416E-01 0.  0.
         14    1    1    2    0    0 -0.12738233685E-01 -0.19066778072E-01  0.58749306628E-02  0.23671067440E-01  0.00000000000E+00 0.  1.
     999901    1    3    3    0    0  0.77077465579E-01  0.92329014381E-01  0.77423892454E-01  0.89154923685E+00  0.88000000000E+00 0.  1.
        -11    1    4    4    0    0 -0.25495230808E-01 -0.22526560480E-01 -0.25135988380E-01  0.42302857514E-01  0.51100000000E-03 0. -1.
         11    1    4    4    0    0 -0.38844001086E-01 -0.50735675829E-01 -0.58162834737E-01  0.86406838201E-01  0.51100000000E-03 0.  1.
</event>
<event>
 8    1  0.9952977E+004  0.1043930E+01  0.7957747E-01            NaN
         13   -1    0    0    0    0  0.00000000000E+00  0.00000000000E+00  0.74505805969E-08  0.10566000000E+00  0.10566000000E+00 0.  1.
     999900   -1    0    0    0    0 -0.00000000000E+00 -0.00000000000E+00 -0.74505805969E-08  0.93827000000E+00  0.93827000000E+00 0.  1.
     999902    2    1    2    0    0 -0.60045305503E-02  0.25021217458E-01  0.17167808521E-02  0.10181411837E+01  0.10178145248E+01 0.  0.
     999903    2    3    3    0    0  0.11829996461E+00  0.19454823604E-01  0.36327569377E-01  0.12871412151E+00  0.29567904742E-01 0.  0.
         14    1    1    2    0    0  0.60045305503E-02 -0.25021217458E-01 -0.17167808521E-02  0.25788816310E-01  0.00000000000E+00 0. -1.
     999901    1    3    3    0    0 -0.12430449516E+00  0.55663938540E-02 -0.34610788525E-01  0.88942706218E+00  0.88000000000E+00 0.  1.
        -11    1    4    4    0    0  0.28863899051E-01 -0.45751292350E-02  0.17945146723E-01  0.34297899175E-01  0.51100000000E-03 0.  1.
         11    1    4    4    0    0  0.89436065559E-01  0.24029952839E-01  0.18382422654E-01  0.94416222334E-01  0.51100000000E-03 0. -1.
</event>
<event>
 8    1  0.9952977E+004  0.1043930E+01  0.7957747E-01            NaN
         13   -1    0    0    0    0  0.00000000000E+00  0.00000000000E+00  0.74505805969E-08  0.10566000000E+00  0.10566000000E+00 0. -1.
     999900   -1    0    0    0    0 -0.00000000000E+00 -0.00000000000E+00 -0.74505805969E-08  0.93827000000E+00  0.93827000000E+00 0.  1.
     999902    2    1    2    0    0 -0.40902086357E-02 -0.25284539452E-01 -0.12958826039E-01  0.10152251413E+01  0.10148192541E+01 0.  0.
     999903    2    3    3    0    0  0.59743531957E-01 -0.47885258750E-01 -0.10096955632E+00  0.12824632101E+00  0.19747909624E-01 0.  0.
         14    1    1    2    0    0  0.40902086357E-02  0.25284539452E-01  0.12958826039E-01  0.28704858723E-01  0.00000000000E+00 0. -1.
     999901    1    3    3    0    0 -0.63833740593E-01  0.22600719298E-01  0.88010730279E-01  0.88697882026E+00  0.88000000000E+00 0. -1.
        -11    1    4    4    0    0  0.59977950953E-01 -0.42256218731E-01 -0.94797213796E-01  0.11987374811E+00  0.51100000000E-03 0. -1.
         11    1    4    4    0    0 -0.23441899599E-03 -0.56290400189E-02 -0.61723425221E-02  0.83725729027E-02  0.51100000000E-03 0.  1.
</event>
<event>
 8    1  0.9952977E+004  0.1043930E+01  0.7957747E-01            NaN
         13   -1    0    0    0    0  0.00000000000E+00  0.00000000000E+00  0.74505805969E-08  0.10566000000E+00  0.10566000000E+00 0. -1.
     999900   -1    0    0    0    0 -0.00000000000E+00 -0.00000000000E+00 -0.74505805969E-08  0.93827000000E+00  0.93827000000E+00 0.  1.
     999902    2    1    2    0    0 -0.22001887312E-01  0.37964263981E-02 -0.60102111248E-03  0.10215948903E+01  0.10213507051E+01 0.  0.
     999903    2    3    3    0    0 -0.74193606941E-02 -0.11687690979E+00 -0.56642632675E-01  0.13147390618E+00  0.19019495657E-01 0.  0.
         14    1    1    2    0    0  0.22001887312E-01 -0.37964263981E-02  0.60102111248E-03  0.22335109694E-01  0.00000000000E+00 0.  1.
     999901    1    3    3    0    0 -0.14582526618E-01  0.12067333619E+00  0.56041611563E-01  0.89012098412E+00  0.88000000000E+00 0. -1.
        -11    1    4    4    0    0 -0.67217489925E-02 -0.14903533781E-01 -0.11236964663E-01  0.19845093210E-01  0.51100000000E-03 0.  1.
         11    1    4    4    0    0 -0.69761170156E-03 -0.10197337601E+00 -0.45405668013E-01  0.11162881297E+00  0.51100000000E-03 0. -1.
</event>
<event>
 8    1  0.9952977E+004  0.1043930E+01  0.7957747E-01            NaN
         13   -1    0    0    0    0  0.00000000000E+00  0.00000000000E+00  0.74505805969E-08  0.10566000000E+00  0.10566000000E+00 0. -1.
     999900   -1    0    0    0    0 -0.00000000000E+00 -0.00000000000E+00 -0.74505805969E-08  0.93827000000E+00  0.93827000000E+00 0. -1.
     999902    2    1    2    0    0 -0.19923567372E-01 -0.10649478065E-01 -0.67876760781E-02  0.10203411792E+01  0.10200684730E+01 0.  0.
     999903    2    3    3    0    0 -0.18729478882E-01  0.12566688802E+00  0.15979232874E-01  0.12955393769E+00  0.19645018804E-01 0.  0.
         14    1    1    2    0    0  0.19923567372E-01  0.10649478065E-01  0.67876760781E-02  0.23588820793E-01  0.00000000000E+00 0. -1.
     999901    1    3    3    0    0 -0.11940884895E-02 -0.13631636608E+00 -0.22766908953E-01  0.89078724152E+00  0.88000000000E+00 0. -1.
        -11    1    4    4    0    0  0.71832929246E-04  0.43825406972E-01 -0.11779368203E-02  0.43844271147E-01  0.51100000000E-03 0.  1.
         11    1    4    4    0    0 -0.18801311811E-01  0.81841481047E-01  0.17157169695E-01  0.85709666542E-01  0.51100000000E-03 0. -1.
</event>
<event>
 8    1  0.9952977E+004  0.1043930E+01  0.7957747E-01            NaN
         13   -1    0    0    0    0  0.00000000000E+00  0.00000000000E+00  0.74505805969E-08  0.10566000000E+00  0.10566000000E+00 0. -1.
     999900   -1    0    0    0    0 -0.00000000000E+00 -0.00000000000E+00 -0.74505805969E-08  0.93827000000E+00  0.93827000000E+00 0. -1.
     999902    2    1    2    0    0 -0.58075195735E-02 -0.12329323818E-01  0.20226047090E-01  0.10195408120E+01  0.10192490544E+01 0.  0.
     999903    2    3    3    0    0 -0.12708294821E+00  0.63285638442E-02  0.25974785617E-01  0.13100893620E+00  0.17277888472E-01 0.  0.
         14    1    1    2    0    0  0.58075195735E-02  0.12329323818E-01 -0.20226047090E-01  0.24389187979E-01  0.00000000000E+00 0.  1.
     999901    1    3    3    0    0  0.12127542863E+00 -0.18657887662E-01 -0.57487385273E-02  0.88853187582E+00  0.88000000000E+00 0. -1.
        -11    1    4    4    0    0 -0.56930057316E-01  0.96853147840E-02  0.17015114397E-01  0.60204750538E-01  0.51100000000E-03 0.  1.
         11    1    4    4    0    0 -0.70152890891E-01 -0.33567509398E-02  0.89596712203E-02  0.70804185657E-01  0.51100000000E-03 0. -1.
</event>
<event>
 8    1  0.9952977E+004  0.1043930E+01  0.7957747E-01            NaN
         13   -1    0    0    0    0  0.00000000000E+00  0.00000000000E+00  0.74505805969E-08  0.10566000000E+00  0.10566000000E+00 0. -1.
     999900   -1    0    0    0    0 -0.00000000000E+00 -0.00000000000E+00 -0.74505805969E-08  0.93827000000E+00  0.93827000000E+00 0.  1.
     999902    2    1    2    0    0 -0.22093573894E-01  0.51455756398E-02  0.75613294866E-02  0.10200181481E+01  0.10197378319E+01 0.  0.
     999903    2    3    3    0    0 -0.68590428965E-02  0.56273927056E-01 -0.11517389015E+00  0.12990010349E+00  0.19879903909E-01 0.  0.
         14    1    1    2    0    0  0.22093573894E-01 -0.51455756398E-02 -0.75613294866E-02  0.23911851866E-01  0.00000000000E+00 0.  1.
     999901    1    3    3    0    0 -0.15234530997E-01 -0.51128351416E-01  0.12273521964E+00  0.89011804464E+00  0.88000000000E+00 0. -1.
        -11    1    4    4    0    0  0.40755036506E-02  0.26695527042E-01 -0.38848837658E-01  0.47315475295E-01  0.51100000000E-03 0. -1.
         11    1    4    4    0    0 -0.10934546547E-01  0.29578400013E-01 -0.76325052494E-01  0.82584628199E-01  0.51100000000E-03 0.  1.
</event>
<event>
 8    1  0.9952977E+004  0.1043930E+01  0.7957747E-01            NaN
         13   -1    0    0    0    0  0.00000000000E+00  0.00000000000E+00  0.74505805969E-08  0.10566000000E+00  0.10566000000E+00 0.  1.
     999900   -1    0    0    0    0 -0.00000000000E+00 -0.00000000000E+00 -0.74505805969E-08  0.93827000000E+00  0.93827000000E+00 0.  1.
     999902    2    1    2    0    0  0.11123497581E-01 -0.20974235445E-02 -0.19970885277E-01  0.10209742242E+01  0.10207161206E+01 0.  0.
     999903    2    3    3    0    0  0.11054239442E+00  0.38139381734E-01 -0.61850894428E-01  0.13347377196E+00  0.17761792051E-01 0.  0.
         14    1    1    2    0    0 -0.11123497581E-01  0.20974235445E-02  0.19970885277E-01  0.22955775803E-01  0.00000000000E+00 0.  1.
     999901    1    3    3    0    0 -0.99418896841E-01 -0.40236805279E-01  0.41880009152E-01  0.88750045223E+00  0.88000000000E+00 0.  1.
        -11    1    4    4    0    0  0.45831745184E-01  0.24070574753E-01 -0.31735704791E-01  0.60723615794E-01  0.51100000000E-03 0. -1.
         11    1    4    4    0    0  0.64710649239E-01  0.14068806981E-01 -0.30115189637E-01  0.72750156170E-01  0.51100000000E-03 0.  1.
</event>
<event>
 8    1  0.9952977E+004  0.1043930E+01  0.7957747E-01            NaN
         13   -1    0    0    0    0  0.00000000000E+00  0.00000000000E+00  0.74505805969E-08  0.10566000000E+00  0.10566000000E+00 0.  1.
     999900   -1    0    0    0    0 -0.00000000000E+00 -0.00000000000E+00 -0.74505805969E-08  0.93827000000E+00  0.93827000000E+00 0. -1.
     999902    2    1    2    0    0 -0.55362361836E-02  0.79329201768E-02  0.21761304171E-01  0.10201153933E+01  0.10198373793E+01 0.  0.
     999903    2    3    3    0    0 -0.12007658732E-01 -0.60029851210E-01  0.11536012565E+00  0.13252226748E+00  0.22503908178E-01 0.  0.
         14    1    1    2    0    0  0.55362361836E-02 -0.79329201768E-02 -0.21761304171E-01  0.23814606712E-01  0.00000000000E+00 0. -1.
     999901    1    3    3    0    0  0.64714225485E-02  0.67962771387E-01 -0.93598821477E-01  0.88759312581E+00  0.88000000000E+00 0.  1.
        -11    1    4    4    0    0 -0.49782112874E-02 -0.31971717430E-01  0.83162330140E-01  0.89236806186E-01  0.51100000000E-03 0. -1.
         11    1    4    4    0    0 -0.70294474447E-02 -0.28058133780E-01  0.32197795508E-01  0.43285461291E-01  0.51100000000E-03 0.  1.
</event>
<event>
 8    1  0.9952977E+004  0.1043930E+01  0.7957747E-01            NaN
         13   -1    0    0    0    0  0.00000000000E+00  0.00000000000E+00  0.74505805969E-08  0.10566000000E+00  0.10566000000E+00 0. -1.
     999900   -1    0    0    0    0 -0.00000000000E+00 -0.00000000000E+00 -0.74505805969E-08  0.93827000000E+00  0.93827000000E+00 0. -1.
     999902    2    1    2    0    0  0.19469675721E-01  0.86838035561E-02  0.93096394037E-02  0.10206674528E+01  0.10204023241E+01 0.  0.
     999903    2    3    3    0    0 -0.12242218866E+00  0.32510042461E-01 -0.10065211674E-01  0.12877262957E+00  0.20904222138E-01 0.  0.
         14    1    1    2    0    0 -0.19469675721E-01 -0.86838035561E-02 -0.93096394037E-02  0.23262547211E-01  0.00000000000E+00 0.  1.
     999901    1    3    3    0    0  0.14189186438E+00 -0.23826238905E-01  0.19374851078E-01  0.89189482322E+00  0.88000000000E+00 0.  1.
        -11    1    4    4    0    0 -0.19157007743E-01  0.11923305558E-01 -0.61862614262E-02  0.23402715922E-01  0.51100000000E-03 0.  1.
         11    1    4    4    0    0 -0.10326518091E+00  0.20586736902E-01 -0.38789502482E-02  0.10536991364E+00  0.51100000000E-03 0. -1.
</event>
<event>
 8    1  0.9952977E+004  0.1043930E+01  0.7957747E-01            NaN
         13   -1    0    0    0    0  0.00000000000E+00  0.00000000000E+00  0.74505805969E-08  0.10566000000E+00  0.10566000000E+00 0. -1.
     999900   -1    0    0    0    0 -0.00000000000E+00 -0.00000000000E+00 -0.74505805969E-08  0.93827000000E+00  0.93827000000E+00 0. -1.
     999902    2    1    2    0    0  0.10025148134E-01 -0.22102076372E-01 -0.47848023093E-02  0.10191933934E+01  0.10188931609E+01 0.  0.
     999903    2    3    3    0    0  0.44174047268E-01  0.11151440006E+00  0.37966760431E-01  0.12742705277E+00  0.20232918894E-01 0.  0.
         14    1    1    2    0    0 -0.10025148134E-01  0.22102076372E-01  0.47848023093E-02  0.24736606642E-01  0.00000000000E+00 0. -1.
     999901    1    3    3    0    0 -0.34148899134E-01 -0.13361647643E+00 -0.42751562740E-01  0.89176634059E+00  0.88000000000E+00 0. -1.
        -11    1    4    4    0    0  0.52811335015E-02  0.38329814871E-01  0.14037980978E-01  0.41162982278E-01  0.51100000000E-03 0.  1.
         11    1    4    4    0    0  0.38892913766E-01  0.73184585192E-01  0.23928779453E-01  0.86264070493E-01  0.51100000000E-03 0. -1.
</event>
<event>
 8    1  0.9952977E+004  0.1043930E+01  0.7957747E-01            NaN
         13   -1    0    0    0    0  0.00000000000E+00  0.00000000000E+00  0.74505805969E-08  0.10566000000E+00  0.10566000000E+00 0.  1.
     999900   -1    0    0    0    0 -0.00000000000E+00 -0.00000000000E+00 -0.74505805969E-08  0.93827000000E+00  0.93827000000E+00 0.  1.
     999902    2    1    2    0    0  0.11898668099E-02  0.13647870270E-01  0.18222284398E-01  0.10211323730E+01  0.10208778534E+01 0.  0.
     999903    2    3    3    0    0  0.75893742218E-01  0.61651152941E-01 -0.84444523811E-01  0.13072490584E+00  0.19934859893E-01 0.  0.
         14    1    1    2    0    0 -0.11898668099E-02 -0.13647870270E-01 -0.18222284398E-01  0.22797626952E-01  0.00000000000E+00 0. -1.
     999901    1    3    3    0    0 -0.74703875408E-01 -0.48003282671E-01  0.10266680821E+00  0.89040746721E+00  0.88000000000E+00 0. -1.
        -11    1    4    4    0    0  0.26060950491E-01  0.15172448951E-01 -0.36775966045E-01  0.47561635245E-01  0.51100000000E-03 0.  1.
         11    1    4    4    0    0  0.49832791727E-01  0.46478703990E-01 -0.47668557767E-01  0.83163270597E-01  0.51100000000E-03 0. -1.
</event>
<event>
 8    1  0.9952977E+004  0.1043930E+01  0.7957747E-01            NaN
         13   -1    0    0    0    0  0.00000000000E+00  0.00000000000E+00  0.74505805969E-08  0.10566000000E+00  0.10566000000E+00 0. -1.
     999900   -1    0    0    0    0 -0.00000000000E+00 -0.00000000000E+00 -0.74505805969E-08  0.93827000000E+00  0.93827000000E+00 0. -1.
     999902    2    1    2    0    0 -0.15339698999E-01  0.19197686030E-02 -0.18689667139E-01  0.10196751956E+01  0.10193866828E+01 0.  0.
     999903    2    3    3    0    0 -0.34869585762E-01 -0.12350253297E+00 -0.12713054709E-01  0.13054759506E+00  0.20304904699E-01 0.  0.
         14    1    1    2    0    0  0.15339698999E-01 -0.19197686030E-02  0.18689667139E-01  0.24254804362E-01  0.00000000000E+00 0. -1.
     999901    1    3    3    0    0  0.19529886763E-01  0.12542230157E+00 -0.59766124302E-02  0.88912760058E+00  0.88000000000E+00 0.  1.
        -11    1    4    4    0    0 -0.29186541374E-01 -0.67097921541E-01 -0.91607969296E-02  0.73743925810E-01  0.51100000000E-03 0. -1.
         11    1    4    4    0    0 -0.56830443878E-02 -0.56404611431E-01 -0.35522577797E-02  0.56803669252E-01  0.51100000000E-03 0.  1.
</event>
<event>
 8    1  0.9952977E+004  0.1043930E+01  0.7957747E-01            NaN
         13   -1    0    0    0    0  0.00000000000E+00  0.00000000000E+00  0.74505805969E-08  0.10566000000E+00  0.10566000000E+00 0.  1.
     999900   -1    0    0    0    0 -0.00000000000E+00 -0.00000000000E+00 -0.74505805969E-08  0.93827000000E+00  0.93827000000E+00 0.  1.
     999902    2    1    2    0    0  0.80717424360E-02 -0.16931941324E-01 -0.14941184884E-01  0.10199491187E+01  0.10196671624E+01 0.  0.
     999903    2    3    3    0    0 -0.57238956312E-01  0.86946371611E-02  0.11244473649E+00  0.12801336883E+00  0.19791639642E-01 0.  0.
         14    1    1    2    0    0 -0.80717424360E-02  0.16931941324E-01  0.14941184884E-01  0.23980881316E-01  0.00000000000E+00 0.  1.
     999901    1    3    3    0    0  0.65310698748E-01 -0.25626578485E-01 -0.12738592138E+00  0.89193574985E+00  0.88000000000E+00 0.  1.
        -11    1    4    4    0    0 -0.35877367699E-01  0.22383037970E-02  0.87172156472E-01  0.94294440461E-01  0.51100000000E-03 0.  1.
         11    1    4    4    0    0 -0.21361588613E-01  0.64563333642E-02  0.25272580023E-01  0.33718928373E-01  0.51100000000E-03 0. -1.
</event>
<event>
 8    1  0.9952977E+004  0.1043930E+01  0.7957747E-01            NaN
         13   -1    0    0    0    0  0.00000000000E+00  0.00000000000E+00  0.74505805969E-08  0.10566000000E+00  0.10566000000E+00 0. -1.
     999900   -1    0    0    0    0 -0.00000000000E+00 -0.00000000000E+00 -0.74505805969E-08  0.93827000000E+00  0.93827000000E+00 0. -1.
     999902    2    1    2    0    0  0.19302732645E-01 -0.13146606047E-01  0.45668991311E-03  0.10205711194E+01  0.10203037648E+01 0.  0.
     999903    2    3    3    0    0 -0.95182959816E-02 -0.12207420081E-01  0.12840530724E+00  0.13085072373E+00  0.19858748949E-01 0.  0.
         14    1    1    2    0    0 -0.19302732645E-01  0.13146606047E-01 -0.45668991311E-03  0.23358880619E-01  0.00000000000E+00 0. -1.
     999901    1    3    3    0    0  0.28821028626E-01 -0.93918596603E-03 -0.12794861733E+00  0.88972039565E+00  0.88000000000E+00 0. -1.
        -11    1    4    4    0    0 -0.13339663256E-01 -0.66939326339E-02  0.50670762304E-01  0.52825586825E-01  0.51100000000E-03 0. -1.
         11    1    4    4    0    0  0.38213672745E-02 -0.55134874466E-02  0.77734544936E-01  0.78025136905E-01  0.51100000000E-03 0.  1.
</event>
<event>
 8    1  0.9952977E+004  0.1043930E+01  0.7957747E-01            NaN
         13   -1    0    0    0    0  0.00000000000E+00  0.00000000000E+00  0.74505805969E-08  0.10566000000E+00  0.10566000000E+00 0. -1.
     999900   -1    0    0    0    0 -0.00000000000E+00 -0.00000000000E+00 -0.74505805969E-08  0.93827000000E+00  0.93827000000E+00 0. -1.
     999902    2    1    2    0    0  0.18364387394E-01  0.41916924301E-02  0.13987324012E-01  0.10204679830E+01  0.10201982347E+01 0.  0.
     999903    2    3    3    0    0 -0.74777334389E-02  0.14763897672E-02  0.13062573675E+00  0.13239157444E+00  0.20158116364E-01 0.  0.
         14    1    1    2    0    0 -0.18364387394E-01 -0.41916924301E-02 -0.13987324012E-01  0.23462017024E-01  0.00000000000E+00 0.  1.
     999901    1    3    3    0    0  0.25842120833E-01  0.27153026629E-02 -0.11663841274E+00  0.88807640854E+00  0.88000000000E+00 0. -1.
        -11    1    4    4    0    0 -0.13926517567E-01 -0.16597857412E-02  0.96643962662E-01  0.97657664422E-01  0.51100000000E-03 0. -1.
         11    1    4    4    0    0  0.64487841281E-02  0.31361755084E-02  0.33981774091E-01  0.34733910015E-01  0.51100000000E-03 0.  1.
</event>
<event>
 8    1  0.9952977E+004  0.1043930E+01  0.7957747E-01            NaN
         13   -1    0    0    0    0  0.00000000000E+00  0.00000000000E+00  0.74505805969E-08  0.10566000000E+00  0.10566000000E+00 0.  1.
     999900   -1    0    0    0    0 -0.00000000000E+00 -0.00000000000E+00 -0.74505805969E-08  0.93827000000E+00  0.93827000000E+00 0.  1.
     999902    2    1    2    0    0  0.15157266760E-02  0.22466594603E-01  0.16678366153E-01  0.10159083441E+01  0.10155218119E+01 0.  0.
     999903    2    3    3    0    0  0.60857175492E-01  0.11153807168E+00 -0.10577375551E-01  0.12900473548E+00  0.19646975823E-01 0.  0.
         14    1    1    2    0    0 -0.15157266760E-02 -0.22466594603E-01 -0.16678366153E-01  0.28021655874E-01  0.00000000000E+00 0. -1.
     999901    1    3    3    0    0 -0.59341448817E-01 -0.89071477078E-01  0.27255741704E-01  0.88690360865E+00  0.88000000000E+00 0. -1.
        -11    1    4    4    0    0  0.11809552518E-01  0.33435328728E-01  0.37872035133E-02  0.35664979592E-01  0.51100000000E-03 0.  1.
         11    1    4    4    0    0  0.49047622974E-01  0.78102742953E-01 -0.14364579064E-01  0.93339755886E-01  0.51100000000E-03 0. -1.
</event>
<event>
 8    1  0.9952977E+004  0.1043930E+01  0.7957747E-01            NaN
         13   -1    0    0    0    0  0.00000000000E+00  0.00000000000E+00  0.74505805969E-08  0.10566000000E+00  0.10566000000E+00 0. -1.
     999900   -1    0    0    0    0 -0.00000000000E+00 -0.00000000000E+00 -0.74505805969E-08  0.93827000000E+00  0.93827000000E+00 0.  1.
     999902    2    1    2    0    0 -0.12369934934E-01  0.65536852672E-02 -0.17756822090E-01  0.10213187017E+01  0.10210683717E+01 0.  0.
     999903    2    3    3    0    0  0.70234098440E-01  0.77679423039E-01  0.74083981750E-01  0.12984967241E+00  0.20139010047E-01 0.  0.
         14    1    1    2    0    0  0.12369934934E-01 -0.65536852672E-02  0.17756822090E-01  0.22611298317E-01  0.00000000000E+00 0. -1.
     999901    1    3    3    0    0 -0.82604033373E-01 -0.71125737772E-01 -0.91840803840E-01  0.89146902927E+00  0.88000000000E+00 0.  1.
        -11    1    4    4    0    0  0.68444413915E-01  0.72687215175E-01  0.64437945748E-01  0.11883004258E+00  0.51100000000E-03 0.  1.
         11    1    4    4    0    0  0.17896845249E-02  0.49922078638E-02  0.96460360025E-02  0.11019629831E-01  0.51100000000E-03 0. -1.
</event>
<event>
 8    1  0.9952977E+004  0.1043930E+01  0.7957747E-01            NaN
         13   -1    0    0    0    0  0.00000000000E+00  0.00000000000E+00  0.74505805969E-08  0.10566000000E+00  0.10566000000E+00 0.  1.
     999900   -1    0    0    0    0 -0.00000000000E+00 -0.00000000000E+00 -0.74505805969E-08  0.93827000000E+00  0.93827000000E+00 0.  1.
     999902    2    1    2    0    0  0.36336410488E-02  0.62252578629E-02  0.25817270737E-01  0.10171253614E+01  0.10167721043E+01 0.  0.
     999903    2    3    3    0    0 -0.82596561909E-01 -0.22091310943E-01 -0.88883169273E-01  0.12505268111E+00  0.20681808750E-01 0.  0.
         14    1    1    2    0    0 -0.36336410488E-02 -0.62252578629E-02 -0.25817270737E-01  0.26804638611E-01  0.00000000000E+00 0. -1.
     999901    1    3    3    0    0  0.86230202958E-01  0.28316568806E-01  0.11470044001E+00  0.89207268028E+00  0.88000000000E+00 0. -1.
        -11    1    4    4    0    0 -0.66232721824E-01 -0.15771654684E-01 -0.80998236335E-01  0.10581348658E+00  0.51100000000E-03 0.  1.
         11    1    4    4    0    0 -0.16363840086E-01 -0.63196562590E-02 -0.78849329381E-02  0.19239194526E-01  0.51100000000E-03 0. -1.
</event>
<event>
 8    1  0.9952977E+004  0.1043930E+01  0.7957747E-01            NaN
         13   -1    0    0    0    0  0.00000000000E+00  0.00000000000E+00  0.74505805969E-08  0.10566000000E+00  0.10566000000E+00 0.  1.
     999900   -1    0    0    0    0 -0.00000000000E+00 -0.00000000000E+00 -0.74505805969E-08  0.93827000000E+00  0.93827000000E+00 0.  1.
     999902    2    1    2    0    0 -0.52810179498E-02  0.13134014225E-01 -0.20283451989E-01  0.10191952086E+01  0.10188950208E+01 0.  0.
     999903    2    3    3    0    0  0.93425741511E-01  0.55749473899E-01 -0.70705757001E-01  0.13121913314E+00  0.19564861695E-01 0.  0.
         14    1    1    2    0    0  0.52810179498E-02 -0.13134014225E-01  0.20283451989E-01  0.24734791385E-01  0.00000000000E+00 0.  1.
     999901    1    3    3    0    0 -0.98706759461E-01 -0.42615459674E-01  0.50422305012E-01  0.88797607547E+00  0.88000000000E+00 0. -1.
        -11    1    4    4    0    0  0.17219521362E-01  0.63615132130E-02 -0.20229634411E-01  0.27321786100E-01  0.51100000000E-03 0. -1.
         11    1    4    4    0    0  0.76206220149E-01  0.49387960686E-01 -0.50476122590E-01  0.10389734704E+00  0.51100000000E-03 0.  1.
</event>
<event>
 8    1  0.9952977E+004  0.1043930E+01  0.7957747E-01            NaN
         13   -1    0    0    0    0  0.00000000000E+00  0.00000000000E+00  0.74505805969E-08  0.10566000000E+00  0.10566000000E+00 0. -1.
     999900   -1    0    0    0    0 -0.00000000000E+00 -0.00000000000E+00 -0.74505805969E-08  0.93827000000E+00  0.93827000000E+00 0. -1.
     999902    2    1    2    0    0  0.41707011386E-02  0.21522107257E-01 -0.85639305524E-02  0.10203941390E+01  0.10201226701E+01 0.  0.
     999903    2    3    3    0    0 -0.79229823748E-01  0.85163968998E-01 -0.60472147913E-01  0.13264395047E+00  0.20180939942E-01 0.  0.
         14    1    1    2    0    0 -0.41707011386E-02 -0.21522107257E-01  0.85639305524E-02  0.23535861048E-01  0.00000000000E+00 0.  1.
     999901    1    3    3    0    0  0.83400524887E-01 -0.63641861741E-01  0.51908217361E-01  0.88775018848E+00  0.88000000000E+00 0.  1.
        -11    1    4    4    0    0 -0.11276894849E-01  0.22397671191E-01 -0.17885079560E-01  0.30805214235E-01  0.51100000000E-03 0. -1.
         11    1    4    4    0    0 -0.67952928899E-01  0.62766297807E-01 -0.42587068353E-01  0.10183873624E+00  0.51100000000E-03 0.  1.
</event>
<event>
 8    1  0.9952977E+004  0.1043930E+01  0.7957747E-01            NaN
         13   -1    0    0    0    0  0.00000000000E+00  0.00000000000E+00  0.74505805969E-08  0.10566000000E+00  0.10566000000E+00 0.  1.
     999900   -1    0    0    0    0 -0.00000000000E+00 -0.00000000000E+00 -0.74505805969E-08  0.93827000000E+00  0.93827000000E+00 0. -1.
     999902    2    1    2    0    0 -0.16624276527E-01 -0.11730036566E-01  0.12146586998E-01  0.10202340108E+01  0.10199587918E+01 0.  0.
     999903    2    3    3    0    0 -0.76554018765E-01 -0.94551203905E-01 -0.47929166119E-01  0.13228130043E+00  0.20017230812E-01 0.  0.
         14    1    1    2    0    0  0.16624276527E-01  0.11730036566E-01 -0.12146586998E-01  0.23695989188E-01  0.00000000000E+00 0. -1.
     999901    1    3    3    0    0  0.59929742238E-01  0.82821167338E-01  0.60075753117E-01  0.88795271038E+00  0.88000000000E+00 0.  1.
        -11    1    4    4    0    0 -0.51157230647E-01 -0.69848847989E-01 -0.25154335494E-01  0.90160554169E-01  0.51100000000E-03 0.  1.
         11    1    4    4    0    0 -0.25396788118E-01 -0.24702355915E-01 -0.22774830625E-01  0.42120746260E-01  0.51100000000E-03 0. -1.
</event>
<event>
 8    1  0.9952977E+004  0.1043930E+01  0.7957747E-01            NaN
         13   -1    0    0    0    0  0.00000000000E+00  0.00000000000E+00  0.74505805969E-08  0.10566000000E+00  0.10566000000E+00 0. -1.
     999900   -1    0    0    0    0 -0.00000000000E+00 -0.00000000000E+00 -0.74505805969E-08  0.93827000000E+00  0.93827000000E+00 0.  1.
     999902    2    1    2    0    0  0.20745059266E-01 -0.65018337538E-02  0.79056777444E-02  0.10207970999E+01  0.10205349519E+01 0.  0.
     999903    2    3    3    0    0 -0.35817675613E-03 -0.77856595017E-01  0.10535730758E+00  0.13229630155E+00  0.18449158884E-01 0.  0.
         14    1    1    2    0    0 -0.20745059266E-01  0.65018337538E-02 -0.79056777444E-02  0.23132900093E-01  0.00000000000E+00 0. -1.
     999901    1    3    3    0    0  0.21103236023E-01  0.71354761264E-01 -0.97451629840E-01  0.88850079836E+00  0.88000000000E+00 0.  1.
        -11    1    4    4    0    0 -0.56577428623E-02 -0.63964909381E-01  0.92662193917E-01  0.11273891515E+00  0.51100000000E-03 0.  1.
         11    1    4    4    0    0  0.52995661062E-02 -0.13891685636E-01  0.12695113667E-01  0.19557386399E-01  0.51100000000E-03 0. -1.
</event>
<event>
 8    1  0.9952977E+004  0.1043930E+01  0.7957747E-01            NaN
         13   -1    0    0    0    0  0.00000000000E+00  0.00000000000E+00  0.74505805969E-08  0.10566000000E+00  0.10566000000E+00 0. -1.
     999900   -1    0    0    0    0 -0.00000000000E+00 -0.00000000000E+00 -0.74505805969E-08  0.93827000000E+00  0.93827000000E+00 0. -1.
     999902    2    1    2    0    0 -0.89875366036E-03 -0.55281576057E-02  0.22593835648E-01  0.10206523349E+01  0.10203868575E+01 0.  0.
     999903    2    3    3    0    0  0.64952741367E-01  0.62814606243E-01  0.95077456969E-01  0.13258644310E+00  0.19362559262E-01 0.  0.
         14    1    1    2    0    0  0.89875366036E-03  0.55281576057E-02 -0.22593835648E-01  0.23277665131E-01  0.00000000000E+00 0.  1.
     999901    1    3    3    0    0 -0.65851495027E-01 -0.68342763848E-01 -0.72483621321E-01  0.88806589177E+00  0.88000000000E+00 0.  1.
        -11    1    4    4    0    0  0.35898349054E-01  0.45395302192E-01  0.52200887265E-01  0.77939840122E-01  0.51100000000E-03 0. -1.
         11    1    4    4    0    0  0.29054392313E-01  0.17419304051E-01  0.42876569704E-01  0.54646602976E-01  0.51100000000E-03 0.  1.
</event>
<event>
 8    1  0.9952977E+004  0.1043930E+01  0.7957747E-01            NaN
         13   -1    0    0    0    0  0.00000000000E+00  0.00000000000E+00  0.74505805969E-08  0.10566000000E+00  0.10566000000E+00 0. -1.
     999900   -1    0    0    0    0 -0.00000000000E+00 -0.00000000000E+00 -0.74505805969E-08  0.93827000000E+00  0.93827000000E+00 0.  1.
     999902    2    1    2    0    0  0.16762547190E-01 -0.19134795169E-01  0.65660857776E-02  0.10176576408E+01  0.10173184541E+01 0.  0.
     999903    2    3    3    0    0  0.60068165210E-01 -0.89376993650E-01 -0.70862688680E-01  0.13041215162E+00  0.19732642407E-01 0.  0.
         14    1    1    2    0    0 -0.16762547190E-01  0.19134795169E-01 -0.65660857776E-02  0.26272359180E-01  0.00000000000E+00 0. -1.
     999901    1    3    3    0    0 -0.43305618020E-01  0.70242198481E-01  0.77428774458E-01  0.88724548920E+00  0.88000000000E+00 0. -1.
        -11    1    4    4    0    0  0.34215741705E-02 -0.35065303456E-02 -0.93042402829E-02  0.10527722124E-01  0.51100000000E-03 0. -1.
         11    1    4    4    0    0  0.56646591039E-01 -0.85870463304E-01 -0.61558448397E-01  0.11988442949E+00  0.51100000000E-03 0.  1.
</event>
<event>
 8    1  0.9952977E+004  0.1043930E+01  0.7957747E-01            NaN
         13   -1    0    0    0    0  0.00000000000E+00  0.00000000000E+00  0.74505805969E-08  0.10566000000E+00  0.10566000000E+00 0. -1.
     999900   -1    0    0    0    0 -0.00000000000E+00 -0.00000000000E+00 -0.74505805969E-08  0.93827000000E+00  0.93827000000E+00 0. -1.
     999902    2    1    2    0    0  0.15552075290E-01 -0.11950798799E-01 -0.48827211259E-03  0.10243104422E+01  0.10241225293E+01 0.  0.
     999903    2    3    3    0    0  0.95671173315E-01  0.91500698529E-01  0.12466929136E-01  0.13454130396E+00  0.20508215763E-01 0.  0.
         14    1    1    2    0    0 -0.15552075290E-01  0.11950798799E-01  0.48827211259E-03  0.19619557779E-01  0.00000000000E+00 0.  1.
     999901    1    3    3    0    0 -0.80119098024E-01 -0.10345149733E+00 -0.12955201249E-01  0.88976913826E+00  0.88000000000E+00 0.  1.
        -11    1    4    4    0    0  0.20082780677E-01  0.31434648598E-01  0.10647783831E-02  0.37320906824E-01  0.51100000000E-03 0.  1.
         11    1    4    4    0    0  0.75588392638E-01  0.60066049931E-01  0.11402150753E-01  0.97220397133E-01  0.51100000000E-03 0. -1.
</event>
<event>
 8    1  0.9952977E+004  0.1043930E+01  0.7957747E-01            NaN
         13   -1    0    0    0    0  0.00000000000E+00  0.00000000000E+00  0.74505805969E-08  0.10566000000E+00  0.10566000000E+00 0.  1.
     999900   -1    0    0    0    0 -0.00000000000E+00 -0.00000000000E+00 -0.74505805969E-08  0.93827000000E+00  0.93827000000E+00 0. -1.
     999902    2    1    2    0    0  0.43926622942E-02  0.78596529612E-02  0.22059186329E-01  0.10201040199E+01  0.10198257371E+01 0.  0.
     999903    2    3    3    0    0  0.34610442931E-01  0.12507260750E+00 -0.55175185820E-02  0.13139008074E+00  0.19795716697E-01 0.  0.
         14    1    1    2    0    0 -0.43926622942E-02 -0.78596529612E-02 -0.22059186329E-01  0.23825980110E-01  0.00000000000E+00 0. -1.
     999901    1    3    3    0    0 -0.30217780637E-01 -0.11721295454E+00  0.27576704911E-01  0.88871393915E+00  0.88000000000E+00 0.  1.
        -11    1    4    4    0    0  0.32356338788E-01  0.82794035973E-01 -0.52344098199E-02  0.89047432415E-01  0.51100000000E-03 0.  1.
         11    1    4    4    0    0  0.22541041426E-02  0.42278571529E-01 -0.28310876216E-03  0.42342648330E-01  0.51100000000E-03 0. -1.
</event>
<event>
 8    1  0.9952977E+004  0.1043930E+01  0.7957747E-01            NaN
         13   -1    0    0    0    0  0.00000000000E+00  0.00000000000E+00  0.74505805969E-08  0.10566000000E+00  0.10566000000E+00 0.  1.
     999900   -1    0    0    0    0 -0.00000000000E+00 -0.00000000000E+00 -0.74505805969E-08  0.93827000000E+00  0.93827000000E+00 0. -1.
     999902    2    1    2    0    0 -0.91789452797E-02  0.59433436553E-02 -0.20897593861E-01  0.10203442882E+01  0.10200716547E+01 0.  0.
     999903    2    3    3    0    0  0.51218426382E-02  0.85222126531E-01 -0.10016701085E+00  0.13311642662E+00  0.19937624039E-01 0.  0.
         14    1    1    2    0    0  0.91789452797E-02 -0.59433436553E-02  0.20897593861E-01  0.23585711764E-01  0.00000000000E+00 0. -1.
     999901    1    3    3    0    0 -0.14300787918E-01 -0.79278782875E-01  0.79269416988E-01  0.88722786161E+00  0.88000000000E+00 0.  1.
        -11    1    4    4    0    0 -0.37970879600E-02  0.51525015128E-01 -0.70079370541E-01  0.87066781021E-01  0.51100000000E-03 0. -1.
         11    1    4    4    0    0  0.89189305981E-02  0.33697111402E-01 -0.30087640309E-01  0.46049645604E-01  0.51100000000E-03 0.  1.
</event>
<event>
 8    1  0.9952977E+004  0.1043930E+01  0.7957747E-01            NaN
         13   -1    0    0    0    0  0.00000000000E+00  0.00000000000E+00  0.74505805969E-08  0.10566000000E+00  0.10566000000E+00 0. -1.
     999900   -1    0    0    0    0 -0.00000000000E+00 -0.00000000000E+00 -0.74505805969E-08  0.93827000000E+00  0.93827000000E+00 0. -1.
     999902    2    1    2    0    0  0.13116894092E-01 -0.18108625883E-01 -0.62549901352E-02  0.10207114698E+01  0.10204473551E+01 0.  0.
     999903    2    3    3    0    0 -0.11048872617E+00 -0.67406439709E-01 -0.15392314052E-02  0.13069413168E+00  0.18088673212E-01 0.  0.
         14    1    1    2    0    0 -0.13116894092E-01  0.18108625883E-01  0.62549901352E-02  0.23218530177E-01  0.00000000000E+00 0. -1.
     999901    1    3    3    0    0  0.12360562026E+00  0.49297813827E-01 -0.47157587301E-02  0.89001733814E+00  0.88000000000E+00 0.  1.
        -11    1    4    4    0    0 -0.74495580283E-01 -0.50851107415E-01  0.58586277550E-02  0.90388114524E-01  0.51100000000E-03 0. -1.
         11    1    4    4    0    0 -0.35993145885E-01 -0.16555332294E-01 -0.73978591602E-02  0.40306017160E-01  0.51100000000E-03 0.  1.
</event>
<event>
 8    1  0.9952977E+004  0.1043930E+01  0.7957747E-01            NaN
         13   -1    0    0    0    0  0.00000000000E+00  0.00000000000E+00  0.74505805969E-08  0.10566000000E+00  0.10566000000E+00 0. -1.
     999900   -1    0    0    0    0 -0.00000000000E+00 -0.00000000000E+00 -0.74505805969E-08  0.93827000000E+00  0.93827000000E+00 0. -1.
     999902    2    1    2    0    0  0.56470564662E-02  0.72633500411E-02  0.16597827050E-01  0.10249528199E+01  0.10247771220E+01 0.  0.
     999903    2    3    3    0    0  0.11573391076E+00 -0.53186094983E-01 -0.39062012944E-01  0.13429504689E+00  0.16918036684E-01 0.  0.
         14    1    1    2    0    0 -0.56470564662E-02 -0.72633500411E-02 -0.16597827050E-01  0.18977180068E-01  0.00000000000E+00 0.  1.
     999901    1    3    3    0    0 -0.11008685429E+00  0.60449445024E-01  0.55659839995E-01  0.89065777304E+00  0.88000000000E+00 0.  1.
        -11    1    4    4    0    0  0.25343029192E-01 -0.44477102098E-02 -0.94598676152E-02  0.27418998359E-01  0.51100000000E-03 0.  1.
         11    1    4    4    0    0  0.90390881566E-01 -0.48738384773E-01 -0.29602145329E-01  0.10687604853E+00  0.51100000000E-03 0. -1.
</event>
<event>
 8    1  0.9952977E+004  0.1043930E+01  0.7957747E-01            NaN
         13   -1    0    0    0    0  0.00000000000E+00  0.00000000000E+00  0.74505805969E-08  0.10566000000E+00  0.10566000000E+00 0.  1.
     999900   -1    0    0    0    0 -0.00000000000E+00 -0.00000000000E+00 -0.74505805969E-08  0.93827000000E+00  0.93827000000E+00 0.  1.
     999902    2    1    2    0    0  0.22541540268E-01 -0.15112298672E-02  0.55848582504E-02  0.10206577957E+01  0.10203924443E+01 0.  0.
     999903    2    3    3    0    0 -0.23235651549E-01 -0.68823710411E-01  0.10722727604E+00  0.13107491451E+00  0.20158022502E-01 0.  0.
         14    1    1    2    0    0 -0.22541540268E-01  0.15112298672E-02 -0.55848582504E-02  0.23272204344E-01  0.00000000000E+00 0.  1.
     999901    1    3    3    0    0  0.45777191817E-01  0.67312480544E-01 -0.10164241779E+00  0.88958288114E+00  0.88000000000E+00 0.  1.
        -11    1    4    4    0    0 -0.29544869868E-02 -0.14162394603E-01  0.37414291409E-01  0.40117237403E-01  0.51100000000E-03 0. -1.
         11    1    4    4    0    0 -0.20281164562E-01 -0.54661315808E-01  0.69812984627E-01  0.90957677111E-01  0.51100000000E-03 0.  1.
</event>
<event>
 8    1  0.9952977E+004  0.1043930E+01  0.7957747E-01            NaN
         13   -1    0    0    0    0  0.00000000000E+00  0.00000000000E+00  0.74505805969E-08  0.10566000000E+00  0.10566000000E+00 0.  1.
     999900   -1    0    0    0    0 -0.00000000000E+00 -0.00000000000E+00 -0.74505805969E-08  0.93827000000E+00  0.93827000000E+00 0. -1.
     999902    2    1    2    0    0  0.74199653665E-02 -0.22163577928E-01 -0.45266196628E-02  0.10201230607E+01  0.10198452278E+01 0.  0.
     999903    2    3    3    0    0 -0.54011988192E-01  0.24223435617E-01 -0.11415359385E+00  0.12998615360E+00  0.19007562602E-01 0.  0.
         14    1    1    2    0    0 -0.74199653665E-02  0.22163577928E-01  0.45266196628E-02  0.23806939287E-01  0.00000000000E+00 0. -1.
     999901    1    3    3    0    0  0.61431953559E-01 -0.46387013545E-01  0.10962697419E+00  0.89013690712E+00  0.88000000000E+00 0. -1.
        -11    1    4    4    0    0 -0.32411101067E-01  0.23615814323E-01 -0.66467094381E-01  0.77629388218E-01  0.51100000000E-03 0.  1.
         11    1    4    4    0    0 -0.21600887125E-01  0.60762129320E-03 -0.47686499469E-01  0.52356765378E-01  0.51100000000E-03 0. -1.
</event>
<event>
 8    1  0.9952977E+004  0.1043930E+01  0.7957747E-01            NaN
         13   -1    0    0    0    0  0.00000000000E+00  0.00000000000E+00  0.74505805969E-08  0.10566000000E+00  0.10566000000E+00 0. -1.
     999900   -1    0    0    0    0 -0.00000000000E+00 -0.00000000000E+00 -0.74505805969E-08  0.93827000000E+00  0.93827000000E+00 0.  1.
     999902    2    1    2    0    0 -0.76381602386E-03 -0.21949585423E-01 -0.10461644982E-01  0.10196027780E+01  0.10193125189E+01 0.  0.
     999903    2    3    3    0    0 -0.10608301001E+00 -0.62884051420E-01 -0.39103427445E-01  0.13191583157E+00  0.25781769667E-01 0.  0.
         14    1    1    2    0    0  0.76381602386E-03  0.21949585423E-01  0.10461644982E-01  0.24327222014E-01  0.00000000000E+00 0.  1.
     999901    1    3    3    0    0  0.10531919398E+00  0.40934465997E-01  0.28641782463E-01  0.88768694641E+00  0.88000000000E+00 0. -1.
        -11    1    4    4    0    0 -0.37754356268E-01 -0.91183168410E-02 -0.86948897151E-02  0.39804489036E-01  0.51100000000E-03 0. -1.
         11    1    4    4    0    0 -0.68328653737E-01 -0.53765734579E-01 -0.30408537730E-01  0.92111342539E-01  0.51100000000E-03 0.  1.
</event>
<event>
 8    1  0.9952977E+004  0.1043930E+01  0.7957747E-01            NaN
         13   -1    0    0    0    0  0.00000000000E+00  0.00000000000E+00  0.74505805969E-08  0.10566000000E+00  0.10566000000E+00 0. -1.
     999900   -1    0    0    0    0 -0.00000000000E+00 -0.00000000000E+00 -0.74505805969E-08  0.93827000000E+00  0.93827000000E+00 0. -1.
     999902    2    1    2    0    0  0.13936129391E-01 -0.18032012816E-01  0.13929318217E-01  0.10172205430E+01  0.10168698235E+01 0.  0.
     999903    2    3    3    0    0  0.15521273855E-01 -0.68894891640E-01 -0.10460246908E+00  0.12781662477E+00  0.20198935466E-01 0.  0.
         14    1    1    2    0    0 -0.13936129391E-01  0.18032012816E-01 -0.13929318217E-01  0.26709457025E-01  0.00000000000E+00 0.  1.
     999901    1    3    3    0    0 -0.15851444635E-02  0.50862878824E-01  0.11853178729E+00  0.88940391821E+00  0.88000000000E+00 0.  1.
        -11    1    4    4    0    0  0.52331384034E-02 -0.20937744580E-02 -0.10880962108E-01  0.12264831284E-01  0.51100000000E-03 0. -1.
         11    1    4    4    0    0  0.10288135451E-01 -0.66801117182E-01 -0.93721506967E-01  0.11555179348E+00  0.51100000000E-03 0.  1.
</event>
<event>
 8    1  0.9952977E+004  0.1043930E+01  0.7957747E-01            NaN
         13   -1    0    0    0    0  0.00000000000E+00  0.00000000000E+00  0.74505805969E-08  0.10566000000E+00  0.10566000000E+00 0.  1.
     999900   -1    0    0    0    0 -0.00000000000E+00 -0.00000000000E+00 -0.74505805969E-08  0.93827000000E+00  0.93827000000E+00 0.  1.
     999902    2    1    2    0    0 -0.86734518071E-02  0.19795999233E-01  0.10613330249E-01  0.10198519367E+01  0.10195676631E+01 0.  0.
     999903    2    3    3    0    0 -0.54746668670E-01  0.99650508164E-01 -0.63430512854E-01  0.13194317193E+00  0.21404418936E-01 0.  0.
         14    1    1    2    0    0  0.86734518071E-02 -0.19795999233E-01 -0.10613330249E-01  0.24078063270E-01  0.00000000000E+00 0.  1.
     999901    1    3    3    0    0  0.46073216862E-01 -0.79854508931E-01  0.74043843103E-01  0.88790876480E+00  0.88000000000E+00 0. -1.
        -11    1    4    4    0    0 -0.37809537365E-01  0.56746501425E-01 -0.47650185211E-01  0.83189709769E-01  0.51100000000E-03 0.  1.
         11    1    4    4    0    0 -0.16937131305E-01  0.42904006739E-01 -0.15780327642E-01  0.48753462160E-01  0.51100000000E-03 0. -1.
</event>
<event>
 8    1  0.9952977E+004  0.1043930E+01  0.7957747E-01            NaN
         13   -1    0    0    0    0  0.00000000000E+00  0.00000000000E+00  0.74505805969E-08  0.10566000000E+00  0.10566000000E+00 0. -1.
     999900   -1    0    0    0    0 -0.00000000000E+00 -0.00000000000E+00 -0.74505805969E-08  0.93827000000E+00  0.93827000000E+00 0.  1.
     999902    2    1    2    0    0 -0.10911384708E-01  0.37806512652E-02 -0.20321325396E-01  0.10205567695E+01  0.10202890825E+01 0.  0.
     999903    2    3    3    0    0  0.15001871304E-01  0.91290750092E-01 -0.92943553626E-01  0.13286115593E+00  0.21319601316E-01 0.  0.
         14    1    1    2    0    0  0.10911384708E-01 -0.37806512652E-02  0.20321325396E-01  0.23373230545E-01  0.00000000000E+00 0. -1.
     999901    1    3    3    0    0 -0.25913256012E-01 -0.87510098827E-01  0.72622228230E-01  0.88769561352E+00  0.88000000000E+00 0. -1.
        -11    1    4    4    0    0  0.28969801188E-02  0.72475730851E-01 -0.69695100943E-01  0.10059220781E+00  0.51100000000E-03 0.  1.
         11    1    4    4    0    0  0.12104891185E-01  0.18815019241E-01 -0.23248452683E-01  0.32268948120E-01  0.51100000000E-03 0. -1.
</event>
<event>
 8    1  0.9952977E+004  0.1043930E+01  0.7957747E-01            NaN
         13   -1    0    0    0    0  0.00000000000E+00  0.00000000000E+00  0.74505805969E-08  0.10566000000E+00  0.10566000000E+00 0. -1.
     999900   -1    0    0    0    0 -0.00000000000E+00 -0.00000000000E+00 -0.74505805969E-08  0.93827000000E+00  0.93827000000E+00 0. -1.
     999902    2    1    2    0    0 -0.14281632490E-01 -0.15568066086E-01 -0.92394156068E-02  0.10208714548E+01  0.10206110085E+01 0.  0.
     999903    2    3    3    0    0  0.14298297102E-01 -0.25915078052E-01 -0.12743141687E+00  0.13244969557E+00  0.20691140148E-01 0.  0.
         14    1    1    2    0    0  0.14281632490E-01  0.15568066086E-01  0.92394156068E-02  0.23058545249E-01  0.00000000000E+00 0. -1.
     999901    1    3    3    0    0 -0.28579929592E-01  0.10347011966E-01  0.11819200126E+00  0.88842175919E+00  0.88000000000E+00 0.  1.
        -11    1    4    4    0    0  0.15041316959E-02 -0.81499386322E-04 -0.46647308988E-01  0.46674421379E-01  0.51100000000E-03 0.  1.
         11    1    4    4    0    0  0.12794165406E-01 -0.25833578666E-01 -0.80784107878E-01  0.85775274187E-01  0.51100000000E-03 0. -1.
</event>
<event>
 8    1  0.9952977E+004  0.1043930E+01  0.7957747E-01            NaN
         13   -1    0    0    0    0  0.00000000000E+00  0.00000000000E+00  0.74505805969E-08  0.10566000000E+00  0.10566000000E+00 0.  1.
     999900   -1    0    0    0    0 -0.00000000000E+00 -0.00000000000E+00 -0.74505805969E-08  0.93827000000E+00  0.93827000000E+00 0.  1.
     999902    2    1    2    0    0  0.15262953149E-01 -0.15385050532E-01  0.50301737431E-03  0.10222525798E+01  0.10220227133E+01 0.  0.
     999903    2    3    3    0    0  0.10008853586E+00 -0.60346558396E-02 -0.86258533639E-01  0.13387744730E+00  0.20700342713E-01 0.  0.
         14    1    1    2    0    0 -0.15262953149E-01  0.15385050532E-01 -0.50301737431E-03  0.21677420169E-01  0.00000000000E+00 0. -1.
     999901    1    3    3    0    0 -0.84825582712E-01 -0.93503946926E-02  0.86761551014E-01  0.88837513253E+00  0.88000000000E+00 0. -1.
        -11    1    4    4    0    0  0.65886297847E-01 -0.19815252355E-02 -0.43530694450E-01  0.78994386930E-01  0.51100000000E-03 0.  1.
         11    1    4    4    0    0  0.34202238014E-01 -0.40531306041E-02 -0.42727839190E-01  0.54883060371E-01  0.51100000000E-03 0. -1.
</event>
<event>
 8    1  0.9952977E+004  0.1043930E+01  0.7957747E-01            NaN
         13   -1    0    0    0    0  0.00000000000E+00  0.00000000000E+00  0.74505805969E-08  0.10566000000E+00  0.10566000000E+00 0. -1.
     999900   -1    0    0    0    0 -0.00000000000E+00 -0.00000000000E+00 -0.74505805969E-08  0.93827000000E+00  0.93827000000E+00 0. -1.
     999902    2    1    2    0    0 -0.92682150499E-02 -0.17751677395E-01  0.99661934863E-02  0.10215615653E+01  0.10213166427E+01 0.  0.
     999903    2    3    3    0    0 -0.62241718480E-01  0.52580712023E-01  0.10200900685E+00  0.13239076245E+00  0.21970746600E-01 0.  0.
         14    1    1    2    0    0  0.92682150499E-02  0.17751677395E-01 -0.99661934863E-02  0.22368434750E-01  0.00000000000E+00 0.  1.
     999901    1    3    3    0    0  0.52973503431E-01 -0.70332389418E-01 -0.92042813364E-01  0.88917080280E+00  0.88000000000E+00 0. -1.
        -11    1    4    4    0    0 -0.55117715684E-01  0.40687211257E-01  0.94174457051E-01  0.11645815224E+00  0.51100000000E-03 0.  1.
         11    1    4    4    0    0 -0.71240027967E-02  0.11893500766E-01  0.78345498001E-02  0.15932610203E-01  0.51100000000E-03 0. -1.
</event>
<event>
 8    1  0.9952977E+004  0.1043930E+01  0.7957747E-01            NaN
         13   -1    0    0    0    0  0.00000000000E+00  0.00000000000E+00  0.74505805969E-08  0.10566000000E+00  0.10566000000E+00 0.  1.
     999900   -1    0    0    0    0 -0.00000000000E+00 -0.00000000000E+00 -0.74505805969E-08  0.93827000000E+00  0.93827000000E+00 0. -1.
     999902    2    1    2    0    0  0.22362775145E-01 -0.69909525194E-02  0.25836653505E-01  0.10090516429E+01  0.10084486691E+01 0.  0.
     999903    2    3    3    0    0  0.16918523016E-01 -0.10013050545E+00 -0.60368206685E-01  0.11993078828E+00  0.20657179333E-01 0.  0.
         14    1    1    2    0    0 -0.22362775145E-01  0.69909525194E-02 -0.25836653505E-01  0.34878357095E-01  0.00000000000E+00 0. -1.
     999901    1    3    3    0    0  0.54442521293E-02  0.93139552927E-01  0.86204860190E-01  0.88912085462E+00  0.88000000000E+00 0.  1.
        -11    1    4    4    0    0  0.21565955311E-01 -0.84666886787E-01 -0.52845863448E-01  0.10211032539E+00  0.51100000000E-03 0. -1.
         11    1    4    4    0    0 -0.46474322947E-02 -0.15463618660E-01 -0.75223432371E-02  0.17820462895E-01  0.51100000000E-03 0.  1.
</event>
<event>
 8    1  0.9952977E+004  0.1043930E+01  0.7957747E-01            NaN
         13   -1    0    0    0    0  0.00000000000E+00  0.00000000000E+00  0.74505805969E-08  0.10566000000E+00  0.10566000000E+00 0.  1.
     999900   -1    0    0    0    0 -0.00000000000E+00 -0.00000000000E+00 -0.74505805969E-08  0.93827000000E+00  0.93827000000E+00 0. -1.
     999902    2    1    2    0    0 -0.55833120045E-02  0.13382842633E-01 -0.19728257689E-01  0.10194457601E+01  0.10191516962E+01 0.  0.
     999903    2    3    3    0    0  0.12070008555E+00  0.14281492976E-01 -0.42150029819E-01  0.13014769991E+00  0.19731373106E-01 0.  0.
         14    1    1    2    0    0  0.55833120045E-02 -0.13382842633E-01  0.19728257689E-01  0.24484239856E-01  0.00000000000E+00 0.  1.
     999901    1    3    3    0    0 -0.12628339756E+00 -0.89865034328E-03  0.22421772130E-01  0.88929806023E+00  0.88000000000E+00 0. -1.
        -11    1    4    4    0    0  0.81074693758E-01  0.66929980806E-02 -0.18679120150E-01  0.83468993296E-01  0.51100000000E-03 0. -1.
         11    1    4    4    0    0  0.39625391793E-01  0.75884948956E-02 -0.23470909669E-01  0.46678706614E-01  0.51100000000E-03 0.  1.
</event>
<event>
 8    1  0.9952977E+004  0.1043930E+01  0.7957747E-01            NaN
         13   -1    0    0    0    0  0.00000000000E+00  0.00000000000E+00  0.74505805969E-08  0.10566000000E+00  0.10566000000E+00 0.  1.
     999900   -1    0    0    0    0 -0.00000000000E+00 -0.00000000000E+00 -0.74505805969E-08  0.93827000000E+00  0.93827000000E+00 0. -1.
     999902    2    1    2    0    0 -0.47582471459E-02  0.14862369029E-01 -0.19340735664E-01  0.10190785416E+01  0.10187754801E+01 0.  0.
     999903    2    3    3    0    0 -0.76435113208E-01  0.99583624446E-01  0.30539852065E-01  0.13070737069E+00  0.19811850000E-01 0.  0.
         14    1    1    2    0    0  0.47582471459E-02 -0.14862369029E-01  0.19340735664E-01  0.24851458410E-01  0.00000000000E+00 0.  1.
     999901    1    3    3    0    0  0.71676866062E-01 -0.84721255417E-01 -0.49880587729E-01  0.88837117090E+00  0.88000000000E+00 0.  1.
        -11    1    4    4    0    0 -0.28795530263E-02  0.11841417123E-01  0.60760310690E-02  0.13626821334E-01  0.51100000000E-03 0.  1.
         11    1    4    4    0    0 -0.73555560182E-01  0.87742207323E-01  0.24463820995E-01  0.11708054936E+00  0.51100000000E-03 0. -1.
</event>
<event>
 8    1  0.9952977E+004  0.1043930E+01  0.7957747E-01            NaN
         13   -1    0    0    0    0  0.00000000000E+00  0.00000000000E+00  0.74505805969E-08  0.10566000000E+00  0.10566000000E+00 0. -1.
     999900   -1    0    0    0    0 -0.00000000000E+00 -0.00000000000E+00 -0.74505805969E-08  0.93827000000E+00  0.93827000000E+00 0.  1.
     999902    2    1    2    0    0 -0.83823110471E-02  0.21630660926E-01  0.75844245830E-04  0.10207318453E+01  0.10204681992E+01 0.  0.
     999903    2    3    3    0    0  0.12494726192E+00  0.14751452884E-01  0.27281678491E-01  0.13024644059E+00  0.19759091135E-01 0.  0.
         14    1    1    2    0    0  0.83823110471E-02 -0.21630660926E-01 -0.75844245830E-04  0.23198154731E-01  0.00000000000E+00 0. -1.
     999901    1    3    3    0    0 -0.13332957296E+00  0.68792080418E-02 -0.27205834245E-01  0.89048540468E+00  0.88000000000E+00 0.  1.
        -11    1    4    4    0    0  0.11000231705E+00  0.15669902387E-01  0.29832230963E-01  0.11504902747E+00  0.51100000000E-03 0. -1.
         11    1    4    4    0    0  0.14944944870E-01 -0.91844950312E-03 -0.25505524715E-02  0.15197413121E-01  0.51100000000E-03 0.  1.
</event>
<event>
 8    1  0.1028933E+005  0.1043930E+01  0.7957747E-01            NaN
         13   -1    0    0    0    0  0.00000000000E+00  0.00000000000E+00  0.74505805969E-08  0.10566000000E+00  0.10566000000E+00 0.  1.
     999900   -1    0    0    0    0 -0.00000000000E+00 -0.00000000000E+00 -0.74505805969E-08  0.93827000000E+00  0.93827000000E+00 0.  1.
     999902    2    1    2    0    0  0.23060994858E-02  0.97797205130E-02  0.24395055117E-01  0.10175466768E+01  0.10172045811E+01 0.  0.
     999903    2    3    3    0    0  0.58862480979E-01  0.11284917397E+00  0.14232030991E-01  0.12966987028E+00  0.20297704782E-01 0.  0.
         14    1    1    2    0    0 -0.23060994858E-02 -0.97797205130E-02 -0.24395055117E-01  0.26383323186E-01  0.00000000000E+00 0. -1.
     999901    1    3    3    0    0 -0.56556381494E-01 -0.10306945346E+00  0.10163024127E-01  0.88787680654E+00  0.88000000000E+00 0.  1.
        -11    1    4    4    0    0  0.31870370633E-01  0.75136179733E-01  0.16359982256E-01  0.83241072612E-01  0.51100000000E-03 0.  1.
         11    1    4    4    0    0  0.26992110347E-01  0.37712994236E-01 -0.21279512650E-02  0.46428797667E-01  0.51100000000E-03 0. -1.
</event>
<event>
 8    1  0.9952977E+004  0.1043930E+01  0.7957747E-01            NaN
         13   -1    0    0    0    0  0.00000000000E+00  0.00000000000E+00  0.74505805969E-08  0.10566000000E+00  0.10566000000E+00 0. -1.
     999900   -1    0    0    0    0 -0.00000000000E+00 -0.00000000000E+00 -0.74505805969E-08  0.93827000000E+00  0.93827000000E+00 0.  1.
     999902    2    1    2    0    0 -0.91006175685E-02  0.21362798940E-01  0.60854593004E-02  0.10199253498E+01  0.10196428276E+01 0.  0.
     999903    2    3    3    0    0 -0.28488749651E-01 -0.51402155427E-01 -0.11285603409E+00  0.12873641518E+00  0.19565012766E-01 0.  0.
         14    1    1    2    0    0  0.91006175685E-02 -0.21362798940E-01 -0.60854593004E-02  0.24004650249E-01  0.00000000000E+00 0.  1.
     999901    1    3    3    0    0  0.19388132082E-01  0.72764954366E-01  0.11894149339E+00  0.89118893457E+00  0.88000000000E+00 0. -1.
        -11    1    4    4    0    0 -0.11171746335E-01 -0.38319208131E-01 -0.66756695778E-01  0.77781020694E-01  0.51100000000E-03 0. -1.
         11    1    4    4    0    0 -0.17317003315E-01 -0.13082947296E-01 -0.46099338311E-01  0.50955394488E-01  0.51100000000E-03 0.  1.
</event>
<event>
 8    1  0.9952977E+004  0.1043930E+01  0.7957747E-01            NaN
         13   -1    0    0    0    0  0.00000000000E+00  0.00000000000E+00  0.74505805969E-08  0.10566000000E+00  0.10566000000E+00 0. -1.
     999900   -1    0    0    0    0 -0.00000000000E+00 -0.00000000000E+00 -0.74505805969E-08  0.93827000000E+00  0.93827000000E+00 0.  1.
     999902    2    1    2    0    0  0.17050571646E-01  0.16250690297E-01  0.14432059842E-02  0.10203314879E+01  0.10200585549E+01 0.  0.
     999903    2    3    3    0    0  0.42747683429E-01 -0.67696570961E-01 -0.10063302713E+00  0.13009160924E+00  0.19662921634E-01 0.  0.
         14    1    1    2    0    0 -0.17050571646E-01 -0.16250690297E-01 -0.14432059842E-02  0.23598512074E-01  0.00000000000E+00 0. -1.
     999901    1    3    3    0    0 -0.25697111783E-01  0.83947261258E-01  0.10207623312E+00  0.89023987868E+00  0.88000000000E+00 0. -1.
        -11    1    4    4    0    0  0.21938269691E-01 -0.28611308512E-01 -0.59948170973E-01  0.69956693574E-01  0.51100000000E-03 0. -1.
         11    1    4    4    0    0  0.20809413739E-01 -0.39085262449E-01 -0.40684856161E-01  0.60134915670E-01  0.51100000000E-03 0.  1.
</event>
<event>
 8    1  0.9952977E+004  0.1043930E+01  0.7957747E-01            NaN
         13   -1    0    0    0    0  0.00000000000E+00  0.00000000000E+00  0.74505805969E-08  0.10566000000E+00  0.10566000000E+00 0. -1.
     999900   -1    0    0    0    0 -0.00000000000E+00 -0.00000000000E+00 -0.74505805969E-08  0.93827000000E+00  0.93827000000E+00 0.  1.
     999902    2    1    2    0    0 -0.13584783687E-01  0.53777039670E-02  0.18410295372E-01  0.10204267019E+01  0.10201559924E+01 0.  0.
     999903    2    3    3    0    0 -0.10559115883E+00 -0.75749543607E-01  0.98583234345E-02  0.13187735625E+00  0.20173357896E-01 0.  0.
         14    1    1    2    0    0  0.13584783687E-01 -0.53777039670E-02 -0.18410295372E-01  0.23503298140E-01  0.00000000000E+00 0.  1.
     999901    1    3    3    0    0  0.92006375148E-01  0.81127247574E-01  0.85519719377E-02  0.88854934561E+00  0.88000000000E+00 0.  1.
        -11    1    4    4    0    0 -0.75308024719E-01 -0.47476753475E-01  0.14449752693E-01  0.90190893007E-01  0.51100000000E-03 0.  1.
         11    1    4    4    0    0 -0.30283134116E-01 -0.28272790132E-01 -0.45914292581E-02  0.41686463238E-01  0.51100000000E-03 0. -1.
</event>
<event>
 8    1  0.9952977E+004  0.1043930E+01  0.7957747E-01            NaN
         13   -1    0    0    0    0  0.00000000000E+00  0.00000000000E+00  0.74505805969E-08  0.10566000000E+00  0.10566000000E+00 0.  1.
     999900   -1    0    0    0    0 -0.00000000000E+00 -0.00000000000E+00 -0.74505805969E-08  0.93827000000E+00  0.93827000000E+00 0. -1.
     999902    2    1    2    0    0 -0.53712094143E-03 -0.22874373494E-01 -0.39915510635E-02  0.10207037661E+01  0.10204394740E+01 0.  0.
     999903    2    3    3    0    0 -0.15868197239E-01 -0.26269374129E-01  0.12572649969E+00  0.13105589158E+00  0.20654643350E-01 0.  0.
         14    1    1    2    0    0  0.53712094143E-03  0.22874373494E-01  0.39915510635E-02  0.23226233908E-01  0.00000000000E+00 0.  1.
     999901    1    3    3    0    0  0.15331076298E-01  0.33950006347E-02 -0.12971805076E+00  0.88964787451E+00  0.88000000000E+00 0. -1.
        -11    1    4    4    0    0 -0.48831045613E-02 -0.25484874616E-01  0.86529645752E-01  0.90338055433E-01  0.51100000000E-03 0.  1.
         11    1    4    4    0    0 -0.10985092678E-01 -0.78449951252E-03  0.39196853943E-01  0.40717836149E-01  0.51100000000E-03 0. -1.
</event>
<event>
 8    1  0.9952977E+004  0.1043930E+01  0.7957747E-01            NaN
         13   -1    0    0    0    0  0.00000000000E+00  0.00000000000E+00  0.74505805969E-08  0.10566000000E+00  0.10566000000E+00 0. -1.
     999900   -1    0    0    0    0 -0.00000000000E+00 -0.00000000000E+00 -0.74505805969E-08  0.93827000000E+00  0.93827000000E+00 0. -1.
     999902    2    1    2    0    0  0.16872161034E-01 -0.16864552775E-01  0.43983233889E-02  0.10196724608E+01  0.10193838821E+01 0.  0.
     999903    2    3    3    0    0 -0.10034052219E+00  0.11410197885E-01  0.76949232702E-01  0.12849239536E+00  0.19766088191E-01 0.  0.
         14    1    1    2    0    0 -0.16872161034E-01  0.16864552775E-01 -0.43983233889E-02  0.24257539177E-01  0.00000000000E+00 0. -1.
     999901    1    3    3    0    0  0.11721268323E+00 -0.28274750660E-01 -0.72550909313E-01  0.89118006546E+00  0.88000000000E+00 0. -1.
        -11    1    4    4    0    0 -0.73172218096E-01  0.97943758820E-02  0.44756773830E-01  0.86333847503E-01  0.51100000000E-03 0. -1.
         11    1    4    4    0    0 -0.27168304097E-01  0.16158220030E-02  0.32192458872E-01  0.42158547858E-01  0.51100000000E-03 0.  1.
</event>
<event>
 8    1  0.9952977E+004  0.1043930E+01  0.7957747E-01            NaN
         13   -1    0    0    0    0  0.00000000000E+00  0.00000000000E+00  0.74505805969E-08  0.10566000000E+00  0.10566000000E+00 0. -1.
     999900   -1    0    0    0    0 -0.00000000000E+00 -0.00000000000E+00 -0.74505805969E-08  0.93827000000E+00  0.93827000000E+00 0.  1.
     999902    2    1    2    0    0  0.16662919916E-01  0.14766119860E-01  0.11858248049E-01  0.10187048292E+01  0.10183924684E+01 0.  0.
     999903    2    3    3    0    0  0.22172142727E-01  0.12765189577E+00  0.17701328118E-01  0.13145757418E+00  0.13459063293E-01 0.  0.
         14    1    1    2    0    0 -0.16662919916E-01 -0.14766119860E-01 -0.11858248049E-01  0.25225170814E-01  0.00000000000E+00 0.  1.
     999901    1    3    3    0    0 -0.55092228113E-02 -0.11288577591E+00 -0.58430800689E-02  0.88724725501E+00  0.88000000000E+00 0. -1.
        -11    1    4    4    0    0  0.18691111606E-01  0.98153641587E-01  0.81412416260E-02  0.10024986756E+00  0.51100000000E-03 0.  1.
         11    1    4    4    0    0  0.34810311204E-02  0.29498254181E-01  0.95600864915E-02  0.31207706614E-01  0.51100000000E-03 0. -1.
</event>
<event>
 8    1  0.9952977E+004  0.1043930E+01  0.7957747E-01            NaN
         13   -1    0    0    0    0  0.00000000000E+00  0.00000000000E+00  0.74505805969E-08  0.10566000000E+00  0.10566000000E+00 0.  1.
     999900   -1    0    0    0    0 -0.00000000000E+00 -0.00000000000E+00 -0.74505805969E-08  0.93827000000E+00  0.93827000000E+00 0.  1.
     999902    2    1    2    0    0  0.17502133304E-01 -0.95661161162E-02 -0.11603069844E-01  0.10208547648E+01  0.10205939371E+01 0.  0.
     999903    2    3    3    0    0 -0.11857988490E+00  0.10135652095E-01  0.44064151888E-01  0.12843932631E+00  0.19776008620E-01 0.  0.
         14    1    1    2    0    0 -0.17502133304E-01  0.95661161162E-02  0.11603069844E-01  0.23075235157E-01  0.00000000000E+00 0.  1.
     999901    1    3    3    0    0  0.13608201820E+00 -0.19701768211E-01 -0.55667221732E-01  0.89241543853E+00  0.88000000000E+00 0.  1.
        -11    1    4    4    0    0 -0.98865953076E-01  0.12939746410E-01  0.30246706659E-01  0.10419711176E+00  0.51100000000E-03 0. -1.
         11    1    4    4    0    0 -0.19713931821E-01 -0.28040943145E-02  0.13817445229E-01  0.24242214553E-01  0.51100000000E-03 0.  1.
</event>
<event>
 8    1  0.9952977E+004  0.1043930E+01  0.7957747E-01            NaN
         13   -1    0    0    0    0  0.00000000000E+00  0.00000000000E+00  0.74505805969E-08  0.10566000000E+00  0.10566000000E+00 0.  1.
     999900   -1    0    0    0    0 -0.00000000000E+00 -0.00000000000E+00 -0.74505805969E-08  0.93827000000E+00  0.93827000000E+00 0.  1.
     999902    2    1    2    0    0 -0.12117647831E-01 -0.64550577068E-02  0.19374136690E-01  0.10201842144E+01  0.10199078238E+01 0.  0.
     999903    2    3    3    0    0  0.62416704652E-01  0.10639414053E+00  0.35744430376E-01  0.12970215525E+00  0.18150113353E-01 0.  0.
         14    1    1    2    0    0  0.12117647831E-01  0.64550577068E-02 -0.19374136690E-01  0.23745785551E-01  0.00000000000E+00 0. -1.
     999901    1    3    3    0    0 -0.74534352484E-01 -0.11284919824E+00 -0.16370293686E-01  0.89048205920E+00  0.88000000000E+00 0.  1.
        -11    1    4    4    0    0  0.53421594701E-01  0.84958316784E-01  0.22175427552E-01  0.10278031465E+00  0.51100000000E-03 0.  1.
         11    1    4    4    0    0  0.89951099509E-02  0.21435823744E-01  0.13569002824E-01  0.26921840599E-01  0.51100000000E-03 0. -1.
</event>
<event>
 8    1  0.9952977E+004  0.1043930E+01  0.7957747E-01            NaN
         13   -1    0    0    0    0  0.00000000000E+00  0.00000000000E+00  0.74505805969E-08  0.10566000000E+00  0.10566000000E+00 0. -1.
     999900   -1    0    0    0    0 -0.00000000000E+00 -0.00000000000E+00 -0.74505805969E-08  0.93827000000E+00  0.93827000000E+00 0.  1.
     999902    2    1    2    0    0  0.17526495131E-01  0.41521222739E-02  0.14518376723E-01  0.10207955795E+01  0.10205333966E+01 0.  0.
     999903    2    3    3    0    0 -0.82688173852E-01 -0.81107969039E-01 -0.51997550464E-01  0.12853069075E+00  0.20013907039E-01 0.  0.
         14    1    1    2    0    0 -0.17526495131E-01 -0.41521222739E-02 -0.14518376723E-01  0.23134420539E-01  0.00000000000E+00 0.  1.
     999901    1    3    3    0    0  0.10021466898E+00  0.85260091313E-01  0.66515927187E-01  0.89226488871E+00  0.88000000000E+00 0. -1.
        -11    1    4    4    0    0 -0.59420382202E-01 -0.69794214391E-01 -0.40826349255E-01  0.10034473627E+00  0.51100000000E-03 0.  1.
         11    1    4    4    0    0 -0.23267791650E-01 -0.11313754648E-01 -0.11171201209E-01  0.28185954480E-01  0.51100000000E-03 0. -1.
</event>
<event>
 8    1  0.9952977E+004  0.1043930E+01  0.7957747E-01            NaN
         13   -1    0    0    0    0  0.00000000000E+00  0.00000000000E+00  0.74505805969E-08  0.10566000000E+00  0.10566000000E+00 0.  1.
     999900   -1    0    0    0    0 -0.00000000000E+00 -0.00000000000E+00 -0.74505805969E-08  0.93827000000E+00  0.93827000000E+00 0. -1.
     999902    2    1    2    0    0  0.82339037916E-02  0.18084432926E-01 -0.22782754962E-01  0.10136992572E+01  0.10132483833E+01 0.  0.
     999903    2    3    3    0    0  0.91260489199E-01  0.82653698738E-02 -0.86516286639E-01  0.12744207617E+00  0.18963694189E-01 0.  0.
         14    1    1    2    0    0 -0.82339037916E-02 -0.18084432926E-01  0.22782754962E-01  0.30230742789E-01  0.00000000000E+00 0.  1.
     999901    1    3    3    0    0 -0.83026585407E-01  0.98190630525E-02  0.63733531678E-01  0.88625718104E+00  0.88000000000E+00 0.  1.
        -11    1    4    4    0    0  0.31876578543E-01  0.46113720667E-02 -0.18787908309E-01  0.37291120010E-01  0.51100000000E-03 0.  1.
         11    1    4    4    0    0  0.59383910655E-01  0.36539978071E-02 -0.67728378331E-01  0.90150956162E-01  0.51100000000E-03 0. -1.
</event>
<event>
 8    1  0.9952977E+004  0.1043930E+01  0.7957747E-01            NaN
         13   -1    0    0    0    0  0.00000000000E+00  0.00000000000E+00  0.74505805969E-08  0.10566000000E+00  0.10566000000E+00 0.  1.
     999900   -1    0    0    0    0 -0.00000000000E+00 -0.00000000000E+00 -0.74505805969E-08  0.93827000000E+00  0.93827000000E+00 0. -1.
     999902    2    1    2    0    0  0.20445766595E-01  0.52735390058E-02  0.10804560163E-01  0.10202112710E+01  0.10199355173E+01 0.  0.
     999903    2    3    3    0    0 -0.13115501870E-02 -0.72300262122E-01 -0.10528064464E+00  0.12893866947E+00  0.17666869626E-01 0.  0.
         14    1    1    2    0    0 -0.20445766595E-01 -0.52735390058E-02 -0.10804560163E-01  0.23718729005E-01  0.00000000000E+00 0. -1.
     999901    1    3    3    0    0  0.21757316782E-01  0.77573801128E-01  0.11608520480E+00  0.89127260152E+00  0.88000000000E+00 0.  1.
        -11    1    4    4    0    0 -0.56405998041E-03 -0.74897679415E-02 -0.22962580944E-01  0.24165182228E-01  0.51100000000E-03 0.  1.
         11    1    4    4    0    0 -0.74749020660E-03 -0.64810494180E-01 -0.82318063694E-01  0.10477348724E+00  0.51100000000E-03 0. -1.
</event>
<event>
 8    1  0.9952977E+004  0.1043930E+01  0.7957747E-01            NaN
         13   -1    0    0    0    0  0.00000000000E+00  0.00000000000E+00  0.74505805969E-08  0.10566000000E+00  0.10566000000E+00 0. -1.
     999900   -1    0    0    0    0 -0.00000000000E+00 -0.00000000000E+00 -0.74505805969E-08  0.93827000000E+00  0.93827000000E+00 0.  1.
     999902    2    1    2    0    0 -0.13382965939E-01  0.77635504198E-02 -0.17361379529E-01  0.10206750222E+01  0.10204100681E+01 0.  0.
     999903    2    3    3    0    0 -0.10337046265E+00 -0.55838166560E-01  0.54323771010E-01  0.13091005956E+00  0.19570850879E-01 0.  0.
         14    1    1    2    0    0  0.13382965939E-01 -0.77635504198E-02  0.17361379529E-01  0.23254977781E-01  0.00000000000E+00 0. -1.
     999901    1    3    3    0    0  0.89987496711E-01  0.63601716979E-01 -0.71685150539E-01  0.88976496266E+00  0.88000000000E+00 0.  1.
        -11    1    4    4    0    0 -0.50820790416E-01 -0.38439155387E-01  0.30442152878E-01  0.70620869424E-01  0.51100000000E-03 0. -1.
         11    1    4    4    0    0 -0.52549672234E-01 -0.17399011173E-01  0.23881618131E-01  0.60289190136E-01  0.51100000000E-03 0.  1.
</event>
<event>
 8    1  0.9952977E+004  0.1043930E+01  0.7957747E-01            NaN
         13   -1    0    0    0    0  0.00000000000E+00  0.00000000000E+00  0.74505805969E-08  0.10566000000E+00  0.10566000000E+00 0. -1.
     999900   -1    0    0    0    0 -0.00000000000E+00 -0.00000000000E+00 -0.74505805969E-08  0.93827000000E+00  0.93827000000E+00 0.  1.
     999902    2    1    2    0    0 -0.84417112717E-02  0.24072052796E-01  0.31469043188E-02  0.10182272915E+01  0.10179028382E+01 0.  0.
     999903    2    3    3    0    0 -0.10293510235E-01 -0.91855807081E-01 -0.83903165667E-01  0.12636384206E+00  0.19612081034E-01 0.  0.
         14    1    1    2    0    0  0.84417112717E-02 -0.24072052796E-01 -0.31469043188E-02  0.25702708453E-01  0.00000000000E+00 0.  1.
     999901    1    3    3    0    0  0.18517989631E-02  0.11592785988E+00  0.87050069986E-01  0.89186344949E+00  0.88000000000E+00 0. -1.
        -11    1    4    4    0    0 -0.11805018764E-01 -0.26587846082E-01 -0.23139461877E-01  0.37174828100E-01  0.51100000000E-03 0.  1.
         11    1    4    4    0    0  0.15115085291E-02 -0.65267960999E-01 -0.60763703790E-01  0.89189013956E-01  0.51100000000E-03 0. -1.
</event>
<event>
 8    1  0.9952977E+004  0.1043930E+01  0.7957747E-01            NaN
         13   -1    0    0    0    0  0.00000000000E+00  0.00000000000E+00  0.74505805969E-08  0.10566000000E+00  0.10566000000E+00 0.  1.
     999900   -1    0    0    0    0 -0.00000000000E+00 -0.00000000000E+00 -0.74505805969E-08  0.93827000000E+00  0.93827000000E+00 0.  1.
     999902    2    1    2    0    0  0.18728340156E-01  0.10864085384E-01 -0.71163338152E-02  0.10211391842E+01  0.10208848183E+01 0.  0.
     999903    2    3    3    0    0 -0.12394734813E+00  0.25279448369E-01 -0.19048441612E-01  0.12945172222E+00  0.19821948418E-01 0.  0.
         14    1    1    2    0    0 -0.18728340156E-01 -0.10864085384E-01  0.71163338152E-02  0.22790815765E-01  0.00000000000E+00 0.  1.
     999901    1    3    3    0    0  0.14267568829E+00 -0.14415362985E-01  0.11932107797E-01  0.89168746202E+00  0.88000000000E+00 0.  1.
        -11    1    4    4    0    0 -0.15999113473E-01 -0.33119745349E-02 -0.32829508455E-02  0.16672723068E-01  0.51100000000E-03 0. -1.
         11    1    4    4    0    0 -0.10794823466E+00  0.28591422904E-01 -0.15765490766E-01  0.11277899915E+00  0.51100000000E-03 0.  1.
</event>
<event>
 8    1  0.9952977E+004  0.1043930E+01  0.7957747E-01            NaN
         13   -1    0    0    0    0  0.00000000000E+00  0.00000000000E+00  0.74505805969E-08  0.10566000000E+00  0.10566000000E+00 0. -1.
     999900   -1    0    0    0    0 -0.00000000000E+00 -0.00000000000E+00 -0.74505805969E-08  0.93827000000E+00  0.93827000000E+00 0. -1.
     999902    2    1    2    0    0 -0.17182037070E-01  0.14396801134E-01  0.34537376659E-02  0.10212492023E+01  0.10209973137E+01 0.  0.
     999903    2    3    3    0    0 -0.80448253712E-01 -0.94395295736E-01 -0.38572847351E-01  0.13130281719E+00  0.19239851009E-01 0.  0.
         14    1    1    2    0    0  0.17182037070E-01 -0.14396801134E-01 -0.34537376659E-02  0.22680797707E-01  0.00000000000E+00 0.  1.
     999901    1    3    3    0    0  0.63266216642E-01  0.10879209687E+00  0.42026585016E-01  0.88994638510E+00  0.88000000000E+00 0. -1.
        -11    1    4    4    0    0 -0.74918358995E-01 -0.79329835175E-01 -0.30321716187E-01  0.11325039010E+00  0.51100000000E-03 0.  1.
         11    1    4    4    0    0 -0.55298947175E-02 -0.15065460561E-01 -0.82511311639E-02  0.18052427094E-01  0.51100000000E-03 0. -1.
</event>
<event>
 8    1  0.9952977E+004  0.1043930E+01  0.7957747E-01            NaN
         13   -1    0    0    0    0  0.00000000000E+00  0.00000000000E+00  0.74505805969E-08  0.10566000000E+00  0.10566000000E+00 0.  1.
     999900   -1    0    0    0    0 -0.00000000000E+00 -0.00000000000E+00 -0.74505805969E-08  0.93827000000E+00  0.93827000000E+00 0. -1.
     999902    2    1    2    0    0  0.21302608022E-01 -0.10074002528E-01 -0.44093859536E-02  0.10199564871E+01  0.10196747061E+01 0.  0.
     999903    2    3    3    0    0 -0.11343865666E+00 -0.13119643027E-01 -0.54776919384E-01  0.12827191690E+00  0.20315509129E-01 0.  0.
         14    1    1    2    0    0 -0.21302608022E-01  0.10074002528E-01  0.44093859536E-02  0.23973512883E-01  0.00000000000E+00 0.  1.
     999901    1    3    3    0    0  0.13474126468E+00  0.30456404995E-02  0.50367533430E-01  0.89168457021E+00  0.88000000000E+00 0.  1.
        -11    1    4    4    0    0 -0.28781922561E-01 -0.13172502010E-02 -0.46743818838E-02  0.29193238625E-01  0.51100000000E-03 0. -1.
         11    1    4    4    0    0 -0.84656734098E-01 -0.11802392826E-01 -0.50102537500E-01  0.99078678279E-01  0.51100000000E-03 0.  1.
</event>
<event>
 8    1  0.9952977E+004  0.1043930E+01  0.7957747E-01            NaN
         13   -1    0    0    0    0  0.00000000000E+00  0.00000000000E+00  0.74505805969E-08  0.10566000000E+00  0.10566000000E+00 0. -1.
     999900   -1    0    0    0    0 -0.00000000000E+00 -0.00000000000E+00 -0.74505805969E-08  0.93827000000E+00  0.93827000000E+00 0. -1.
     999902    2    1    2    0    0  0.36307522222E-02 -0.81878880756E-02  0.21814643899E-01  0.10203481731E+01  0.10200756304E+01 0.  0.
     999903    2    3    3    0    0  0.33845107216E-02 -0.79085417368E-01 -0.10016514528E+00  0.12910993934E+00  0.19244790302E-01 0.  0.
         14    1    1    2    0    0 -0.36307522222E-02  0.81878880756E-02 -0.21814643899E-01  0.23581826929E-01  0.00000000000E+00 0.  1.
     999901    1    3    3    0    0  0.24624150065E-03  0.70897529292E-01  0.12197978918E+00  0.89123823373E+00  0.88000000000E+00 0.  1.
        -11    1    4    4    0    0 -0.70193380984E-02 -0.49228169232E-01 -0.57887618698E-01  0.76314620308E-01  0.51100000000E-03 0.  1.
         11    1    4    4    0    0  0.10403848820E-01 -0.29857248136E-01 -0.42277526586E-01  0.52795319032E-01  0.51100000000E-03 0. -1.
</event>
<event>
 8    1  0.9952977E+004  0.1043930E+01  0.7957747E-01            NaN
         13   -1    0    0    0    0  0.00000000000E+00  0.00000000000E+00  0.74505805969E-08  0.10566000000E+00  0.10566000000E+00 0. -1.
     999900   -1    0    0    0    0 -0.00000000000E+00 -0.00000000000E+00 -0.74505805969E-08  0.93827000000E+00  0.93827000000E+00 0. -1.
     999902    2    1    2    0    0 -0.59233209108E-02  0.18133642330E-01  0.15405085222E-01  0.10194099803E+01  0.10191150458E+01 0.  0.
     999903    2    3    3    0    0 -0.12213237760E+00  0.18911104178E-01  0.39948819749E-01  0.13143050746E+00  0.20102800121E-01 0.  0.
         14    1    1    2    0    0  0.59233209108E-02 -0.18133642330E-01 -0.15405085222E-01  0.24520019687E-01  0.00000000000E+00 0.  1.
     999901    1    3    3    0    0  0.11620905669E+00 -0.77746184876E-03 -0.24543734527E-01  0.88797947285E+00  0.88000000000E+00 0. -1.
        -11    1    4    4    0    0 -0.64638001334E-01  0.93423950757E-02  0.10582934262E-01  0.66163518504E-01  0.51100000000E-03 0. -1.
         11    1    4    4    0    0 -0.57494376265E-01  0.95687091026E-02  0.29365885487E-01  0.65266988956E-01  0.51100000000E-03 0.  1.
</event>
<event>
 8    1  0.9952977E+004  0.1043930E+01  0.7957747E-01            NaN
         13   -1    0    0    0    0  0.00000000000E+00  0.00000000000E+00  0.74505805969E-08  0.10566000000E+00  0.10566000000E+00 0.  1.
     999900   -1    0    0    0    0 -0.00000000000E+00 -0.00000000000E+00 -0.74505805969E-08  0.93827000000E+00  0.93827000000E+00 0.  1.
     999902    2    1    2    0    0  0.52543351979E-02 -0.58416497836E-02 -0.22580020924E-01  0.10200220462E+01  0.10197418224E+01 0.  0.
     999903    2    3    3    0    0  0.59571915788E-02 -0.12719000286E+00  0.21157360265E-01  0.13061838344E+00  0.20018572385E-01 0.  0.
         14    1    1    2    0    0 -0.52543351979E-02  0.58416497836E-02  0.22580020924E-01  0.23907953812E-01  0.00000000000E+00 0.  1.
     999901    1    3    3    0    0 -0.70285638097E-03  0.12134835307E+00 -0.43737381189E-01  0.88940366275E+00  0.88000000000E+00 0.  1.
        -11    1    4    4    0    0  0.40893851714E-02 -0.70142998689E-01  0.16039352105E-02  0.70282267075E-01  0.51100000000E-03 0. -1.
         11    1    4    4    0    0  0.18678064074E-02 -0.57047004168E-01  0.19553425054E-01  0.60336116362E-01  0.51100000000E-03 0.  1.
</event>
<event>
 8    1  0.9952977E+004  0.1043930E+01  0.7957747E-01            NaN
         13   -1    0    0    0    0  0.00000000000E+00  0.00000000000E+00  0.74505805969E-08  0.10566000000E+00  0.10566000000E+00 0.  1.
     999900   -1    0    0    0    0 -0.00000000000E+00 -0.00000000000E+00 -0.74505805969E-08  0.93827000000E+00  0.93827000000E+00 0. -1.
     999902    2    1    2    0    0  0.22585873790E-01 -0.30367230578E-02 -0.78325514355E-02  0.10198324432E+01  0.10195477036E+01 0.  0.
     999903    2    3    3    0    0  0.48154826917E-01  0.43952405250E-01 -0.11291288972E+00  0.13196779865E+00  0.20383275806E-01 0.  0.
         14    1    1    2    0    0 -0.22585873790E-01  0.30367230578E-02  0.78325514355E-02  0.24097556801E-01  0.00000000000E+00 0.  1.
     999901    1    3    3    0    0 -0.25568953128E-01 -0.46989128308E-01  0.10508033829E+00  0.88786464455E+00  0.88000000000E+00 0.  1.
        -11    1    4    4    0    0  0.21843081654E-01  0.11535325399E-01 -0.57509341716E-01  0.62592087789E-01  0.51100000000E-03 0. -1.
         11    1    4    4    0    0  0.26311745263E-01  0.32417079851E-01 -0.55403548007E-01  0.69375710862E-01  0.51100000000E-03 0.  1.
</event>
<event>
 8    1  0.9952977E+004  0.1043930E+01  0.7957747E-01            NaN
         13   -1    0    0    0    0  0.00000000000E+00  0.00000000000E+00  0.74505805969E-08  0.10566000000E+00  0.10566000000E+00 0.  1.
     999900   -1    0    0    0    0 -0.00000000000E+00 -0.00000000000E+00 -0.74505805969E-08  0.93827000000E+00  0.93827000000E+00 0. -1.
     999902    2    1    2    0    0  0.20809300265E-01  0.40093243577E-02 -0.11355097493E-01  0.10198875397E+01  0.10196041162E+01 0.  0.
     999903    2    3    3    0    0  0.57290127989E-01  0.10425018336E+00 -0.56052247133E-01  0.13231956155E+00  0.14708924710E-01 0.  0.
         14    1    1    2    0    0 -0.20809300265E-01 -0.40093243577E-02  0.11355097493E-01  0.24042460323E-01  0.00000000000E+00 0.  1.
     999901    1    3    3    0    0 -0.36480827724E-01 -0.10024085900E+00  0.44697149640E-01  0.88756797812E+00  0.88000000000E+00 0. -1.
        -11    1    4    4    0    0  0.28413196082E-01  0.66485130426E-01 -0.34803307384E-01  0.80244087665E-01  0.51100000000E-03 0.  1.
         11    1    4    4    0    0  0.28876931907E-01  0.37765052931E-01 -0.21248939749E-01  0.52075473888E-01  0.51100000000E-03 0. -1.
</event>
<event>
 8    1  0.9952977E+004  0.1043930E+01  0.7957747E-01            NaN
         13   -1    0    0    0    0  0.00000000000E+00  0.00000000000E+00  0.74505805969E-08  0.10566000000E+00  0.10566000000E+00 0. -1.
     999900   -1    0    0    0    0 -0.00000000000E+00 -0.00000000000E+00 -0.74505805969E-08  0.93827000000E+00  0.93827000000E+00 0.  1.
     999902    2    1    2    0    0 -0.11942267567E-01 -0.88171491607E-02  0.18211885298E-01  0.10204346251E+01  0.10201641003E+01 0.  0.
     999903    2    3    3    0    0  0.45371573901E-01 -0.37950239322E-01 -0.11235372366E+00  0.12848115572E+00  0.19627729651E-01 0.  0.
         14    1    1    2    0    0  0.11942267567E-01  0.88171491607E-02 -0.18211885298E-01  0.23495374866E-01  0.00000000000E+00 0.  1.
     999901    1    3    3    0    0 -0.57313841468E-01  0.29133090161E-01  0.13056560896E+00  0.89195346942E+00  0.88000000000E+00 0.  1.
        -11    1    4    4    0    0  0.22187245833E-01 -0.14672663882E-01 -0.69938504082E-01  0.74827912020E-01  0.51100000000E-03 0. -1.
         11    1    4    4    0    0  0.23184328068E-01 -0.23277575440E-01 -0.42415219576E-01  0.53653243695E-01  0.51100000000E-03 0.  1.
</event>
<event>
 8    1  0.9952977E+004  0.1043930E+01  0.7957747E-01            NaN
         13   -1    0    0    0    0  0.00000000000E+00  0.00000000000E+00  0.74505805969E-08  0.10566000000E+00  0.10566000000E+00 0.  1.
     999900   -1    0    0    0    0 -0.00000000000E+00 -0.00000000000E+00 -0.74505805969E-08  0.93827000000E+00  0.93827000000E+00 0. -1.
     999902    2    1    2    0    0 -0.47304650452E-02 -0.16215985781E-01  0.14701841040E-01  0.10215362593E+01  0.10212907761E+01 0.  0.
     999903    2    3    3    0    0 -0.91145204097E-01 -0.91511874220E-01  0.29643365370E-01  0.13397768255E+00  0.19733701065E-01 0.  0.
         14    1    1    2    0    0  0.47304650452E-02  0.16215985781E-01 -0.14701841040E-01  0.22393740741E-01  0.00000000000E+00 0.  1.
     999901    1    3    3    0    0  0.86414739052E-01  0.75295888439E-01 -0.14941524330E-01  0.88755857671E+00  0.88000000000E+00 0.  1.
        -11    1    4    4    0    0 -0.27581967210E-01 -0.18076243128E-01  0.22251122726E-02  0.33056432451E-01  0.51100000000E-03 0.  1.
         11    1    4    4    0    0 -0.63563236888E-01 -0.73435631092E-01  0.27418253098E-01  0.10092125010E+00  0.51100000000E-03 0. -1.
</event>
<event>
 8    1  0.9952977E+004  0.1043930E+01  0.7957747E-01            NaN
         13   -1    0    0    0    0  0.00000000000E+00  0.00000000000E+00  0.74505805969E-08  0.10566000000E+00  0.10566000000E+00 0. -1.
     999900   -1    0    0    0    0 -0.00000000000E+00 -0.00000000000E+00 -0.74505805969E-08  0.93827000000E+00  0.93827000000E+00 0. -1.
     999902    2    1    2    0    0 -0.14120295296E-01  0.11474487930E-01  0.11194945666E-01  0.10225671018E+01  0.10223439266E+01 0.  0.
     999903    2    3    3    0    0 -0.31237445211E-01  0.38761456616E-01  0.12372522085E+00  0.13481677745E+00  0.19733339948E-01 0.  0.
         14    1    1    2    0    0  0.14120295296E-01 -0.11474487930E-01 -0.11194945666E-01  0.21362898234E-01  0.00000000000E+00 0.  1.
     999901    1    3    3    0    0  0.17117149915E-01 -0.27286968687E-01 -0.11253027519E+00  0.88775032431E+00  0.88000000000E+00 0. -1.
        -11    1    4    4    0    0 -0.16341944523E-01  0.57641893830E-02  0.41076784408E-01  0.44585293184E-01  0.51100000000E-03 0.  1.
         11    1    4    4    0    0 -0.14895500688E-01  0.32997267234E-01  0.82648436446E-01  0.90231484270E-01  0.51100000000E-03 0. -1.
</event>
<event>
 8    1  0.9952977E+004  0.1043930E+01  0.7957747E-01            NaN
         13   -1    0    0    0    0  0.00000000000E+00  0.00000000000E+00  0.74505805969E-08  0.10566000000E+00  0.10566000000E+00 0.  1.
     999900   -1    0    0    0    0 -0.00000000000E+00 -0.00000000000E+00 -0.74505805969E-08  0.93827000000E+00  0.93827000000E+00 0. -1.
     999902    2    1    2    0    0  0.14492788919E-01  0.15824031069E-01 -0.88143244646E-02  0.10207323017E+01  0.10204686661E+01 0.  0.
     999903    2    3    3    0    0 -0.11329501401E+00 -0.22402286694E-01  0.52645962877E-01  0.12856172337E+00  0.20466965103E-01 0.  0.
         14    1    1    2    0    0 -0.14492788919E-01 -0.15824031069E-01  0.88143244646E-02  0.23197698285E-01  0.00000000000E+00 0.  1.
     999901    1    3    3    0    0  0.12778780293E+00  0.38226317764E-01 -0.61460287341E-01  0.89217057835E+00  0.88000000000E+00 0.  1.
        -11    1    4    4    0    0 -0.66977485393E-01 -0.13572935209E-01  0.42017823529E-01  0.80224477155E-01  0.51100000000E-03 0. -1.
         11    1    4    4    0    0 -0.46317528614E-01 -0.88293514850E-02  0.10628139348E-01  0.48337246214E-01  0.51100000000E-03 0.  1.
</event>
<event>
 8    1  0.9952977E+004  0.1043930E+01  0.7957747E-01            NaN
         13   -1    0    0    0    0  0.00000000000E+00  0.00000000000E+00  0.74505805969E-08  0.10566000000E+00  0.10566000000E+00 0.  1.
     999900   -1    0    0    0    0 -0.00000000000E+00 -0.00000000000E+00 -0.74505805969E-08  0.93827000000E+00  0.93827000000E+00 0.  1.
     999902    2    1    2    0    0  0.14372557492E-01 -0.11882446968E-01 -0.17112867709E-01  0.10186196623E+01  0.10183051621E+01 0.  0.
     999903    2    3    3    0    0  0.24881167145E-01 -0.12870943519E-01 -0.12713236807E+00  0.13170608223E+00  0.19977973339E-01 0.  0.
         14    1    1    2    0    0 -0.14372557492E-01  0.11882446968E-01  0.17112867709E-01  0.25310337731E-01  0.00000000000E+00 0.  1.
     999901    1    3    3    0    0 -0.10508609652E-01  0.98849655109E-03  0.11001950036E+00  0.88691358004E+00  0.88000000000E+00 0. -1.
        -11    1    4    4    0    0  0.22442094700E-01 -0.14571859413E-01 -0.77665640974E-01  0.82147426072E-01  0.51100000000E-03 0. -1.
         11    1    4    4    0    0  0.24390724451E-02  0.17009158941E-02 -0.49466727097E-01  0.49558656156E-01  0.51100000000E-03 0.  1.
</event>
<event>
 8    1  0.9952977E+004  0.1043930E+01  0.7957747E-01            NaN
         13   -1    0    0    0    0  0.00000000000E+00  0.00000000000E+00  0.74505805969E-08  0.10566000000E+00  0.10566000000E+00 0.  1.
     999900   -1    0    0    0    0 -0.00000000000E+00 -0.00000000000E+00 -0.74505805969E-08  0.93827000000E+00  0.93827000000E+00 0.  1.
     999902    2    1    2    0    0 -0.75712408727E-02  0.22029372093E-01  0.13024109026E-02  0.10205994793E+01  0.10203327810E+01 0.  0.
     999903    2    3    3    0    0 -0.19944411956E-01 -0.17343461031E-01 -0.12610956358E+00  0.13046627206E+00  0.20475617409E-01 0.  0.
         14    1    1    2    0    0  0.75712408727E-02 -0.22029372093E-01 -0.13024109026E-02  0.23330520726E-01  0.00000000000E+00 0. -1.
     999901    1    3    3    0    0  0.12373171083E-01  0.39372833125E-01  0.12741197449E+00  0.89013320722E+00  0.88000000000E+00 0. -1.
        -11    1    4    4    0    0 -0.74430784935E-03 -0.68402810545E-02 -0.68351297333E-01  0.68698649238E-01  0.51100000000E-03 0. -1.
         11    1    4    4    0    0 -0.19200104107E-01 -0.10503179977E-01 -0.57758266250E-01  0.61767622817E-01  0.51100000000E-03 0.  1.
</event>
<event>
 8    1  0.9952977E+004  0.1043930E+01  0.7957747E-01            NaN
         13   -1    0    0    0    0  0.00000000000E+00  0.00000000000E+00  0.74505805969E-08  0.10566000000E+00  0.10566000000E+00 0.  1.
     999900   -1    0    0    0    0 -0.00000000000E+00 -0.00000000000E+00 -0.74505805969E-08  0.93827000000E+00  0.93827000000E+00 0. -1.
     999902    2    1    2    0    0 -0.11228477958E-01  0.18075936939E-03  0.21494564191E-01  0.10196786561E+01  0.10193902266E+01 0.  0.
     999903    2    3    3    0    0 -0.14372858498E-01 -0.12175908215E+00 -0.36916078668E-01  0.12934668696E+00  0.18327995421E-01 0.  0.
         14    1    1    2    0    0  0.11228477958E-01 -0.18075936939E-03 -0.21494564191E-01  0.24251343900E-01  0.00000000000E+00 0. -1.
     999901    1    3    3    0    0  0.31443805407E-02  0.12193984152E+00  0.58410642859E-01  0.89033196914E+00  0.88000000000E+00 0.  1.
        -11    1    4    4    0    0 -0.53014340479E-02 -0.43555382480E-01 -0.22484923648E-01  0.49305268059E-01  0.51100000000E-03 0. -1.
         11    1    4    4    0    0 -0.90714244503E-02 -0.78203699666E-01 -0.14431155021E-01  0.80041418898E-01  0.51100000000E-03 0.  1.
</event>
<event>
 8    1  0.9952977E+004  0.1043930E+01  0.7957747E-01            NaN
         13   -1    0    0    0    0  0.00000000000E+00  0.00000000000E+00  0.74505805969E-08  0.10566000000E+00  0.10566000000E+00 0. -1.
     999900   -1    0    0    0    0 -0.00000000000E+00 -0.00000000000E+00 -0.74505805969E-08  0.93827000000E+00  0.93827000000E+00 0.  1.
     999902    2    1    2    0    0  0.16030221315E-01  0.11683569366E-01  0.12854241044E-01  0.10202930522E+01  0.10200192190E+01 0.  0.
     999903    2    3    3    0    0  0.34888411342E-01  0.12523066429E+00 -0.11039807627E-01  0.13247578516E+00  0.22979029051E-01 0.  0.
         14    1    1    2    0    0 -0.16030221315E-01 -0.11683569366E-01 -0.12854241044E-01  0.23636947801E-01  0.00000000000E+00 0.  1.
     999901    1    3    3    0    0 -0.18858190027E-01 -0.11354709492E+00  0.23894048671E-01  0.88781726704E+00  0.88000000000E+00 0. -1.
        -11    1    4    4    0    0  0.10753466664E-01  0.60372039478E-01  0.46957711285E-02  0.61503915188E-01  0.51100000000E-03 0. -1.
         11    1    4    4    0    0  0.24134944677E-01  0.64858624812E-01 -0.15735578756E-01  0.70971869968E-01  0.51100000000E-03 0.  1.
</event>
<event>
 8    1  0.9952977E+004  0.1043930E+01  0.7957747E-01            NaN
         13   -1    0    0    0    0  0.00000000000E+00  0.00000000000E+00  0.74505805969E-08  0.10566000000E+00  0.10566000000E+00 0. -1.
     999900   -1    0    0    0    0 -0.00000000000E+00 -0.00000000000E+00 -0.74505805969E-08  0.93827000000E+00  0.93827000000E+00 0. -1.
     999902    2    1    2    0    0 -0.10549094253E-01 -0.72052038838E-02 -0.19969223884E-01  0.10202241304E+01  0.10199486791E+01 0.  0.
     999903    2    3    3    0    0  0.77378723505E-01 -0.65588661494E-01  0.76651254349E-01  0.12866625447E+00  0.19754768491E-01 0.  0.
         14    1    1    2    0    0  0.10549094253E-01  0.72052038838E-02  0.19969223884E-01  0.23705869634E-01  0.00000000000E+00 0. -1.
     999901    1    3    3    0    0 -0.87927817758E-01  0.58383457610E-01 -0.96620478234E-01  0.89155787590E+00  0.88000000000E+00 0. -1.
        -11    1    4    4    0    0  0.46055155282E-01 -0.32755367326E-01  0.31746443732E-01  0.64823523719E-01  0.51100000000E-03 0.  1.
         11    1    4    4    0    0  0.31323568223E-01 -0.32833294168E-01  0.44904810617E-01  0.63842730751E-01  0.51100000000E-03 0. -1.
</event>
<event>
 8    1  0.9952977E+004  0.1043930E+01  0.7957747E-01            NaN
         13   -1    0    0    0    0  0.00000000000E+00  0.00000000000E+00  0.74505805969E-08  0.10566000000E+00  0.10566000000E+00 0. -1.
     999900   -1    0    0    0    0 -0.00000000000E+00 -0.00000000000E+00 -0.74505805969E-08  0.93827000000E+00  0.93827000000E+00 0.  1.
     999902    2    1    2    0    0  0.14265414782E-01  0.17522456144E-01 -0.65418355529E-02  0.10204069445E+01  0.10201357744E+01 0.  0.
     999903    2    3    3    0    0  0.56470782770E-01 -0.31427073263E-01  0.11142894812E+00  0.13018536796E+00  0.18846997401E-01 0.  0.
         14    1    1    2    0    0 -0.14265414782E-01 -0.17522456144E-01  0.65418355529E-02  0.23523055512E-01  0.00000000000E+00 0. -1.
     999901    1    3    3    0    0 -0.42205367987E-01  0.48949529408E-01 -0.11797078367E+00  0.89022157653E+00  0.88000000000E+00 0.  1.
        -11    1    4    4    0    0  0.12997106979E-01 -0.16848490535E-01  0.31031133561E-01  0.37629626549E-01  0.51100000000E-03 0. -1.
         11    1    4    4    0    0  0.43473675791E-01 -0.14578582728E-01  0.80397814559E-01  0.92555741410E-01  0.51100000000E-03 0.  1.
</event>
<event>
 8    1  0.9952977E+004  0.1043930E+01  0.7957747E-01            NaN
         13   -1    0    0    0    0  0.00000000000E+00  0.00000000000E+00  0.74505805969E-08  0.10566000000E+00  0.10566000000E+00 0. -1.
     999900   -1    0    0    0    0 -0.00000000000E+00 -0.00000000000E+00 -0.74505805969E-08  0.93827000000E+00  0.93827000000E+00 0. -1.
     999902    2    1    2    0    0 -0.13934839013E-01  0.13880080837E-01 -0.13112148307E-01  0.10202917933E+01  0.10200179306E+01 0.  0.
     999903    2    3    3    0    0  0.43953458835E-02  0.32612000190E-01 -0.12670377966E+00  0.13260381930E+00  0.21143875958E-01 0.  0.
         14    1    1    2    0    0  0.13934839013E-01 -0.13880080837E-01  0.13112148307E-01  0.23638206692E-01  0.00000000000E+00 0. -1.
     999901    1    3    3    0    0 -0.18330184897E-01 -0.18731919353E-01  0.11359163136E+00  0.88768797401E+00  0.88000000000E+00 0.  1.
        -11    1    4    4    0    0  0.10968946863E-01  0.19204332053E-01 -0.53544762078E-01  0.57934677283E-01  0.51100000000E-03 0.  1.
         11    1    4    4    0    0 -0.65736009799E-02  0.13407668137E-01 -0.73159017586E-01  0.74669142019E-01  0.51100000000E-03 0. -1.
</event>
<event>
 8    1  0.9952977E+004  0.1043930E+01  0.7957747E-01            NaN
         13   -1    0    0    0    0  0.00000000000E+00  0.00000000000E+00  0.74505805969E-08  0.10566000000E+00  0.10566000000E+00 0. -1.
     999900   -1    0    0    0    0 -0.00000000000E+00 -0.00000000000E+00 -0.74505805969E-08  0.93827000000E+00  0.93827000000E+00 0.  1.
     999902    2    1    2    0    0 -0.22601148698E-01  0.36008310687E-02  0.80394705117E-02  0.10196728156E+01  0.10193842455E+01 0.  0.
     999903    2    3    3    0    0  0.73754970347E-02 -0.65866491930E-01 -0.10815849435E+00  0.12881577027E+00  0.22415397689E-01 0.  0.
         14    1    1    2    0    0  0.22601148698E-01 -0.36008310687E-02 -0.80394705117E-02  0.24257184358E-01  0.00000000000E+00 0.  1.
     999901    1    3    3    0    0 -0.29976645733E-01  0.69467322999E-01  0.11619796486E+00  0.89085704537E+00  0.88000000000E+00 0. -1.
        -11    1    4    4    0    0  0.13864293256E-01 -0.30633540239E-01 -0.44646421042E-01  0.55894511787E-01  0.51100000000E-03 0. -1.
         11    1    4    4    0    0 -0.64887962216E-02 -0.35232951691E-01 -0.63512073311E-01  0.72921258482E-01  0.51100000000E-03 0.  1.
</event>
<event>
 8    1  0.9952977E+004  0.1043930E+01  0.7957747E-01            NaN
         13   -1    0    0    0    0  0.00000000000E+00  0.00000000000E+00  0.74505805969E-08  0.10566000000E+00  0.10566000000E+00 0.  1.
     999900   -1    0    0    0    0 -0.00000000000E+00 -0.00000000000E+00 -0.74505805969E-08  0.93827000000E+00  0.93827000000E+00 0.  1.
     999902    2    1    2    0    0  0.16306578666E-01 -0.79452829507E-02 -0.15626240490E-01  0.10199881659E+01  0.10197071379E+01 0.  0.
     999903    2    3    3    0    0  0.11516182626E+00 -0.50004546015E-01  0.35112196411E-01  0.13200408350E+00  0.20724644129E-01 0.  0.
         14    1    1    2    0    0 -0.16306578666E-01  0.79452829507E-02  0.15626240490E-01  0.23941834115E-01  0.00000000000E+00 0.  1.
     999901    1    3    3    0    0 -0.98855247596E-01  0.42059263064E-01 -0.50738436901E-01  0.88798408238E+00  0.88000000000E+00 0.  1.
        -11    1    4    4    0    0  0.10357320511E+00 -0.50581460324E-01  0.28902184719E-01  0.11883387710E+00  0.51100000000E-03 0.  1.
         11    1    4    4    0    0  0.11588621154E-01  0.57691430942E-03  0.62100116917E-02  0.13170206399E-01  0.51100000000E-03 0. -1.
</event>
<event>
 8    1  0.9952977E+004  0.1043930E+01  0.7957747E-01            NaN
         13   -1    0    0    0    0  0.00000000000E+00  0.00000000000E+00  0.74505805969E-08  0.10566000000E+00  0.10566000000E+00 0.  1.
     999900   -1    0    0    0    0 -0.00000000000E+00 -0.00000000000E+00 -0.74505805969E-08  0.93827000000E+00  0.93827000000E+00 0. -1.
     999902    2    1    2    0    0  0.22923448557E-01 -0.43058648783E-02 -0.26640275310E-02  0.10204540121E+01  0.10201839387E+01 0.  0.
     999903    2    3    3    0    0 -0.52970490115E-01  0.24408505594E-01  0.11346864613E+00  0.12912287109E+00  0.19898095794E-01 0.  0.
         14    1    1    2    0    0 -0.22923448557E-01  0.43058648783E-02  0.26640275310E-02  0.23475987920E-01  0.00000000000E+00 0.  1.
     999901    1    3    3    0    0  0.75893938673E-01 -0.28714370473E-01 -0.11613267366E+00  0.89133114099E+00  0.88000000000E+00 0. -1.
        -11    1    4    4    0    0 -0.33233495686E-01  0.25385309385E-01  0.75024309292E-01  0.85894046789E-01  0.51100000000E-03 0. -1.
         11    1    4    4    0    0 -0.19736994429E-01 -0.97680379066E-03  0.38444336840E-01  0.43228824305E-01  0.51100000000E-03 0.  1.
</event>
<event>
 8    1  0.9952977E+004  0.1043930E+01  0.7957747E-01            NaN
         13   -1    0    0    0    0  0.00000000000E+00  0.00000000000E+00  0.74505805969E-08  0.10566000000E+00  0.10566000000E+00 0. -1.
     999900   -1    0    0    0    0 -0.00000000000E+00 -0.00000000000E+00 -0.74505805969E-08  0.93827000000E+00  0.93827000000E+00 0.  1.
     999902    2    1    2    0    0  0.23609038711E-01  0.16041547403E-01  0.37702199874E-02  0.10151388119E+01  0.10147304445E+01 0.  0.
     999903    2    3    3    0    0  0.14727487636E-01 -0.10502638609E+00 -0.60718070688E-01  0.12446767952E+00  0.23623684494E-01 0.  0.
         14    1    1    2    0    0 -0.23609038711E-01 -0.16041547403E-01 -0.37702199874E-02  0.28791188073E-01  0.00000000000E+00 0.  1.
     999901    1    3    3    0    0  0.88815510747E-02  0.12106793349E+00  0.64488290675E-01  0.89067113241E+00  0.88000000000E+00 0. -1.
        -11    1    4    4    0    0 -0.54525655473E-02 -0.44801085742E-01 -0.25083517464E-01  0.51636341118E-01  0.51100000000E-03 0. -1.
         11    1    4    4    0    0  0.20180053184E-01 -0.60225300350E-01 -0.35634553224E-01  0.72831338401E-01  0.51100000000E-03 0.  1.
</event>
<event>
 8    1  0.9952977E+004  0.1043930E+01  0.7957747E-01            NaN
         13   -1    0    0    0    0  0.00000000000E+00  0.00000000000E+00  0.74505805969E-08  0.10566000000E+00  0.10566000000E+00 0.  1.
     999900   -1    0    0    0    0 -0.00000000000E+00 -0.00000000000E+00 -0.74505805969E-08  0.93827000000E+00  0.93827000000E+00 0. -1.
     999902    2    1    2    0    0  0.64536608992E-02 -0.22022787098E-01  0.63298987688E-02  0.10201241077E+01  0.10198462995E+01 0.  0.
     999903    2    3    3    0    0  0.10741865869E+00  0.51655000289E-01  0.48473417890E-01  0.13029354890E+00  0.20487297370E-01 0.  0.
         14    1    1    2    0    0 -0.64536608992E-02  0.22022787098E-01 -0.63298987688E-02  0.23805892317E-01  0.00000000000E+00 0.  1.
     999901    1    3    3    0    0 -0.10096499779E+00 -0.73677787388E-01 -0.42143519121E-01  0.88983055878E+00  0.88000000000E+00 0. -1.
        -11    1    4    4    0    0  0.49001190326E-01  0.32666186135E-01  0.30313378261E-01  0.66237137563E-01  0.51100000000E-03 0. -1.
         11    1    4    4    0    0  0.58417468368E-01  0.18988814154E-01  0.18160039629E-01  0.64056411340E-01  0.51100000000E-03 0.  1.
</event>
<event>
 8    1  0.9952977E+004  0.1043930E+01  0.7957747E-01            NaN
         13   -1    0    0    0    0  0.00000000000E+00  0.00000000000E+00  0.74505805969E-08  0.10566000000E+00  0.10566000000E+00 0.  1.
     999900   -1    0    0    0    0 -0.00000000000E+00 -0.00000000000E+00 -0.74505805969E-08  0.93827000000E+00  0.93827000000E+00 0. -1.
     999902    2    1    2    0    0 -0.72649876839E-02  0.28624420921E-03 -0.25334843515E-01  0.10175725290E+01  0.10172311121E+01 0.  0.
     999903    2    3    3    0    0 -0.84990269229E-02 -0.11458475423E+00 -0.55412518990E-01  0.12959643940E+00  0.22864612014E-01 0.  0.
         14    1    1    2    0    0  0.72649876839E-02 -0.28624420921E-03  0.25334843515E-01  0.26357471004E-01  0.00000000000E+00 0.  1.
     999901    1    3    3    0    0  0.12340392390E-02  0.11487099844E+00  0.30077675475E-01  0.88797608960E+00  0.88000000000E+00 0.  1.
        -11    1    4    4    0    0 -0.11937504083E-01 -0.42962633034E-01 -0.28933118114E-01  0.53157109456E-01  0.51100000000E-03 0.  1.
         11    1    4    4    0    0  0.34384771597E-02 -0.71622121199E-01 -0.26479400877E-01  0.76439329942E-01  0.51100000000E-03 0. -1.
</event>
<event>
 8    1  0.9952977E+004  0.1043930E+01  0.7957747E-01            NaN
         13   -1    0    0    0    0  0.00000000000E+00  0.00000000000E+00  0.74505805969E-08  0.10566000000E+00  0.10566000000E+00 0.  1.
     999900   -1    0    0    0    0 -0.00000000000E+00 -0.00000000000E+00 -0.74505805969E-08  0.93827000000E+00  0.93827000000E+00 0. -1.
     999902    2    1    2    0    0  0.17273733489E-02  0.10904696712E-02  0.22806924299E-01  0.10210317743E+01  0.10207749779E+01 0.  0.
     999903    2    3    3    0    0 -0.94075310448E-01  0.73537052016E-01 -0.47696791520E-01  0.13007866925E+00  0.19687920571E-01 0.  0.
         14    1    1    2    0    0 -0.17273733489E-02 -0.10904696712E-02 -0.22806924299E-01  0.22898225669E-01  0.00000000000E+00 0. -1.
     999901    1    3    3    0    0  0.95802683797E-01 -0.72446582345E-01  0.70503715819E-01  0.89095310508E+00  0.88000000000E+00 0.  1.
        -11    1    4    4    0    0 -0.80125580128E-01  0.69980550188E-01 -0.44539131201E-01  0.11533161459E+00  0.51100000000E-03 0.  1.
         11    1    4    4    0    0 -0.13949730320E-01  0.35565018285E-02 -0.31576603190E-02  0.14747054654E-01  0.51100000000E-03 0. -1.
</event>
<event>
 8    1  0.9952977E+004  0.1043930E+01  0.7957747E-01            NaN
         13   -1    0    0    0    0  0.00000000000E+00  0.00000000000E+00  0.74505805969E-08  0.10566000000E+00  0.10566000000E+00 0.  1.
     999900   -1    0    0    0    0 -0.00000000000E+00 -0.00000000000E+00 -0.74505805969E-08  0.93827000000E+00  0.93827000000E+00 0.  1.
     999902    2    1    2    0    0  0.20234260154E-01  0.10685543439E-01 -0.93039338324E-02  0.10192283946E+01  0.10189290216E+01 0.  0.
     999903    2    3    3    0    0 -0.71764295338E-01  0.52531339392E-01 -0.91818820413E-01  0.12960852562E+00  0.21401365086E-01 0.  0.
         14    1    1    2    0    0 -0.20234260154E-01 -0.10685543439E-01  0.93039338324E-02  0.24701605359E-01  0.00000000000E+00 0. -1.
     999901    1    3    3    0    0  0.91998555491E-01 -0.41845795952E-01  0.82514886581E-01  0.88961986902E+00  0.88000000000E+00 0. -1.
        -11    1    4    4    0    0 -0.14053973037E-01  0.15065786821E-01 -0.10645642447E-01  0.23196614295E-01  0.51100000000E-03 0.  1.
         11    1    4    4    0    0 -0.57710322301E-01  0.37465552571E-01 -0.81173177966E-01  0.10641191132E+00  0.51100000000E-03 0. -1.
</event>
<event>
 8    1  0.9952977E+004  0.1043930E+01  0.7957747E-01            NaN
         13   -1    0    0    0    0  0.00000000000E+00  0.00000000000E+00  0.74505805969E-08  0.10566000000E+00  0.10566000000E+00 0. -1.
     999900   -1    0    0    0    0 -0.00000000000E+00 -0.00000000000E+00 -0.74505805969E-08  0.93827000000E+00  0.93827000000E+00 0. -1.
     999902    2    1    2    0    0 -0.22569004511E-01  0.58170644094E-02 -0.44297941546E-03  0.10206191778E+01  0.10203529348E+01 0.  0.
     999903    2    3    3    0    0  0.45649414367E-01 -0.10487240139E+00  0.56661924665E-01  0.12923436715E+00  0.20220245771E-01 0.  0.
         14    1    1    2    0    0  0.22569004511E-01 -0.58170644094E-02  0.44297941546E-03  0.23310822245E-01  0.00000000000E+00 0. -1.
     999901    1    3    3    0    0 -0.68218418878E-01  0.11068946580E+00 -0.57104904081E-01  0.89138481061E+00  0.88000000000E+00 0.  1.
        -11    1    4    4    0    0  0.89506343945E-02 -0.39364024006E-01  0.13205831223E-01  0.42476997790E-01  0.51100000000E-03 0.  1.
         11    1    4    4    0    0  0.36698779972E-01 -0.65508377387E-01  0.43456093442E-01  0.86757369356E-01  0.51100000000E-03 0. -1.
</event>
<event>
 8    1  0.9952977E+004  0.1043930E+01  0.7957747E-01            NaN
         13   -1    0    0    0    0  0.00000000000E+00  0.00000000000E+00  0.74505805969E-08  0.10566000000E+00  0.10566000000E+00 0. -1.
     999900   -1    0    0    0    0 -0.00000000000E+00 -0.00000000000E+00 -0.74505805969E-08  0.93827000000E+00  0.93827000000E+00 0.  1.
     999902    2    1    2    0    0 -0.21598375623E-01 -0.88992990936E-02 -0.44775218178E-02  0.10201448039E+01  0.10198674842E+01 0.  0.
     999903    2    3    3    0    0  0.41459300506E-01 -0.76606090397E-01  0.94151096276E-01  0.12981448065E+00  0.20000094333E-01 0.  0.
         14    1    1    2    0    0  0.21598375623E-01  0.88992990936E-02  0.44775218178E-02  0.23785196143E-01  0.00000000000E+00 0.  1.
     999901    1    3    3    0    0 -0.63057676130E-01  0.67706791303E-01 -0.98628618094E-01  0.89033032320E+00  0.88000000000E+00 0.  1.
        -11    1    4    4    0    0  0.18200518255E-01 -0.50127619939E-01  0.64967350507E-01  0.84053880924E-01  0.51100000000E-03 0.  1.
         11    1    4    4    0    0  0.23258782251E-01 -0.26478470458E-01  0.29183745768E-01  0.45760599730E-01  0.51100000000E-03 0. -1.
</event>
<event>
 8    1  0.9952977E+004  0.1043930E+01  0.7957747E-01            NaN
         13   -1    0    0    0    0  0.00000000000E+00  0.00000000000E+00  0.74505805969E-08  0.10566000000E+00  0.10566000000E+00 0. -1.
     999900   -1    0    0    0    0 -0.00000000000E+00 -0.00000000000E+00 -0.74505805969E-08  0.93827000000E+00  0.93827000000E+00 0.  1.
     999902    2    1    2    0    0 -0.17269328183E-01  0.11732253483E-01 -0.11291475991E-01  0.10201945224E+01  0.10199183745E+01 0.  0.
     999903    2    3    3    0    0 -0.26705141721E-02 -0.18770006018E-01 -0.12872208345E+00  0.13175011738E+00  0.20718925894E-01 0.  0.
         14    1    1    2    0    0  0.17269328183E-01 -0.11732253483E-01  0.11291475991E-01  0.23735477618E-01  0.00000000000E+00 0. -1.
     999901    1    3    3    0    0 -0.14598814011E-01  0.30502259501E-01  0.11743060746E+00  0.88844440500E+00  0.88000000000E+00 0. -1.
        -11    1    4    4    0    0 -0.10862258524E-01 -0.12880796125E-01 -0.97138622187E-01  0.98590448880E-01  0.51100000000E-03 0.  1.
         11    1    4    4    0    0  0.81917443516E-02 -0.58892098930E-02 -0.31583461266E-01  0.33159668503E-01  0.51100000000E-03 0. -1.
</event>
<event>
 8    1  0.9952977E+004  0.1043930E+01  0.7957747E-01            NaN
         13   -1    0    0    0    0  0.00000000000E+00  0.00000000000E+00  0.74505805969E-08  0.10566000000E+00  0.10566000000E+00 0. -1.
     999900   -1    0    0    0    0 -0.00000000000E+00 -0.00000000000E+00 -0.74505805969E-08  0.93827000000E+00  0.93827000000E+00 0. -1.
     999902    2    1    2    0    0 -0.11233677468E-01  0.12870086234E-01  0.18728524270E-01  0.10185805966E+01  0.10182651126E+01 0.  0.
     999903    2    3    3    0    0  0.31775298636E-01  0.99774225980E-01 -0.72021005217E-01  0.12861566552E+00  0.19758503264E-01 0.  0.
         14    1    1    2    0    0  0.11233677468E-01 -0.12870086234E-01 -0.18728524270E-01  0.25349403355E-01  0.00000000000E+00 0.  1.
     999901    1    3    3    0    0 -0.43008976104E-01 -0.86904139746E-01  0.90749529487E-01  0.88996493113E+00  0.88000000000E+00 0. -1.
        -11    1    4    4    0    0  0.72118017311E-03  0.41221005573E-02  0.10010878099E-02  0.43330256923E-02  0.51100000000E-03 0. -1.
         11    1    4    4    0    0  0.31054118463E-01  0.95652125423E-01 -0.73022093027E-01  0.12428263983E+00  0.51100000000E-03 0.  1.
</event>
<event>
 8    1  0.9952977E+004  0.1043930E+01  0.7957747E-01            NaN
         13   -1    0    0    0    0  0.00000000000E+00  0.00000000000E+00  0.74505805969E-08  0.10566000000E+00  0.10566000000E+00 0. -1.
     999900   -1    0    0    0    0 -0.00000000000E+00 -0.00000000000E+00 -0.74505805969E-08  0.93827000000E+00  0.93827000000E+00 0. -1.
     999902    2    1    2    0    0 -0.22828025229E-02 -0.24945783328E-01 -0.36206543583E-02  0.10186196774E+01  0.10183051776E+01 0.  0.
     999903    2    3    3    0    0 -0.30474988939E-01  0.87644744407E-01 -0.84641248162E-01  0.12730841697E+00  0.20807834295E-01 0.  0.
         14    1    1    2    0    0  0.22828025229E-02  0.24945783328E-01  0.36206543583E-02  0.25310322621E-01  0.00000000000E+00 0.  1.
     999901    1    3    3    0    0  0.28192186416E-01 -0.11259052773E+00  0.81020593804E-01  0.89131126041E+00  0.88000000000E+00 0.  1.
        -11    1    4    4    0    0 -0.25434236517E-03  0.13914124282E-01 -0.21607238879E-01  0.25706058382E-01  0.51100000000E-03 0.  1.
         11    1    4    4    0    0 -0.30220646574E-01  0.73730620125E-01 -0.63034009283E-01  0.10160235859E+00  0.51100000000E-03 0. -1.
</event>
<event>
 8    1  0.9952977E+004  0.1043930E+01  0.7957747E-01            NaN
         13   -1    0    0    0    0  0.00000000000E+00  0.00000000000E+00  0.74505805969E-08  0.10566000000E+00  0.10566000000E+00 0.  1.
     999900   -1    0    0    0    0 -0.00000000000E+00 -0.00000000000E+00 -0.74505805969E-08  0.93827000000E+00  0.93827000000E+00 0.  1.
     999902    2    1    2    0    0  0.15953086939E-01  0.10349769258E-01  0.13091655865E-01  0.10208429872E+01  0.10205818901E+01 0.  0.
     999903    2    3    3    0    0 -0.87901518295E-01  0.38344070285E-01  0.87250542843E-01  0.13119755197E+00  0.20079735343E-01 0.  0.
         14    1    1    2    0    0 -0.15953086939E-01 -0.10349769258E-01 -0.13091655865E-01  0.23087012796E-01  0.00000000000E+00 0. -1.
     999901    1    3    3    0    0  0.10385460523E+00 -0.27994301027E-01 -0.74158886978E-01  0.88964543524E+00  0.88000000000E+00 0.  1.
        -11    1    4    4    0    0 -0.56586337743E-01  0.30632204077E-01  0.47355393730E-01  0.79894555397E-01  0.51100000000E-03 0. -1.
         11    1    4    4    0    0 -0.31315180552E-01  0.77118662087E-02  0.39895149113E-01  0.51302996571E-01  0.51100000000E-03 0.  1.
</event>
<event>
 8    1  0.9952977E+004  0.1043930E+01  0.7957747E-01            NaN
         13   -1    0    0    0    0  0.00000000000E+00  0.00000000000E+00  0.74505805969E-08  0.10566000000E+00  0.10566000000E+00 0. -1.
     999900   -1    0    0    0    0 -0.00000000000E+00 -0.00000000000E+00 -0.74505805969E-08  0.93827000000E+00  0.93827000000E+00 0.  1.
     999902    2    1    2    0    0  0.69891633211E-02  0.21247778549E-01 -0.94642041296E-02  0.10196423971E+01  0.10193530940E+01 0.  0.
     999903    2    3    3    0    0  0.12844841820E+00 -0.11036139905E-01  0.10977195487E-02  0.13065074567E+00  0.21157028056E-01 0.  0.
         14    1    1    2    0    0 -0.69891633211E-02 -0.21247778549E-01  0.94642041296E-02  0.24287602949E-01  0.00000000000E+00 0.  1.
     999901    1    3    3    0    0 -0.12145925487E+00  0.32283918454E-01 -0.10561923678E-01  0.88899165138E+00  0.88000000000E+00 0. -1.
        -11    1    4    4    0    0  0.28350608791E-01 -0.35416245617E-02 -0.85019164984E-02  0.29813484005E-01  0.51100000000E-03 0.  1.
         11    1    4    4    0    0  0.10009780940E+00 -0.74945153434E-02  0.95996360471E-02  0.10083726167E+00  0.51100000000E-03 0. -1.
</event>
<event>
 8    1  0.9952977E+004  0.1043930E+01  0.7957747E-01            NaN
         13   -1    0    0    0    0  0.00000000000E+00  0.00000000000E+00  0.74505805969E-08  0.10566000000E+00  0.10566000000E+00 0.  1.
     999900   -1    0    0    0    0 -0.00000000000E+00 -0.00000000000E+00 -0.74505805969E-08  0.93827000000E+00  0.93827000000E+00 0.  1.
     999902    2    1    2    0    0  0.20183351194E-01  0.12136122589E-01  0.26591664319E-02  0.10202292763E+01  0.10199539460E+01 0.  0.
     999903    2    3    3    0    0  0.15427899043E-01 -0.80389457488E-01 -0.98478647718E-01  0.12960452102E+00  0.19970049306E-01 0.  0.
         14    1    1    2    0    0 -0.20183351194E-01 -0.12136122589E-01 -0.26591664319E-02  0.23700723681E-01  0.00000000000E+00 0. -1.
     999901    1    3    3    0    0  0.47554521509E-02  0.92525580077E-01  0.10113781415E+00  0.89062475530E+00  0.88000000000E+00 0.  1.
        -11    1    4    4    0    0  0.10028667648E-01 -0.39420697051E-01 -0.63751719598E-01  0.75624786965E-01  0.51100000000E-03 0. -1.
         11    1    4    4    0    0  0.53992313952E-02 -0.40968760437E-01 -0.34726928120E-01  0.53979734059E-01  0.51100000000E-03 0.  1.
</event>
<event>
 8    1  0.9952977E+004  0.1043930E+01  0.7957747E-01            NaN
         13   -1    0    0    0    0  0.00000000000E+00  0.00000000000E+00  0.74505805969E-08  0.10566000000E+00  0.10566000000E+00 0. -1.
     999900   -1    0    0    0    0 -0.00000000000E+00 -0.00000000000E+00 -0.74505805969E-08  0.93827000000E+00  0.93827000000E+00 0.  1.
     999902    2    1    2    0    0  0.58826629697E-02 -0.26929075908E-02  0.23066743647E-01  0.10199731192E+01  0.10196917337E+01 0.  0.
     999903    2    3    3    0    0  0.39472170882E-01 -0.49630097530E-01 -0.10948385098E+00  0.12817660936E+00  0.20526341758E-01 0.  0.
         14    1    1    2    0    0 -0.58826629697E-02  0.26929075908E-02 -0.23066743647E-01  0.23956880794E-01  0.00000000000E+00 0.  1.
     999901    1    3    3    0    0 -0.33589507912E-01  0.46937189939E-01  0.13255059463E+00  0.89179650985E+00  0.88000000000E+00 0.  1.
        -11    1    4    4    0    0  0.31222454791E-01 -0.37085272800E-01 -0.64089676865E-01  0.80361103424E-01  0.51100000000E-03 0. -1.
         11    1    4    4    0    0  0.82497160912E-02 -0.12544824729E-01 -0.45394174116E-01  0.47815505935E-01  0.51100000000E-03 0.  1.
</event>
<event>
 8    1  0.9952977E+004  0.1043930E+01  0.7957747E-01            NaN
         13   -1    0    0    0    0  0.00000000000E+00  0.00000000000E+00  0.74505805969E-08  0.10566000000E+00  0.10566000000E+00 0.  1.
     999900   -1    0    0    0    0 -0.00000000000E+00 -0.00000000000E+00 -0.74505805969E-08  0.93827000000E+00  0.93827000000E+00 0. -1.
     999902    2    1    2    0    0 -0.19896031702E-01  0.13148547668E-01 -0.38661613876E-02  0.10197704556E+01  0.10194842316E+01 0.  0.
     999903    2    3    3    0    0 -0.93655181938E-01 -0.12402123922E-01  0.88894309114E-01  0.13145871189E+00  0.21309363159E-01 0.  0.
         14    1    1    2    0    0  0.19896031702E-01 -0.13148547668E-01  0.38661613876E-02  0.24159544432E-01  0.00000000000E+00 0.  1.
     999901    1    3    3    0    0  0.73759150235E-01  0.25550671590E-01 -0.92760470502E-01  0.88831174367E+00  0.88000000000E+00 0. -1.
        -11    1    4    4    0    0 -0.70422433834E-01 -0.95482656703E-02  0.78351893215E-01  0.10578170379E+00  0.51100000000E-03 0. -1.
         11    1    4    4    0    0 -0.23232748104E-01 -0.28538582516E-02  0.10542415899E-01  0.25677008108E-01  0.51100000000E-03 0.  1.
</event>
<event>
 8    1  0.9952977E+004  0.1043930E+01  0.7957747E-01            NaN
         13   -1    0    0    0    0  0.00000000000E+00  0.00000000000E+00  0.74505805969E-08  0.10566000000E+00  0.10566000000E+00 0. -1.
     999900   -1    0    0    0    0 -0.00000000000E+00 -0.00000000000E+00 -0.74505805969E-08  0.93827000000E+00  0.93827000000E+00 0. -1.
     999902    2    1    2    0    0 -0.23483044871E-01 -0.46147211373E-03 -0.19633277704E-02  0.10203605068E+01  0.10200882525E+01 0.  0.
     999903    2    3    3    0    0 -0.10661726763E+00 -0.75819735558E-01  0.15115851455E-01  0.13307145289E+00  0.19069571317E-01 0.  0.
         14    1    1    2    0    0  0.23483044871E-01  0.46147211373E-03  0.19633277704E-02  0.23569493182E-01  0.00000000000E+00 0.  1.
     999901    1    3    3    0    0  0.83134222762E-01  0.75358263445E-01 -0.17079179225E-01  0.88728905393E+00  0.88000000000E+00 0.  1.
        -11    1    4    4    0    0 -0.30692127232E-02 -0.45967168248E-02 -0.26363375083E-02  0.61450198344E-02  0.51100000000E-03 0. -1.
         11    1    4    4    0    0 -0.10354805491E+00 -0.71223018734E-01  0.17752188963E-01  0.12692643305E+00  0.51100000000E-03 0.  1.
</event>
<event>
 8    1  0.9952977E+004  0.1043930E+01  0.7957747E-01            NaN
         13   -1    0    0    0    0  0.00000000000E+00  0.00000000000E+00  0.74505805969E-08  0.10566000000E+00  0.10566000000E+00 0. -1.
     999900   -1    0    0    0    0 -0.00000000000E+00 -0.00000000000E+00 -0.74505805969E-08  0.93827000000E+00  0.93827000000E+00 0. -1.
     999902    2    1    2    0    0  0.86532647503E-02  0.15967811671E-01 -0.14731569502E-01  0.10205447666E+01  0.10202768014E+01 0.  0.
     999903    2    3    3    0    0 -0.95103471944E-01  0.68999061603E-01 -0.56337687418E-01  0.13188912863E+00  0.20378085024E-01 0.  0.
         14    1    1    2    0    0 -0.86532647503E-02 -0.15967811671E-01  0.14731569502E-01  0.23385233383E-01  0.00000000000E+00 0. -1.
     999901    1    3    3    0    0  0.10375673669E+00 -0.53031249932E-01  0.41606117916E-01  0.88865563799E+00  0.88000000000E+00 0.  1.
        -11    1    4    4    0    0 -0.11692112711E-01  0.75933333915E-02 -0.14669720835E-01  0.20244160689E-01  0.51100000000E-03 0.  1.
         11    1    4    4    0    0 -0.83411359233E-01  0.61405728211E-01 -0.41667966583E-01  0.11164496794E+00  0.51100000000E-03 0. -1.
</event>
<event>
 8    1  0.9952977E+004  0.1043930E+01  0.7957747E-01            NaN
         13   -1    0    0    0    0  0.00000000000E+00  0.00000000000E+00  0.74505805969E-08  0.10566000000E+00  0.10566000000E+00 0. -1.
     999900   -1    0    0    0    0 -0.00000000000E+00 -0.00000000000E+00 -0.74505805969E-08  0.93827000000E+00  0.93827000000E+00 0.  1.
     999902    2    1    2    0    0 -0.80562221113E-03 -0.23464731989E-02  0.17746589687E-01  0.10260108368E+01  0.10258543468E+01 0.  0.
     999903    2    3    3    0    0  0.47082015839E-01  0.10744451022E+00 -0.61966927359E-01  0.13432617803E+00  0.21037657333E-01 0.  0.
         14    1    1    2    0    0  0.80562221113E-03  0.23464731989E-02 -0.17746589687E-01  0.17919163181E-01  0.00000000000E+00 0.  1.
     999901    1    3    3    0    0 -0.47887638050E-01 -0.10979098342E+00  0.79713517045E-01  0.89168465879E+00  0.88000000000E+00 0. -1.
        -11    1    4    4    0    0  0.29204188915E-01  0.41129204126E-01 -0.24348535945E-01  0.56014358926E-01  0.51100000000E-03 0.  1.
         11    1    4    4    0    0  0.17877826924E-01  0.66315306094E-01 -0.37618391414E-01  0.78311819105E-01  0.51100000000E-03 0. -1.
</event>
<event>
 8    1  0.9952977E+004  0.1043930E+01  0.7957747E-01            NaN
         13   -1    0    0    0    0  0.00000000000E+00  0.00000000000E+00  0.74505805969E-08  0.10566000000E+00  0.10566000000E+00 0. -1.
     999900   -1    0    0    0    0 -0.00000000000E+00 -0.00000000000E+00 -0.74505805969E-08  0.93827000000E+00  0.93827000000E+00 0. -1.
     999902    2    1    2    0    0 -0.14975587590E-01 -0.14257006102E-01  0.10671435444E-01  0.10206617817E+01  0.10203965223E+01 0.  0.
     999903    2    3    3    0    0 -0.84232852902E-01 -0.12510204621E-01  0.10060854839E+00  0.13336909925E+00  0.20336122971E-01 0.  0.
         14    1    1    2    0    0  0.14975587590E-01  0.14257006102E-01 -0.10671435444E-01  0.23268218262E-01  0.00000000000E+00 0.  1.
     999901    1    3    3    0    0  0.69257265312E-01 -0.17468014816E-02 -0.89937112947E-01  0.88729268249E+00  0.88000000000E+00 0. -1.
        -11    1    4    4    0    0 -0.44662831638E-01 -0.13179943332E-01  0.66107243029E-01  0.80863515495E-01  0.51100000000E-03 0.  1.
         11    1    4    4    0    0 -0.39570021263E-01  0.66973871131E-03  0.34501305361E-01  0.52505583754E-01  0.51100000000E-03 0. -1.
</event>
<event>
 8    1  0.9952977E+004  0.1043930E+01  0.7957747E-01            NaN
         13   -1    0    0    0    0  0.00000000000E+00  0.00000000000E+00  0.74505805969E-08  0.10566000000E+00  0.10566000000E+00 0. -1.
     999900   -1    0    0    0    0 -0.00000000000E+00 -0.00000000000E+00 -0.74505805969E-08  0.93827000000E+00  0.93827000000E+00 0.  1.
     999902    2    1    2    0    0 -0.69940750818E-04 -0.19632292990E-01  0.12213545173E-01  0.10208085272E+01  0.10205466411E+01 0.  0.
     999903    2    3    3    0    0 -0.44545097380E-01 -0.67829279470E-01 -0.10099287056E+00  0.13113629448E+00  0.20300023961E-01 0.  0.
         14    1    1    2    0    0  0.69940750818E-04  0.19632292990E-01 -0.12213545173E-01  0.23121472822E-01  0.00000000000E+00 0. -1.
     999901    1    3    3    0    0  0.44475156629E-01  0.48196986480E-01  0.11320641573E+00  0.88967223269E+00  0.88000000000E+00 0. -1.
        -11    1    4    4    0    0 -0.33879651937E-01 -0.62926212323E-01 -0.91014170783E-01  0.11572112779E+00  0.51100000000E-03 0. -1.
         11    1    4    4    0    0 -0.10665445443E-01 -0.49030671475E-02 -0.99786997789E-02  0.15415166695E-01  0.51100000000E-03 0.  1.
</event>
<event>
 8    1  0.9952977E+004  0.1043930E+01  0.7957747E-01            NaN
         13   -1    0    0    0    0  0.00000000000E+00  0.00000000000E+00  0.74505805969E-08  0.10566000000E+00  0.10566000000E+00 0.  1.
     999900   -1    0    0    0    0 -0.00000000000E+00 -0.00000000000E+00 -0.74505805969E-08  0.93827000000E+00  0.93827000000E+00 0. -1.
     999902    2    1    2    0    0 -0.18972712866E-01  0.95793489724E-02  0.10497510929E-01  0.10202250323E+01  0.10199496022E+01 0.  0.
     999903    2    3    3    0    0  0.72997046682E-01 -0.90415103297E-01  0.51995889581E-01  0.12883317533E+00  0.19772577065E-01 0.  0.
         14    1    1    2    0    0  0.18972712866E-01 -0.95793489724E-02 -0.10497510929E-01  0.23704967748E-01  0.00000000000E+00 0.  1.
     999901    1    3    3    0    0 -0.91969759548E-01  0.99994452269E-01 -0.41498378653E-01  0.89139185692E+00  0.88000000000E+00 0. -1.
        -11    1    4    4    0    0  0.18437828029E-01 -0.34417578721E-01  0.23748436184E-01  0.45703091467E-01  0.51100000000E-03 0.  1.
         11    1    4    4    0    0  0.54559218653E-01 -0.55997524576E-01  0.28247453398E-01  0.83130083863E-01  0.51100000000E-03 0. -1.
</event>
<event>
 8    1  0.9952977E+004  0.1043930E+01  0.7957747E-01            NaN
         13   -1    0    0    0    0  0.00000000000E+00  0.00000000000E+00  0.74505805969E-08  0.10566000000E+00  0.10566000000E+00 0.  1.
     999900   -1    0    0    0    0 -0.00000000000E+00 -0.00000000000E+00 -0.74505805969E-08  0.93827000000E+00  0.93827000000E+00 0. -1.
     999902    2    1    2    0    0  0.24469311118E-01 -0.62971677910E-03  0.54989154918E-03  0.10194464114E+01  0.10191523633E+01 0.  0.
     999903    2    3    3    0    0 -0.12226763035E+00  0.26088312757E-01 -0.29425305282E-02  0.12688953360E+00  0.21501668715E-01 0.  0.
         14    1    1    2    0    0 -0.24469311118E-01  0.62971677910E-03 -0.54989154918E-03  0.24483588596E-01  0.00000000000E+00 0. -1.
     999901    1    3    3    0    0  0.14673694147E+00 -0.26718029536E-01  0.34924220774E-02  0.89255687780E+00  0.88000000000E+00 0. -1.
        -11    1    4    4    0    0 -0.69851818765E-01  0.23978862566E-01  0.40453248425E-02  0.73965452806E-01  0.51100000000E-03 0.  1.
         11    1    4    4    0    0 -0.52415811589E-01  0.21094501908E-02 -0.69878553707E-02  0.52924080798E-01  0.51100000000E-03 0. -1.
</event>
<event>
 8    1  0.9952977E+004  0.1043930E+01  0.7957747E-01            NaN
         13   -1    0    0    0    0  0.00000000000E+00  0.00000000000E+00  0.74505805969E-08  0.10566000000E+00  0.10566000000E+00 0. -1.
     999900   -1    0    0    0    0 -0.00000000000E+00 -0.00000000000E+00 -0.74505805969E-08  0.93827000000E+00  0.93827000000E+00 0. -1.
     999902    2    1    2    0    0  0.15744788214E-01 -0.17597285672E-01 -0.10102128284E-03  0.10203170158E+01  0.10200437440E+01 0.  0.
     999903    2    3    3    0    0  0.45883971498E-01  0.70219142034E-01  0.96733998788E-01  0.13015011206E+00  0.23356335331E-01 0.  0.
         14    1    1    2    0    0 -0.15744788214E-01  0.17597285672E-01  0.10102128284E-03  0.23612984230E-01  0.00000000000E+00 0.  1.
     999901    1    3    3    0    0 -0.30139183284E-01 -0.87816427706E-01 -0.96835020070E-01  0.89016690371E+00  0.88000000000E+00 0. -1.
        -11    1    4    4    0    0  0.25898629636E-01  0.46814345342E-01  0.44814177174E-01  0.69791787078E-01  0.51100000000E-03 0.  1.
         11    1    4    4    0    0  0.19985341862E-01  0.23404796692E-01  0.51919821614E-01  0.60358324985E-01  0.51100000000E-03 0. -1.
</event>
<event>
 8    1  0.9952977E+004  0.1043930E+01  0.7957747E-01            NaN
         13   -1    0    0    0    0  0.00000000000E+00  0.00000000000E+00  0.74505805969E-08  0.10566000000E+00  0.10566000000E+00 0.  1.
     999900   -1    0    0    0    0 -0.00000000000E+00 -0.00000000000E+00 -0.74505805969E-08  0.93827000000E+00  0.93827000000E+00 0. -1.
     999902    2    1    2    0    0 -0.10050821679E-01  0.19102819030E-01 -0.11149196876E-01  0.10196351178E+01  0.10193456392E+01 0.  0.
     999903    2    3    3    0    0  0.62727705279E-01  0.10188469880E+00 -0.51309860650E-01  0.13184999033E+00  0.20891655969E-01 0.  0.
         14    1    1    2    0    0  0.10050821679E-01 -0.19102819030E-01  0.11149196876E-01  0.24294882224E-01  0.00000000000E+00 0.  1.
     999901    1    3    3    0    0 -0.72778526958E-01 -0.82781879775E-01  0.40160663774E-01  0.88778512745E+00  0.88000000000E+00 0.  1.
        -11    1    4    4    0    0  0.10813961637E-01  0.22801508245E-01 -0.24054375626E-02  0.25355429308E-01  0.51100000000E-03 0. -1.
         11    1    4    4    0    0  0.51913743642E-01  0.79083190559E-01 -0.48904423087E-01  0.10649456102E+00  0.51100000000E-03 0.  1.
</event>
<event>
 8    1  0.9952977E+004  0.1043930E+01  0.7957747E-01            NaN
         13   -1    0    0    0    0  0.00000000000E+00  0.00000000000E+00  0.74505805969E-08  0.10566000000E+00  0.10566000000E+00 0. -1.
     999900   -1    0    0    0    0 -0.00000000000E+00 -0.00000000000E+00 -0.74505805969E-08  0.93827000000E+00  0.93827000000E+00 0. -1.
     999902    2    1    2    0    0  0.24043451611E-02  0.21602276976E-01  0.97123837815E-02  0.10201230757E+01  0.10198452431E+01 0.  0.
     999903    2    3    3    0    0 -0.92799586602E-01  0.68508171990E-01  0.62329174515E-01  0.13218587168E+00  0.16823964230E-01 0.  0.
         14    1    1    2    0    0 -0.24043451611E-02 -0.21602276976E-01 -0.97123837815E-02  0.23806924306E-01  0.00000000000E+00 0. -1.
     999901    1    3    3    0    0  0.95203931763E-01 -0.46905895014E-01 -0.52616790733E-01  0.88793720402E+00  0.88000000000E+00 0.  1.
        -11    1    4    4    0    0 -0.17946026933E-01  0.14627259812E-01  0.53282484310E-02  0.23762743205E-01  0.51100000000E-03 0.  1.
         11    1    4    4    0    0 -0.74853559669E-01  0.53880912178E-01  0.57000926084E-01  0.10842312847E+00  0.51100000000E-03 0. -1.
</event>
<event>
 8    1  0.9952977E+004  0.1043930E+01  0.7957747E-01            NaN
         13   -1    0    0    0    0  0.00000000000E+00  0.00000000000E+00  0.74505805969E-08  0.10566000000E+00  0.10566000000E+00 0. -1.
     999900   -1    0    0    0    0 -0.00000000000E+00 -0.00000000000E+00 -0.74505805969E-08  0.93827000000E+00  0.93827000000E+00 0. -1.
     999902    2    1    2    0    0 -0.88447427997E-03  0.27415664360E-02 -0.23567345393E-01  0.10201872485E+01  0.10199109293E+01 0.  0.
     999903    2    3    3    0    0 -0.11203600717E+00 -0.20454344882E-01  0.57665234977E-01  0.12918138672E+00  0.19801621687E-01 0.  0.
         14    1    1    2    0    0  0.88447427997E-03 -0.27415664360E-02  0.23567345393E-01  0.23742751528E-01  0.00000000000E+00 0. -1.
     999901    1    3    3    0    0  0.11115153289E+00  0.23195911318E-01 -0.81232580370E-01  0.89100586175E+00  0.88000000000E+00 0. -1.
        -11    1    4    4    0    0 -0.13505633780E-01 -0.14467186825E-02  0.14702170581E-01  0.20022739062E-01  0.51100000000E-03 0.  1.
         11    1    4    4    0    0 -0.98530373393E-01 -0.19007626199E-01  0.42963064396E-01  0.10915864766E+00  0.51100000000E-03 0. -1.
</event>
<event>
 8    1  0.9952977E+004  0.1043930E+01  0.7957747E-01            NaN
         13   -1    0    0    0    0  0.00000000000E+00  0.00000000000E+00  0.74505805969E-08  0.10566000000E+00  0.10566000000E+00 0.  1.
     999900   -1    0    0    0    0 -0.00000000000E+00 -0.00000000000E+00 -0.74505805969E-08  0.93827000000E+00  0.93827000000E+00 0. -1.
     999902    2    1    2    0    0  0.33726308123E-02  0.16333180719E-01 -0.16426514891E-01  0.10205210739E+01  0.10202525591E+01 0.  0.
     999903    2    3    3    0    0 -0.93356427595E-01 -0.51006425486E-01 -0.75195010430E-01  0.13072060783E+00  0.10793966056E-01 0.  0.
         14    1    1    2    0    0 -0.33726308123E-02 -0.16333180719E-01  0.16426514891E-01  0.23408926128E-01  0.00000000000E+00 0.  1.
     999901    1    3    3    0    0  0.96729058407E-01  0.67339606205E-01  0.58768495538E-01  0.88980046604E+00  0.88000000000E+00 0.  1.
        -11    1    4    4    0    0 -0.54844487789E-01 -0.31786305494E-01 -0.38575327500E-01  0.74206496148E-01  0.51100000000E-03 0.  1.
         11    1    4    4    0    0 -0.38511939806E-01 -0.19220119992E-01 -0.36619682929E-01  0.56514111680E-01  0.51100000000E-03 0. -1.
</event>
<event>
 8    1  0.9952977E+004  0.1043930E+01  0.7957747E-01            NaN
         13   -1    0    0    0    0  0.00000000000E+00  0.00000000000E+00  0.74505805969E-08  0.10566000000E+00  0.10566000000E+00 0. -1.
     999900   -1    0    0    0    0 -0.00000000000E+00 -0.00000000000E+00 -0.74505805969E-08  0.93827000000E+00  0.93827000000E+00 0.  1.
     999902    2    1    2    0    0 -0.20003187326E-01  0.11928208592E-01  0.31906308877E-02  0.10204227716E+01  0.10201519705E+01 0.  0.
     999903    2    3    3    0    0 -0.49704336009E-01  0.58370966124E-01 -0.10605458918E+00  0.13195577382E+00  0.16942834899E-01 0.  0.
         14    1    1    2    0    0  0.20003187326E-01 -0.11928208592E-01 -0.31906308877E-02  0.23507228439E-01  0.00000000000E+00 0. -1.
     999901    1    3    3    0    0  0.29701148683E-01 -0.46442757532E-01  0.10924522007E+00  0.88846699774E+00  0.88000000000E+00 0. -1.
        -11    1    4    4    0    0 -0.18630906592E-01  0.33468943560E-01 -0.58522336177E-01  0.69945734796E-01  0.51100000000E-03 0. -1.
         11    1    4    4    0    0 -0.31073429417E-01  0.24902022564E-01 -0.47532253005E-01  0.62010039028E-01  0.51100000000E-03 0.  1.
</event>
<event>
 8    1  0.9952977E+004  0.1043930E+01  0.7957747E-01            NaN
         13   -1    0    0    0    0  0.00000000000E+00  0.00000000000E+00  0.74505805969E-08  0.10566000000E+00  0.10566000000E+00 0. -1.
     999900   -1    0    0    0    0 -0.00000000000E+00 -0.00000000000E+00 -0.74505805969E-08  0.93827000000E+00  0.93827000000E+00 0.  1.
     999902    2    1    2    0    0 -0.46375609281E-02  0.21874266919E-01 -0.98476797852E-02  0.10194970853E+01  0.10192042678E+01 0.  0.
     999903    2    3    3    0    0 -0.12575134421E+00 -0.32156954693E-02 -0.28998730275E-01  0.13064118163E+00  0.20061174278E-01 0.  0.
         14    1    1    2    0    0  0.46375609281E-02 -0.21874266919E-01  0.98476797852E-02  0.24432914721E-01  0.00000000000E+00 0.  1.
     999901    1    3    3    0    0  0.12111378328E+00  0.25089962389E-01  0.19151050489E-01  0.88885590365E+00  0.88000000000E+00 0.  1.
        -11    1    4    4    0    0 -0.11856562284E+00 -0.75133977973E-02 -0.28822958947E-01  0.12225089835E+00  0.51100000000E-03 0. -1.
         11    1    4    4    0    0 -0.71857213715E-02  0.42977023280E-02 -0.17577132763E-03  0.83902832782E-02  0.51100000000E-03 0.  1.
</event>
<event>
 8    1  0.9952977E+004  0.1043930E+01  0.7957747E-01            NaN
         13   -1    0    0    0    0  0.00000000000E+00  0.00000000000E+00  0.74505805969E-08  0.10566000000E+00  0.10566000000E+00 0. -1.
     999900   -1    0    0    0    0 -0.00000000000E+00 -0.00000000000E+00 -0.74505805969E-08  0.93827000000E+00  0.93827000000E+00 0.  1.
     999902    2    1    2    0    0 -0.19854889483E-01 -0.11162097771E-01  0.52243384972E-02  0.10205611580E+01  0.10202935727E+01 0.  0.
     999903    2    3    3    0    0 -0.89820403456E-01 -0.50791800860E-01 -0.80954538046E-01  0.13270278796E+00  0.20220800938E-01 0.  0.
         14    1    1    2    0    0  0.19854889483E-01  0.11162097771E-01 -0.52243384972E-02  0.23368841986E-01  0.00000000000E+00 0.  1.
     999901    1    3    3    0    0  0.69965513973E-01  0.39629703089E-01  0.86178876543E-01  0.88785837005E+00  0.88000000000E+00 0.  1.
        -11    1    4    4    0    0 -0.27868098152E-01 -0.74426889843E-02 -0.15815784420E-01  0.32900222974E-01  0.51100000000E-03 0. -1.
         11    1    4    4    0    0 -0.61952305305E-01 -0.43349111876E-01 -0.65138753626E-01  0.99802564986E-01  0.51100000000E-03 0.  1.
</event>
<event>
 8    1  0.1338403E+005  0.1043930E+01  0.7957747E-01            NaN
         13   -1    0    0    0    0  0.00000000000E+00  0.00000000000E+00  0.74505805969E-08  0.10566000000E+00  0.10566000000E+00 0. -1.
     999900   -1    0    0    0    0 -0.00000000000E+00 -0.00000000000E+00 -0.74505805969E-08  0.93827000000E+00  0.93827000000E+00 0.  1.
     999902    2    1    2    0    0  0.21589633615E-01  0.59462012049E-03  0.72490504218E-02  0.10211481084E+01  0.10208939439E+01 0.  0.
     999903    2    3    3    0    0  0.55246692588E-01  0.10643246716E+00 -0.52107239445E-01  0.13218375781E+00  0.19424580234E-01 0.  0.
         14    1    1    2    0    0 -0.21589633615E-01 -0.59462012049E-03 -0.72490504218E-02  0.22781891597E-01  0.00000000000E+00 0.  1.
     999901    1    3    3    0    0 -0.33657058973E-01 -0.10583784704E+00  0.59356289866E-01  0.88896435060E+00  0.88000000000E+00 0. -1.
        -11    1    4    4    0    0  0.20857376558E-01  0.58498558313E-01 -0.21524177045E-01  0.65731748798E-01  0.51100000000E-03 0.  1.
         11    1    4    4    0    0  0.34389316029E-01  0.47933908849E-01 -0.30583062400E-01  0.66452009008E-01  0.51100000000E-03 0. -1.
</event>
<event>
 8    1  0.9952977E+004  0.1043930E+01  0.7957747E-01            NaN
         13   -1    0    0    0    0  0.00000000000E+00  0.00000000000E+00  0.74505805969E-08  0.10566000000E+00  0.10566000000E+00 0.  1.
     999900   -1    0    0    0    0 -0.00000000000E+00 -0.00000000000E+00 -0.74505805969E-08  0.93827000000E+00  0.93827000000E+00 0. -1.
     999902    2    1    2    0    0  0.65402950644E-02  0.15900940219E-01  0.15741209138E-01  0.10206190364E+01  0.10203527902E+01 0.  0.
     999903    2    3    3    0    0 -0.12614907314E+00  0.19603099200E-01  0.19129651372E-01  0.13065743275E+00  0.20187892834E-01 0.  0.
         14    1    1    2    0    0 -0.65402950644E-02 -0.15900940219E-01 -0.15741209138E-01  0.23310963612E-01  0.00000000000E+00 0. -1.
     999901    1    3    3    0    0  0.13268936821E+00 -0.37021589810E-02 -0.33884422344E-02  0.88996160364E+00  0.88000000000E+00 0. -1.
        -11    1    4    4    0    0 -0.70161773827E-01  0.99545168243E-02  0.20677904158E-01  0.73821431529E-01  0.51100000000E-03 0.  1.
         11    1    4    4    0    0 -0.55987299316E-01  0.96485823758E-02 -0.15482527853E-02  0.56836001217E-01  0.51100000000E-03 0. -1.
</event>
<event>
 8    1  0.9952977E+004  0.1043930E+01  0.7957747E-01            NaN
         13   -1    0    0    0    0  0.00000000000E+00  0.00000000000E+00  0.74505805969E-08  0.10566000000E+00  0.10566000000E+00 0. -1.
     999900   -1    0    0    0    0 -0.00000000000E+00 -0.00000000000E+00 -0.74505805969E-08  0.93827000000E+00  0.93827000000E+00 0. -1.
     999902    2    1    2    0    0  0.27348129726E-03 -0.20344873926E-02 -0.23531336090E-01  0.10203092949E+01  0.10200358423E+01 0.  0.
     999903    2    3    3    0    0 -0.37658473452E-01  0.48932153185E-01  0.11027891986E+00  0.12792954601E+00  0.19799301457E-01 0.  0.
         14    1    1    2    0    0 -0.27348129726E-03  0.20344873926E-02  0.23531336090E-01  0.23620705094E-01  0.00000000000E+00 0. -1.
     999901    1    3    3    0    0  0.37931954749E-01 -0.50966640577E-01 -0.13381025595E+00  0.89237974890E+00  0.88000000000E+00 0. -1.
        -11    1    4    4    0    0 -0.17340827118E-01  0.33656523255E-01  0.79121903672E-01  0.87715463884E-01  0.51100000000E-03 0. -1.
         11    1    4    4    0    0 -0.20317646334E-01  0.15275629929E-01  0.31157016190E-01  0.40214082125E-01  0.51100000000E-03 0.  1.
</event>
<event>
 8    1  0.9952977E+004  0.1043930E+01  0.7957747E-01            NaN
         13   -1    0    0    0    0  0.00000000000E+00  0.00000000000E+00  0.74505805969E-08  0.10566000000E+00  0.10566000000E+00 0. -1.
     999900   -1    0    0    0    0 -0.00000000000E+00 -0.00000000000E+00 -0.74505805969E-08  0.93827000000E+00  0.93827000000E+00 0.  1.
     999902    2    1    2    0    0 -0.13347231735E-02  0.15887862310E-01 -0.16919828574E-01  0.10206816398E+01  0.10204168381E+01 0.  0.
     999903    2    3    3    0    0 -0.38986598121E-01 -0.89401820832E-01  0.80732388633E-01  0.12824702782E+00  0.20419137347E-01 0.  0.
         14    1    1    2    0    0  0.13347231735E-02 -0.15887862310E-01  0.16919828574E-01  0.23248360237E-01  0.00000000000E+00 0. -1.
     999901    1    3    3    0    0  0.37651874948E-01  0.10528968314E+00 -0.97652217207E-01  0.89243461194E+00  0.88000000000E+00 0.  1.
        -11    1    4    4    0    0 -0.27820750380E-01 -0.61602817253E-01  0.67387341057E-01  0.95447452040E-01  0.51100000000E-03 0. -1.
         11    1    4    4    0    0 -0.11165847741E-01 -0.27799003578E-01  0.13345047576E-01  0.32799575783E-01  0.51100000000E-03 0.  1.
</event>
<event>
 8    1  0.9952977E+004  0.1043930E+01  0.7957747E-01            NaN
         13   -1    0    0    0    0  0.00000000000E+00  0.00000000000E+00  0.74505805969E-08  0.10566000000E+00  0.10566000000E+00 0.  1.
     999900   -1    0    0    0    0 -0.00000000000E+00 -0.00000000000E+00 -0.74505805969E-08  0.93827000000E+00  0.93827000000E+00 0. -1.
     999902    2    1    2    0    0  0.23661353441E-02  0.13350291901E-01  0.19712951580E-01  0.10200045042E+01  0.10197238642E+01 0.  0.
     999903    2    3    3    0    0 -0.10872806483E-01  0.53070780665E-01  0.12005297674E+00  0.13331340382E+00  0.20616030962E-01 0.  0.
         14    1    1    2    0    0 -0.23661353441E-02 -0.13350291901E-01 -0.19712951580E-01  0.23925495821E-01  0.00000000000E+00 0. -1.
     999901    1    3    3    0    0  0.13238941827E-01 -0.39720488764E-01 -0.10034002516E+00  0.88669110036E+00  0.88000000000E+00 0. -1.
        -11    1    4    4    0    0 -0.16971736309E-01  0.39307553667E-01  0.85606036087E-01  0.95717177895E-01  0.51100000000E-03 0. -1.
         11    1    4    4    0    0  0.60989298265E-02  0.13763226998E-01  0.34446940652E-01  0.37596225924E-01  0.51100000000E-03 0.  1.
</event>
<event>
 8    1  0.9952977E+004  0.1043930E+01  0.7957747E-01            NaN
         13   -1    0    0    0    0  0.00000000000E+00  0.00000000000E+00  0.74505805969E-08  0.10566000000E+00  0.10566000000E+00 0.  1.
     999900   -1    0    0    0    0 -0.00000000000E+00 -0.00000000000E+00 -0.74505805969E-08  0.93827000000E+00  0.93827000000E+00 0. -1.
     999902    2    1    2    0    0 -0.20642947704E-01  0.11734576644E-01  0.95463817714E-02  0.10183377163E+01  0.10180160802E+01 0.  0.
     999903    2    3    3    0    0 -0.49466471403E-01  0.59182255391E-01  0.10458994494E+00  0.13148070607E+00  0.19966179901E-01 0.  0.
         14    1    1    2    0    0  0.20642947704E-01 -0.11734576644E-01 -0.95463817714E-02  0.25592283678E-01  0.00000000000E+00 0.  1.
     999901    1    3    3    0    0  0.28823523699E-01 -0.47447678748E-01 -0.95043563167E-01  0.88685701025E+00  0.88000000000E+00 0. -1.
        -11    1    4    4    0    0 -0.36771122899E-01  0.48116563949E-01  0.67155113336E-01  0.90428920007E-01  0.51100000000E-03 0.  1.
         11    1    4    4    0    0 -0.12695348504E-01  0.11065691443E-01  0.37434831602E-01  0.41051786061E-01  0.51100000000E-03 0. -1.
</event>
<event>
 8    1  0.9952977E+004  0.1043930E+01  0.7957747E-01            NaN
         13   -1    0    0    0    0  0.00000000000E+00  0.00000000000E+00  0.74505805969E-08  0.10566000000E+00  0.10566000000E+00 0. -1.
     999900   -1    0    0    0    0 -0.00000000000E+00 -0.00000000000E+00 -0.74505805969E-08  0.93827000000E+00  0.93827000000E+00 0.  1.
     999902    2    1    2    0    0 -0.17657691149E-01 -0.14251060727E-01  0.40344373115E-02  0.10208830160E+01  0.10206228338E+01 0.  0.
     999903    2    3    3    0    0  0.10390795510E+00  0.29895301401E-01  0.67659828516E-01  0.12915699412E+00  0.20324481719E-01 0.  0.
         14    1    1    2    0    0  0.17657691149E-01  0.14251060727E-01 -0.40344373115E-02  0.23046984032E-01  0.00000000000E+00 0.  1.
     999901    1    3    3    0    0 -0.12156564624E+00 -0.44146362128E-01 -0.63625391204E-01  0.89172602185E+00  0.88000000000E+00 0.  1.
        -11    1    4    4    0    0  0.69213400066E-01  0.15213319581E-01  0.53939192635E-01  0.89059740985E-01  0.51100000000E-03 0.  1.
         11    1    4    4    0    0  0.34694555031E-01  0.14681981820E-01  0.13720635881E-01  0.40097253134E-01  0.51100000000E-03 0. -1.
</event>
<event>
 8    1  0.9952977E+004  0.1043930E+01  0.7957747E-01            NaN
         13   -1    0    0    0    0  0.00000000000E+00  0.00000000000E+00  0.74505805969E-08  0.10566000000E+00  0.10566000000E+00 0.  1.
     999900   -1    0    0    0    0 -0.00000000000E+00 -0.00000000000E+00 -0.74505805969E-08  0.93827000000E+00  0.93827000000E+00 0.  1.
     999902    2    1    2    0    0 -0.16054871770E-02 -0.16353413986E-02  0.25626490351E-01  0.10182012430E+01  0.10178761232E+01 0.  0.
     999903    2    3    3    0    0  0.80020473602E-01  0.82761495943E-01  0.55637688336E-01  0.12989594881E+00  0.22905539680E-01 0.  0.
         14    1    1    2    0    0  0.16054871770E-02  0.16353413986E-02 -0.25626490351E-01  0.25728757030E-01  0.00000000000E+00 0. -1.
     999901    1    3    3    0    0 -0.81625960779E-01 -0.84396837342E-01 -0.30011197984E-01  0.88830529416E+00  0.88000000000E+00 0.  1.
        -11    1    4    4    0    0  0.62634112586E-01  0.63939042398E-01  0.32071432848E-01  0.95079288639E-01  0.51100000000E-03 0. -1.
         11    1    4    4    0    0  0.17386361017E-01  0.18822453545E-01  0.23566255488E-01  0.34816660172E-01  0.51100000000E-03 0.  1.
</event>
<event>
 8    1  0.9952977E+004  0.1043930E+01  0.7957747E-01            NaN
         13   -1    0    0    0    0  0.00000000000E+00  0.00000000000E+00  0.74505805969E-08  0.10566000000E+00  0.10566000000E+00 0. -1.
     999900   -1    0    0    0    0 -0.00000000000E+00 -0.00000000000E+00 -0.74505805969E-08  0.93827000000E+00  0.93827000000E+00 0.  1.
     999902    2    1    2    0    0  0.15191480417E-01  0.12465985665E-03 -0.18571167069E-01  0.10199365662E+01  0.10196543112E+01 0.  0.
     999903    2    3    3    0    0  0.12238215903E+00  0.66252297116E-02  0.41690118566E-01  0.13136269675E+00  0.22289136237E-01 0.  0.
         14    1    1    2    0    0 -0.15191480417E-01 -0.12465985665E-03  0.18571167069E-01  0.23993433761E-01  0.00000000000E+00 0.  1.
     999901    1    3    3    0    0 -0.10719067861E+00 -0.65005698549E-02 -0.60261285635E-01  0.88857386949E+00  0.88000000000E+00 0.  1.
        -11    1    4    4    0    0  0.10650164998E+00  0.13209900216E-01  0.37247976542E-01  0.11359918921E+00  0.51100000000E-03 0.  1.
         11    1    4    4    0    0  0.15880509052E-01 -0.65846705048E-02  0.44421420245E-02  0.17763507541E-01  0.51100000000E-03 0. -1.
</event>
<event>
 8    1  0.9952977E+004  0.1043930E+01  0.7957747E-01            NaN
         13   -1    0    0    0    0  0.00000000000E+00  0.00000000000E+00  0.74505805969E-08  0.10566000000E+00  0.10566000000E+00 0. -1.
     999900   -1    0    0    0    0 -0.00000000000E+00 -0.00000000000E+00 -0.74505805969E-08  0.93827000000E+00  0.93827000000E+00 0.  1.
     999902    2    1    2    0    0  0.15741107275E-01 -0.16759668340E-01 -0.36971477230E-02  0.10206418519E+01  0.10203761326E+01 0.  0.
     999903    2    3    3    0    0  0.49174757907E-01 -0.43062634892E-01 -0.11381850277E+00  0.13275876956E+00  0.19942216145E-01 0.  0.
         14    1    1    2    0    0 -0.15741107275E-01  0.16759668340E-01  0.36971477230E-02  0.23288148110E-01  0.00000000000E+00 0. -1.
     999901    1    3    3    0    0 -0.33433650633E-01  0.26302966552E-01  0.11012135504E+00  0.88788308233E+00  0.88000000000E+00 0. -1.
        -11    1    4    4    0    0  0.32468075875E-01 -0.15259713519E-01 -0.61371049940E-01  0.71089392313E-01  0.51100000000E-03 0.  1.
         11    1    4    4    0    0  0.16706682033E-01 -0.27802921373E-01 -0.52447452827E-01  0.61669377251E-01  0.51100000000E-03 0. -1.
</event>
<event>
 8    1  0.9952977E+004  0.1043930E+01  0.7957747E-01            NaN
         13   -1    0    0    0    0  0.00000000000E+00  0.00000000000E+00  0.74505805969E-08  0.10566000000E+00  0.10566000000E+00 0.  1.
     999900   -1    0    0    0    0 -0.00000000000E+00 -0.00000000000E+00 -0.74505805969E-08  0.93827000000E+00  0.93827000000E+00 0.  1.
     999902    2    1    2    0    0  0.24849894005E-01 -0.34167262476E-02 -0.16599386469E-01  0.10138512553E+01  0.10134049719E+01 0.  0.
     999903    2    3    3    0    0 -0.62534510825E-01  0.47177502702E-01 -0.94722689119E-01  0.12463864822E+00  0.20642746692E-01 0.  0.
         14    1    1    2    0    0 -0.24849894005E-01  0.34167262476E-02  0.16599386469E-01  0.30078744678E-01  0.00000000000E+00 0.  1.
     999901    1    3    3    0    0  0.87384404830E-01 -0.50594228949E-01  0.78123302651E-01  0.88921260710E+00  0.88000000000E+00 0. -1.
        -11    1    4    4    0    0 -0.90882411413E-02  0.16083906414E-01 -0.29100217914E-01  0.34472771520E-01  0.51100000000E-03 0.  1.
         11    1    4    4    0    0 -0.53446269684E-01  0.31093596287E-01 -0.65622471205E-01  0.90165876701E-01  0.51100000000E-03 0. -1.
</event>
<event>
 8    1  0.9952977E+004  0.1043930E+01  0.7957747E-01            NaN
         13   -1    0    0    0    0  0.00000000000E+00  0.00000000000E+00  0.74505805969E-08  0.10566000000E+00  0.10566000000E+00 0.  1.
     999900   -1    0    0    0    0 -0.00000000000E+00 -0.00000000000E+00 -0.74505805969E-08  0.93827000000E+00  0.93827000000E+00 0.  1.
     999902    2    1    2    0    0  0.96927070357E-02  0.53734993495E-02 -0.20537540118E-01  0.10205930418E+01  0.10203261946E+01 0.  0.
     999903    2    3    3    0    0  0.28552625994E-01  0.29975355014E-01  0.12053503008E+00  0.12881817226E+00  0.18752430973E-01 0.  0.
         14    1    1    2    0    0 -0.96927070357E-02 -0.53734993495E-02  0.20537540118E-01  0.23336958222E-01  0.00000000000E+00 0.  1.
     999901    1    3    3    0    0 -0.18859918958E-01 -0.24601855664E-01 -0.14107257020E+00  0.89177486952E+00  0.88000000000E+00 0.  1.
        -11    1    4    4    0    0  0.22898951619E-01  0.24061895972E-01  0.68375670455E-01  0.76018617813E-01  0.51100000000E-03 0. -1.
         11    1    4    4    0    0  0.56536743751E-02  0.59134590415E-02  0.52159359628E-01  0.52799554445E-01  0.51100000000E-03 0.  1.
</event>
<event>
 8    1  0.9952977E+004  0.1043930E+01  0.7957747E-01            NaN
         13   -1    0    0    0    0  0.00000000000E+00  0.00000000000E+00  0.74505805969E-08  0.10566000000E+00  0.10566000000E+00 0. -1.
     999900   -1    0    0    0    0 -0.00000000000E+00 -0.00000000000E+00 -0.74505805969E-08  0.93827000000E+00  0.93827000000E+00 0.  1.
     999902    2    1    2    0    0 -0.20281668101E-01  0.39224659757E-02 -0.85808106702E-02  0.10215612246E+01  0.10213162946E+01 0.  0.
     999903    2    3    3    0    0  0.36711718522E-01 -0.12246277674E+00  0.16956554825E-01  0.13034091923E+00  0.18877195507E-01 0.  0.
         14    1    1    2    0    0  0.20281668101E-01 -0.39224659757E-02  0.85808106702E-02  0.22368775381E-01  0.00000000000E+00 0.  1.
     999901    1    3    3    0    0 -0.56993386623E-01  0.12638524272E+00 -0.25537365495E-01  0.89122030539E+00  0.88000000000E+00 0.  1.
        -11    1    4    4    0    0  0.13478012732E-01 -0.61572465406E-01  0.16535343495E-01  0.65165205661E-01  0.51100000000E-03 0. -1.
         11    1    4    4    0    0  0.23233705790E-01 -0.60890311338E-01  0.42121133027E-03  0.65175713572E-01  0.51100000000E-03 0.  1.
</event>
<event>
 8    1  0.9952977E+004  0.1043930E+01  0.7957747E-01            NaN
         13   -1    0    0    0    0  0.00000000000E+00  0.00000000000E+00  0.74505805969E-08  0.10566000000E+00  0.10566000000E+00 0.  1.
     999900   -1    0    0    0    0 -0.00000000000E+00 -0.00000000000E+00 -0.74505805969E-08  0.93827000000E+00  0.93827000000E+00 0. -1.
     999902    2    1    2    0    0  0.17723407951E-02 -0.23444554874E-01 -0.12429706054E-02  0.10203857157E+01  0.10201140503E+01 0.  0.
     999903    2    3    3    0    0  0.79575435001E-02  0.12203412142E-01  0.12792856422E+00  0.13022038296E+00  0.19477803460E-01 0.  0.
         14    1    1    2    0    0 -0.17723407951E-02  0.23444554874E-01  0.12429706054E-02  0.23544284254E-01  0.00000000000E+00 0. -1.
     999901    1    3    3    0    0 -0.61852027050E-02 -0.35647967016E-01 -0.12917153483E+00  0.89016533279E+00  0.88000000000E+00 0. -1.
        -11    1    4    4    0    0 -0.48626881352E-02  0.38425618598E-02  0.70874192999E-01  0.71146492336E-01  0.51100000000E-03 0. -1.
         11    1    4    4    0    0  0.12820231635E-01  0.83608502825E-02  0.57054371224E-01  0.59073890623E-01  0.51100000000E-03 0.  1.
</event>
<event>
 8    1  0.9952977E+004  0.1043930E+01  0.7957747E-01            NaN
         13   -1    0    0    0    0  0.00000000000E+00  0.00000000000E+00  0.74505805969E-08  0.10566000000E+00  0.10566000000E+00 0.  1.
     999900   -1    0    0    0    0 -0.00000000000E+00 -0.00000000000E+00 -0.74505805969E-08  0.93827000000E+00  0.93827000000E+00 0. -1.
     999902    2    1    2    0    0 -0.23837577547E-02  0.21917558834E-01  0.96158938305E-02  0.10198774097E+01  0.10195937444E+01 0.  0.
     999903    2    3    3    0    0 -0.94391920936E-01 -0.10113138147E-01 -0.85633912493E-01  0.12939215252E+00  0.19926160279E-01 0.  0.
         14    1    1    2    0    0  0.23837577547E-02 -0.21917558834E-01 -0.96158938305E-02  0.24052590306E-01  0.00000000000E+00 0. -1.
     999901    1    3    3    0    0  0.92008163182E-01  0.32030696981E-01  0.95249806323E-01  0.89048525717E+00  0.88000000000E+00 0.  1.
        -11    1    4    4    0    0 -0.43487255735E-01  0.40227698295E-02 -0.32319707569E-01  0.54333679305E-01  0.51100000000E-03 0.  1.
         11    1    4    4    0    0 -0.50904665202E-01 -0.14135907977E-01 -0.53314204924E-01  0.75058473214E-01  0.51100000000E-03 0. -1.
</event>
<event>
 8    1  0.9952977E+004  0.1043930E+01  0.7957747E-01            NaN
         13   -1    0    0    0    0  0.00000000000E+00  0.00000000000E+00  0.74505805969E-08  0.10566000000E+00  0.10566000000E+00 0.  1.
     999900   -1    0    0    0    0 -0.00000000000E+00 -0.00000000000E+00 -0.74505805969E-08  0.93827000000E+00  0.93827000000E+00 0. -1.
     999902    2    1    2    0    0 -0.18616446163E-01 -0.16799452568E-02 -0.12943685339E-01  0.10211938333E+01  0.10209406995E+01 0.  0.
     999903    2    3    3    0    0  0.43260104393E-01 -0.98255046020E-01  0.70195526973E-01  0.12986472117E+00  0.20296381370E-01 0.  0.
         14    1    1    2    0    0  0.18616446163E-01  0.16799452568E-02  0.12943685339E-01  0.22736166651E-01  0.00000000000E+00 0.  1.
     999901    1    3    3    0    0 -0.61876550557E-01  0.96575100763E-01 -0.83139212312E-01  0.89132911218E+00  0.88000000000E+00 0. -1.
        -11    1    4    4    0    0  0.12353062662E-01 -0.41172279637E-01  0.38128997056E-01  0.57461607227E-01  0.51100000000E-03 0.  1.
         11    1    4    4    0    0  0.30907041731E-01 -0.57082766383E-01  0.32066529917E-01  0.72403113942E-01  0.51100000000E-03 0. -1.
</event>
<event>
 8    1  0.9952977E+004  0.1043930E+01  0.7957747E-01            NaN
         13   -1    0    0    0    0  0.00000000000E+00  0.00000000000E+00  0.74505805969E-08  0.10566000000E+00  0.10566000000E+00 0. -1.
     999900   -1    0    0    0    0 -0.00000000000E+00 -0.00000000000E+00 -0.74505805969E-08  0.93827000000E+00  0.93827000000E+00 0. -1.
     999902    2    1    2    0    0 -0.14693644505E-01 -0.29293267337E-02 -0.18643712969E-01  0.10200119696E+01  0.10197315068E+01 0.  0.
     999903    2    3    3    0    0 -0.22106621364E-01 -0.10518373934E+00 -0.74551586085E-01  0.13229770963E+00  0.19809675775E-01 0.  0.
         14    1    1    2    0    0  0.14693644505E-01  0.29293267337E-02  0.18643712969E-01  0.23918030379E-01  0.00000000000E+00 0. -1.
     999901    1    3    3    0    0  0.74129768593E-02  0.10225441261E+00  0.55907873116E-01  0.88771426000E+00  0.88000000000E+00 0. -1.
        -11    1    4    4    0    0 -0.54479062664E-02 -0.51503752100E-01 -0.45915577016E-01  0.69215731570E-01  0.51100000000E-03 0. -1.
         11    1    4    4    0    0 -0.16658715098E-01 -0.53679987241E-01 -0.28636009069E-01  0.63081978055E-01  0.51100000000E-03 0.  1.
</event>
<event>
 8    1  0.9952977E+004  0.1043930E+01  0.7957747E-01            NaN
         13   -1    0    0    0    0  0.00000000000E+00  0.00000000000E+00  0.74505805969E-08  0.10566000000E+00  0.10566000000E+00 0.  1.
     999900   -1    0    0    0    0 -0.00000000000E+00 -0.00000000000E+00 -0.74505805969E-08  0.93827000000E+00  0.93827000000E+00 0.  1.
     999902    2    1    2    0    0 -0.14099549373E-01 -0.17331896062E-01 -0.61890359246E-02  0.10207460383E+01  0.10204827185E+01 0.  0.
     999903    2    3    3    0    0 -0.37105856844E-01  0.90033525464E-01 -0.85251806879E-01  0.13040478595E+00  0.15957985525E-01 0.  0.
         14    1    1    2    0    0  0.14099549373E-01  0.17331896062E-01  0.61890359246E-02  0.23183961682E-01  0.00000000000E+00 0. -1.
     999901    1    3    3    0    0  0.23006307471E-01 -0.10736542153E+00  0.79062770954E-01  0.89034125237E+00  0.88000000000E+00 0. -1.
        -11    1    4    4    0    0 -0.35716817071E-02  0.26644503337E-02 -0.74831336179E-02  0.87243690626E-02  0.51100000000E-03 0. -1.
         11    1    4    4    0    0 -0.33534175137E-01  0.87369075131E-01 -0.77768673261E-01  0.12168041688E+00  0.51100000000E-03 0.  1.
</event>
<event>
 8    1  0.9952977E+004  0.1043930E+01  0.7957747E-01            NaN
         13   -1    0    0    0    0  0.00000000000E+00  0.00000000000E+00  0.74505805969E-08  0.10566000000E+00  0.10566000000E+00 0. -1.
     999900   -1    0    0    0    0 -0.00000000000E+00 -0.00000000000E+00 -0.74505805969E-08  0.93827000000E+00  0.93827000000E+00 0. -1.
     999902    2    1    2    0    0 -0.43309526261E-02 -0.17096512770E-01 -0.16653022511E-01  0.10196736388E+01  0.10193850885E+01 0.  0.
     999903    2    3    3    0    0 -0.76158929310E-01 -0.95574661043E-01 -0.47355255568E-01  0.13273468651E+00  0.21006628129E-01 0.  0.
         14    1    1    2    0    0  0.43309526261E-02  0.17096512770E-01  0.16653022511E-01  0.24256361193E-01  0.00000000000E+00 0. -1.
     999901    1    3    3    0    0  0.71827976684E-01  0.78478148273E-01  0.30702233057E-01  0.88693895230E+00  0.88000000000E+00 0. -1.
        -11    1    4    4    0    0 -0.88791273380E-02 -0.78460981781E-02  0.13245159887E-02  0.11933801679E-01  0.51100000000E-03 0.  1.
         11    1    4    4    0    0 -0.67279801972E-01 -0.87728562865E-01 -0.48679771557E-01  0.12080088483E+00  0.51100000000E-03 0. -1.
</event>
<event>
 8    1  0.9952977E+004  0.1043930E+01  0.7957747E-01            NaN
         13   -1    0    0    0    0  0.00000000000E+00  0.00000000000E+00  0.74505805969E-08  0.10566000000E+00  0.10566000000E+00 0.  1.
     999900   -1    0    0    0    0 -0.00000000000E+00 -0.00000000000E+00 -0.74505805969E-08  0.93827000000E+00  0.93827000000E+00 0. -1.
     999902    2    1    2    0    0 -0.13081585834E-01 -0.16196744367E-02 -0.21746554482E-01  0.10185004136E+01  0.10181829053E+01 0.  0.
     999903    2    3    3    0    0  0.50115443283E-01  0.11346061478E+00 -0.37553644811E-02  0.12857849546E+00  0.33666867543E-01 0.  0.
         14    1    1    2    0    0  0.13081585834E-01  0.16196744367E-02  0.21746554482E-01  0.25429586411E-01  0.00000000000E+00 0.  1.
     999901    1    3    3    0    0 -0.63197029117E-01 -0.11508028921E+00 -0.17991190001E-01  0.88992191813E+00  0.88000000000E+00 0.  1.
        -11    1    4    4    0    0  0.13446115824E-01  0.71304327833E-01  0.20294270862E-03  0.72563127725E-01  0.51100000000E-03 0. -1.
         11    1    4    4    0    0  0.36669327459E-01  0.42156286945E-01 -0.39583071897E-02  0.56015367731E-01  0.51100000000E-03 0.  1.
</event>
<event>
 8    1  0.9952977E+004  0.1043930E+01  0.7957747E-01            NaN
         13   -1    0    0    0    0  0.00000000000E+00  0.00000000000E+00  0.74505805969E-08  0.10566000000E+00  0.10566000000E+00 0. -1.
     999900   -1    0    0    0    0 -0.00000000000E+00 -0.00000000000E+00 -0.74505805969E-08  0.93827000000E+00  0.93827000000E+00 0. -1.
     999902    2    1    2    0    0  0.54516045415E-02 -0.15108821150E-01  0.17485024104E-01  0.10201871582E+01  0.10199108369E+01 0.  0.
     999903    2    3    3    0    0  0.58242367516E-01  0.94141507145E-01 -0.61754970444E-01  0.12833432526E+00  0.20030624681E-01 0.  0.
         14    1    1    2    0    0 -0.54516045415E-02  0.15108821150E-01 -0.17485024104E-01  0.23742841796E-01  0.00000000000E+00 0.  1.
     999901    1    3    3    0    0 -0.52790762974E-01 -0.10925032829E+00  0.79239994548E-01  0.89185283294E+00  0.88000000000E+00 0.  1.
        -11    1    4    4    0    0  0.52517341424E-01  0.69093755856E-01 -0.46872241684E-01  0.98637145183E-01  0.51100000000E-03 0. -1.
         11    1    4    4    0    0  0.57250260921E-02  0.25047751289E-01 -0.14882728760E-01  0.29697180080E-01  0.51100000000E-03 0.  1.
</event>
<event>
 8    1  0.9952977E+004  0.1043930E+01  0.7957747E-01            NaN
         13   -1    0    0    0    0  0.00000000000E+00  0.00000000000E+00  0.74505805969E-08  0.10566000000E+00  0.10566000000E+00 0.  1.
     999900   -1    0    0    0    0 -0.00000000000E+00 -0.00000000000E+00 -0.74505805969E-08  0.93827000000E+00  0.93827000000E+00 0.  1.
     999902    2    1    2    0    0  0.25104599724E-01 -0.32282255729E-02 -0.16284385746E-02  0.10185663611E+01  0.10182505182E+01 0.  0.
     999903    2    3    3    0    0 -0.42571525844E-01 -0.11927977235E+00  0.56911767238E-02  0.12834077379E+00  0.19974128776E-01 0.  0.
         14    1    1    2    0    0 -0.25104599724E-01  0.32282255729E-02  0.16284385746E-02  0.25363638931E-01  0.00000000000E+00 0.  1.
     999901    1    3    3    0    0  0.67676125568E-01  0.11605154677E+00 -0.73196152984E-02  0.89022558728E+00  0.88000000000E+00 0.  1.
        -11    1    4    4    0    0 -0.26450793433E-01 -0.45773980249E-01  0.47256111080E-02  0.53080074062E-01  0.51100000000E-03 0. -1.
         11    1    4    4    0    0 -0.16120732411E-01 -0.73505792098E-01  0.96556561581E-03  0.75260699727E-01  0.51100000000E-03 0.  1.
</event>
<event>
 8    1  0.1008030E+005  0.1043930E+01  0.7957747E-01            NaN
         13   -1    0    0    0    0  0.00000000000E+00  0.00000000000E+00  0.74505805969E-08  0.10566000000E+00  0.10566000000E+00 0.  1.
     999900   -1    0    0    0    0 -0.00000000000E+00 -0.00000000000E+00 -0.74505805969E-08  0.93827000000E+00  0.93827000000E+00 0. -1.
     999902    2    1    2    0    0 -0.80016740349E-02 -0.87736335944E-02 -0.20274749786E-01  0.10204338532E+01  0.10201633104E+01 0.  0.
     999903    2    3    3    0    0 -0.38325365442E-01  0.50633086715E-01  0.10985962363E+00  0.12836679308E+00  0.19399833891E-01 0.  0.
         14    1    1    2    0    0  0.80016740349E-02  0.87736335944E-02  0.20274749786E-01  0.23496146763E-01  0.00000000000E+00 0.  1.
     999901    1    3    3    0    0  0.30323691407E-01 -0.59406720309E-01 -0.13013437341E+00  0.89206706016E+00  0.88000000000E+00 0. -1.
        -11    1    4    4    0    0 -0.29808415037E-01  0.25074097328E-01  0.72512678803E-01  0.82314042982E-01  0.51100000000E-03 0.  1.
         11    1    4    4    0    0 -0.85169504054E-02  0.25558989387E-01  0.37346944824E-01  0.46052750096E-01  0.51100000000E-03 0. -1.
</event>
<event>
 7    1  0.1658163E+005  0.1043930E+01  0.7957747E-01            NaN
         13   -1    0    0    0    0  0.00000000000E+00  0.00000000000E+00  0.74505805969E-08  0.10566000000E+00  0.10566000000E+00 0. -1.
     999900   -1    0    0    0    0 -0.00000000000E+00 -0.00000000000E+00 -0.74505805969E-08  0.93827000000E+00  0.93827000000E+00 0.  1.
     999903    2    1    2    0    0  0.58526502924E-02 -0.94842545868E-01  0.58906310833E-01  0.11347650990E+00  0.19432005046E-01 0.  0.
         14    1    1    2    0    0  0.30792298341E-01  0.18669647738E-01 -0.28426196227E-01  0.45877772567E-01  0.00000000000E+00 0.  1.
     999901    1    1    2    0    0 -0.36644948633E-01  0.76172898130E-01 -0.30480114605E-01  0.88457571754E+00  0.88000000000E+00 0. -1.
        -11    1    3    3    0    0  0.10328764729E-01 -0.50529472910E-01  0.39137925956E-01  0.64745265329E-01  0.51100000000E-03 0.  1.
         11    1    3    3    0    0 -0.44761144361E-02 -0.44313072958E-01  0.19768384877E-01  0.48731244567E-01  0.51100000000E-03 0. -1.
</event>
<event>
 8    1  0.9952977E+004  0.1043930E+01  0.7957747E-01            NaN
         13   -1    0    0    0    0  0.00000000000E+00  0.00000000000E+00  0.74505805969E-08  0.10566000000E+00  0.10566000000E+00 0. -1.
     999900   -1    0    0    0    0 -0.00000000000E+00 -0.00000000000E+00 -0.74505805969E-08  0.93827000000E+00  0.93827000000E+00 0. -1.
     999902    2    1    2    0    0 -0.37933387508E-02  0.19949395922E-01  0.14208766595E-01  0.10191457940E+01  0.10188443908E+01 0.  0.
     999903    2    3    3    0    0 -0.82878341765E-01 -0.27631779181E-01 -0.91158800048E-01  0.12806738559E+00  0.21424137564E-01 0.  0.
         14    1    1    2    0    0  0.37933387508E-02 -0.19949395922E-01 -0.14208766595E-01  0.24784205952E-01  0.00000000000E+00 0.  1.
     999901    1    3    3    0    0  0.79085003015E-01  0.47581175102E-01  0.10536756664E+00  0.89107840846E+00  0.88000000000E+00 0.  1.
        -11    1    4    4    0    0 -0.62976165345E-01 -0.26565628347E-01 -0.79986183570E-01  0.10521302531E+00  0.51100000000E-03 0. -1.
         11    1    4    4    0    0 -0.19902176420E-01 -0.10661508335E-02 -0.11172616478E-01  0.22854360280E-01  0.51100000000E-03 0.  1.
</event>
<event>
 8    1  0.9952977E+004  0.1043930E+01  0.7957747E-01            NaN
         13   -1    0    0    0    0  0.00000000000E+00  0.00000000000E+00  0.74505805969E-08  0.10566000000E+00  0.10566000000E+00 0.  1.
     999900   -1    0    0    0    0 -0.00000000000E+00 -0.00000000000E+00 -0.74505805969E-08  0.93827000000E+00  0.93827000000E+00 0. -1.
     999902    2    1    2    0    0  0.32811319949E-03  0.10683475192E-01  0.17476448999E-01  0.10234441373E+01  0.10232390882E+01 0.  0.
     999903    2    3    3    0    0 -0.11538636003E+00  0.62517957913E-01  0.20203137336E-01  0.13435241665E+00  0.20491411886E-01 0.  0.
         14    1    1    2    0    0 -0.32811319949E-03 -0.10683475192E-01 -0.17476448999E-01  0.20485862688E-01  0.00000000000E+00 0. -1.
     999901    1    3    3    0    0  0.11571447323E+00 -0.51834482721E-01 -0.27266883369E-02  0.88909172066E+00  0.88000000000E+00 0. -1.
        -11    1    4    4    0    0 -0.17836123643E-01  0.17954283044E-01  0.72101917298E-02  0.26319794300E-01  0.51100000000E-03 0. -1.
         11    1    4    4    0    0 -0.97550236383E-01  0.44563674869E-01  0.12992945606E-01  0.10803262235E+00  0.51100000000E-03 0.  1.
</event>
<event>
 8    1  0.9952977E+004  0.1043930E+01  0.7957747E-01            NaN
         13   -1    0    0    0    0  0.00000000000E+00  0.00000000000E+00  0.74505805969E-08  0.10566000000E+00  0.10566000000E+00 0.  1.
     999900   -1    0    0    0    0 -0.00000000000E+00 -0.00000000000E+00 -0.74505805969E-08  0.93827000000E+00  0.93827000000E+00 0. -1.
     999902    2    1    2    0    0 -0.40794141958E-02  0.20658186890E-01  0.12279626929E-01  0.10195539555E+01  0.10192625161E+01 0.  0.
     999903    2    3    3    0    0  0.89708946667E-01  0.84333618731E-01  0.43214878971E-01  0.13174327354E+00  0.18135876032E-01 0.  0.
         14    1    1    2    0    0  0.40794141958E-02 -0.20658186890E-01 -0.12279626929E-01  0.24376044456E-01  0.00000000000E+00 0. -1.
     999901    1    3    3    0    0 -0.93788360863E-01 -0.63675431840E-01 -0.30935252042E-01  0.88781068200E+00  0.88000000000E+00 0. -1.
        -11    1    4    4    0    0  0.20662044345E-01  0.30283762605E-01  0.10327795095E-01  0.38091348447E-01  0.51100000000E-03 0. -1.
         11    1    4    4    0    0  0.69046902323E-01  0.54049856126E-01  0.32887083876E-01  0.93651925098E-01  0.51100000000E-03 0.  1.
</event>
<event>
 8    1  0.9952977E+004  0.1043930E+01  0.7957747E-01            NaN
         13   -1    0    0    0    0  0.00000000000E+00  0.00000000000E+00  0.74505805969E-08  0.10566000000E+00  0.10566000000E+00 0.  1.
     999900   -1    0    0    0    0 -0.00000000000E+00 -0.00000000000E+00 -0.74505805969E-08  0.93827000000E+00  0.93827000000E+00 0.  1.
     999902    2    1    2    0    0 -0.76819318814E-02 -0.11342600346E-01 -0.18457826261E-01  0.10209439605E+01  0.10206851682E+01 0.  0.
     999903    2    3    3    0    0  0.10873178601E+00 -0.13401788958E-01 -0.70403408199E-01  0.13175627649E+00  0.20021670082E-01 0.  0.
         14    1    1    2    0    0  0.76819318814E-02  0.11342600346E-01  0.18457826261E-01  0.22986039466E-01  0.00000000000E+00 0.  1.
     999901    1    3    3    0    0 -0.11641371789E+00  0.20591886111E-02  0.51945581939E-01  0.88918768404E+00  0.88000000000E+00 0.  1.
        -11    1    4    4    0    0  0.75175895122E-01 -0.58767161858E-03 -0.43320527350E-01  0.86768022774E-01  0.51100000000E-03 0.  1.
         11    1    4    4    0    0  0.33555890887E-01 -0.12814117339E-01 -0.27082880850E-01  0.44988253717E-01  0.51100000000E-03 0. -1.
</event>
<event>
 8    1  0.9952977E+004  0.1043930E+01  0.7957747E-01            NaN
         13   -1    0    0    0    0  0.00000000000E+00  0.00000000000E+00  0.74505805969E-08  0.10566000000E+00  0.10566000000E+00 0.  1.
     999900   -1    0    0    0    0 -0.00000000000E+00 -0.00000000000E+00 -0.74505805969E-08  0.93827000000E+00  0.93827000000E+00 0.  1.
     999902    2    1    2    0    0  0.17486078198E-01  0.16986479268E-01 -0.76488370232E-02  0.10183798901E+01  0.10180593266E+01 0.  0.
     999903    2    3    3    0    0 -0.32883262871E-01  0.86873435343E-01  0.87384161304E-01  0.12908099325E+00  0.19940121010E-01 0.  0.
         14    1    1    2    0    0 -0.17486078198E-01 -0.16986479268E-01  0.76488370232E-02  0.25550109911E-01  0.00000000000E+00 0. -1.
     999901    1    3    3    0    0  0.50369341069E-01 -0.69886956076E-01 -0.95032998327E-01  0.88929889684E+00  0.88000000000E+00 0.  1.
        -11    1    4    4    0    0 -0.70169343478E-02  0.74840096624E-02  0.38459141543E-02  0.10968133157E-01  0.51100000000E-03 0.  1.
         11    1    4    4    0    0 -0.25866328523E-01  0.79389425681E-01  0.83538247150E-01  0.11811286009E+00  0.51100000000E-03 0. -1.
</event>
<event>
 8    1  0.9952977E+004  0.1043930E+01  0.7957747E-01            NaN
         13   -1    0    0    0    0  0.00000000000E+00  0.00000000000E+00  0.74505805969E-08  0.10566000000E+00  0.10566000000E+00 0. -1.
     999900   -1    0    0    0    0 -0.00000000000E+00 -0.00000000000E+00 -0.74505805969E-08  0.93827000000E+00  0.93827000000E+00 0.  1.
     999902    2    1    2    0    0 -0.76808938781E-02 -0.13935216313E-01  0.17290041408E-01  0.10204325126E+01  0.10201619385E+01 0.  0.
     999903    2    3    3    0    0  0.92190148625E-01  0.17744820438E-01 -0.85159988824E-01  0.12831488659E+00  0.19964575328E-01 0.  0.
         14    1    1    2    0    0  0.76808938781E-02  0.13935216313E-01 -0.17290041408E-01  0.23497487448E-01  0.00000000000E+00 0.  1.
     999901    1    3    3    0    0 -0.99871042503E-01 -0.31680036751E-01  0.10245003023E+00  0.89211762596E+00  0.88000000000E+00 0. -1.
        -11    1    4    4    0    0  0.62426118188E-01  0.10115639792E-01 -0.44416069696E-01  0.77281270491E-01  0.51100000000E-03 0. -1.
         11    1    4    4    0    0  0.29764030437E-01  0.76291806460E-02 -0.40743919128E-01  0.51033616098E-01  0.51100000000E-03 0.  1.
</event>
<event>
 8    1  0.9952977E+004  0.1043930E+01  0.7957747E-01            NaN
         13   -1    0    0    0    0  0.00000000000E+00  0.00000000000E+00  0.74505805969E-08  0.10566000000E+00  0.10566000000E+00 0. -1.
     999900   -1    0    0    0    0 -0.00000000000E+00 -0.00000000000E+00 -0.74505805969E-08  0.93827000000E+00  0.93827000000E+00 0. -1.
     999902    2    1    2    0    0 -0.79044290237E-02  0.16251167698E-01 -0.15990683599E-01  0.10197994714E+01  0.10195139427E+01 0.  0.
     999903    2    3    3    0    0 -0.18670266953E-01 -0.11511613562E+00  0.47860050944E-01  0.12769511204E+00  0.20375318711E-01 0.  0.
         14    1    1    2    0    0  0.79044290237E-02 -0.16251167698E-01  0.15990683599E-01  0.24130528625E-01  0.00000000000E+00 0. -1.
     999901    1    3    3    0    0  0.10765837929E-01  0.13136730332E+00 -0.63850734543E-01  0.89210435934E+00  0.88000000000E+00 0.  1.
        -11    1    4    4    0    0 -0.52827151402E-02 -0.31737635554E-01  0.23364700154E-01  0.39766253584E-01  0.51100000000E-03 0. -1.
         11    1    4    4    0    0 -0.13387551813E-01 -0.83378500071E-01  0.24495350790E-01  0.87928858453E-01  0.51100000000E-03 0.  1.
</event>
<event>
 8    1  0.9952977E+004  0.1043930E+01  0.7957747E-01            NaN
         13   -1    0    0    0    0  0.00000000000E+00  0.00000000000E+00  0.74505805969E-08  0.10566000000E+00  0.10566000000E+00 0.  1.
     999900   -1    0    0    0    0 -0.00000000000E+00 -0.00000000000E+00 -0.74505805969E-08  0.93827000000E+00  0.93827000000E+00 0.  1.
     999902    2    1    2    0    0 -0.12135324808E-01 -0.18381739799E-01  0.10100654670E-01  0.10196982504E+01  0.10194102923E+01 0.  0.
     999903    2    3    3    0    0  0.37209621114E-01 -0.83090531291E-01  0.93624785603E-01  0.13200549279E+00  0.19268039683E-01 0.  0.
         14    1    1    2    0    0  0.12135324808E-01  0.18381739799E-01 -0.10100654670E-01  0.24231749648E-01  0.00000000000E+00 0. -1.
     999901    1    3    3    0    0 -0.49344945922E-01  0.64708791492E-01 -0.83524130933E-01  0.88769275756E+00  0.88000000000E+00 0.  1.
        -11    1    4    4    0    0  0.24863515554E-01 -0.67662807490E-01  0.81543509992E-01  0.10883958409E+00  0.51100000000E-03 0.  1.
         11    1    4    4    0    0  0.12346105560E-01 -0.15427723801E-01  0.12081275612E-01  0.23165908693E-01  0.51100000000E-03 0. -1.
</event>
<event>
 8    1  0.9952977E+004  0.1043930E+01  0.7957747E-01            NaN
         13   -1    0    0    0    0  0.00000000000E+00  0.00000000000E+00  0.74505805969E-08  0.10566000000E+00  0.10566000000E+00 0.  1.
     999900   -1    0    0    0    0 -0.00000000000E+00 -0.00000000000E+00 -0.74505805969E-08  0.93827000000E+00  0.93827000000E+00 0.  1.
     999902    2    1    2    0    0 -0.74619133625E-02 -0.23711824387E-02  0.22235346460E-01  0.10203564282E+01  0.10200840785E+01 0.  0.
     999903    2    3    3    0    0  0.47540383292E-02  0.54150457882E-01 -0.11456401182E+00  0.12791147763E+00  0.16779759727E-01 0.  0.
         14    1    1    2    0    0  0.74619133625E-02  0.23711824387E-02 -0.22235346460E-01  0.23573571842E-01  0.00000000000E+00 0. -1.
     999901    1    3    3    0    0 -0.12215951692E-01 -0.56521640320E-01  0.13679935828E+00  0.89244495053E+00  0.88000000000E+00 0. -1.
        -11    1    4    4    0    0 -0.30151305213E-02  0.29991844037E-01 -0.75817257375E-01  0.81591172057E-01  0.51100000000E-03 0.  1.
         11    1    4    4    0    0  0.77691688505E-02  0.24158613844E-01 -0.38746754442E-01  0.46320305572E-01  0.51100000000E-03 0. -1.
</event>
<event>
 8    1  0.9952977E+004  0.1043930E+01  0.7957747E-01            NaN
         13   -1    0    0    0    0  0.00000000000E+00  0.00000000000E+00  0.74505805969E-08  0.10566000000E+00  0.10566000000E+00 0. -1.
     999900   -1    0    0    0    0 -0.00000000000E+00 -0.00000000000E+00 -0.74505805969E-08  0.93827000000E+00  0.93827000000E+00 0. -1.
     999902    2    1    2    0    0 -0.57016899453E-02 -0.23741883138E-01  0.10593172148E-02  0.10194901056E+01  0.10191971188E+01 0.  0.
     999903    2    3    3    0    0 -0.12775775657E+00 -0.14468930473E-01  0.14607382520E-01  0.13091415440E+00  0.19843031189E-01 0.  0.
         14    1    1    2    0    0  0.57016899453E-02  0.23741883138E-01 -0.10593172148E-02  0.24439894356E-01  0.00000000000E+00 0. -1.
     999901    1    3    3    0    0  0.12205606662E+00 -0.92729526652E-02 -0.13548065305E-01  0.88857595124E+00  0.88000000000E+00 0.  1.
        -11    1    4    4    0    0 -0.81512315185E-01 -0.18484705132E-01  0.11732592721E-01  0.84402942505E-01  0.51100000000E-03 0. -1.
         11    1    4    4    0    0 -0.46245441383E-01  0.40157746592E-02  0.28747897983E-02  0.46511211898E-01  0.51100000000E-03 0.  1.
</event>
<event>
 8    1  0.9952977E+004  0.1043930E+01  0.7957747E-01            NaN
         13   -1    0    0    0    0  0.00000000000E+00  0.00000000000E+00  0.74505805969E-08  0.10566000000E+00  0.10566000000E+00 0.  1.
     999900   -1    0    0    0    0 -0.00000000000E+00 -0.00000000000E+00 -0.74505805969E-08  0.93827000000E+00  0.93827000000E+00 0. -1.
     999902    2    1    2    0    0  0.13502228535E-01  0.17253145771E-01 -0.99628906615E-02  0.10198625862E+01  0.10195785671E+01 0.  0.
     999903    2    3    3    0    0 -0.91522675553E-01  0.89359595060E-01 -0.17391760922E-01  0.13065802113E+00  0.20186821662E-01 0.  0.
         14    1    1    2    0    0 -0.13502228535E-01 -0.17253145771E-01  0.99628906615E-02  0.24067413752E-01  0.00000000000E+00 0. -1.
     999901    1    3    3    0    0  0.10502490409E+00 -0.72106449289E-01  0.74288702601E-02  0.88920456511E+00  0.88000000000E+00 0.  1.
        -11    1    4    4    0    0 -0.49818427402E-01  0.37433776310E-01 -0.14563363392E-01  0.63996218575E-01  0.51100000000E-03 0.  1.
         11    1    4    4    0    0 -0.41704248151E-01  0.51925818750E-01 -0.28283975292E-02  0.66661802558E-01  0.51100000000E-03 0. -1.
</event>
<event>
 8    1  0.9952977E+004  0.1043930E+01  0.7957747E-01            NaN
         13   -1    0    0    0    0  0.00000000000E+00  0.00000000000E+00  0.74505805969E-08  0.10566000000E+00  0.10566000000E+00 0.  1.
     999900   -1    0    0    0    0 -0.00000000000E+00 -0.00000000000E+00 -0.74505805969E-08  0.93827000000E+00  0.93827000000E+00 0.  1.
     999902    2    1    2    0    0 -0.73264609712E-02  0.21394086098E-01 -0.12338120762E-01  0.10181693095E+01  0.10178433719E+01 0.  0.
     999903    2    3    3    0    0 -0.70250232200E-01  0.19150162533E-01 -0.10682507945E+00  0.13087441967E+00  0.20363994574E-01 0.  0.
         14    1    1    2    0    0  0.73264609712E-02 -0.21394086098E-01  0.12338120762E-01  0.25760690485E-01  0.00000000000E+00 0.  1.
     999901    1    3    3    0    0  0.62923771229E-01  0.22439235650E-02  0.94486958692E-01  0.88729488984E+00  0.88000000000E+00 0. -1.
        -11    1    4    4    0    0 -0.92258769088E-02 -0.12049774262E-02 -0.54061491388E-02  0.10772945040E-01  0.51100000000E-03 0.  1.
         11    1    4    4    0    0 -0.61024355291E-01  0.20355139959E-01 -0.10141893031E+00  0.12010147463E+00  0.51100000000E-03 0. -1.
</event>
<event>
 8    1  0.9952977E+004  0.1043930E+01  0.7957747E-01            NaN
         13   -1    0    0    0    0  0.00000000000E+00  0.00000000000E+00  0.74505805969E-08  0.10566000000E+00  0.10566000000E+00 0.  1.
     999900   -1    0    0    0    0 -0.00000000000E+00 -0.00000000000E+00 -0.74505805969E-08  0.93827000000E+00  0.93827000000E+00 0.  1.
     999902    2    1    2    0    0  0.14150565850E-01 -0.14709088006E-01  0.13462614962E-01  0.10194792784E+01  0.10191860288E+01 0.  0.
     999903    2    3    3    0    0  0.51172955096E-01  0.69388243954E-01  0.96365160998E-01  0.13081969755E+00  0.19853193199E-01 0.  0.
         14    1    1    2    0    0 -0.14150565850E-01  0.14709088006E-01 -0.13462614962E-01  0.24450721573E-01  0.00000000000E+00 0. -1.
     999901    1    3    3    0    0 -0.37022389245E-01 -0.84097331960E-01 -0.82902546036E-01  0.88865958088E+00  0.88000000000E+00 0. -1.
        -11    1    4    4    0    0  0.35989840659E-01  0.46819229267E-01  0.78655131105E-01  0.98357509271E-01  0.51100000000E-03 0. -1.
         11    1    4    4    0    0  0.15183114437E-01  0.22569014687E-01  0.17710029893E-01  0.32462188277E-01  0.51100000000E-03 0.  1.
</event>
<event>
 8    1  0.9952977E+004  0.1043930E+01  0.7957747E-01            NaN
         13   -1    0    0    0    0  0.00000000000E+00  0.00000000000E+00  0.74505805969E-08  0.10566000000E+00  0.10566000000E+00 0.  1.
     999900   -1    0    0    0    0 -0.00000000000E+00 -0.00000000000E+00 -0.74505805969E-08  0.93827000000E+00  0.93827000000E+00 0.  1.
     999902    2    1    2    0    0  0.21128285923E-01 -0.26783028827E-02  0.10392523573E-01  0.10202322719E+01  0.10199570120E+01 0.  0.
     999903    2    3    3    0    0  0.12454859433E+00  0.20650827989E-01  0.38802517756E-01  0.13341372430E+00  0.18835535644E-01 0.  0.
         14    1    1    2    0    0 -0.21128285923E-01  0.26783028827E-02 -0.10392523573E-01  0.23697728132E-01  0.00000000000E+00 0. -1.
     999901    1    3    3    0    0 -0.10342030840E+00 -0.23329130872E-01 -0.28409994182E-01  0.88681854757E+00  0.88000000000E+00 0. -1.
        -11    1    4    4    0    0  0.67398828951E-01  0.20165774648E-01  0.24505026295E-01  0.74498443244E-01  0.51100000000E-03 0. -1.
         11    1    4    4    0    0  0.57149765375E-01  0.48505334140E-03  0.14297491461E-01  0.58915281059E-01  0.51100000000E-03 0.  1.
</event>
<event>
 8    1  0.9952977E+004  0.1043930E+01  0.7957747E-01            NaN
         13   -1    0    0    0    0  0.00000000000E+00  0.00000000000E+00  0.74505805969E-08  0.10566000000E+00  0.10566000000E+00 0. -1.
     999900   -1    0    0    0    0 -0.00000000000E+00 -0.00000000000E+00 -0.74505805969E-08  0.93827000000E+00  0.93827000000E+00 0.  1.
     999902    2    1    2    0    0 -0.62886791433E-02 -0.22192703678E-01  0.59677756713E-02  0.10201040073E+01  0.10198257242E+01 0.  0.
     999903    2    3    3    0    0 -0.26780779925E-01 -0.12411481743E+00 -0.34652596813E-01  0.13305380684E+00  0.19514481028E-01 0.  0.
         14    1    1    2    0    0  0.62886791433E-02  0.22192703678E-01 -0.59677756713E-02  0.23825992705E-01  0.00000000000E+00 0.  1.
     999901    1    3    3    0    0  0.20492100781E-01  0.10192211375E+00  0.40620372484E-01  0.88705020045E+00  0.88000000000E+00 0. -1.
        -11    1    4    4    0    0 -0.28008896836E-01 -0.89717931593E-01 -0.26998283620E-01  0.97790459610E-01  0.51100000000E-03 0. -1.
         11    1    4    4    0    0  0.12281169116E-02 -0.34396885837E-01 -0.76543131922E-02  0.35263347230E-01  0.51100000000E-03 0.  1.
</event>
<event>
 8    1  0.9952977E+004  0.1043930E+01  0.7957747E-01            NaN
         13   -1    0    0    0    0  0.00000000000E+00  0.00000000000E+00  0.74505805969E-08  0.10566000000E+00  0.10566000000E+00 0. -1.
     999900   -1    0    0    0    0 -0.00000000000E+00 -0.00000000000E+00 -0.74505805969E-08  0.93827000000E+00  0.93827000000E+00 0. -1.
     999902    2    1    2    0    0 -0.21406578654E-01  0.92080751021E-02  0.26450985963E-02  0.10204773498E+01  0.10202078193E+01 0.  0.
     999903    2    3    3    0    0 -0.11127297083E+00  0.61523920569E-02 -0.69899722769E-01  0.13292562915E+00  0.19071593463E-01 0.  0.
         14    1    1    2    0    0  0.21406578654E-01 -0.92080751021E-02 -0.26450985963E-02  0.23452650241E-01  0.00000000000E+00 0. -1.
     999901    1    3    3    0    0  0.89866392178E-01  0.30556830451E-02  0.72544821365E-01  0.88755172060E+00  0.88000000000E+00 0.  1.
        -11    1    4    4    0    0 -0.39958537299E-01  0.11312990207E-01 -0.27114773912E-01  0.49599803788E-01  0.51100000000E-03 0. -1.
         11    1    4    4    0    0 -0.71314433532E-01 -0.51605981499E-02 -0.42784948857E-01  0.83325825366E-01  0.51100000000E-03 0.  1.
</event>
<event>
 8    1  0.9952977E+004  0.1043930E+01  0.7957747E-01            NaN
         13   -1    0    0    0    0  0.00000000000E+00  0.00000000000E+00  0.74505805969E-08  0.10566000000E+00  0.10566000000E+00 0. -1.
     999900   -1    0    0    0    0 -0.00000000000E+00 -0.00000000000E+00 -0.74505805969E-08  0.93827000000E+00  0.93827000000E+00 0. -1.
     999902    2    1    2    0    0  0.16885619635E-02 -0.89634564820E-04 -0.23297681627E-01  0.10205710350E+01  0.10203036785E+01 0.  0.
     999903    2    3    3    0    0  0.57459707251E-01 -0.53980454134E-01  0.10014015754E+00  0.12857801867E+00  0.16992596821E-01 0.  0.
         14    1    1    2    0    0 -0.16885619635E-02  0.89634564820E-04  0.23297681627E-01  0.23358964983E-01  0.00000000000E+00 0. -1.
     999901    1    3    3    0    0 -0.55771145288E-01  0.53890819569E-01 -0.12343783916E+00  0.89199301635E+00  0.88000000000E+00 0. -1.
        -11    1    4    4    0    0  0.27597524468E-01 -0.14662080146E-01  0.40169100304E-01  0.50896146133E-01  0.51100000000E-03 0.  1.
         11    1    4    4    0    0  0.29862182783E-01 -0.39318373987E-01  0.59971057234E-01  0.77681872534E-01  0.51100000000E-03 0. -1.
</event>
<event>
 8    1  0.9952977E+004  0.1043930E+01  0.7957747E-01            NaN
         13   -1    0    0    0    0  0.00000000000E+00  0.00000000000E+00  0.74505805969E-08  0.10566000000E+00  0.10566000000E+00 0. -1.
     999900   -1    0    0    0    0 -0.00000000000E+00 -0.00000000000E+00 -0.74505805969E-08  0.93827000000E+00  0.93827000000E+00 0.  1.
     999902    2    1    2    0    0 -0.18456428978E-01  0.35046182126E-02  0.14177867944E-01  0.10203941962E+01  0.10201227287E+01 0.  0.
     999903    2    3    3    0    0  0.12170231307E+00 -0.34899160690E-01  0.92144330174E-02  0.12846148639E+00  0.19698814357E-01 0.  0.
         14    1    1    2    0    0  0.18456428978E-01 -0.35046182126E-02 -0.14177867944E-01  0.23535803765E-01  0.00000000000E+00 0.  1.
     999901    1    3    3    0    0 -0.14015874204E+00  0.38403778902E-01  0.49634349264E-02  0.89193270985E+00  0.88000000000E+00 0. -1.
        -11    1    4    4    0    0  0.62583888461E-01 -0.10464669683E-01  0.11316096839E-01  0.64455935143E-01  0.51100000000E-03 0. -1.
         11    1    4    4    0    0  0.59118424606E-01 -0.24434491007E-01 -0.21016638218E-02  0.64005551247E-01  0.51100000000E-03 0.  1.
</event>
<event>
 8    1  0.9952977E+004  0.1043930E+01  0.7957747E-01            NaN
         13   -1    0    0    0    0  0.00000000000E+00  0.00000000000E+00  0.74505805969E-08  0.10566000000E+00  0.10566000000E+00 0. -1.
     999900   -1    0    0    0    0 -0.00000000000E+00 -0.00000000000E+00 -0.74505805969E-08  0.93827000000E+00  0.93827000000E+00 0. -1.
     999902    2    1    2    0    0  0.20852811999E-01  0.10804175496E-01 -0.56109213791E-02  0.10197835217E+01  0.10194976109E+01 0.  0.
     999903    2    3    3    0    0 -0.42443488575E-01  0.10004439494E+00 -0.69902668623E-01  0.13068079016E+00  0.19512948437E-01 0.  0.
         14    1    1    2    0    0 -0.20852811999E-01 -0.10804175496E-01  0.56109213791E-02  0.24146478317E-01  0.00000000000E+00 0. -1.
     999901    1    3    3    0    0  0.63296300574E-01 -0.89240219439E-01  0.64291747244E-01  0.88910273152E+00  0.88000000000E+00 0.  1.
        -11    1    4    4    0    0 -0.13713868609E-01  0.50446843403E-01 -0.41275119272E-01  0.66609689936E-01  0.51100000000E-03 0. -1.
         11    1    4    4    0    0 -0.28729619966E-01  0.49597551532E-01 -0.28627549351E-01  0.64071100227E-01  0.51100000000E-03 0.  1.
</event>
<event>
 8    1  0.9952977E+004  0.1043930E+01  0.7957747E-01            NaN
         13   -1    0    0    0    0  0.00000000000E+00  0.00000000000E+00  0.74505805969E-08  0.10566000000E+00  0.10566000000E+00 0. -1.
     999900   -1    0    0    0    0 -0.00000000000E+00 -0.00000000000E+00 -0.74505805969E-08  0.93827000000E+00  0.93827000000E+00 0. -1.
     999902    2    1    2    0    0 -0.23360138809E-02  0.90897097633E-02 -0.21800876843E-01  0.10201948359E+01  0.10199186954E+01 0.  0.
     999903    2    3    3    0    0  0.80075106826E-02 -0.61440127353E-01 -0.11527961261E+00  0.13237744449E+00  0.19884397133E-01 0.  0.
         14    1    1    2    0    0  0.23360138809E-02 -0.90897097633E-02  0.21800876843E-01  0.23735164115E-01  0.00000000000E+00 0. -1.
     999901    1    3    3    0    0 -0.10343524564E-01  0.70529837116E-01  0.93478735769E-01  0.88781739140E+00  0.88000000000E+00 0.  1.
        -11    1    4    4    0    0 -0.30007851140E-02 -0.12580112060E-01 -0.12263681197E-01  0.17830393384E-01  0.51100000000E-03 0. -1.
         11    1    4    4    0    0  0.11008295797E-01 -0.48860015293E-01 -0.10301593141E+00  0.11454705111E+00  0.51100000000E-03 0.  1.
</event>
<event>
 8    1  0.9952977E+004  0.1043930E+01  0.7957747E-01            NaN
         13   -1    0    0    0    0  0.00000000000E+00  0.00000000000E+00  0.74505805969E-08  0.10566000000E+00  0.10566000000E+00 0. -1.
     999900   -1    0    0    0    0 -0.00000000000E+00 -0.00000000000E+00 -0.74505805969E-08  0.93827000000E+00  0.93827000000E+00 0.  1.
     999902    2    1    2    0    0  0.78806056007E-02  0.18166108115E-01 -0.12453687520E-01  0.10205375704E+01  0.10202694384E+01 0.  0.
     999903    2    3    3    0    0 -0.12602181255E+00  0.58718656837E-02  0.22328051947E-01  0.12964432464E+00  0.19827580816E-01 0.  0.
         14    1    1    2    0    0 -0.78806056007E-02 -0.18166108115E-01  0.12453687520E-01  0.23392429577E-01  0.00000000000E+00 0. -1.
     999901    1    3    3    0    0  0.13390241816E+00  0.12294242431E-01 -0.34781739466E-01  0.89089324578E+00  0.88000000000E+00 0. -1.
        -11    1    4    4    0    0 -0.85251646170E-01 -0.52707157936E-02  0.13785310179E-01  0.86521208484E-01  0.51100000000E-03 0. -1.
         11    1    4    4    0    0 -0.40770166384E-01  0.11142581477E-01  0.85427417676E-02  0.43123116154E-01  0.51100000000E-03 0.  1.
</event>
<event>
 8    1  0.9952977E+004  0.1043930E+01  0.7957747E-01            NaN
         13   -1    0    0    0    0  0.00000000000E+00  0.00000000000E+00  0.74505805969E-08  0.10566000000E+00  0.10566000000E+00 0.  1.
     999900   -1    0    0    0    0 -0.00000000000E+00 -0.00000000000E+00 -0.74505805969E-08  0.93827000000E+00  0.93827000000E+00 0.  1.
     999902    2    1    2    0    0  0.19360540325E-01 -0.64799138084E-02 -0.12793550758E-01  0.10198365414E+01  0.10195518999E+01 0.  0.
     999903    2    3    3    0    0  0.67499593972E-01 -0.81200883669E-01  0.74989363344E-01  0.13101348152E+00  0.19782543594E-01 0.  0.
         14    1    1    2    0    0 -0.19360540325E-01  0.64799138084E-02  0.12793550758E-01  0.24093458565E-01  0.00000000000E+00 0.  1.
     999901    1    3    3    0    0 -0.48139053647E-01  0.74720969861E-01 -0.87782914102E-01  0.88882305991E+00  0.88000000000E+00 0. -1.
        -11    1    4    4    0    0  0.36761535103E-01 -0.45815139891E-01  0.29658761382E-01  0.65805324663E-01  0.51100000000E-03 0. -1.
         11    1    4    4    0    0  0.30738058869E-01 -0.35385743778E-01  0.45330601963E-01  0.65208156860E-01  0.51100000000E-03 0.  1.
</event>
<event>
 8    1  0.9952977E+004  0.1043930E+01  0.7957747E-01            NaN
         13   -1    0    0    0    0  0.00000000000E+00  0.00000000000E+00  0.74505805969E-08  0.10566000000E+00  0.10566000000E+00 0.  1.
     999900   -1    0    0    0    0 -0.00000000000E+00 -0.00000000000E+00 -0.74505805969E-08  0.93827000000E+00  0.93827000000E+00 0.  1.
     999902    2    1    2    0    0  0.12097051697E-01  0.96819891864E-02 -0.15963779194E-01  0.10216831616E+01  0.10214409238E+01 0.  0.
     999903    2    3    3    0    0  0.10421713658E+00  0.73326998182E-01 -0.37582990575E-01  0.13432517996E+00  0.19816976848E-01 0.  0.
         14    1    1    2    0    0 -0.12097051697E-01 -0.96819891864E-02  0.15963779194E-01  0.22246838438E-01  0.00000000000E+00 0.  1.
     999901    1    3    3    0    0 -0.92120084885E-01 -0.63645008995E-01  0.21619211381E-01  0.88735798160E+00  0.88000000000E+00 0.  1.
        -11    1    4    4    0    0  0.51094467569E-01  0.36258869878E-01 -0.28787800634E-01  0.68951786397E-01  0.51100000000E-03 0. -1.
         11    1    4    4    0    0  0.53122669014E-01  0.37068128303E-01 -0.87951899406E-02  0.65373393564E-01  0.51100000000E-03 0.  1.
</event>
<event>
 8    1  0.9952977E+004  0.1043930E+01  0.7957747E-01            NaN
         13   -1    0    0    0    0  0.00000000000E+00  0.00000000000E+00  0.74505805969E-08  0.10566000000E+00  0.10566000000E+00 0.  1.
     999900   -1    0    0    0    0 -0.00000000000E+00 -0.00000000000E+00 -0.74505805969E-08  0.93827000000E+00  0.93827000000E+00 0. -1.
     999902    2    1    2    0    0 -0.48618368240E-02  0.19163546374E-01  0.13191728009E-01  0.10201623612E+01  0.10198854556E+01 0.  0.
     999903    2    3    3    0    0  0.41690817169E-01  0.78207283984E-01  0.97080196104E-01  0.13298110145E+00  0.20122260391E-01 0.  0.
         14    1    1    2    0    0  0.48618368240E-02 -0.19163546374E-01 -0.13191728009E-01  0.23767638814E-01  0.00000000000E+00 0. -1.
     999901    1    3    3    0    0 -0.46552653993E-01 -0.59043737610E-01 -0.83888468095E-01  0.88718125973E+00  0.88000000000E+00 0. -1.
        -11    1    4    4    0    0  0.23913012495E-01  0.43173753273E-01  0.39218708031E-01  0.63041044716E-01  0.51100000000E-03 0. -1.
         11    1    4    4    0    0  0.17777804674E-01  0.35033530710E-01  0.57861488073E-01  0.69940056735E-01  0.51100000000E-03 0.  1.
</event>
<event>
 8    1  0.9952977E+004  0.1043930E+01  0.7957747E-01            NaN
         13   -1    0    0    0    0  0.00000000000E+00  0.00000000000E+00  0.74505805969E-08  0.10566000000E+00  0.10566000000E+00 0. -1.
     999900   -1    0    0    0    0 -0.00000000000E+00 -0.00000000000E+00 -0.74505805969E-08  0.93827000000E+00  0.93827000000E+00 0.  1.
     999902    2    1    2    0    0  0.22218455092E-01 -0.23597927228E-02 -0.82760633412E-02  0.10201030910E+01  0.10198247863E+01 0.  0.
     999903    2    3    3    0    0 -0.11684169596E+00  0.28099077772E-01  0.37692073272E-01  0.12747856859E+00  0.19711747160E-01 0.  0.
         14    1    1    2    0    0 -0.22218455092E-01  0.23597927228E-02  0.82760633412E-02  0.23826909007E-01  0.00000000000E+00 0. -1.
     999901    1    3    3    0    0  0.13906015106E+00 -0.30458870495E-01 -0.45968136613E-01  0.89262452240E+00  0.88000000000E+00 0. -1.
        -11    1    4    4    0    0 -0.96033251001E-01  0.28391070184E-01  0.36638146115E-01  0.10663513978E+00  0.51100000000E-03 0. -1.
         11    1    4    4    0    0 -0.20808444962E-01 -0.29199241197E-03  0.10539271571E-02  0.20843428815E-01  0.51100000000E-03 0.  1.
</event>
<event>
 8    1  0.9952977E+004  0.1043930E+01  0.7957747E-01            NaN
         13   -1    0    0    0    0  0.00000000000E+00  0.00000000000E+00  0.74505805969E-08  0.10566000000E+00  0.10566000000E+00 0. -1.
     999900   -1    0    0    0    0 -0.00000000000E+00 -0.00000000000E+00 -0.74505805969E-08  0.93827000000E+00  0.93827000000E+00 0. -1.
     999902    2    1    2    0    0  0.22416987355E-01 -0.10288797999E-01 -0.20429253843E-04  0.10192646173E+01  0.10189661324E+01 0.  0.
     999903    2    3    3    0    0 -0.48566455497E-01  0.11015662511E+00 -0.36647735059E-01  0.12747579216E+00  0.20343019618E-01 0.  0.
         14    1    1    2    0    0 -0.22416987355E-01  0.10288797999E-01  0.20429253843E-04  0.24665382700E-01  0.00000000000E+00 0.  1.
     999901    1    3    3    0    0  0.70983442853E-01 -0.12044542311E+00  0.36627305806E-01  0.89178882514E+00  0.88000000000E+00 0. -1.
        -11    1    4    4    0    0 -0.20299591256E-01  0.63731782543E-01 -0.27660274361E-01  0.72382079343E-01  0.51100000000E-03 0.  1.
         11    1    4    4    0    0 -0.28266864241E-01  0.46424842569E-01 -0.89874606981E-02  0.55093712821E-01  0.51100000000E-03 0. -1.
</event>
<event>
 8    1  0.9952977E+004  0.1043930E+01  0.7957747E-01            NaN
         13   -1    0    0    0    0  0.00000000000E+00  0.00000000000E+00  0.74505805969E-08  0.10566000000E+00  0.10566000000E+00 0. -1.
     999900   -1    0    0    0    0 -0.00000000000E+00 -0.00000000000E+00 -0.74505805969E-08  0.93827000000E+00  0.93827000000E+00 0.  1.
     999902    2    1    2    0    0  0.13485616896E-01 -0.21956120061E-01 -0.82438309809E-02  0.10168764638E+01  0.10165165266E+01 0.  0.
     999903    2    3    3    0    0 -0.99243810305E-01  0.61790051708E-01 -0.43182137703E-01  0.12505695835E+00  0.10353812862E-01 0.  0.
         14    1    1    2    0    0 -0.13485616896E-01  0.21956120061E-01  0.82438309809E-02  0.27053536191E-01  0.00000000000E+00 0. -1.
     999901    1    3    3    0    0  0.11272942720E+00 -0.83746171769E-01  0.34938306723E-01  0.89181950546E+00  0.88000000000E+00 0. -1.
        -11    1    4    4    0    0 -0.68098232496E-01  0.39370010085E-01 -0.24618246250E-01  0.82423820176E-01  0.51100000000E-03 0. -1.
         11    1    4    4    0    0 -0.31145577810E-01  0.22420041623E-01 -0.18563891454E-01  0.42633138172E-01  0.51100000000E-03 0.  1.
</event>
<event>
 8    1  0.9952977E+004  0.1043930E+01  0.7957747E-01            NaN
         13   -1    0    0    0    0  0.00000000000E+00  0.00000000000E+00  0.74505805969E-08  0.10566000000E+00  0.10566000000E+00 0.  1.
     999900   -1    0    0    0    0 -0.00000000000E+00 -0.00000000000E+00 -0.74505805969E-08  0.93827000000E+00  0.93827000000E+00 0.  1.
     999902    2    1    2    0    0 -0.20920656088E-01  0.92434593053E-02  0.20168953294E-02  0.10209695284E+01  0.10207113179E+01 0.  0.
     999903    2    3    3    0    0  0.21172991430E-01 -0.93398406595E-02  0.12730405821E+00  0.13090543664E+00  0.19859051222E-01 0.  0.
         14    1    1    2    0    0  0.20920656088E-01 -0.92434593053E-02 -0.20168953294E-02  0.22960471639E-01  0.00000000000E+00 0. -1.
     999901    1    3    3    0    0 -0.42093647518E-01  0.18583299965E-01 -0.12528716288E+00  0.89006409173E+00  0.88000000000E+00 0.  1.
        -11    1    4    4    0    0  0.23500956445E-01 -0.45768958606E-02  0.86449640819E-01  0.89705320067E-01  0.51100000000E-03 0.  1.
         11    1    4    4    0    0 -0.23279650149E-02 -0.47629447989E-02  0.40854417386E-01  0.41200116568E-01  0.51100000000E-03 0. -1.
</event>
<event>
 8    1  0.9952977E+004  0.1043930E+01  0.7957747E-01            NaN
         13   -1    0    0    0    0  0.00000000000E+00  0.00000000000E+00  0.74505805969E-08  0.10566000000E+00  0.10566000000E+00 0. -1.
     999900   -1    0    0    0    0 -0.00000000000E+00 -0.00000000000E+00 -0.74505805969E-08  0.93827000000E+00  0.93827000000E+00 0. -1.
     999902    2    1    2    0    0 -0.34207735914E-03  0.16475164686E-01  0.18247536150E-01  0.10193429985E+01  0.10190464307E+01 0.  0.
     999903    2    3    3    0    0 -0.90998203995E-01  0.65472100296E-01  0.66584048673E-01  0.13201236594E+00  0.20653333289E-01 0.  0.
         14    1    1    2    0    0  0.34207735914E-03 -0.16475164686E-01 -0.18247536150E-01  0.24587001522E-01  0.00000000000E+00 0.  1.
     999901    1    3    3    0    0  0.90656126636E-01 -0.48996935610E-01 -0.48336512524E-01  0.88733063254E+00  0.88000000000E+00 0.  1.
        -11    1    4    4    0    0 -0.30131528900E-01  0.30026312264E-01  0.33726011948E-01  0.54288060059E-01  0.51100000000E-03 0.  1.
         11    1    4    4    0    0 -0.60866675095E-01  0.35445788032E-01  0.32858036725E-01  0.77724305882E-01  0.51100000000E-03 0. -1.
</event>
<event>
 8    1  0.9952977E+004  0.1043930E+01  0.7957747E-01            NaN
         13   -1    0    0    0    0  0.00000000000E+00  0.00000000000E+00  0.74505805969E-08  0.10566000000E+00  0.10566000000E+00 0.  1.
     999900   -1    0    0    0    0 -0.00000000000E+00 -0.00000000000E+00 -0.74505805969E-08  0.93827000000E+00  0.93827000000E+00 0.  1.
     999902    2    1    2    0    0  0.60922617000E-02  0.24267982682E-01 -0.96480139440E-02  0.10171133110E+01  0.10167597320E+01 0.  0.
     999903    2    3    3    0    0  0.25366076181E-01 -0.10911608689E+00  0.51435533395E-01  0.12476024763E+00  0.19228807919E-01 0.  0.
         14    1    1    2    0    0 -0.60922617000E-02 -0.24267982682E-01  0.96480139440E-02  0.26816689004E-01  0.00000000000E+00 0.  1.
     999901    1    3    3    0    0 -0.19273814481E-01  0.13338406957E+00 -0.61083547339E-01  0.89235306336E+00  0.88000000000E+00 0.  1.
        -11    1    4    4    0    0  0.17793300087E-01 -0.77129911137E-01  0.45660381284E-01  0.91382472389E-01  0.51100000000E-03 0.  1.
         11    1    4    4    0    0  0.75727760935E-02 -0.31986175755E-01  0.57751521106E-02  0.33377775242E-01  0.51100000000E-03 0. -1.
</event>
<event>
 8    1  0.9952977E+004  0.1043930E+01  0.7957747E-01            NaN
         13   -1    0    0    0    0  0.00000000000E+00  0.00000000000E+00  0.74505805969E-08  0.10566000000E+00  0.10566000000E+00 0. -1.
     999900   -1    0    0    0    0 -0.00000000000E+00 -0.00000000000E+00 -0.74505805969E-08  0.93827000000E+00  0.93827000000E+00 0.  1.
     999902    2    1    2    0    0 -0.10024571374E-01  0.16584974621E-01  0.12223833714E-01  0.10210176556E+01  0.10207605388E+01 0.  0.
     999903    2    3    3    0    0 -0.12986507622E+00  0.18018413363E-01 -0.50652621099E-02  0.13272563484E+00  0.20020889627E-01 0.  0.
         14    1    1    2    0    0  0.10024571374E-01 -0.16584974621E-01 -0.12223833714E-01  0.22912344382E-01  0.00000000000E+00 0.  1.
     999901    1    3    3    0    0  0.11984050484E+00 -0.14334387418E-02  0.17289095824E-01  0.88829202078E+00  0.88000000000E+00 0.  1.
        -11    1    4    4    0    0 -0.49234586315E-01  0.24862745350E-02 -0.10593537986E-01  0.50425293442E-01  0.51100000000E-03 0.  1.
         11    1    4    4    0    0 -0.80630489903E-01  0.15532138828E-01  0.55282758759E-02  0.82300341395E-01  0.51100000000E-03 0. -1.
</event>
<event>
 8    1  0.9952977E+004  0.1043930E+01  0.7957747E-01            NaN
         13   -1    0    0    0    0  0.00000000000E+00  0.00000000000E+00  0.74505805969E-08  0.10566000000E+00  0.10566000000E+00 0. -1.
     999900   -1    0    0    0    0 -0.00000000000E+00 -0.00000000000E+00 -0.74505805969E-08  0.93827000000E+00  0.93827000000E+00 0.  1.
     999902    2    1    2    0    0 -0.16768161512E-01 -0.87607814116E-02 -0.14825030613E-01  0.10198945249E+01  0.10196112680E+01 0.  0.
     999903    2    3    3    0    0  0.11720843458E+00  0.42524518930E-01  0.18903959392E-01  0.12764032618E+00  0.19711452021E-01 0.  0.
         14    1    1    2    0    0  0.16768161512E-01  0.87607814116E-02  0.14825030613E-01  0.24035475117E-01  0.00000000000E+00 0. -1.
     999901    1    3    3    0    0 -0.13397659609E+00 -0.51285300342E-01 -0.33728990005E-01  0.89225419870E+00  0.88000000000E+00 0. -1.
        -11    1    4    4    0    0  0.70688395296E-01  0.31837189623E-01  0.19336277802E-01  0.79903746051E-01  0.51100000000E-03 0. -1.
         11    1    4    4    0    0  0.46520039282E-01  0.10687329307E-01 -0.43231840946E-03  0.47736580132E-01  0.51100000000E-03 0.  1.
</event>
<event>
 8    1  0.9952977E+004  0.1043930E+01  0.7957747E-01            NaN
         13   -1    0    0    0    0  0.00000000000E+00  0.00000000000E+00  0.74505805969E-08  0.10566000000E+00  0.10566000000E+00 0.  1.
     999900   -1    0    0    0    0 -0.00000000000E+00 -0.00000000000E+00 -0.74505805969E-08  0.93827000000E+00  0.93827000000E+00 0. -1.
     999902    2    1    2    0    0  0.97918551673E-02 -0.11551436326E-01 -0.15462071507E-01  0.10222876396E+01  0.10220585239E+01 0.  0.
     999903    2    3    3    0    0  0.20948519427E-01  0.11312754989E+00  0.58056381419E-01  0.13039398916E+00  0.19883811894E-01 0.  0.
         14    1    1    2    0    0 -0.97918551673E-02  0.11551436326E-01  0.15462071507E-01  0.21642360410E-01  0.00000000000E+00 0.  1.
     999901    1    3    3    0    0 -0.11156664260E-01 -0.12467898621E+00 -0.73518452926E-01  0.89189365043E+00  0.88000000000E+00 0. -1.
        -11    1    4    4    0    0  0.48872438649E-02  0.75025028199E-01  0.33611873246E-01  0.82356901065E-01  0.51100000000E-03 0. -1.
         11    1    4    4    0    0  0.16061275562E-01  0.38102521688E-01  0.24444508172E-01  0.48037088093E-01  0.51100000000E-03 0.  1.
</event>
<event>
 8    1  0.9952977E+004  0.1043930E+01  0.7957747E-01            NaN
         13   -1    0    0    0    0  0.00000000000E+00  0.00000000000E+00  0.74505805969E-08  0.10566000000E+00  0.10566000000E+00 0. -1.
     999900   -1    0    0    0    0 -0.00000000000E+00 -0.00000000000E+00 -0.74505805969E-08  0.93827000000E+00  0.93827000000E+00 0.  1.
     999902    2    1    2    0    0 -0.65715597787E-02 -0.17231526472E-01 -0.13016890601E-01  0.10213567782E+01  0.10211072999E+01 0.  0.
     999903    2    3    3    0    0  0.10831047987E+00  0.43116082930E-01  0.53089447367E-01  0.12938717953E+00  0.18231734615E-01 0.  0.
         14    1    1    2    0    0  0.65715597787E-02  0.17231526472E-01  0.13016890601E-01  0.22573221822E-01  0.00000000000E+00 0. -1.
     999901    1    3    3    0    0 -0.11488203965E+00 -0.60347609403E-01 -0.66106337969E-01  0.89196959865E+00  0.88000000000E+00 0.  1.
        -11    1    4    4    0    0  0.91631698639E-01  0.41629290071E-01  0.40759553557E-01  0.10858622525E+00  0.51100000000E-03 0. -1.
         11    1    4    4    0    0  0.16678781234E-01  0.14867928595E-02  0.12329893811E-01  0.20800954277E-01  0.51100000000E-03 0.  1.
</event>
<event>
 8    1  0.9952977E+004  0.1043930E+01  0.7957747E-01            NaN
         13   -1    0    0    0    0  0.00000000000E+00  0.00000000000E+00  0.74505805969E-08  0.10566000000E+00  0.10566000000E+00 0. -1.
     999900   -1    0    0    0    0 -0.00000000000E+00 -0.00000000000E+00 -0.74505805969E-08  0.93827000000E+00  0.93827000000E+00 0.  1.
     999902    2    1    2    0    0 -0.19125852272E-01  0.80772500363E-02 -0.26885154151E-02  0.10229951413E+01  0.10227809105E+01 0.  0.
     999903    2    3    3    0    0 -0.12062417133E+00  0.30073174484E-01 -0.50389039632E-01  0.13560510898E+00  0.19877216476E-01 0.  0.
         14    1    1    2    0    0  0.19125852272E-01 -0.80772500363E-02  0.26885154151E-02  0.20934858691E-01  0.00000000000E+00 0. -1.
     999901    1    3    3    0    0  0.10149831906E+00 -0.21995924447E-01  0.47700524217E-01  0.88739003233E+00  0.88000000000E+00 0. -1.
        -11    1    4    4    0    0 -0.95148827561E-01  0.15284006873E-01 -0.36743040478E-01  0.10313686245E+00  0.51100000000E-03 0. -1.
         11    1    4    4    0    0 -0.25475343767E-01  0.14789167611E-01 -0.13645999154E-01  0.32468246527E-01  0.51100000000E-03 0.  1.
</event>
<event>
 8    1  0.9952977E+004  0.1043930E+01  0.7957747E-01            NaN
         13   -1    0    0    0    0  0.00000000000E+00  0.00000000000E+00  0.74505805969E-08  0.10566000000E+00  0.10566000000E+00 0.  1.
     999900   -1    0    0    0    0 -0.00000000000E+00 -0.00000000000E+00 -0.74505805969E-08  0.93827000000E+00  0.93827000000E+00 0. -1.
     999902    2    1    2    0    0  0.19501752942E-01  0.15388190314E-02 -0.14159674381E-01  0.10197808238E+01  0.10194948484E+01 0.  0.
     999903    2    3    3    0    0  0.69538838387E-01 -0.99951551736E-01 -0.47203515771E-01  0.13192053034E+00  0.18678642485E-01 0.  0.
         14    1    1    2    0    0 -0.19501752942E-01 -0.15388190314E-02  0.14159674381E-01  0.24149176185E-01  0.00000000000E+00 0.  1.
     999901    1    3    3    0    0 -0.50037085444E-01  0.10149037077E+00  0.33043841390E-01  0.88786029348E+00  0.88000000000E+00 0.  1.
        -11    1    4    4    0    0  0.56876518330E-01 -0.67584793887E-01 -0.31551038539E-01  0.93799636758E-01  0.51100000000E-03 0. -1.
         11    1    4    4    0    0  0.12662320057E-01 -0.32366757849E-01 -0.15652477232E-01  0.38120893580E-01  0.51100000000E-03 0.  1.
</event>
<event>
 8    1  0.9952977E+004  0.1043930E+01  0.7957747E-01            NaN
         13   -1    0    0    0    0  0.00000000000E+00  0.00000000000E+00  0.74505805969E-08  0.10566000000E+00  0.10566000000E+00 0. -1.
     999900   -1    0    0    0    0 -0.00000000000E+00 -0.00000000000E+00 -0.74505805969E-08  0.93827000000E+00  0.93827000000E+00 0. -1.
     999902    2    1    2    0    0 -0.61991829799E-03 -0.41662932346E-02  0.25406232071E-01  0.10181769628E+01  0.10178512213E+01 0.  0.
     999903    2    3    3    0    0  0.66698540462E-01  0.91354551362E-01 -0.54371887821E-01  0.12687423359E+00  0.18612351013E-01 0.  0.
         14    1    1    2    0    0  0.61991829799E-03  0.41662932346E-02 -0.25406232071E-01  0.25753037220E-01  0.00000000000E+00 0.  1.
     999901    1    3    3    0    0 -0.67318458760E-01 -0.95520844597E-01  0.79778119892E-01  0.89130272919E+00  0.88000000000E+00 0.  1.
        -11    1    4    4    0    0  0.45046420252E-01  0.56896220947E-01 -0.25288740396E-01  0.76851424498E-01  0.51100000000E-03 0. -1.
         11    1    4    4    0    0  0.21652120210E-01  0.34458330415E-01 -0.29083147425E-01  0.50022809095E-01  0.51100000000E-03 0.  1.
</event>
<event>
 8    1  0.9952977E+004  0.1043930E+01  0.7957747E-01            NaN
         13   -1    0    0    0    0  0.00000000000E+00  0.00000000000E+00  0.74505805969E-08  0.10566000000E+00  0.10566000000E+00 0. -1.
     999900   -1    0    0    0    0 -0.00000000000E+00 -0.00000000000E+00 -0.74505805969E-08  0.93827000000E+00  0.93827000000E+00 0. -1.
     999902    2    1    2    0    0 -0.15894217993E-01  0.78694337025E-02 -0.15099277471E-01  0.10206374619E+01  0.10203716412E+01 0.  0.
     999903    2    3    3    0    0 -0.27275395018E-01  0.62162007054E-01  0.10916728701E+00  0.13017724728E+00  0.20507483069E-01 0.  0.
         14    1    1    2    0    0  0.15894217993E-01 -0.78694337025E-02  0.15099277471E-01  0.23292538131E-01  0.00000000000E+00 0. -1.
     999901    1    3    3    0    0  0.11381177024E-01 -0.54292573351E-01 -0.12426656449E+00  0.89046021459E+00  0.88000000000E+00 0. -1.
        -11    1    4    4    0    0 -0.88005093463E-02  0.22475922470E-01  0.22133350681E-01  0.32753051598E-01  0.51100000000E-03 0. -1.
         11    1    4    4    0    0 -0.18474885671E-01  0.39686084584E-01  0.87033936334E-01  0.97424195685E-01  0.51100000000E-03 0.  1.
</event>
<event>
 8    1  0.9952977E+004  0.1043930E+01  0.7957747E-01            NaN
         13   -1    0    0    0    0  0.00000000000E+00  0.00000000000E+00  0.74505805969E-08  0.10566000000E+00  0.10566000000E+00 0.  1.
     999900   -1    0    0    0    0 -0.00000000000E+00 -0.00000000000E+00 -0.74505805969E-08  0.93827000000E+00  0.93827000000E+00 0. -1.
     999902    2    1    2    0    0 -0.17297337712E-01 -0.15833692421E-01 -0.58411592705E-02  0.10197634353E+01  0.10194770430E+01 0.  0.
     999903    2    3    3    0    0  0.98401012979E-01  0.70066414938E-01 -0.35764977626E-01  0.12754128152E+00  0.19889268706E-01 0.  0.
         14    1    1    2    0    0  0.17297337712E-01  0.15833692421E-01  0.58411592705E-02  0.24166564697E-01  0.00000000000E+00 0.  1.
     999901    1    3    3    0    0 -0.11569835069E+00 -0.85900107359E-01  0.29923818356E-01  0.89222215378E+00  0.88000000000E+00 0.  1.
        -11    1    4    4    0    0  0.38950773712E-01  0.18354454803E-01 -0.68240096551E-02  0.43599048300E-01  0.51100000000E-03 0.  1.
         11    1    4    4    0    0  0.59450239266E-01  0.51711960135E-01 -0.28940967971E-01  0.83942233220E-01  0.51100000000E-03 0. -1.
</event>
<event>
 8    1  0.9952977E+004  0.1043930E+01  0.7957747E-01            NaN
         13   -1    0    0    0    0  0.00000000000E+00  0.00000000000E+00  0.74505805969E-08  0.10566000000E+00  0.10566000000E+00 0. -1.
     999900   -1    0    0    0    0 -0.00000000000E+00 -0.00000000000E+00 -0.74505805969E-08  0.93827000000E+00  0.93827000000E+00 0. -1.
     999902    2    1    2    0    0 -0.21580005057E-01  0.87975252752E-03 -0.15658344407E-01  0.10172531499E+01  0.10169032976E+01 0.  0.
     999903    2    3    3    0    0 -0.52507923793E-01  0.11581920213E+00  0.70253060961E-02  0.12895018285E+00  0.20189727267E-01 0.  0.
         14    1    1    2    0    0  0.21580005057E-01 -0.87975252752E-03  0.15658344407E-01  0.26676850121E-01  0.00000000000E+00 0. -1.
     999901    1    3    3    0    0  0.30927918736E-01 -0.11493944961E+00 -0.22683650503E-01  0.88830296703E+00  0.88000000000E+00 0. -1.
        -11    1    4    4    0    0 -0.65842435650E-03  0.90582088941E-02 -0.36127840675E-02  0.97876453103E-02  0.51100000000E-03 0. -1.
         11    1    4    4    0    0 -0.51849499437E-01  0.10676099324E+00  0.10638090164E-01  0.11916253754E+00  0.51100000000E-03 0.  1.
</event>
<event>
 8    1  0.1152120E+005  0.1043930E+01  0.7957747E-01            NaN
         13   -1    0    0    0    0  0.00000000000E+00  0.00000000000E+00  0.74505805969E-08  0.10566000000E+00  0.10566000000E+00 0. -1.
     999900   -1    0    0    0    0 -0.00000000000E+00 -0.00000000000E+00 -0.74505805969E-08  0.93827000000E+00  0.93827000000E+00 0.  1.
     999902    2    1    2    0    0  0.79954155711E-02  0.11442363135E-01 -0.18807593749E-01  0.10205082168E+01  0.10202394036E+01 0.  0.
     999903    2    3    3    0    0 -0.16643056120E-01 -0.12443793658E+00  0.21113717925E-01  0.12884447905E+00  0.19832279768E-01 0.  0.
         14    1    1    2    0    0 -0.79954155711E-02 -0.11442363135E-01  0.18807593749E-01  0.23421783171E-01  0.00000000000E+00 0. -1.
     999901    1    3    3    0    0  0.24638471692E-01  0.13588029972E+00 -0.39921311673E-01  0.89166373778E+00  0.88000000000E+00 0.  1.
        -11    1    4    4    0    0 -0.13149280367E-01 -0.37133130604E-01  0.10882737454E-01  0.40871359877E-01  0.51100000000E-03 0. -1.
         11    1    4    4    0    0 -0.34937757533E-02 -0.87304805975E-01  0.10230980471E-01  0.87973119177E-01  0.51100000000E-03 0.  1.
</event>
<event>
 8    1  0.9952977E+004  0.1043930E+01  0.7957747E-01            NaN
         13   -1    0    0    0    0  0.00000000000E+00  0.00000000000E+00  0.74505805969E-08  0.10566000000E+00  0.10566000000E+00 0. -1.
     999900   -1    0    0    0    0 -0.00000000000E+00 -0.00000000000E+00 -0.74505805969E-08  0.93827000000E+00  0.93827000000E+00 0. -1.
     999902    2    1    2    0    0  0.33112905515E-02 -0.24899110745E-01 -0.86208955682E-02  0.10173734528E+01  0.10170267903E+01 0.  0.
     999903    2    3    3    0    0 -0.11604126426E+00 -0.38541686529E-01  0.32775827830E-01  0.12824756689E+00  0.20546214074E-01 0.  0.
         14    1    1    2    0    0 -0.33112905515E-02  0.24899110745E-01  0.86208955682E-02  0.26556547242E-01  0.00000000000E+00 0. -1.
     999901    1    3    3    0    0  0.11935255481E+00  0.13642575785E-01 -0.41396723398E-01  0.88912588587E+00  0.88000000000E+00 0.  1.
        -11    1    4    4    0    0 -0.69727708693E-01 -0.14255010515E-01  0.13078390362E-01  0.72363416861E-01  0.51100000000E-03 0.  1.
         11    1    4    4    0    0 -0.46313555563E-01 -0.24286676014E-01  0.19697437468E-01  0.55884150030E-01  0.51100000000E-03 0. -1.
</event>
<event>
 8    1  0.9952977E+004  0.1043930E+01  0.7957747E-01            NaN
         13   -1    0    0    0    0  0.00000000000E+00  0.00000000000E+00  0.74505805969E-08  0.10566000000E+00  0.10566000000E+00 0.  1.
     999900   -1    0    0    0    0 -0.00000000000E+00 -0.00000000000E+00 -0.74505805969E-08  0.93827000000E+00  0.93827000000E+00 0. -1.
     999902    2    1    2    0    0 -0.32164826100E-02  0.98355372921E-02 -0.21439202360E-01  0.10201240564E+01  0.10198462470E+01 0.  0.
     999903    2    3    3    0    0 -0.42121324456E-01 -0.70985774639E-01 -0.10095507674E+00  0.13199768842E+00  0.20451798276E-01 0.  0.
         14    1    1    2    0    0  0.32164826100E-02 -0.98355372921E-02  0.21439202360E-01  0.23805943628E-01  0.00000000000E+00 0.  1.
     999901    1    3    3    0    0  0.38904841846E-01  0.80821311932E-01  0.79515874378E-01  0.88812636796E+00  0.88000000000E+00 0.  1.
        -11    1    4    4    0    0 -0.39055015679E-01 -0.48258322057E-01 -0.72610404976E-01  0.95533721424E-01  0.51100000000E-03 0.  1.
         11    1    4    4    0    0 -0.30663087768E-02 -0.22727452582E-01 -0.28344671763E-01  0.36463966991E-01  0.51100000000E-03 0. -1.
</event>
<event>
 8    1  0.9952977E+004  0.1043930E+01  0.7957747E-01            NaN
         13   -1    0    0    0    0  0.00000000000E+00  0.00000000000E+00  0.74505805969E-08  0.10566000000E+00  0.10566000000E+00 0.  1.
     999900   -1    0    0    0    0 -0.00000000000E+00 -0.00000000000E+00 -0.74505805969E-08  0.93827000000E+00  0.93827000000E+00 0.  1.
     999902    2    1    2    0    0 -0.76772174921E-02 -0.21450220244E-01  0.37021809029E-02  0.10208484541E+01  0.10205874820E+01 0.  0.
     999903    2    3    3    0    0  0.47486411969E-01 -0.98332133801E-01  0.72920255099E-01  0.13307314671E+00  0.21608584215E-01 0.  0.
         14    1    1    2    0    0  0.76772174921E-02  0.21450220244E-01 -0.37021809029E-02  0.23081545884E-01  0.00000000000E+00 0. -1.
     999901    1    3    3    0    0 -0.55163629461E-01  0.76881913557E-01 -0.69218074196E-01  0.88777530741E+00  0.88000000000E+00 0.  1.
        -11    1    4    4    0    0  0.43601420833E-01 -0.96959060043E-01  0.72926270513E-01  0.12892108158E+00  0.51100000000E-03 0.  1.
         11    1    4    4    0    0  0.38849911358E-02 -0.13730737578E-02 -0.60154144706E-05  0.41520651314E-02  0.51100000000E-03 0. -1.
</event>
<event>
 8    1  0.9952977E+004  0.1043930E+01  0.7957747E-01            NaN
         13   -1    0    0    0    0  0.00000000000E+00  0.00000000000E+00  0.74505805969E-08  0.10566000000E+00  0.10566000000E+00 0. -1.
     999900   -1    0    0    0    0 -0.00000000000E+00 -0.00000000000E+00 -0.74505805969E-08  0.93827000000E+00  0.93827000000E+00 0. -1.
     999902    2    1    2    0    0  0.87107432955E-03  0.22893895042E-01  0.13189262285E-02  0.10209816064E+01  0.10207236707E+01 0.  0.
     999903    2    3    3    0    0  0.72068710390E-01  0.88130325238E-01  0.66440353304E-01  0.13330728808E+00  0.19891185604E-01 0.  0.
         14    1    1    2    0    0 -0.87107432955E-03 -0.22893895042E-01 -0.13189262285E-02  0.22948393562E-01  0.00000000000E+00 0.  1.
     999901    1    3    3    0    0 -0.71197636061E-01 -0.65236430196E-01 -0.65121427075E-01  0.88767431836E+00  0.88000000000E+00 0. -1.
        -11    1    4    4    0    0  0.22464342905E-01  0.38930583651E-01  0.33521675143E-01  0.56073174255E-01  0.51100000000E-03 0. -1.
         11    1    4    4    0    0  0.49604367486E-01  0.49199741586E-01  0.32918678160E-01  0.77234113827E-01  0.51100000000E-03 0.  1.
</event>
<event>
 8    1  0.9952977E+004  0.1043930E+01  0.7957747E-01            NaN
         13   -1    0    0    0    0  0.00000000000E+00  0.00000000000E+00  0.74505805969E-08  0.10566000000E+00  0.10566000000E+00 0.  1.
     999900   -1    0    0    0    0 -0.00000000000E+00 -0.00000000000E+00 -0.74505805969E-08  0.93827000000E+00  0.93827000000E+00 0. -1.
     999902    2    1    2    0    0 -0.11317614291E-01 -0.36877130865E-02  0.19640270932E-01  0.10209642023E+01  0.10207058707E+01 0.  0.
     999903    2    3    3    0    0  0.39450296147E-01 -0.11607269996E+00  0.45078400064E-01  0.13200139971E+00  0.19055440958E-01 0.  0.
         14    1    1    2    0    0  0.11317614291E-01  0.36877130865E-02 -0.19640270932E-01  0.22965797685E-01  0.00000000000E+00 0.  1.
     999901    1    3    3    0    0 -0.50767910438E-01  0.11238498687E+00 -0.25438129132E-01  0.88896280261E+00  0.88000000000E+00 0. -1.
        -11    1    4    4    0    0  0.24599749442E-02 -0.38696481302E-02 -0.17228555128E-02  0.49249371058E-02  0.51100000000E-03 0. -1.
         11    1    4    4    0    0  0.36990321202E-01 -0.11220305183E+00  0.46801255577E-01  0.12707646260E+00  0.51100000000E-03 0.  1.
</event>
<event>
 8    1  0.9952977E+004  0.1043930E+01  0.7957747E-01            NaN
         13   -1    0    0    0    0  0.00000000000E+00  0.00000000000E+00  0.74505805969E-08  0.10566000000E+00  0.10566000000E+00 0.  1.
     999900   -1    0    0    0    0 -0.00000000000E+00 -0.00000000000E+00 -0.74505805969E-08  0.93827000000E+00  0.93827000000E+00 0. -1.
     999902    2    1    2    0    0  0.18288312054E-01 -0.53148886317E-02  0.14478749555E-01  0.10200062756E+01  0.10197256777E+01 0.  0.
     999903    2    3    3    0    0 -0.97010526754E-01  0.72063667435E-01 -0.36133385846E-01  0.12768186634E+00  0.19819761707E-01 0.  0.
         14    1    1    2    0    0 -0.18288312054E-01  0.53148886317E-02 -0.14478749555E-01  0.23923724368E-01  0.00000000000E+00 0. -1.
     999901    1    3    3    0    0  0.11529883881E+00 -0.77378556066E-01  0.50612135401E-01  0.89232440929E+00  0.88000000000E+00 0.  1.
        -11    1    4    4    0    0 -0.82377721888E-01  0.55928749152E-01 -0.22833941105E-01  0.10215558738E+00  0.51100000000E-03 0.  1.
         11    1    4    4    0    0 -0.14632804866E-01  0.16134918283E-01 -0.13299444740E-01  0.25526278962E-01  0.51100000000E-03 0. -1.
</event>
<event>
 8    1  0.9952977E+004  0.1043930E+01  0.7957747E-01            NaN
         13   -1    0    0    0    0  0.00000000000E+00  0.00000000000E+00  0.74505805969E-08  0.10566000000E+00  0.10566000000E+00 0.  1.
     999900   -1    0    0    0    0 -0.00000000000E+00 -0.00000000000E+00 -0.74505805969E-08  0.93827000000E+00  0.93827000000E+00 0. -1.
     999902    2    1    2    0    0  0.19995477252E-01 -0.10900219147E-01 -0.70254718541E-02  0.10200974352E+01  0.10198189968E+01 0.  0.
     999903    2    3    3    0    0  0.32425046544E-01 -0.21671301906E-01 -0.12469309052E+00  0.13211310042E+00  0.19608047028E-01 0.  0.
         14    1    1    2    0    0 -0.19995477252E-01  0.10900219147E-01  0.70254718541E-02  0.23832564754E-01  0.00000000000E+00 0.  1.
     999901    1    3    3    0    0 -0.12429569292E-01  0.10771082759E-01  0.11766761867E+00  0.88798433483E+00  0.88000000000E+00 0.  1.
        -11    1    4    4    0    0  0.15570750745E-01 -0.13941557364E-01 -0.93608006821E-01  0.95914208345E-01  0.51100000000E-03 0.  1.
         11    1    4    4    0    0  0.16854295798E-01 -0.77297445416E-02 -0.31085083702E-01  0.36198892073E-01  0.51100000000E-03 0. -1.
</event>
<event>
 8    1  0.9952977E+004  0.1043930E+01  0.7957747E-01            NaN
         13   -1    0    0    0    0  0.00000000000E+00  0.00000000000E+00  0.74505805969E-08  0.10566000000E+00  0.10566000000E+00 0. -1.
     999900   -1    0    0    0    0 -0.00000000000E+00 -0.00000000000E+00 -0.74505805969E-08  0.93827000000E+00  0.93827000000E+00 0. -1.
     999902    2    1    2    0    0  0.29787877585E-02  0.72448414797E-02 -0.21941837390E-01  0.10206318213E+01  0.10203658704E+01 0.  0.
     999903    2    3    3    0    0  0.69399416328E-01  0.35979933957E-01 -0.10612911146E+00  0.13365667924E+00  0.22133345262E-01 0.  0.
         14    1    1    2    0    0 -0.29787877585E-02 -0.72448414797E-02  0.21941837390E-01  0.23298178740E-01  0.00000000000E+00 0. -1.
     999901    1    3    3    0    0 -0.66420628569E-01 -0.28735092477E-01  0.84187274072E-01  0.88697514202E+00  0.88000000000E+00 0.  1.
        -11    1    4    4    0    0  0.11145161483E-01  0.10968542579E-01 -0.35217962449E-01  0.38536859639E-01  0.51100000000E-03 0.  1.
         11    1    4    4    0    0  0.58254254845E-01  0.25011391378E-01 -0.70911149013E-01  0.95119819604E-01  0.51100000000E-03 0. -1.
</event>
<event>
 8    1  0.9952977E+004  0.1043930E+01  0.7957747E-01            NaN
         13   -1    0    0    0    0  0.00000000000E+00  0.00000000000E+00  0.74505805969E-08  0.10566000000E+00  0.10566000000E+00 0. -1.
     999900   -1    0    0    0    0 -0.00000000000E+00 -0.00000000000E+00 -0.74505805969E-08  0.93827000000E+00  0.93827000000E+00 0.  1.
     999902    2    1    2    0    0  0.89594448641E-03  0.21678069256E-01  0.40685089678E-02  0.10218552595E+01  0.10216167957E+01 0.  0.
     999903    2    3    3    0    0  0.23089803539E-01  0.84653691645E-01 -0.98754300942E-01  0.13335594794E+00  0.18221151436E-01 0.  0.
         14    1    1    2    0    0 -0.89594448641E-03 -0.21678069256E-01 -0.40685089678E-02  0.22074740506E-01  0.00000000000E+00 0.  1.
     999901    1    3    3    0    0 -0.22193859052E-01 -0.62975622388E-01  0.10282280991E+00  0.88849931155E+00  0.88000000000E+00 0. -1.
        -11    1    4    4    0    0  0.75705126873E-02  0.57626881278E-01 -0.58772523868E-01  0.82659789444E-01  0.51100000000E-03 0.  1.
         11    1    4    4    0    0  0.15519290851E-01  0.27026810367E-01 -0.39981777075E-01  0.50696158495E-01  0.51100000000E-03 0. -1.
</event>
<event>
 8    1  0.9952977E+004  0.1043930E+01  0.7957747E-01            NaN
         13   -1    0    0    0    0  0.00000000000E+00  0.00000000000E+00  0.74505805969E-08  0.10566000000E+00  0.10566000000E+00 0.  1.
     999900   -1    0    0    0    0 -0.00000000000E+00 -0.00000000000E+00 -0.74505805969E-08  0.93827000000E+00  0.93827000000E+00 0. -1.
     999902    2    1    2    0    0  0.20699182451E-01  0.46931095513E-02  0.99377759756E-02  0.10204941125E+01  0.10202249717E+01 0.  0.
     999903    2    3    3    0    0  0.11082527827E+00  0.54943317461E-01  0.46505267989E-01  0.13371061130E+00  0.20366079300E-01 0.  0.
         14    1    1    2    0    0 -0.20699182451E-01 -0.46931095513E-02 -0.99377759756E-02  0.23435887496E-01  0.00000000000E+00 0. -1.
     999901    1    3    3    0    0 -0.90126095815E-01 -0.50250207910E-01 -0.36567492013E-01  0.88678350121E+00  0.88000000000E+00 0. -1.
        -11    1    4    4    0    0  0.41860328097E-01  0.19854676980E-01  0.28043241033E-01  0.54158838199E-01  0.51100000000E-03 0. -1.
         11    1    4    4    0    0  0.68964950169E-01  0.35088640481E-01  0.18462026955E-01  0.79551773098E-01  0.51100000000E-03 0.  1.
</event>
<event>
 8    1  0.9952977E+004  0.1043930E+01  0.7957747E-01            NaN
         13   -1    0    0    0    0  0.00000000000E+00  0.00000000000E+00  0.74505805969E-08  0.10566000000E+00  0.10566000000E+00 0.  1.
     999900   -1    0    0    0    0 -0.00000000000E+00 -0.00000000000E+00 -0.74505805969E-08  0.93827000000E+00  0.93827000000E+00 0.  1.
     999902    2    1    2    0    0  0.12466866543E-01 -0.19132930342E-01 -0.71618128883E-02  0.10199971074E+01  0.10197162918E+01 0.  0.
     999903    2    3    3    0    0 -0.44454087579E-01 -0.76605150827E-01 -0.95586716691E-01  0.13187435982E+00  0.20236386373E-01 0.  0.
         14    1    1    2    0    0 -0.12466866543E-01  0.19132930342E-01  0.71618128883E-02  0.23932892610E-01  0.00000000000E+00 0.  1.
     999901    1    3    3    0    0  0.56920954121E-01  0.57472220486E-01  0.88424903802E-01  0.88812274757E+00  0.88000000000E+00 0.  1.
        -11    1    4    4    0    0 -0.28384865101E-01 -0.60590140650E-01 -0.80248345610E-01  0.10448408398E+00  0.51100000000E-03 0.  1.
         11    1    4    4    0    0 -0.16069222478E-01 -0.16015010178E-01 -0.15338371081E-01  0.27390275837E-01  0.51100000000E-03 0. -1.
</event>
<event>
 8    1  0.9952977E+004  0.1043930E+01  0.7957747E-01            NaN
         13   -1    0    0    0    0  0.00000000000E+00  0.00000000000E+00  0.74505805969E-08  0.10566000000E+00  0.10566000000E+00 0.  1.
     999900   -1    0    0    0    0 -0.00000000000E+00 -0.00000000000E+00 -0.74505805969E-08  0.93827000000E+00  0.93827000000E+00 0.  1.
     999902    2    1    2    0    0  0.11684575497E-01 -0.80229825486E-02  0.20822206232E-01  0.10187414743E+01  0.10184300318E+01 0.  0.
     999903    2    3    3    0    0 -0.26091493831E-02 -0.11380206105E+00  0.61683557825E-01  0.13135025616E+00  0.22142983688E-01 0.  0.
         14    1    1    2    0    0 -0.11684575497E-01  0.80229825486E-02 -0.20822206232E-01  0.25188525679E-01  0.00000000000E+00 0. -1.
     999901    1    3    3    0    0  0.14293724880E-01  0.10577907850E+00 -0.40861351593E-01  0.88739121816E+00  0.88000000000E+00 0. -1.
        -11    1    4    4    0    0 -0.42983577642E-02 -0.41829208693E-01  0.34503851775E-01  0.54396098092E-01  0.51100000000E-03 0.  1.
         11    1    4    4    0    0  0.16892083811E-02 -0.71972852358E-01  0.27179706051E-01  0.76954158065E-01  0.51100000000E-03 0. -1.
</event>
<event>
 8    1  0.1127260E+005  0.1043930E+01  0.7957747E-01            NaN
         13   -1    0    0    0    0  0.00000000000E+00  0.00000000000E+00  0.74505805969E-08  0.10566000000E+00  0.10566000000E+00 0. -1.
     999900   -1    0    0    0    0 -0.00000000000E+00 -0.00000000000E+00 -0.74505805969E-08  0.93827000000E+00  0.93827000000E+00 0.  1.
     999902    2    1    2    0    0 -0.76320533783E-03  0.23082848082E-01  0.32294753066E-02  0.10206098399E+01  0.10203433811E+01 0.  0.
     999903    2    3    3    0    0  0.17070636251E-01  0.10604406767E+00  0.76750425206E-01  0.13347628738E+00  0.19711433587E-01 0.  0.
         14    1    1    2    0    0  0.76320533783E-03 -0.23082848082E-01 -0.32294753066E-02  0.23320160135E-01  0.00000000000E+00 0.  1.
     999901    1    3    3    0    0 -0.17833841589E-01 -0.82961219591E-01 -0.73520949899E-01  0.88713355248E+00  0.88000000000E+00 0. -1.
        -11    1    4    4    0    0 -0.25355760409E-02  0.45023227471E-01  0.32598790581E-01  0.55645866208E-01  0.51100000000E-03 0.  1.
         11    1    4    4    0    0  0.19606212292E-01  0.61020840202E-01  0.44151634625E-01  0.77830421176E-01  0.51100000000E-03 0. -1.
</event>
<event>
 8    1  0.9952977E+004  0.1043930E+01  0.7957747E-01            NaN
         13   -1    0    0    0    0  0.00000000000E+00  0.00000000000E+00  0.74505805969E-08  0.10566000000E+00  0.10566000000E+00 0. -1.
     999900   -1    0    0    0    0 -0.00000000000E+00 -0.00000000000E+00 -0.74505805969E-08  0.93827000000E+00  0.93827000000E+00 0.  1.
     999902    2    1    2    0    0  0.16970806231E-01  0.14376486832E-01 -0.58667817337E-02  0.10209275922E+01  0.10206684269E+01 0.  0.
     999903    2    3    3    0    0 -0.12056781544E+00  0.43368859994E-01 -0.33054700755E-02  0.12976880135E+00  0.20286930111E-01 0.  0.
         14    1    1    2    0    0 -0.16970806231E-01 -0.14376486832E-01  0.58667817337E-02  0.23002407823E-01  0.00000000000E+00 0.  1.
     999901    1    3    3    0    0  0.13753862167E+00 -0.28992373162E-01 -0.25613116581E-02  0.89115879083E+00  0.88000000000E+00 0.  1.
        -11    1    4    4    0    0 -0.50993579532E-01  0.22332272268E-01  0.78792211419E-02  0.56226495400E-01  0.51100000000E-03 0. -1.
         11    1    4    4    0    0 -0.69574235910E-01  0.21036587727E-01 -0.11184691217E-01  0.73542305948E-01  0.51100000000E-03 0.  1.
</event>
<event>
 8    1  0.9952977E+004  0.1043930E+01  0.7957747E-01            NaN
         13   -1    0    0    0    0  0.00000000000E+00  0.00000000000E+00  0.74505805969E-08  0.10566000000E+00  0.10566000000E+00 0. -1.
     999900   -1    0    0    0    0 -0.00000000000E+00 -0.00000000000E+00 -0.74505805969E-08  0.93827000000E+00  0.93827000000E+00 0. -1.
     999902    2    1    2    0    0  0.22894270045E-01 -0.18805805190E-02  0.41072076316E-02  0.10205943333E+01  0.10203275160E+01 0.  0.
     999903    2    3    3    0    0 -0.61722250600E-01  0.37683454277E-01  0.10598547539E+00  0.12980566600E+00  0.19670053057E-01 0.  0.
         14    1    1    2    0    0 -0.22894270045E-01  0.18805805190E-02 -0.41072076316E-02  0.23335666661E-01  0.00000000000E+00 0.  1.
     999901    1    3    3    0    0  0.84616520645E-01 -0.39564034796E-01 -0.10187826776E+00  0.89078866734E+00  0.88000000000E+00 0. -1.
        -11    1    4    4    0    0 -0.27191494406E-01  0.20167587897E-01  0.33525540196E-01  0.47648000336E-01  0.51100000000E-03 0. -1.
         11    1    4    4    0    0 -0.34530756195E-01  0.17515866380E-01  0.72459935193E-01  0.82157665666E-01  0.51100000000E-03 0.  1.
</event>
<event>
 8    1  0.9952977E+004  0.1043930E+01  0.7957747E-01            NaN
         13   -1    0    0    0    0  0.00000000000E+00  0.00000000000E+00  0.74505805969E-08  0.10566000000E+00  0.10566000000E+00 0. -1.
     999900   -1    0    0    0    0 -0.00000000000E+00 -0.00000000000E+00 -0.74505805969E-08  0.93827000000E+00  0.93827000000E+00 0.  1.
     999902    2    1    2    0    0  0.15831729614E-01  0.12791044948E-01 -0.10587630636E-01  0.10209876284E+01  0.10207298295E+01 0.  0.
     999903    2    3    3    0    0 -0.78823475382E-01  0.11352506918E-01  0.99470522579E-01  0.12909387107E+00  0.20708041949E-01 0.  0.
         14    1    1    2    0    0 -0.15831729614E-01 -0.12791044948E-01  0.10587630636E-01  0.22942371628E-01  0.00000000000E+00 0. -1.
     999901    1    3    3    0    0  0.94655204995E-01  0.14385380299E-02 -0.11005815321E+00  0.89189375730E+00  0.88000000000E+00 0. -1.
        -11    1    4    4    0    0 -0.50305430410E-01  0.49648310909E-03  0.73219756693E-01  0.88838486679E-01  0.51100000000E-03 0. -1.
         11    1    4    4    0    0 -0.28518044971E-01  0.10856023809E-01  0.26250765885E-01  0.40255384391E-01  0.51100000000E-03 0.  1.
</event>
<event>
 8    1  0.9952977E+004  0.1043930E+01  0.7957747E-01            NaN
         13   -1    0    0    0    0  0.00000000000E+00  0.00000000000E+00  0.74505805969E-08  0.10566000000E+00  0.10566000000E+00 0. -1.
     999900   -1    0    0    0    0 -0.00000000000E+00 -0.00000000000E+00 -0.74505805969E-08  0.93827000000E+00  0.93827000000E+00 0. -1.
     999902    2    1    2    0    0 -0.21559116513E-01 -0.96162244365E-02 -0.11218943366E-02  0.10202968469E+01  0.10200231026E+01 0.  0.
     999903    2    3    3    0    0  0.26898294532E-01  0.12428268407E+00  0.74775054647E-02  0.12880877182E+00  0.19133290383E-01 0.  0.
         14    1    1    2    0    0  0.21559116513E-01  0.96162244365E-02  0.11218943366E-02  0.23633153072E-01  0.00000000000E+00 0.  1.
     999901    1    3    3    0    0 -0.48457411045E-01 -0.13389890851E+00 -0.85993998013E-02  0.89148807511E+00  0.88000000000E+00 0. -1.
        -11    1    4    4    0    0  0.26432810432E-02  0.31983830612E-01  0.90965168363E-02  0.33361056561E-01  0.51100000000E-03 0.  1.
         11    1    4    4    0    0  0.24255013489E-01  0.92298853458E-01 -0.16190113716E-02  0.95447715258E-01  0.51100000000E-03 0. -1.
</event>
<event>
 7    1  0.9952977E+004  0.1043930E+01  0.7957747E-01            NaN
         13   -1    0    0    0    0  0.00000000000E+00  0.00000000000E+00  0.74505805969E-08  0.10566000000E+00  0.10566000000E+00 0.  1.
     999900   -1    0    0    0    0 -0.00000000000E+00 -0.00000000000E+00 -0.74505805969E-08  0.93827000000E+00  0.93827000000E+00 0.  1.
     999903    2    1    2    0    0 -0.29061403368E-01 -0.82930424426E-01 -0.50990040009E-01  0.10355420161E+00  0.20036667117E-01 0.  0.
         14    1    1    2    0    0 -0.43003266305E-01 -0.18643997416E-01  0.20296724472E-01  0.51076771402E-01  0.00000000000E+00 0.  1.
     999901    1    1    2    0    0  0.72064669674E-01  0.10157442184E+00  0.30693315537E-01  0.88929902699E+00  0.88000000000E+00 0.  1.
        -11    1    3    3    0    0 -0.31913629609E-02 -0.17088987029E-01 -0.19469734668E-01  0.26106511913E-01  0.51100000000E-03 0.  1.
         11    1    3    3    0    0 -0.25870040407E-01 -0.65841437397E-01 -0.31520305341E-01  0.77447689694E-01  0.51100000000E-03 0. -1.
</event>
<event>
 8    1  0.9952977E+004  0.1043930E+01  0.7957747E-01            NaN
         13   -1    0    0    0    0  0.00000000000E+00  0.00000000000E+00  0.74505805969E-08  0.10566000000E+00  0.10566000000E+00 0.  1.
     999900   -1    0    0    0    0 -0.00000000000E+00 -0.00000000000E+00 -0.74505805969E-08  0.93827000000E+00  0.93827000000E+00 0. -1.
     999902    2    1    2    0    0  0.18996970078E-01  0.46894636947E-02  0.13697584839E-01  0.10200448629E+01  0.10197651801E+01 0.  0.
     999903    2    3    3    0    0  0.47825574220E-01 -0.11302459774E+00  0.42319313534E-01  0.13127780008E+00  0.19521558668E-01 0.  0.
         14    1    1    2    0    0 -0.18996970078E-01 -0.46894636947E-02 -0.13697584839E-01  0.23885137059E-01  0.00000000000E+00 0. -1.
     999901    1    3    3    0    0 -0.28828604142E-01  0.11771406143E+00 -0.28621728694E-01  0.88876706286E+00  0.88000000000E+00 0. -1.
        -11    1    4    4    0    0  0.34295025116E-01 -0.66965236642E-01  0.33959789740E-01  0.82547078122E-01  0.51100000000E-03 0.  1.
         11    1    4    4    0    0  0.13530549104E-01 -0.46059361094E-01  0.83595237932E-02  0.48730721957E-01  0.51100000000E-03 0. -1.
</event>
<event>
 8    1  0.9952977E+004  0.1043930E+01  0.7957747E-01            NaN
         13   -1    0    0    0    0  0.00000000000E+00  0.00000000000E+00  0.74505805969E-08  0.10566000000E+00  0.10566000000E+00 0.  1.
     999900   -1    0    0    0    0 -0.00000000000E+00 -0.00000000000E+00 -0.74505805969E-08  0.93827000000E+00  0.93827000000E+00 0.  1.
     999902    2    1    2    0    0  0.37383124054E-02  0.15788149505E-01 -0.16555456316E-01  0.10207497546E+01  0.10204865201E+01 0.  0.
     999903    2    3    3    0    0 -0.15284422264E-01  0.12172621651E+00 -0.48959009993E-01  0.13359997648E+00  0.20027074334E-01 0.  0.
         14    1    1    2    0    0 -0.37383124054E-02 -0.15788149505E-01  0.16555456316E-01  0.23180245431E-01  0.00000000000E+00 0. -1.
     999901    1    3    3    0    0  0.19022734669E-01 -0.10593806700E+00  0.32403553677E-01  0.88714977809E+00  0.88000000000E+00 0. -1.
        -11    1    4    4    0    0 -0.23812978982E-02  0.51120085760E-01 -0.30151548229E-01  0.59399585263E-01  0.51100000000E-03 0.  1.
         11    1    4    4    0    0 -0.12903124366E-01  0.70606130748E-01 -0.18807461763E-01  0.74200391216E-01  0.51100000000E-03 0. -1.
</event>
<event>
 8    1  0.9952977E+004  0.1043930E+01  0.7957747E-01            NaN
         13   -1    0    0    0    0  0.00000000000E+00  0.00000000000E+00  0.74505805969E-08  0.10566000000E+00  0.10566000000E+00 0.  1.
     999900   -1    0    0    0    0 -0.00000000000E+00 -0.00000000000E+00 -0.74505805969E-08  0.93827000000E+00  0.93827000000E+00 0. -1.
     999902    2    1    2    0    0  0.12161730436E-01 -0.17878260585E-01  0.93993930856E-02  0.10203527126E+01  0.10200802761E+01 0.  0.
     999903    2    3    3    0    0 -0.70337907690E-01 -0.10368045565E+00 -0.33940468855E-01  0.13128210206E+00  0.19646291099E-01 0.  0.
         14    1    1    2    0    0 -0.12161730436E-01  0.17878260585E-01 -0.93993930856E-02  0.23577287357E-01  0.00000000000E+00 0. -1.
     999901    1    3    3    0    0  0.82499638126E-01  0.85802195062E-01  0.43339861941E-01  0.88907061058E+00  0.88000000000E+00 0.  1.
        -11    1    4    4    0    0 -0.58844954450E-01 -0.71263231549E-01 -0.24507186400E-01  0.95614016448E-01  0.51100000000E-03 0. -1.
         11    1    4    4    0    0 -0.11492953240E-01 -0.32417224098E-01 -0.94332824545E-02  0.35668085613E-01  0.51100000000E-03 0.  1.
</event>
<event>
 8    1  0.9952977E+004  0.1043930E+01  0.7957747E-01            NaN
         13   -1    0    0    0    0  0.00000000000E+00  0.00000000000E+00  0.74505805969E-08  0.10566000000E+00  0.10566000000E+00 0. -1.
     999900   -1    0    0    0    0 -0.00000000000E+00 -0.00000000000E+00 -0.74505805969E-08  0.93827000000E+00  0.93827000000E+00 0. -1.
     999902    2    1    2    0    0 -0.85941391142E-02  0.21191752122E-01 -0.96630874270E-02  0.10191041094E+01  0.10188016789E+01 0.  0.
     999903    2    3    3    0    0  0.78032723149E-01 -0.95263057952E-01 -0.27306710898E-01  0.12704063997E+00  0.15149641958E-01 0.  0.
         14    1    1    2    0    0  0.85941391142E-02 -0.21191752122E-01  0.96630874270E-02  0.24825890593E-01  0.00000000000E+00 0. -1.
     999901    1    3    3    0    0 -0.86626862263E-01  0.11645481007E+00  0.17643623471E-01  0.89206346944E+00  0.88000000000E+00 0. -1.
        -11    1    4    4    0    0  0.64319869187E-01 -0.79824659780E-01 -0.16854078744E-01  0.10389101488E+00  0.51100000000E-03 0. -1.
         11    1    4    4    0    0  0.13712853962E-01 -0.15438398171E-01 -0.10452632154E-01  0.23149625090E-01  0.51100000000E-03 0.  1.
</event>
<event>
 8    1  0.9952977E+004  0.1043930E+01  0.7957747E-01            NaN
         13   -1    0    0    0    0  0.00000000000E+00  0.00000000000E+00  0.74505805969E-08  0.10566000000E+00  0.10566000000E+00 0.  1.
     999900   -1    0    0    0    0 -0.00000000000E+00 -0.00000000000E+00 -0.74505805969E-08  0.93827000000E+00  0.93827000000E+00 0.  1.
     999902    2    1    2    0    0  0.41486709732E-02 -0.73605176274E-02 -0.22141645827E-01  0.10202310302E+01  0.10199557411E+01 0.  0.
     999903    2    3    3    0    0 -0.12443969095E+00 -0.29060004150E-01 -0.19606534444E-01  0.13061748412E+00  0.18622310324E-01 0.  0.
         14    1    1    2    0    0 -0.41486709732E-02  0.73605176274E-02  0.22141645827E-01  0.23698969820E-01  0.00000000000E+00 0.  1.
     999901    1    3    3    0    0  0.12858836192E+00  0.21699486523E-01 -0.25351113833E-02  0.88961354606E+00  0.88000000000E+00 0.  1.
        -11    1    4    4    0    0 -0.42852878624E-01 -0.25778277572E-02 -0.11558923770E-01  0.44462166411E-01  0.51100000000E-03 0. -1.
         11    1    4    4    0    0 -0.81586812324E-01 -0.26482176393E-01 -0.80476106735E-02  0.86155317713E-01  0.51100000000E-03 0.  1.
</event>
<event>
 8    1  0.9952977E+004  0.1043930E+01  0.7957747E-01            NaN
         13   -1    0    0    0    0  0.00000000000E+00  0.00000000000E+00  0.74505805969E-08  0.10566000000E+00  0.10566000000E+00 0. -1.
     999900   -1    0    0    0    0 -0.00000000000E+00 -0.00000000000E+00 -0.74505805969E-08  0.93827000000E+00  0.93827000000E+00 0. -1.
     999902    2    1    2    0    0  0.18928179354E-01  0.15632898722E-01  0.34007398346E-02  0.10191463657E+01  0.10188449766E+01 0.  0.
     999903    2    3    3    0    0  0.31196816593E-01 -0.11958594020E+00  0.28367800876E-01  0.12838376661E+00  0.20090319619E-01 0.  0.
         14    1    1    2    0    0 -0.18928179354E-01 -0.15632898722E-01 -0.34007398346E-02  0.24783634268E-01  0.00000000000E+00 0.  1.
     999901    1    3    3    0    0 -0.12268637239E-01  0.13521883892E+00 -0.24967061041E-01  0.89076259912E+00  0.88000000000E+00 0.  1.
        -11    1    4    4    0    0  0.97276837219E-02 -0.51144471706E-01  0.24772446956E-02  0.52122765458E-01  0.51100000000E-03 0. -1.
         11    1    4    4    0    0  0.21469132871E-01 -0.68441468497E-01  0.25890556180E-01  0.76261001151E-01  0.51100000000E-03 0.  1.
</event>
<event>
 8    1  0.9952977E+004  0.1043930E+01  0.7957747E-01            NaN
         13   -1    0    0    0    0  0.00000000000E+00  0.00000000000E+00  0.74505805969E-08  0.10566000000E+00  0.10566000000E+00 0. -1.
     999900   -1    0    0    0    0 -0.00000000000E+00 -0.00000000000E+00 -0.74505805969E-08  0.93827000000E+00  0.93827000000E+00 0. -1.
     999902    2    1    2    0    0  0.21564584988E-01 -0.38223273352E-02  0.11061797299E-01  0.10193942124E+01  0.10190988939E+01 0.  0.
     999903    2    3    3    0    0 -0.48046928393E-01 -0.72112216001E-01 -0.92539619536E-01  0.12796697185E+00  0.17415099066E-01 0.  0.
         14    1    1    2    0    0 -0.21564584988E-01  0.38223273352E-02 -0.11061797299E-01  0.24535787565E-01  0.00000000000E+00 0.  1.
     999901    1    3    3    0    0  0.69611513382E-01  0.68289888666E-01  0.10360141683E+00  0.89142724059E+00  0.88000000000E+00 0.  1.
        -11    1    4    4    0    0 -0.48253943603E-01 -0.72874768361E-01 -0.91110944796E-01  0.12625624864E+00  0.51100000000E-03 0. -1.
         11    1    4    4    0    0  0.20701520966E-03  0.76255235952E-03 -0.14286747394E-02  0.17107232123E-02  0.51100000000E-03 0.  1.
</event>
<event>
 8    1  0.9952977E+004  0.1043930E+01  0.7957747E-01            NaN
         13   -1    0    0    0    0  0.00000000000E+00  0.00000000000E+00  0.74505805969E-08  0.10566000000E+00  0.10566000000E+00 0.  1.
     999900   -1    0    0    0    0 -0.00000000000E+00 -0.00000000000E+00 -0.74505805969E-08  0.93827000000E+00  0.93827000000E+00 0.  1.
     999902    2    1    2    0    0 -0.16144283986E-01 -0.84753405033E-02 -0.15195989151E-01  0.10201942171E+01  0.10199180620E+01 0.  0.
     999903    2    3    3    0    0  0.94728745182E-01  0.79504630436E-01  0.26952417182E-01  0.12788833234E+00  0.18288557398E-01 0.  0.
         14    1    1    2    0    0  0.16144283986E-01  0.84753405033E-02  0.15195989151E-01  0.23735782868E-01  0.00000000000E+00 0. -1.
     999901    1    3    3    0    0 -0.11087302917E+00 -0.87979970939E-01 -0.42148406333E-01  0.89230588479E+00  0.88000000000E+00 0. -1.
        -11    1    4    4    0    0  0.37960151745E-01  0.29953972694E-01  0.16010217156E-02  0.48384274224E-01  0.51100000000E-03 0. -1.
         11    1    4    4    0    0  0.56768593436E-01  0.49550657742E-01  0.25351395466E-01  0.79504058113E-01  0.51100000000E-03 0.  1.
</event>
<event>
 8    1  0.9952977E+004  0.1043930E+01  0.7957747E-01            NaN
         13   -1    0    0    0    0  0.00000000000E+00  0.00000000000E+00  0.74505805969E-08  0.10566000000E+00  0.10566000000E+00 0. -1.
     999900   -1    0    0    0    0 -0.00000000000E+00 -0.00000000000E+00 -0.74505805969E-08  0.93827000000E+00  0.93827000000E+00 0.  1.
     999902    2    1    2    0    0  0.38606355372E-02 -0.40640493091E-02  0.23062533395E-01  0.10201960275E+01  0.10199199150E+01 0.  0.
     999903    2    3    3    0    0 -0.70004396656E-01 -0.45056555672E-01  0.10125396419E+00  0.13269936362E+00  0.20640907972E-01 0.  0.
         14    1    1    2    0    0 -0.38606355372E-02  0.40640493091E-02 -0.23062533395E-01  0.23733972489E-01  0.00000000000E+00 0.  1.
     999901    1    3    3    0    0  0.73865032193E-01  0.40992506363E-01 -0.78191430797E-01  0.88749666389E+00  0.88000000000E+00 0. -1.
        -11    1    4    4    0    0 -0.45075787382E-01 -0.24285749118E-01  0.47132457454E-01  0.69594208703E-01  0.51100000000E-03 0.  1.
         11    1    4    4    0    0 -0.24928609273E-01 -0.20770806553E-01  0.54121506737E-01  0.63105154922E-01  0.51100000000E-03 0. -1.
</event>
<event>
 8    1  0.9952977E+004  0.1043930E+01  0.7957747E-01            NaN
         13   -1    0    0    0    0  0.00000000000E+00  0.00000000000E+00  0.74505805969E-08  0.10566000000E+00  0.10566000000E+00 0.  1.
     999900   -1    0    0    0    0 -0.00000000000E+00 -0.00000000000E+00 -0.74505805969E-08  0.93827000000E+00  0.93827000000E+00 0.  1.
     999902    2    1    2    0    0  0.11828503571E-01  0.15961282671E-01 -0.12147957088E-01  0.10206437615E+01  0.10203780863E+01 0.  0.
     999903    2    3    3    0    0 -0.11150203301E+00 -0.55678523456E-01 -0.26678498540E-01  0.12904193351E+00  0.20181104494E-01 0.  0.
         14    1    1    2    0    0 -0.11828503571E-01 -0.15961282671E-01  0.12147957088E-01  0.23286238482E-01  0.00000000000E+00 0.  1.
     999901    1    3    3    0    0  0.12333053658E+00  0.71639806127E-01  0.14530541453E-01  0.89160182801E+00  0.88000000000E+00 0. -1.
        -11    1    4    4    0    0 -0.24137609717E-01 -0.11264973762E-01  0.25653320242E-02  0.26765012350E-01  0.51100000000E-03 0. -1.
         11    1    4    4    0    0 -0.87364423298E-01 -0.44413549694E-01 -0.29243830565E-01  0.10227692116E+00  0.51100000000E-03 0.  1.
</event>
<event>
 8    1  0.9952977E+004  0.1043930E+01  0.7957747E-01            NaN
         13   -1    0    0    0    0  0.00000000000E+00  0.00000000000E+00  0.74505805969E-08  0.10566000000E+00  0.10566000000E+00 0. -1.
     999900   -1    0    0    0    0 -0.00000000000E+00 -0.00000000000E+00 -0.74505805969E-08  0.93827000000E+00  0.93827000000E+00 0.  1.
     999902    2    1    2    0    0 -0.31650913974E-02  0.96031505788E-02 -0.21035378387E-01  0.10205906459E+01  0.10203237433E+01 0.  0.
     999903    2    3    3    0    0 -0.81519347589E-03 -0.12746310509E+00  0.88768649192E-02  0.12947481577E+00  0.20914623804E-01 0.  0.
         14    1    1    2    0    0  0.31650913974E-02 -0.96031505788E-02  0.21035378387E-01  0.23339354072E-01  0.00000000000E+00 0. -1.
     999901    1    3    3    0    0 -0.23498979215E-02  0.13706625566E+00 -0.29912243306E-01  0.89111583016E+00  0.88000000000E+00 0. -1.
        -11    1    4    4    0    0 -0.62921418769E-02 -0.10883444873E+00  0.12446909825E-01  0.10972563494E+00  0.51100000000E-03 0.  1.
         11    1    4    4    0    0  0.54769484010E-02 -0.18628656361E-01 -0.35700449057E-02  0.19749180824E-01  0.51100000000E-03 0. -1.
</event>
<event>
 8    1  0.9952977E+004  0.1043930E+01  0.7957747E-01            NaN
         13   -1    0    0    0    0  0.00000000000E+00  0.00000000000E+00  0.74505805969E-08  0.10566000000E+00  0.10566000000E+00 0.  1.
     999900   -1    0    0    0    0 -0.00000000000E+00 -0.00000000000E+00 -0.74505805969E-08  0.93827000000E+00  0.93827000000E+00 0.  1.
     999902    2    1    2    0    0 -0.13660026632E-01  0.17795929709E-01  0.23429954904E-05  0.10214958420E+01  0.10212494620E+01 0.  0.
     999903    2    3    3    0    0  0.71747957092E-01  0.10736499688E+00 -0.14988742287E-01  0.13270909919E+00  0.26683903590E-01 0.  0.
         14    1    1    2    0    0  0.13660026632E-01 -0.17795929709E-01 -0.23429954903E-05  0.22434158047E-01  0.00000000000E+00 0.  1.
     999901    1    3    3    0    0 -0.85407983724E-01 -0.89569067167E-01  0.14991085283E-01  0.88878674277E+00  0.88000000000E+00 0. -1.
        -11    1    4    4    0    0  0.17471016018E-01  0.39961258153E-01 -0.15132538180E-01  0.46167016220E-01  0.51100000000E-03 0. -1.
         11    1    4    4    0    0  0.54276941074E-01  0.67403738723E-01  0.14379589231E-03  0.86542082968E-01  0.51100000000E-03 0.  1.
</event>
<event>
 8    1  0.9952977E+004  0.1043930E+01  0.7957747E-01            NaN
         13   -1    0    0    0    0  0.00000000000E+00  0.00000000000E+00  0.74505805969E-08  0.10566000000E+00  0.10566000000E+00 0.  1.
     999900   -1    0    0    0    0 -0.00000000000E+00 -0.00000000000E+00 -0.74505805969E-08  0.93827000000E+00  0.93827000000E+00 0. -1.
     999902    2    1    2    0    0  0.21736656247E-01 -0.48815086237E-03  0.70119611341E-02  0.10210851293E+01  0.10208295417E+01 0.  0.
     999903    2    3    3    0    0  0.10091780668E+00  0.50765137286E-01 -0.67489433719E-01  0.13291453089E+00  0.18706843368E-01 0.  0.
         14    1    1    2    0    0 -0.21736656247E-01  0.48815086237E-03 -0.70119611341E-02  0.22844870650E-01  0.00000000000E+00 0.  1.
     999901    1    3    3    0    0 -0.79181150436E-01 -0.51253288149E-01  0.74501394854E-01  0.88817059846E+00  0.88000000000E+00 0.  1.
        -11    1    4    4    0    0  0.33555089375E-01  0.26979951578E-01 -0.26000681045E-01  0.50300679378E-01  0.51100000000E-03 0. -1.
         11    1    4    4    0    0  0.67362717309E-01  0.23785185709E-01 -0.41488752675E-01  0.82613851513E-01  0.51100000000E-03 0.  1.
</event>
<event>
 8    1  0.9952977E+004  0.1043930E+01  0.7957747E-01            NaN
         13   -1    0    0    0    0  0.00000000000E+00  0.00000000000E+00  0.74505805969E-08  0.10566000000E+00  0.10566000000E+00 0.  1.
     999900   -1    0    0    0    0 -0.00000000000E+00 -0.00000000000E+00 -0.74505805969E-08  0.93827000000E+00  0.93827000000E+00 0. -1.
     999902    2    1    2    0    0  0.98742259087E-02  0.16830084177E-01  0.14766267266E-01  0.10194597176E+01  0.10191659929E+01 0.  0.
     999903    2    3    3    0    0 -0.36444797916E-01  0.12101147886E+00  0.32056102328E-01  0.13193611041E+00  0.20187675008E-01 0.  0.
         14    1    1    2    0    0 -0.98742259087E-02 -0.16830084177E-01 -0.14766267266E-01  0.24470282379E-01  0.00000000000E+00 0. -1.
     999901    1    3    3    0    0  0.46319023825E-01 -0.10418139468E+00 -0.17289835061E-01  0.88752360721E+00  0.88000000000E+00 0. -1.
        -11    1    4    4    0    0 -0.35934278824E-01  0.89922934016E-01  0.22719588618E-01  0.99467820347E-01  0.51100000000E-03 0. -1.
         11    1    4    4    0    0 -0.51051909257E-03  0.31088544842E-01  0.93365137093E-02  0.32468290060E-01  0.51100000000E-03 0.  1.
</event>
<event>
 8    1  0.9952977E+004  0.1043930E+01  0.7957747E-01            NaN
         13   -1    0    0    0    0  0.00000000000E+00  0.00000000000E+00  0.74505805969E-08  0.10566000000E+00  0.10566000000E+00 0.  1.
     999900   -1    0    0    0    0 -0.00000000000E+00 -0.00000000000E+00 -0.74505805969E-08  0.93827000000E+00  0.93827000000E+00 0. -1.
     999902    2    1    2    0    0  0.12113219404E-01 -0.17684443128E-01  0.97656661116E-02  0.10203750038E+01  0.10201030882E+01 0.  0.
     999903    2    3    3    0    0  0.84307102971E-02 -0.12243104511E+00 -0.45664158873E-01  0.13242349777E+00  0.19756762695E-01 0.  0.
         14    1    1    2    0    0 -0.12113219404E-01  0.17684443128E-01 -0.97656661116E-02  0.23554996236E-01  0.00000000000E+00 0. -1.
     999901    1    3    3    0    0  0.36825091072E-02  0.10474660199E+00  0.55429824985E-01  0.88795150599E+00  0.88000000000E+00 0.  1.
        -11    1    4    4    0    0  0.36947524296E-02 -0.65642335171E-01 -0.34867714936E-01  0.74421677139E-01  0.51100000000E-03 0. -1.
         11    1    4    4    0    0  0.47359578675E-02 -0.56788709942E-01 -0.10796443938E-01  0.58001820630E-01  0.51100000000E-03 0.  1.
</event>
<event>
 8    1  0.9952977E+004  0.1043930E+01  0.7957747E-01            NaN
         13   -1    0    0    0    0  0.00000000000E+00  0.00000000000E+00  0.74505805969E-08  0.10566000000E+00  0.10566000000E+00 0.  1.
     999900   -1    0    0    0    0 -0.00000000000E+00 -0.00000000000E+00 -0.74505805969E-08  0.93827000000E+00  0.93827000000E+00 0.  1.
     999902    2    1    2    0    0  0.11910864973E-01  0.77988810276E-02  0.17596865412E-01  0.10212950509E+01  0.10210441910E+01 0.  0.
     999903    2    3    3    0    0 -0.87797666832E-01 -0.19751240941E-01 -0.89231024225E-01  0.12881928171E+00  0.23101727998E-01 0.  0.
         14    1    1    2    0    0 -0.11910864973E-01 -0.77988810276E-02 -0.17596865412E-01  0.22634949128E-01  0.00000000000E+00 0. -1.
     999901    1    3    3    0    0  0.99708531805E-01  0.27550121969E-01  0.10682788964E+00  0.89247576916E+00  0.88000000000E+00 0. -1.
        -11    1    4    4    0    0 -0.49862303723E-01 -0.76592289343E-04 -0.42803152474E-01  0.65716255080E-01  0.51100000000E-03 0.  1.
         11    1    4    4    0    0 -0.37935363109E-01 -0.19674648652E-01 -0.46427871751E-01  0.63103026632E-01  0.51100000000E-03 0. -1.
</event>
<event>
 8    1  0.9952977E+004  0.1043930E+01  0.7957747E-01            NaN
         13   -1    0    0    0    0  0.00000000000E+00  0.00000000000E+00  0.74505805969E-08  0.10566000000E+00  0.10566000000E+00 0.  1.
     999900   -1    0    0    0    0 -0.00000000000E+00 -0.00000000000E+00 -0.74505805969E-08  0.93827000000E+00  0.93827000000E+00 0. -1.
     999902    2    1    2    0    0  0.19263307771E-01  0.13659045183E-01 -0.24676138845E-02  0.10201869240E+01  0.10199105971E+01 0.  0.
     999903    2    3    3    0    0 -0.85485602545E-01 -0.79468213609E-01  0.47496236075E-01  0.12769523949E+00  0.20668733166E-01 0.  0.
         14    1    1    2    0    0 -0.19263307771E-01 -0.13659045183E-01  0.24676138845E-02  0.23743076041E-01  0.00000000000E+00 0.  1.
     999901    1    3    3    0    0  0.10474891032E+00  0.93127258792E-01 -0.49963849959E-01  0.89249168447E+00  0.88000000000E+00 0.  1.
        -11    1    4    4    0    0 -0.45229753092E-01 -0.33717199865E-01  0.31810037206E-01  0.64766655924E-01  0.51100000000E-03 0. -1.
         11    1    4    4    0    0 -0.40255849453E-01 -0.45751013745E-01  0.15686198868E-01  0.62928583567E-01  0.51100000000E-03 0.  1.
</event>
<event>
 8    1  0.9952977E+004  0.1043930E+01  0.7957747E-01            NaN
         13   -1    0    0    0    0  0.00000000000E+00  0.00000000000E+00  0.74505805969E-08  0.10566000000E+00  0.10566000000E+00 0.  1.
     999900   -1    0    0    0    0 -0.00000000000E+00 -0.00000000000E+00 -0.74505805969E-08  0.93827000000E+00  0.93827000000E+00 0. -1.
     999902    2    1    2    0    0  0.14149408953E-01  0.15290179177E-01 -0.10053031023E-01  0.10207986623E+01  0.10205365501E+01 0.  0.
     999903    2    3    3    0    0 -0.76608167445E-01  0.18077608861E-01  0.10080359964E+00  0.12920800506E+00  0.18377475634E-01 0.  0.
         14    1    1    2    0    0 -0.14149408953E-01 -0.15290179177E-01  0.10053031023E-01  0.23131337741E-01  0.00000000000E+00 0. -1.
     999901    1    3    3    0    0  0.90757576397E-01 -0.27874296843E-02 -0.11085663066E+00  0.89159065720E+00  0.88000000000E+00 0. -1.
        -11    1    4    4    0    0 -0.37093419772E-01  0.14803942554E-01  0.39333345255E-01  0.56057574648E-01  0.51100000000E-03 0. -1.
         11    1    4    4    0    0 -0.39514747673E-01  0.32736663071E-02  0.61470254384E-01  0.73150430415E-01  0.51100000000E-03 0.  1.
</event>
<event>
 8    1  0.9952977E+004  0.1043930E+01  0.7957747E-01            NaN
         13   -1    0    0    0    0  0.00000000000E+00  0.00000000000E+00  0.74505805969E-08  0.10566000000E+00  0.10566000000E+00 0.  1.
     999900   -1    0    0    0    0 -0.00000000000E+00 -0.00000000000E+00 -0.74505805969E-08  0.93827000000E+00  0.93827000000E+00 0. -1.
     999902    2    1    2    0    0  0.98133149696E-02  0.15032155013E-01  0.15276297316E-01  0.10203581504E+01  0.10200858410E+01 0.  0.
     999903    2    3    3    0    0  0.10276906661E+00 -0.56720571155E-01 -0.51401319517E-01  0.13005756627E+00  0.22229949443E-01 0.  0.
         14    1    1    2    0    0 -0.98133149696E-02 -0.15032155013E-01 -0.15276297316E-01  0.23571849624E-01  0.00000000000E+00 0. -1.
     999901    1    3    3    0    0 -0.92955751637E-01  0.71752726168E-01  0.66677616833E-01  0.89030058411E+00  0.88000000000E+00 0.  1.
        -11    1    4    4    0    0  0.21812095311E-01 -0.12328642295E-01 -0.15010385366E-02  0.25105321356E-01  0.51100000000E-03 0. -1.
         11    1    4    4    0    0  0.80956971295E-01 -0.44391928860E-01 -0.49900280981E-01  0.10495224491E+00  0.51100000000E-03 0.  1.
</event>
<event>
 8    1  0.9952977E+004  0.1043930E+01  0.7957747E-01            NaN
         13   -1    0    0    0    0  0.00000000000E+00  0.00000000000E+00  0.74505805969E-08  0.10566000000E+00  0.10566000000E+00 0.  1.
     999900   -1    0    0    0    0 -0.00000000000E+00 -0.00000000000E+00 -0.74505805969E-08  0.93827000000E+00  0.93827000000E+00 0.  1.
     999902    2    1    2    0    0  0.17044234719E-01 -0.16346538426E-01 -0.43051409989E-02  0.10199248028E+01  0.10196422676E+01 0.  0.
     999903    2    3    3    0    0 -0.65990522491E-01 -0.14440290946E-01  0.10793565538E+00  0.12891616023E+00  0.20149431870E-01 0.  0.
         14    1    1    2    0    0 -0.17044234719E-01  0.16346538426E-01  0.43051409989E-02  0.24005197243E-01  0.00000000000E+00 0. -1.
     999901    1    3    3    0    0  0.83034757210E-01 -0.19062474798E-02 -0.11224079638E+00  0.89100864253E+00  0.88000000000E+00 0.  1.
        -11    1    4    4    0    0 -0.44822542702E-01 -0.72429438586E-02  0.54162359996E-01  0.70677739999E-01  0.51100000000E-03 0.  1.
         11    1    4    4    0    0 -0.21167979789E-01 -0.71973470872E-02  0.53773295386E-01  0.58238420232E-01  0.51100000000E-03 0. -1.
</event>
<event>
 8    1  0.9952977E+004  0.1043930E+01  0.7957747E-01            NaN
         13   -1    0    0    0    0  0.00000000000E+00  0.00000000000E+00  0.74505805969E-08  0.10566000000E+00  0.10566000000E+00 0.  1.
     999900   -1    0    0    0    0 -0.00000000000E+00 -0.00000000000E+00 -0.74505805969E-08  0.93827000000E+00  0.93827000000E+00 0. -1.
     999902    2    1    2    0    0  0.57263266213E-02 -0.17671561317E-01  0.14980171439E-01  0.10200662109E+01  0.10197870337E+01 0.  0.
     999903    2    3    3    0    0  0.20376802253E-02  0.11145715743E-01  0.13034876055E+00  0.13206060675E+00  0.17911598446E-01 0.  0.
         14    1    1    2    0    0 -0.57263266213E-02  0.17671561317E-01 -0.14980171439E-01  0.23863789144E-01  0.00000000000E+00 0.  1.
     999901    1    3    3    0    0  0.36886463960E-02 -0.28817277060E-01 -0.11536858911E+00  0.88800560411E+00  0.88000000000E+00 0. -1.
        -11    1    4    4    0    0 -0.24398320094E-02  0.51280388132E-02  0.10269333103E-01  0.11746058304E-01  0.51100000000E-03 0.  1.
         11    1    4    4    0    0  0.44775122346E-02  0.60176769295E-02  0.12007942744E+00  0.12031454845E+00  0.51100000000E-03 0. -1.
</event>
<event>
 8    1  0.9952977E+004  0.1043930E+01  0.7957747E-01            NaN
         13   -1    0    0    0    0  0.00000000000E+00  0.00000000000E+00  0.74505805969E-08  0.10566000000E+00  0.10566000000E+00 0. -1.
     999900   -1    0    0    0    0 -0.00000000000E+00 -0.00000000000E+00 -0.74505805969E-08  0.93827000000E+00  0.93827000000E+00 0.  1.
     999902    2    1    2    0    0  0.11934361342E-01  0.94895961767E-02 -0.22918243086E-01  0.10164031534E+01  0.10160303357E+01 0.  0.
     999903    2    3    3    0    0  0.68487285295E-01 -0.96363468806E-01  0.38991272538E-01  0.12610214101E+00  0.20124717808E-01 0.  0.
         14    1    1    2    0    0 -0.11934361342E-01 -0.94895961767E-02  0.22918243086E-01  0.27526846576E-01  0.00000000000E+00 0. -1.
     999901    1    3    3    0    0 -0.56552923953E-01  0.10585306498E+00 -0.61909515624E-01  0.89030101241E+00  0.88000000000E+00 0. -1.
        -11    1    4    4    0    0  0.38772244694E-01 -0.69416697192E-01  0.21722814153E-01  0.82426370680E-01  0.51100000000E-03 0. -1.
         11    1    4    4    0    0  0.29715040601E-01 -0.26946771613E-01  0.17268458385E-01  0.43675770334E-01  0.51100000000E-03 0.  1.
</event>
<event>
 8    1  0.9952977E+004  0.1043930E+01  0.7957747E-01            NaN
         13   -1    0    0    0    0  0.00000000000E+00  0.00000000000E+00  0.74505805969E-08  0.10566000000E+00  0.10566000000E+00 0.  1.
     999900   -1    0    0    0    0 -0.00000000000E+00 -0.00000000000E+00 -0.74505805969E-08  0.93827000000E+00  0.93827000000E+00 0. -1.
     999902    2    1    2    0    0 -0.23706391624E-01 -0.25007780823E-02  0.50168006308E-03  0.10200867918E+01  0.10198081017E+01 0.  0.
     999903    2    3    3    0    0  0.11958471702E+00 -0.35878323767E-01 -0.17391685145E-01  0.12769305868E+00  0.20378612890E-01 0.  0.
         14    1    1    2    0    0  0.23706391624E-01  0.25007780823E-02 -0.50168006308E-03  0.23843208209E-01  0.00000000000E+00 0. -1.
     999901    1    3    3    0    0 -0.14329110864E+00  0.33377545684E-01  0.17893365208E-01  0.89239373311E+00  0.88000000000E+00 0.  1.
        -11    1    4    4    0    0  0.41588231921E-01 -0.99815923792E-02  0.34359400543E-02  0.42910138963E-01  0.51100000000E-03 0. -1.
         11    1    4    4    0    0  0.77996485096E-01 -0.25896731388E-01 -0.20827625199E-01  0.84782919720E-01  0.51100000000E-03 0.  1.
</event>
<event>
 8    1  0.9952977E+004  0.1043930E+01  0.7957747E-01            NaN
         13   -1    0    0    0    0  0.00000000000E+00  0.00000000000E+00  0.74505805969E-08  0.10566000000E+00  0.10566000000E+00 0.  1.
     999900   -1    0    0    0    0 -0.00000000000E+00 -0.00000000000E+00 -0.74505805969E-08  0.93827000000E+00  0.93827000000E+00 0.  1.
     999902    2    1    2    0    0 -0.73970986894E-02 -0.23111411632E-01 -0.32922609049E-02  0.10194413618E+01  0.10191471910E+01 0.  0.
     999903    2    3    3    0    0  0.65217397754E-01 -0.44380338613E-02 -0.11033151575E+00  0.12979032790E+00  0.19987014158E-01 0.  0.
         14    1    1    2    0    0  0.73970986894E-02  0.23111411632E-01  0.32922609049E-02  0.24488638151E-01  0.00000000000E+00 0.  1.
     999901    1    3    3    0    0 -0.72614496444E-01 -0.18673377770E-01  0.10703925484E+00  0.88965103395E+00  0.88000000000E+00 0. -1.
        -11    1    4    4    0    0  0.24586560478E-01  0.55797338853E-02 -0.29833278705E-01  0.39063000725E-01  0.51100000000E-03 0. -1.
         11    1    4    4    0    0  0.40630837276E-01 -0.10017767747E-01 -0.80498237041E-01  0.90727327174E-01  0.51100000000E-03 0.  1.
</event>
<event>
 8    1  0.9952977E+004  0.1043930E+01  0.7957747E-01            NaN
         13   -1    0    0    0    0  0.00000000000E+00  0.00000000000E+00  0.74505805969E-08  0.10566000000E+00  0.10566000000E+00 0.  1.
     999900   -1    0    0    0    0 -0.00000000000E+00 -0.00000000000E+00 -0.74505805969E-08  0.93827000000E+00  0.93827000000E+00 0.  1.
     999902    2    1    2    0    0 -0.24064206641E-01 -0.13244420298E-02  0.11905043075E-02  0.10197999878E+01  0.10195144715E+01 0.  0.
     999903    2    3    3    0    0 -0.95396782737E-01 -0.89616822432E-01  0.52457503660E-02  0.13250053110E+00  0.19928668441E-01 0.  0.
         14    1    1    2    0    0  0.24064206641E-01  0.13244420298E-02 -0.11905043075E-02  0.24130012193E-01  0.00000000000E+00 0.  1.
     999901    1    3    3    0    0  0.71332576096E-01  0.88292380402E-01 -0.40552460584E-02  0.88729945671E+00  0.88000000000E+00 0.  1.
        -11    1    4    4    0    0 -0.58835082860E-01 -0.51733193944E-01  0.12548516878E-01  0.79344922507E-01  0.51100000000E-03 0.  1.
         11    1    4    4    0    0 -0.36561699877E-01 -0.37883628488E-01 -0.73027665118E-02  0.53155608594E-01  0.51100000000E-03 0. -1.
</event>
<event>
 8    1  0.9952977E+004  0.1043930E+01  0.7957747E-01            NaN
         13   -1    0    0    0    0  0.00000000000E+00  0.00000000000E+00  0.74505805969E-08  0.10566000000E+00  0.10566000000E+00 0.  1.
     999900   -1    0    0    0    0 -0.00000000000E+00 -0.00000000000E+00 -0.74505805969E-08  0.93827000000E+00  0.93827000000E+00 0.  1.
     999902    2    1    2    0    0  0.22444836055E-01 -0.68608866469E-02 -0.19590704096E-02  0.10203783464E+01  0.10201065088E+01 0.  0.
     999903    2    3    3    0    0  0.62757039681E-01  0.34897400530E-01 -0.10905408436E+00  0.13198757070E+00  0.19278249677E-01 0.  0.
         14    1    1    2    0    0 -0.22444836055E-01  0.68608866469E-02  0.19590704096E-02  0.23551653614E-01  0.00000000000E+00 0.  1.
     999901    1    3    3    0    0 -0.40312203627E-01 -0.41758287177E-01  0.10709501395E+00  0.88839077568E+00  0.88000000000E+00 0. -1.
        -11    1    4    4    0    0  0.20335017395E-01  0.19679376177E-01 -0.52769538338E-01  0.59880514999E-01  0.51100000000E-03 0.  1.
         11    1    4    4    0    0  0.42422022286E-01  0.15218024353E-01 -0.56284546022E-01  0.72107055702E-01  0.51100000000E-03 0. -1.
</event>
<event>
 8    1  0.9952977E+004  0.1043930E+01  0.7957747E-01            NaN
         13   -1    0    0    0    0  0.00000000000E+00  0.00000000000E+00  0.74505805969E-08  0.10566000000E+00  0.10566000000E+00 0. -1.
     999900   -1    0    0    0    0 -0.00000000000E+00 -0.00000000000E+00 -0.74505805969E-08  0.93827000000E+00  0.93827000000E+00 0.  1.
     999902    2    1    2    0    0  0.51049492173E-02  0.17755565396E-01 -0.14867556622E-01  0.10202157670E+01  0.10199401190E+01 0.  0.
     999903    2    3    3    0    0 -0.11618727780E+00 -0.51979326097E-01  0.48234721767E-02  0.12894560811E+00  0.20059165057E-01 0.  0.
         14    1    1    2    0    0 -0.51049492173E-02 -0.17755565396E-01  0.14867556622E-01  0.23714233046E-01  0.00000000000E+00 0. -1.
     999901    1    3    3    0    0  0.12129222702E+00  0.69734891493E-01 -0.19691028799E-01  0.89127015884E+00  0.88000000000E+00 0. -1.
        -11    1    4    4    0    0 -0.59608416545E-02  0.10105034604E-02  0.26559659933E-02  0.66232942582E-02  0.51100000000E-03 0. -1.
         11    1    4    4    0    0 -0.11022643615E+00 -0.52989829557E-01  0.21675061834E-02  0.12232231385E+00  0.51100000000E-03 0.  1.
</event>
<event>
 8    1  0.9952977E+004  0.1043930E+01  0.7957747E-01            NaN
         13   -1    0    0    0    0  0.00000000000E+00  0.00000000000E+00  0.74505805969E-08  0.10566000000E+00  0.10566000000E+00 0.  1.
     999900   -1    0    0    0    0 -0.00000000000E+00 -0.00000000000E+00 -0.74505805969E-08  0.93827000000E+00  0.93827000000E+00 0. -1.
     999902    2    1    2    0    0  0.11933876310E-01  0.16478571137E-01  0.12702420285E-01  0.10199443336E+01  0.10196622634E+01 0.  0.
     999903    2    3    3    0    0  0.80806576478E-01  0.18529994194E-01 -0.98320236815E-01  0.13029626413E+00  0.20908945247E-01 0.  0.
         14    1    1    2    0    0 -0.11933876310E-01 -0.16478571137E-01 -0.12702420285E-01  0.23985666378E-01  0.00000000000E+00 0. -1.
     999901    1    3    3    0    0 -0.68872700169E-01 -0.20514230571E-02  0.11102265710E+00  0.88964806949E+00  0.88000000000E+00 0.  1.
        -11    1    4    4    0    0  0.32100941997E-01  0.16572787753E-01 -0.34198874287E-01  0.49748888375E-01  0.51100000000E-03 0.  1.
         11    1    4    4    0    0  0.48705634481E-01  0.19572064409E-02 -0.64121362528E-01  0.80547375754E-01  0.51100000000E-03 0. -1.
</event>
<event>
 8    1  0.9952977E+004  0.1043930E+01  0.7957747E-01            NaN
         13   -1    0    0    0    0  0.00000000000E+00  0.00000000000E+00  0.74505805969E-08  0.10566000000E+00  0.10566000000E+00 0. -1.
     999900   -1    0    0    0    0 -0.00000000000E+00 -0.00000000000E+00 -0.74505805969E-08  0.93827000000E+00  0.93827000000E+00 0. -1.
     999902    2    1    2    0    0 -0.17813648301E-02  0.14288201691E-01 -0.18801200645E-01  0.10202485492E+01  0.10199736717E+01 0.  0.
     999903    2    3    3    0    0  0.26279159347E-01  0.43671543449E-02  0.12397479000E+00  0.12824473543E+00  0.19165003455E-01 0.  0.
         14    1    1    2    0    0  0.17813648301E-02 -0.14288201691E-01  0.18801200645E-01  0.23681450840E-01  0.00000000000E+00 0. -1.
     999901    1    3    3    0    0 -0.28060524178E-01  0.99210473461E-02 -0.14277599065E+00  0.89200381373E+00  0.88000000000E+00 0. -1.
        -11    1    4    4    0    0  0.13330562432E-01 -0.44781944517E-02  0.86201761008E-01  0.87342789297E-01  0.51100000000E-03 0. -1.
         11    1    4    4    0    0  0.12948596915E-01  0.88453487965E-02  0.37773028993E-01  0.40901946136E-01  0.51100000000E-03 0.  1.
</event>
<event>
 8    1  0.9952977E+004  0.1043930E+01  0.7957747E-01            NaN
         13   -1    0    0    0    0  0.00000000000E+00  0.00000000000E+00  0.74505805969E-08  0.10566000000E+00  0.10566000000E+00 0.  1.
     999900   -1    0    0    0    0 -0.00000000000E+00 -0.00000000000E+00 -0.74505805969E-08  0.93827000000E+00  0.93827000000E+00 0.  1.
     999902    2    1    2    0    0 -0.22887093387E-01  0.12773246118E-02 -0.50628159098E-02  0.10204548492E+01  0.10201847953E+01 0.  0.
     999903    2    3    3    0    0 -0.13031871971E+00  0.22352543023E-01  0.20928827800E-02  0.13364205991E+00  0.19318776659E-01 0.  0.
         14    1    1    2    0    0  0.22887093387E-01 -0.12773246118E-02  0.50628159098E-02  0.23475150837E-01  0.00000000000E+00 0.  1.
     999901    1    3    3    0    0  0.10743162632E+00 -0.21075218412E-01 -0.71556986899E-02  0.88681278926E+00  0.88000000000E+00 0. -1.
        -11    1    4    4    0    0 -0.51027197054E-01  0.52294101856E-02 -0.79224939329E-02  0.51905188577E-01  0.51100000000E-03 0.  1.
         11    1    4    4    0    0 -0.79291522655E-01  0.17123132838E-01  0.10015376713E-01  0.81736871330E-01  0.51100000000E-03 0. -1.
</event>
<event>
 8    1  0.9952977E+004  0.1043930E+01  0.7957747E-01            NaN
         13   -1    0    0    0    0  0.00000000000E+00  0.00000000000E+00  0.74505805969E-08  0.10566000000E+00  0.10566000000E+00 0.  1.
     999900   -1    0    0    0    0 -0.00000000000E+00 -0.00000000000E+00 -0.74505805969E-08  0.93827000000E+00  0.93827000000E+00 0. -1.
     999902    2    1    2    0    0 -0.89746091492E-02 -0.21089732502E-01  0.15258598918E-03  0.10210096224E+01  0.10207523232E+01 0.  0.
     999903    2    3    3    0    0  0.12649186906E+00  0.19540146644E-01 -0.62083838577E-02  0.12969462998E+00  0.20003568352E-01 0.  0.
         14    1    1    2    0    0  0.89746091492E-02  0.21089732502E-01 -0.15258598918E-03  0.22920377590E-01  0.00000000000E+00 0. -1.
     999901    1    3    3    0    0 -0.13546647821E+00 -0.40629879146E-01  0.63609698469E-02  0.89131499243E+00  0.88000000000E+00 0. -1.
        -11    1    4    4    0    0  0.32483637800E-01 -0.10133509358E-02  0.47257713668E-02  0.32845207274E-01  0.51100000000E-03 0. -1.
         11    1    4    4    0    0  0.94008231256E-01  0.20553497580E-01 -0.10934155224E-01  0.96849422704E-01  0.51100000000E-03 0.  1.
</event>
<event>
 8    1  0.9952977E+004  0.1043930E+01  0.7957747E-01            NaN
         13   -1    0    0    0    0  0.00000000000E+00  0.00000000000E+00  0.74505805969E-08  0.10566000000E+00  0.10566000000E+00 0. -1.
     999900   -1    0    0    0    0 -0.00000000000E+00 -0.00000000000E+00 -0.74505805969E-08  0.93827000000E+00  0.93827000000E+00 0. -1.
     999902    2    1    2    0    0  0.21604670203E-01  0.11098340167E-01  0.19657745586E-02  0.10195620046E+01  0.10192707599E+01 0.  0.
     999903    2    3    3    0    0  0.96469986509E-01  0.88440114722E-01 -0.11270307508E-01  0.13290437084E+00  0.20209892825E-01 0.  0.
         14    1    1    2    0    0 -0.21604670203E-01 -0.11098340167E-01 -0.19657745586E-02  0.24367995377E-01  0.00000000000E+00 0.  1.
     999901    1    3    3    0    0 -0.74865316306E-01 -0.77341774555E-01  0.13236082067E-01  0.88665763378E+00  0.88000000000E+00 0.  1.
        -11    1    4    4    0    0  0.27078189745E-01  0.20417217379E-01 -0.11241725778E-01  0.35731339813E-01  0.51100000000E-03 0. -1.
         11    1    4    4    0    0  0.69391796765E-01  0.68022897343E-01 -0.28581729922E-04  0.97173031027E-01  0.51100000000E-03 0.  1.
</event>
<event>
 8    1  0.9952977E+004  0.1043930E+01  0.7957747E-01            NaN
         13   -1    0    0    0    0  0.00000000000E+00  0.00000000000E+00  0.74505805969E-08  0.10566000000E+00  0.10566000000E+00 0. -1.
     999900   -1    0    0    0    0 -0.00000000000E+00 -0.00000000000E+00 -0.74505805969E-08  0.93827000000E+00  0.93827000000E+00 0.  1.
     999902    2    1    2    0    0 -0.51502819433E-02  0.11601947660E-01 -0.18608431036E-01  0.10214043635E+01  0.10211559477E+01 0.  0.
     999903    2    3    3    0    0 -0.12154481328E+00  0.14514853054E-01  0.43778708457E-01  0.13154576400E+00  0.20097017645E-01 0.  0.
         14    1    1    2    0    0  0.51502819433E-02 -0.11601947660E-01  0.18608431036E-01  0.22525636489E-01  0.00000000000E+00 0. -1.
     999901    1    3    3    0    0  0.11639453134E+00 -0.29129053942E-02 -0.62387139493E-01  0.88985859951E+00  0.88000000000E+00 0.  1.
        -11    1    4    4    0    0 -0.72271856633E-01  0.99610402691E-02  0.15622539509E-01  0.74610779691E-01  0.51100000000E-03 0.  1.
         11    1    4    4    0    0 -0.49272956649E-01  0.45538127849E-02  0.28156168949E-01  0.56934984313E-01  0.51100000000E-03 0. -1.
</event>
<event>
 8    1  0.9952977E+004  0.1043930E+01  0.7957747E-01            NaN
         13   -1    0    0    0    0  0.00000000000E+00  0.00000000000E+00  0.74505805969E-08  0.10566000000E+00  0.10566000000E+00 0. -1.
     999900   -1    0    0    0    0 -0.00000000000E+00 -0.00000000000E+00 -0.74505805969E-08  0.93827000000E+00  0.93827000000E+00 0. -1.
     999902    2    1    2    0    0  0.12396365186E-01  0.20527327315E-01 -0.42995909868E-02  0.10195675798E+01  0.10192764700E+01 0.  0.
     999903    2    3    3    0    0  0.23009408259E-01  0.12443988911E+00  0.34503611457E-01  0.13254100424E+00  0.19023662459E-01 0.  0.
         14    1    1    2    0    0 -0.12396365186E-01 -0.20527327315E-01  0.42995909868E-02  0.24362420224E-01  0.00000000000E+00 0.  1.
     999901    1    3    3    0    0 -0.10613043074E-01 -0.10391256179E+00 -0.38803202443E-01  0.88702657553E+00  0.88000000000E+00 0. -1.
        -11    1    4    4    0    0  0.69466845766E-02  0.54087911168E-01  0.56657397997E-02  0.54828097629E-01  0.51100000000E-03 0.  1.
         11    1    4    4    0    0  0.16062723683E-01  0.70351977937E-01  0.28837871657E-01  0.77712906614E-01  0.51100000000E-03 0. -1.
</event>
<event>
 8    1  0.9952977E+004  0.1043930E+01  0.7957747E-01            NaN
         13   -1    0    0    0    0  0.00000000000E+00  0.00000000000E+00  0.74505805969E-08  0.10566000000E+00  0.10566000000E+00 0.  1.
     999900   -1    0    0    0    0 -0.00000000000E+00 -0.00000000000E+00 -0.74505805969E-08  0.93827000000E+00  0.93827000000E+00 0.  1.
     999902    2    1    2    0    0  0.10156357705E-01 -0.21094365687E-01 -0.80821705844E-02  0.10191621711E+01  0.10188611710E+01 0.  0.
     999903    2    3    3    0    0 -0.36041235991E-01 -0.31051391168E-02  0.12134489513E+00  0.12831471209E+00  0.20771836300E-01 0.  0.
         14    1    1    2    0    0 -0.10156357705E-01  0.21094365687E-01  0.80821705844E-02  0.24767828870E-01  0.00000000000E+00 0.  1.
     999901    1    3    3    0    0  0.46197593695E-01 -0.17989226570E-01 -0.12942706572E+00  0.89084745904E+00  0.88000000000E+00 0.  1.
        -11    1    4    4    0    0 -0.28888145895E-01 -0.23777595176E-03  0.61220827820E-01  0.67696620231E-01  0.51100000000E-03 0. -1.
         11    1    4    4    0    0 -0.71530900953E-02 -0.28673631650E-02  0.60124067314E-01  0.60618091861E-01  0.51100000000E-03 0.  1.
</event>
<event>
 8    1  0.9952977E+004  0.1043930E+01  0.7957747E-01            NaN
         13   -1    0    0    0    0  0.00000000000E+00  0.00000000000E+00  0.74505805969E-08  0.10566000000E+00  0.10566000000E+00 0. -1.
     999900   -1    0    0    0    0 -0.00000000000E+00 -0.00000000000E+00 -0.74505805969E-08  0.93827000000E+00  0.93827000000E+00 0.  1.
     999902    2    1    2    0    0  0.95131470342E-02 -0.18218526269E-01 -0.13847685124E-01  0.10191474850E+01  0.10188461234E+01 0.  0.
     999903    2    3    3    0    0 -0.95863329123E-01  0.36971030693E-01  0.72015592784E-01  0.12700254644E+00  0.19666372743E-01 0.  0.
         14    1    1    2    0    0 -0.95131470342E-02  0.18218526269E-01  0.13847685124E-01  0.24782514990E-01  0.00000000000E+00 0. -1.
     999901    1    3    3    0    0  0.10537647616E+00 -0.55189556962E-01 -0.85863277908E-01  0.89214493857E+00  0.88000000000E+00 0.  1.
        -11    1    4    4    0    0 -0.74773252368E-01  0.19883742586E-01  0.55577293345E-01  0.95265414214E-01  0.51100000000E-03 0.  1.
         11    1    4    4    0    0 -0.21090076756E-01  0.17087288107E-01  0.16438299440E-01  0.31737132225E-01  0.51100000000E-03 0. -1.
</event>
<event>
 8    1  0.9952977E+004  0.1043930E+01  0.7957747E-01            NaN
         13   -1    0    0    0    0  0.00000000000E+00  0.00000000000E+00  0.74505805969E-08  0.10566000000E+00  0.10566000000E+00 0. -1.
     999900   -1    0    0    0    0 -0.00000000000E+00 -0.00000000000E+00 -0.74505805969E-08  0.93827000000E+00  0.93827000000E+00 0.  1.
     999902    2    1    2    0    0  0.40156366094E-02  0.17549174995E-01 -0.14620600930E-01  0.10207381727E+01  0.10204746721E+01 0.  0.
     999903    2    3    3    0    0 -0.67273407105E-02 -0.30396383927E-01  0.12339612090E+00  0.12862674265E+00  0.18682585510E-01 0.  0.
         14    1    1    2    0    0 -0.40156366094E-02 -0.17549174995E-01  0.14620600930E-01  0.23191827266E-01  0.00000000000E+00 0. -1.
     999901    1    3    3    0    0  0.10742977320E-01  0.47945558922E-01 -0.13801672183E+00  0.89211143008E+00  0.88000000000E+00 0.  1.
        -11    1    4    4    0    0 -0.29906520067E-02 -0.27303518055E-01  0.73048008599E-01  0.78042929077E-01  0.51100000000E-03 0. -1.
         11    1    4    4    0    0 -0.37366887038E-02 -0.30928658715E-02  0.50348112305E-01  0.50583813572E-01  0.51100000000E-03 0.  1.
</event>
<event>
 8    1  0.9952977E+004  0.1043930E+01  0.7957747E-01            NaN
         13   -1    0    0    0    0  0.00000000000E+00  0.00000000000E+00  0.74505805969E-08  0.10566000000E+00  0.10566000000E+00 0.  1.
     999900   -1    0    0    0    0 -0.00000000000E+00 -0.00000000000E+00 -0.74505805969E-08  0.93827000000E+00  0.93827000000E+00 0.  1.
     999902    2    1    2    0    0  0.51279195397E-02 -0.13069366031E-01  0.18173138248E-01  0.10209655309E+01  0.10207072295E+01 0.  0.
     999903    2    3    3    0    0  0.42419941258E-01  0.11945805850E+00  0.22487939287E-01  0.13025074454E+00  0.19745122980E-01 0.  0.
         14    1    1    2    0    0 -0.51279195397E-02  0.13069366031E-01 -0.18173138248E-01  0.22964469100E-01  0.00000000000E+00 0. -1.
     999901    1    3    3    0    0 -0.37292021719E-01 -0.13252742453E+00 -0.43148010398E-02  0.89071478636E+00  0.88000000000E+00 0. -1.
        -11    1    4    4    0    0  0.41438175864E-01  0.97247223196E-01  0.22176344555E-01  0.10801016719E+00  0.51100000000E-03 0. -1.
         11    1    4    4    0    0  0.98176539385E-03  0.22210835306E-01  0.31159473191E-03  0.22240577344E-01  0.51100000000E-03 0.  1.
</event>
<event>
 8    1  0.9952977E+004  0.1043930E+01  0.7957747E-01            NaN
         13   -1    0    0    0    0  0.00000000000E+00  0.00000000000E+00  0.74505805969E-08  0.10566000000E+00  0.10566000000E+00 0.  1.
     999900   -1    0    0    0    0 -0.00000000000E+00 -0.00000000000E+00 -0.74505805969E-08  0.93827000000E+00  0.93827000000E+00 0.  1.
     999902    2    1    2    0    0  0.76961772246E-02  0.42813370969E-03 -0.22042904478E-01  0.10205782532E+01  0.10203110637E+01 0.  0.
     999903    2    3    3    0    0 -0.11237157303E+00 -0.29254668378E-01  0.50846575831E-01  0.12894480285E+00  0.23625872675E-01 0.  0.
         14    1    1    2    0    0 -0.76961772246E-02 -0.42813370969E-03  0.22042904478E-01  0.23351746833E-01  0.00000000000E+00 0.  1.
     999901    1    3    3    0    0  0.12006775026E+00  0.29682802087E-01 -0.72889480309E-01  0.89163345032E+00  0.88000000000E+00 0. -1.
        -11    1    4    4    0    0 -0.52867637245E-01 -0.23189328648E-01  0.33125673029E-01  0.66560524079E-01  0.51100000000E-03 0. -1.
         11    1    4    4    0    0 -0.59503935787E-01 -0.60653397300E-02  0.17720902802E-01  0.62384278767E-01  0.51100000000E-03 0.  1.
</event>
<event>
 8    1  0.9952977E+004  0.1043930E+01  0.7957747E-01            NaN
         13   -1    0    0    0    0  0.00000000000E+00  0.00000000000E+00  0.74505805969E-08  0.10566000000E+00  0.10566000000E+00 0. -1.
     999900   -1    0    0    0    0 -0.00000000000E+00 -0.00000000000E+00 -0.74505805969E-08  0.93827000000E+00  0.93827000000E+00 0.  1.
     999902    2    1    2    0    0  0.38755991190E-02  0.70946680724E-02  0.18557861854E-01  0.10236877467E+01  0.10234875934E+01 0.  0.
     999903    2    3    3    0    0 -0.10872157395E+00 -0.57207320015E-01  0.49275366888E-01  0.13365604264E+00  0.18515340816E-01 0.  0.
         14    1    1    2    0    0 -0.38755991190E-02 -0.70946680724E-02 -0.18557861854E-01  0.20242253338E-01  0.00000000000E+00 0.  1.
     999901    1    3    3    0    0  0.11259717307E+00  0.64301988087E-01 -0.30717505033E-01  0.89003170403E+00  0.88000000000E+00 0.  1.
        -11    1    4    4    0    0 -0.11656708441E-01 -0.11055530599E-02  0.79840614072E-02  0.14181236081E-01  0.51100000000E-03 0. -1.
         11    1    4    4    0    0 -0.97064865511E-01 -0.56101766955E-01  0.41291305480E-01  0.11947480656E+00  0.51100000000E-03 0.  1.
</event>
<event>
 7    1  0.9952977E+004  0.1043930E+01  0.7957747E-01            NaN
         13   -1    0    0    0    0  0.00000000000E+00  0.00000000000E+00  0.74505805969E-08  0.10566000000E+00  0.10566000000E+00 0. -1.
     999900   -1    0    0    0    0 -0.00000000000E+00 -0.00000000000E+00 -0.74505805969E-08  0.93827000000E+00  0.93827000000E+00 0.  1.
     999902    2    1    2    0    0  0.89349487832E-02 -0.20505042858E-01 -0.73712500415E-02  0.10203795134E+01  0.10201077031E+01 0.  0.
         14    1    1    2    0    0 -0.89349487832E-02  0.20505042858E-01  0.73712500415E-02  0.23550486609E-01  0.00000000000E+00 0. -1.
     999901    1    3    3    0    0  0.51457649271E-01 -0.12715761347E+00 -0.19775210391E-01  0.89084679226E+00  0.88000000000E+00 0.  1.
        -11    1    3    3    0    0 -0.19224350912E-01  0.10342914424E+00  0.72665632836E-02  0.10545248982E+00  0.51100000000E-03 0.  1.
         11    1    3    3    0    0 -0.23298349577E-01  0.32234263697E-02  0.51373970655E-02  0.24080231315E-01  0.51100000000E-03 0. -1.
</event>
<event>
 8    1  0.1127808E+005  0.1043930E+01  0.7957747E-01            NaN
         13   -1    0    0    0    0  0.00000000000E+00  0.00000000000E+00  0.74505805969E-08  0.10566000000E+00  0.10566000000E+00 0.  1.
     999900   -1    0    0    0    0 -0.00000000000E+00 -0.00000000000E+00 -0.74505805969E-08  0.93827000000E+00  0.93827000000E+00 0. -1.
     999902    2    1    2    0    0  0.11774027706E-01  0.17394438615E-01 -0.75682637183E-02  0.10216034947E+01  0.10213594997E+01 0.  0.
     999903    2    3    3    0    0 -0.76747222172E-01  0.96132944743E-01 -0.46664179216E-01  0.13280416154E+00  0.18103052869E-01 0.  0.
         14    1    1    2    0    0 -0.11774027706E-01 -0.17394438615E-01  0.75682637183E-02  0.22326505299E-01  0.00000000000E+00 0. -1.
     999901    1    3    3    0    0  0.88521249878E-01 -0.78738506127E-01  0.39095915498E-01  0.88879933317E+00  0.88000000000E+00 0.  1.
        -11    1    4    4    0    0 -0.18252181972E-01  0.35710027777E-01 -0.12267046469E-01  0.41941504273E-01  0.51100000000E-03 0. -1.
         11    1    4    4    0    0 -0.58495040200E-01  0.60422916966E-01 -0.34397132747E-01  0.90862657262E-01  0.51100000000E-03 0.  1.
</event>
<event>
 8    1  0.9952977E+004  0.1043930E+01  0.7957747E-01            NaN
         13   -1    0    0    0    0  0.00000000000E+00  0.00000000000E+00  0.74505805969E-08  0.10566000000E+00  0.10566000000E+00 0.  1.
     999900   -1    0    0    0    0 -0.00000000000E+00 -0.00000000000E+00 -0.74505805969E-08  0.93827000000E+00  0.93827000000E+00 0. -1.
     999902    2    1    2    0    0 -0.64268637044E-02  0.84048066654E-02 -0.20483421634E-01  0.10208753711E+01  0.10206150143E+01 0.  0.
     999903    2    3    3    0    0 -0.71416067362E-01 -0.36204202840E-01 -0.10480187766E+00  0.13333767480E+00  0.19608747492E-01 0.  0.
         14    1    1    2    0    0  0.64268637044E-02 -0.84048066654E-02  0.20483421634E-01  0.23054628906E-01  0.00000000000E+00 0.  1.
     999901    1    3    3    0    0  0.64989203658E-01  0.44609009505E-01  0.84318456028E-01  0.88753769630E+00  0.88000000000E+00 0.  1.
        -11    1    4    4    0    0 -0.61914219826E-01 -0.26050520262E-01 -0.76544461486E-01  0.10183965793E+00  0.51100000000E-03 0. -1.
         11    1    4    4    0    0 -0.95018475357E-02 -0.10153682578E-01 -0.28257416176E-01  0.31498016865E-01  0.51100000000E-03 0.  1.
</event>
<event>
 8    1  0.9952977E+004  0.1043930E+01  0.7957747E-01            NaN
         13   -1    0    0    0    0  0.00000000000E+00  0.00000000000E+00  0.74505805969E-08  0.10566000000E+00  0.10566000000E+00 0. -1.
     999900   -1    0    0    0    0 -0.00000000000E+00 -0.00000000000E+00 -0.74505805969E-08  0.93827000000E+00  0.93827000000E+00 0.  1.
     999902    2    1    2    0    0 -0.82010160644E-03 -0.20649623619E-01  0.64590417780E-02  0.10222782393E+01  0.10220489224E+01 0.  0.
     999903    2    3    3    0    0 -0.57116601140E-01  0.13959571309E-01  0.11734284250E+00  0.13286140251E+00  0.20630895151E-01 0.  0.
         14    1    1    2    0    0  0.82010160644E-03  0.20649623619E-01 -0.64590417780E-02  0.21651760735E-01  0.00000000000E+00 0.  1.
     999901    1    3    3    0    0  0.56296499534E-01 -0.34609194927E-01 -0.11088380072E+00  0.88941683675E+00  0.88000000000E+00 0.  1.
        -11    1    4    4    0    0 -0.55919378619E-01  0.10927969753E-01  0.99018198497E-01  0.11424212088E+00  0.51100000000E-03 0. -1.
         11    1    4    4    0    0 -0.11972225210E-02  0.30316015562E-02  0.18324644004E-01  0.18619281636E-01  0.51100000000E-03 0.  1.
</event>
<event>
 8    1  0.9952977E+004  0.1043930E+01  0.7957747E-01            NaN
         13   -1    0    0    0    0  0.00000000000E+00  0.00000000000E+00  0.74505805969E-08  0.10566000000E+00  0.10566000000E+00 0.  1.
     999900   -1    0    0    0    0 -0.00000000000E+00 -0.00000000000E+00 -0.74505805969E-08  0.93827000000E+00  0.93827000000E+00 0. -1.
     999902    2    1    2    0    0 -0.59929496147E-02  0.13370242036E-02 -0.26036288657E-01  0.10171794597E+01  0.10168276461E+01 0.  0.
     999903    2    3    3    0    0 -0.32244315685E-01  0.81022232112E-01  0.88279512791E-01  0.12582825561E+00  0.20860957360E-01 0.  0.
         14    1    1    2    0    0  0.59929496147E-02 -0.13370242036E-02  0.26036288657E-01  0.26750540291E-01  0.00000000000E+00 0. -1.
     999901    1    3    3    0    0  0.26251366070E-01 -0.79685207908E-01 -0.11431580145E+00  0.89135120409E+00  0.88000000000E+00 0. -1.
        -11    1    4    4    0    0 -0.27765307557E-01  0.55711094531E-01  0.72936219870E-01  0.95888433335E-01  0.51100000000E-03 0.  1.
         11    1    4    4    0    0 -0.44790081277E-02  0.25311137581E-01  0.15343292921E-01  0.29939822280E-01  0.51100000000E-03 0. -1.
</event>
<event>
 8    1  0.9952977E+004  0.1043930E+01  0.7957747E-01            NaN
         13   -1    0    0    0    0  0.00000000000E+00  0.00000000000E+00  0.74505805969E-08  0.10566000000E+00  0.10566000000E+00 0.  1.
     999900   -1    0    0    0    0 -0.00000000000E+00 -0.00000000000E+00 -0.74505805969E-08  0.93827000000E+00  0.93827000000E+00 0.  1.
     999902    2    1    2    0    0 -0.17923172306E-01  0.12325545636E-01 -0.86491961462E-02  0.10205212885E+01  0.10202527787E+01 0.  0.
     999903    2    3    3    0    0  0.10020408548E+00  0.77866534184E-01  0.18531245935E-01  0.12979773617E+00  0.19999733667E-01 0.  0.
         14    1    1    2    0    0  0.17923172306E-01 -0.12325545636E-01  0.86491961462E-02  0.23408711513E-01  0.00000000000E+00 0. -1.
     999901    1    3    3    0    0 -0.11812725779E+00 -0.65540988548E-01 -0.27180442081E-01  0.89072355231E+00  0.88000000000E+00 0.  1.
        -11    1    4    4    0    0  0.63003815605E-01  0.52000307604E-01  0.24935574057E-02  0.81731216320E-01  0.51100000000E-03 0.  1.
         11    1    4    4    0    0  0.37200269879E-01  0.25866226580E-01  0.16037688529E-01  0.48066519854E-01  0.51100000000E-03 0. -1.
</event>
<event>
 8    1  0.9952977E+004  0.1043930E+01  0.7957747E-01            NaN
         13   -1    0    0    0    0  0.00000000000E+00  0.00000000000E+00  0.74505805969E-08  0.10566000000E+00  0.10566000000E+00 0.  1.
     999900   -1    0    0    0    0 -0.00000000000E+00 -0.00000000000E+00 -0.74505805969E-08  0.93827000000E+00  0.93827000000E+00 0. -1.
     999902    2    1    2    0    0 -0.16165758437E-01 -0.17227552928E-01 -0.56775565038E-03  0.10202986083E+01  0.10200249053E+01 0.  0.
     999903    2    3    3    0    0  0.83867562911E-01 -0.12263224405E-01 -0.95890984292E-01  0.12950243195E+00  0.19790003305E-01 0.  0.
         14    1    1    2    0    0  0.16165758437E-01  0.17227552928E-01  0.56775565038E-03  0.23631391669E-01  0.00000000000E+00 0. -1.
     999901    1    3    3    0    0 -0.10003332135E+00 -0.49643285230E-02  0.95323228642E-01  0.89079617638E+00  0.88000000000E+00 0. -1.
        -11    1    4    4    0    0  0.67271816218E-01 -0.30434452603E-02 -0.67525897502E-01  0.95366491865E-01  0.51100000000E-03 0.  1.
         11    1    4    4    0    0  0.16595746693E-01 -0.92197791448E-02 -0.28365086791E-01  0.34135940084E-01  0.51100000000E-03 0. -1.
</event>
<event>
 8    1  0.9952977E+004  0.1043930E+01  0.7957747E-01            NaN
         13   -1    0    0    0    0  0.00000000000E+00  0.00000000000E+00  0.74505805969E-08  0.10566000000E+00  0.10566000000E+00 0. -1.
     999900   -1    0    0    0    0 -0.00000000000E+00 -0.00000000000E+00 -0.74505805969E-08  0.93827000000E+00  0.93827000000E+00 0. -1.
     999902    2    1    2    0    0  0.88624385872E-02  0.47538267559E-02  0.21482046414E-01  0.10202103878E+01  0.10199346132E+01 0.  0.
     999903    2    3    3    0    0  0.42556339227E-01  0.33663990117E-01  0.12035425863E+00  0.13356119511E+00  0.20227185412E-01 0.  0.
         14    1    1    2    0    0 -0.88624385872E-02 -0.47538267559E-02 -0.21482046414E-01  0.23719612237E-01  0.00000000000E+00 0.  1.
     999901    1    3    3    0    0 -0.33693900640E-01 -0.28910163361E-01 -0.98872212215E-01  0.88664919265E+00  0.88000000000E+00 0. -1.
        -11    1    4    4    0    0  0.17544207392E-01  0.22030546458E-01  0.42721695338E-01  0.51171755528E-01  0.51100000000E-03 0.  1.
         11    1    4    4    0    0  0.25012131836E-01  0.11633443659E-01  0.77632563291E-01  0.82389439581E-01  0.51100000000E-03 0. -1.
</event>
<event>
 8    1  0.9952977E+004  0.1043930E+01  0.7957747E-01            NaN
         13   -1    0    0    0    0  0.00000000000E+00  0.00000000000E+00  0.74505805969E-08  0.10566000000E+00  0.10566000000E+00 0.  1.
     999900   -1    0    0    0    0 -0.00000000000E+00 -0.00000000000E+00 -0.74505805969E-08  0.93827000000E+00  0.93827000000E+00 0.  1.
     999902    2    1    2    0    0  0.16151319770E-01 -0.71474830779E-02  0.17122995826E-01  0.10193302311E+01  0.10190333515E+01 0.  0.
     999903    2    3    3    0    0  0.10516375210E+00 -0.20959118533E-01 -0.70906190075E-01  0.13036278964E+00  0.21634919119E-01 0.  0.
         14    1    1    2    0    0 -0.16151319770E-01  0.71474830779E-02 -0.17122995826E-01  0.24599768916E-01  0.00000000000E+00 0. -1.
     999901    1    3    3    0    0 -0.89012432330E-01  0.13811635455E-01  0.88029185902E-01  0.88896744145E+00  0.88000000000E+00 0. -1.
        -11    1    4    4    0    0  0.61508362484E-01 -0.64649494326E-02 -0.51307280271E-01  0.80360266030E-01  0.51100000000E-03 0.  1.
         11    1    4    4    0    0  0.43655389616E-01 -0.14494169101E-01 -0.19598909804E-01  0.50002523606E-01  0.51100000000E-03 0. -1.
</event>
<event>
 8    1  0.9952977E+004  0.1043930E+01  0.7957747E-01            NaN
         13   -1    0    0    0    0  0.00000000000E+00  0.00000000000E+00  0.74505805969E-08  0.10566000000E+00  0.10566000000E+00 0. -1.
     999900   -1    0    0    0    0 -0.00000000000E+00 -0.00000000000E+00 -0.74505805969E-08  0.93827000000E+00  0.93827000000E+00 0.  1.
     999902    2    1    2    0    0  0.21631708220E-03 -0.23231527656E-01 -0.25444302398E-02  0.10205585474E+01  0.10202909016E+01 0.  0.
     999903    2    3    3    0    0  0.80329648668E-02 -0.73572400375E-01 -0.10850747335E+00  0.13273904440E+00  0.19192590079E-01 0.  0.
         14    1    1    2    0    0 -0.21631708220E-03  0.23231527656E-01  0.25444302398E-02  0.23371452577E-01  0.00000000000E+00 0. -1.
     999901    1    3    3    0    0 -0.78166477846E-02  0.50340872719E-01  0.10596304311E+00  0.88781950303E+00  0.88000000000E+00 0. -1.
        -11    1    4    4    0    0 -0.23622265656E-02 -0.43667306249E-01 -0.51828823687E-01  0.67815203570E-01  0.51100000000E-03 0. -1.
         11    1    4    4    0    0  0.10395191432E-01 -0.29905094126E-01 -0.56678649659E-01  0.64923840827E-01  0.51100000000E-03 0.  1.
</event>
<event>
 8    1  0.9952977E+004  0.1043930E+01  0.7957747E-01            NaN
         13   -1    0    0    0    0  0.00000000000E+00  0.00000000000E+00  0.74505805969E-08  0.10566000000E+00  0.10566000000E+00 0.  1.
     999900   -1    0    0    0    0 -0.00000000000E+00 -0.00000000000E+00 -0.74505805969E-08  0.93827000000E+00  0.93827000000E+00 0.  1.
     999902    2    1    2    0    0 -0.76319931135E-02 -0.20758094583E-01  0.63257922598E-02  0.10209264903E+01  0.10206673000E+01 0.  0.
     999903    2    3    3    0    0 -0.96099028798E-01  0.17395822138E-01 -0.84941125029E-01  0.13097604903E+00  0.20052250138E-01 0.  0.
         14    1    1    2    0    0  0.76319931135E-02  0.20758094583E-01 -0.63257922598E-02  0.23003509674E-01  0.00000000000E+00 0. -1.
     999901    1    3    3    0    0  0.88467035685E-01 -0.38153916721E-01  0.91266917289E-01  0.88995044129E+00  0.88000000000E+00 0. -1.
        -11    1    4    4    0    0 -0.33329563679E-01  0.12338188374E-01 -0.40579653310E-01  0.53944972807E-01  0.51100000000E-03 0. -1.
         11    1    4    4    0    0 -0.62769465120E-01  0.50576337644E-02 -0.44361471719E-01  0.77031076228E-01  0.51100000000E-03 0.  1.
</event>
<event>
 8    1  0.9952977E+004  0.1043930E+01  0.7957747E-01            NaN
         13   -1    0    0    0    0  0.00000000000E+00  0.00000000000E+00  0.74505805969E-08  0.10566000000E+00  0.10566000000E+00 0.  1.
     999900   -1    0    0    0    0 -0.00000000000E+00 -0.00000000000E+00 -0.74505805969E-08  0.93827000000E+00  0.93827000000E+00 0. -1.
     999902    2    1    2    0    0  0.28249017002E-02 -0.11321535369E-01  0.20947136878E-01  0.10199520982E+01  0.10196702128E+01 0.  0.
     999903    2    3    3    0    0  0.49701562328E-01 -0.11665154491E+00 -0.27062487248E-01  0.13113448120E+00  0.19648046151E-01 0.  0.
         14    1    1    2    0    0 -0.28249017002E-02  0.11321535369E-01 -0.20947136878E-01  0.23977901829E-01  0.00000000000E+00 0. -1.
     999901    1    3    3    0    0 -0.46876660628E-01  0.10533000954E+00  0.48009624126E-01  0.88881761697E+00  0.88000000000E+00 0.  1.
        -11    1    4    4    0    0  0.40960186724E-01 -0.75360128782E-01 -0.13705539276E-01  0.86861895180E-01  0.51100000000E-03 0.  1.
         11    1    4    4    0    0  0.87413756033E-02 -0.41291416126E-01 -0.13356947972E-01  0.44272586024E-01  0.51100000000E-03 0. -1.
</event>
<event>
 8    1  0.9952977E+004  0.1043930E+01  0.7957747E-01            NaN
         13   -1    0    0    0    0  0.00000000000E+00  0.00000000000E+00  0.74505805969E-08  0.10566000000E+00  0.10566000000E+00 0. -1.
     999900   -1    0    0    0    0 -0.00000000000E+00 -0.00000000000E+00 -0.74505805969E-08  0.93827000000E+00  0.93827000000E+00 0. -1.
     999902    2    1    2    0    0 -0.60994037342E-03  0.49335229817E-02  0.21250735396E-01  0.10221055772E+01  0.10218725486E+01 0.  0.
     999903    2    3    3    0    0  0.82494398193E-01 -0.92430472970E-01  0.43077715924E-01  0.13257620956E+00  0.19288433443E-01 0.  0.
         14    1    1    2    0    0  0.60994037342E-03 -0.49335229817E-02 -0.21250735396E-01  0.21824422813E-01  0.00000000000E+00 0.  1.
     999901    1    3    3    0    0 -0.83104338567E-01  0.97363995952E-01 -0.21826980528E-01  0.88952936763E+00  0.88000000000E+00 0. -1.
        -11    1    4    4    0    0  0.58419179308E-01 -0.71731046622E-01  0.39603792945E-01  0.10063232630E+00  0.51100000000E-03 0.  1.
         11    1    4    4    0    0  0.24075218885E-01 -0.20699426348E-01  0.34739229788E-02  0.31943883254E-01  0.51100000000E-03 0. -1.
</event>
<event>
 8    1  0.9952977E+004  0.1043930E+01  0.7957747E-01            NaN
         13   -1    0    0    0    0  0.00000000000E+00  0.00000000000E+00  0.74505805969E-08  0.10566000000E+00  0.10566000000E+00 0. -1.
     999900   -1    0    0    0    0 -0.00000000000E+00 -0.00000000000E+00 -0.74505805969E-08  0.93827000000E+00  0.93827000000E+00 0. -1.
     999902    2    1    2    0    0  0.25287618045E-01  0.52618378886E-02 -0.10803482806E-02  0.10180781583E+01  0.10177498803E+01 0.  0.
     999903    2    3    3    0    0 -0.21961016381E-02  0.15596937002E-01  0.12620812186E+00  0.12843523911E+00  0.17861503711E-01 0.  0.
         14    1    1    2    0    0 -0.25287618045E-01 -0.52618378886E-02  0.10803482806E-02  0.25851841652E-01  0.00000000000E+00 0.  1.
     999901    1    3    3    0    0  0.27483719683E-01 -0.10335099114E-01 -0.12728847014E+00  0.88964291924E+00  0.88000000000E+00 0. -1.
        -11    1    4    4    0    0 -0.70614020987E-02  0.33109789346E-02  0.79738060898E-01  0.80120193821E-01  0.51100000000E-03 0.  1.
         11    1    4    4    0    0  0.48653004606E-02  0.12285958068E-01  0.46470060964E-01  0.48315045289E-01  0.51100000000E-03 0. -1.
</event>
<event>
 8    1  0.9952977E+004  0.1043930E+01  0.7957747E-01            NaN
         13   -1    0    0    0    0  0.00000000000E+00  0.00000000000E+00  0.74505805969E-08  0.10566000000E+00  0.10566000000E+00 0.  1.
     999900   -1    0    0    0    0 -0.00000000000E+00 -0.00000000000E+00 -0.74505805969E-08  0.93827000000E+00  0.93827000000E+00 0. -1.
     999902    2    1    2    0    0 -0.16852426435E-01  0.13809353354E-02 -0.16026874951E-01  0.10206325328E+01  0.10203665983E+01 0.  0.
     999903    2    3    3    0    0 -0.84454718814E-01  0.65111374351E-01  0.73710687294E-01  0.13120323885E+00  0.20222113213E-01 0.  0.
         14    1    1    2    0    0  0.16852426435E-01 -0.13809353354E-02  0.16026874951E-01  0.23297467241E-01  0.00000000000E+00 0.  1.
     999901    1    3    3    0    0  0.67602292379E-01 -0.63730439015E-01 -0.89737562244E-01  0.88942929391E+00  0.88000000000E+00 0.  1.
        -11    1    4    4    0    0 -0.44109943367E-01  0.22699947886E-01  0.28286107756E-01  0.57108140846E-01  0.51100000000E-03 0.  1.
         11    1    4    4    0    0 -0.40344775447E-01  0.42411426464E-01  0.45424579537E-01  0.74095098001E-01  0.51100000000E-03 0. -1.
</event>
<event>
 8    1  0.9952977E+004  0.1043930E+01  0.7957747E-01            NaN
         13   -1    0    0    0    0  0.00000000000E+00  0.00000000000E+00  0.74505805969E-08  0.10566000000E+00  0.10566000000E+00 0. -1.
     999900   -1    0    0    0    0 -0.00000000000E+00 -0.00000000000E+00 -0.74505805969E-08  0.93827000000E+00  0.93827000000E+00 0.  1.
     999902    2    1    2    0    0  0.22170637704E-01  0.80329006509E-02  0.19072665626E-02  0.10202719710E+01  0.10199976434E+01 0.  0.
     999903    2    3    3    0    0  0.99194593691E-01  0.81773256455E-01  0.28465169484E-01  0.13343734604E+00  0.21652403005E-01 0.  0.
         14    1    1    2    0    0 -0.22170637704E-01 -0.80329006509E-02 -0.19072665626E-02  0.23658028972E-01  0.00000000000E+00 0.  1.
     999901    1    3    3    0    0 -0.77023955987E-01 -0.73740355804E-01 -0.26557902921E-01  0.88683462499E+00  0.88000000000E+00 0.  1.
        -11    1    4    4    0    0  0.66104231968E-01  0.43362197869E-01  0.23583001802E-01  0.82501325947E-01  0.51100000000E-03 0.  1.
         11    1    4    4    0    0  0.33090361723E-01  0.38411058586E-01  0.48821676816E-02  0.50936020093E-01  0.51100000000E-03 0. -1.
</event>
<event>
 8    1  0.9952977E+004  0.1043930E+01  0.7957747E-01            NaN
         13   -1    0    0    0    0  0.00000000000E+00  0.00000000000E+00  0.74505805969E-08  0.10566000000E+00  0.10566000000E+00 0. -1.
     999900   -1    0    0    0    0 -0.00000000000E+00 -0.00000000000E+00 -0.74505805969E-08  0.93827000000E+00  0.93827000000E+00 0. -1.
     999902    2    1    2    0    0 -0.21202533811E-01 -0.30227374414E-02  0.83183287068E-02  0.10209543831E+01  0.10206958280E+01 0.  0.
     999903    2    3    3    0    0 -0.10881936212E+00  0.47661604189E-01  0.58324170363E-01  0.13374178435E+00  0.19284033477E-01 0.  0.
         14    1    1    2    0    0  0.21202533811E-01  0.30227374414E-02 -0.83183287068E-02  0.22975616948E-01  0.00000000000E+00 0. -1.
     999901    1    3    3    0    0  0.87616828310E-01 -0.50684341630E-01 -0.50005841656E-01  0.88721259870E+00  0.88000000000E+00 0.  1.
        -11    1    4    4    0    0 -0.50205175913E-01  0.20035513121E-01  0.37060898853E-01  0.65541992793E-01  0.51100000000E-03 0.  1.
         11    1    4    4    0    0 -0.58614186209E-01  0.27626091068E-01  0.21263271509E-01  0.68199791560E-01  0.51100000000E-03 0. -1.
</event>
<event>
 8    1  0.9952977E+004  0.1043930E+01  0.7957747E-01            NaN
         13   -1    0    0    0    0  0.00000000000E+00  0.00000000000E+00  0.74505805969E-08  0.10566000000E+00  0.10566000000E+00 0. -1.
     999900   -1    0    0    0    0 -0.00000000000E+00 -0.00000000000E+00 -0.74505805969E-08  0.93827000000E+00  0.93827000000E+00 0.  1.
     999902    2    1    2    0    0 -0.18874363269E-01 -0.12983873243E-01  0.15124712459E-02  0.10209711211E+01  0.10207129469E+01 0.  0.
     999903    2    3    3    0    0  0.63437017078E-01 -0.84585589039E-01  0.74991598685E-01  0.13119522162E+00  0.20235347647E-01 0.  0.
         14    1    1    2    0    0  0.18874363269E-01  0.12983873243E-01 -0.15124712459E-02  0.22958878946E-01  0.00000000000E+00 0. -1.
     999901    1    3    3    0    0 -0.82311380348E-01  0.71601715796E-01 -0.73479127439E-01  0.88977589943E+00  0.88000000000E+00 0. -1.
        -11    1    4    4    0    0  0.27550276278E-01 -0.53428391514E-01  0.42588964730E-01  0.73672870044E-01  0.51100000000E-03 0. -1.
         11    1    4    4    0    0  0.35886740800E-01 -0.31157197524E-01  0.32402633955E-01  0.57522351578E-01  0.51100000000E-03 0.  1.
</event>
<event>
 8    1  0.9952977E+004  0.1043930E+01  0.7957747E-01            NaN
         13   -1    0    0    0    0  0.00000000000E+00  0.00000000000E+00  0.74505805969E-08  0.10566000000E+00  0.10566000000E+00 0.  1.
     999900   -1    0    0    0    0 -0.00000000000E+00 -0.00000000000E+00 -0.74505805969E-08  0.93827000000E+00  0.93827000000E+00 0.  1.
     999902    2    1    2    0    0 -0.63425533999E-02 -0.86007119804E-02 -0.23140786728E-01  0.10184408603E+01  0.10181218443E+01 0.  0.
     999903    2    3    3    0    0  0.40202236536E-01 -0.10958719035E+00  0.49789126707E-01  0.12845015333E+00  0.19872409072E-01 0.  0.
         14    1    1    2    0    0  0.63425533999E-02  0.86007119804E-02  0.23140786728E-01  0.25489139660E-01  0.00000000000E+00 0.  1.
     999901    1    3    3    0    0 -0.46544789936E-01  0.10098647837E+00 -0.72929913436E-01  0.88999070701E+00  0.88000000000E+00 0.  1.
        -11    1    4    4    0    0  0.35585759636E-01 -0.72963264619E-01  0.38487512522E-01  0.89841716445E-01  0.51100000000E-03 0.  1.
         11    1    4    4    0    0  0.46164769003E-02 -0.36623925729E-01  0.11301614186E-01  0.38608436889E-01  0.51100000000E-03 0. -1.
</event>
<event>
 8    1  0.9952977E+004  0.1043930E+01  0.7957747E-01            NaN
         13   -1    0    0    0    0  0.00000000000E+00  0.00000000000E+00  0.74505805969E-08  0.10566000000E+00  0.10566000000E+00 0. -1.
     999900   -1    0    0    0    0 -0.00000000000E+00 -0.00000000000E+00 -0.74505805969E-08  0.93827000000E+00  0.93827000000E+00 0.  1.
     999902    2    1    2    0    0  0.13515808691E-01  0.19205062448E-01  0.34277051710E-03  0.10204432165E+01  0.10201728918E+01 0.  0.
     999903    2    3    3    0    0  0.92053220110E-01 -0.80225961091E-01 -0.41344876965E-01  0.13039124419E+00  0.19557033127E-01 0.  0.
         14    1    1    2    0    0 -0.13515808691E-01 -0.19205062448E-01 -0.34277051710E-03  0.23486783514E-01  0.00000000000E+00 0.  1.
     999901    1    3    3    0    0 -0.78537411420E-01  0.99431023539E-01  0.41687647482E-01  0.89005197230E+00  0.88000000000E+00 0. -1.
        -11    1    4    4    0    0  0.67148245455E-01 -0.51019611575E-01 -0.20835520373E-01  0.86869256145E-01  0.51100000000E-03 0.  1.
         11    1    4    4    0    0  0.24904974655E-01 -0.29206349516E-01 -0.20509356593E-01  0.43521988046E-01  0.51100000000E-03 0. -1.
</event>
<event>
 8    1  0.9952977E+004  0.1043930E+01  0.7957747E-01            NaN
         13   -1    0    0    0    0  0.00000000000E+00  0.00000000000E+00  0.74505805969E-08  0.10566000000E+00  0.10566000000E+00 0. -1.
     999900   -1    0    0    0    0 -0.00000000000E+00 -0.00000000000E+00 -0.74505805969E-08  0.93827000000E+00  0.93827000000E+00 0.  1.
     999902    2    1    2    0    0  0.17198600289E-01 -0.12839125464E-01  0.61684138400E-02  0.10215987590E+01  0.10213546593E+01 0.  0.
     999903    2    3    3    0    0 -0.33514102746E-02  0.12652324738E+00 -0.18725325347E-01  0.13004737399E+00  0.23287713366E-01 0.  0.
         14    1    1    2    0    0 -0.17198600289E-01  0.12839125464E-01 -0.61684138400E-02  0.22331240984E-01  0.00000000000E+00 0. -1.
     999901    1    3    3    0    0  0.20550010564E-01 -0.13936237284E+00  0.24893739187E-01  0.89155138503E+00  0.88000000000E+00 0.  1.
        -11    1    4    4    0    0 -0.11847461375E-02  0.11068505873E+00 -0.84014945622E-02  0.11101095478E+00  0.51100000000E-03 0.  1.
         11    1    4    4    0    0 -0.21666641372E-02  0.15838188647E-01 -0.10323830785E-01  0.19036419205E-01  0.51100000000E-03 0. -1.
</event>
<event>
 8    1  0.9952977E+004  0.1043930E+01  0.7957747E-01            NaN
         13   -1    0    0    0    0  0.00000000000E+00  0.00000000000E+00  0.74505805969E-08  0.10566000000E+00  0.10566000000E+00 0.  1.
     999900   -1    0    0    0    0 -0.00000000000E+00 -0.00000000000E+00 -0.74505805969E-08  0.93827000000E+00  0.93827000000E+00 0. -1.
     999902    2    1    2    0    0 -0.97030551419E-02  0.21606932546E-01  0.58500639481E-03  0.10202371520E+01  0.10199620068E+01 0.  0.
     999903    2    3    3    0    0  0.43795448673E-02 -0.83251058566E-01  0.95988459015E-01  0.12878029008E+00  0.20509989834E-01 0.  0.
         14    1    1    2    0    0  0.97030551419E-02 -0.21606932546E-01 -0.58500639481E-03  0.23692847984E-01  0.00000000000E+00 0.  1.
     999901    1    3    3    0    0 -0.14082600009E-01  0.10485799111E+00 -0.95403452620E-01  0.89145686194E+00  0.88000000000E+00 0. -1.
        -11    1    4    4    0    0  0.11872875561E-01 -0.39268306456E-01  0.50439486850E-01  0.65018212992E-01  0.51100000000E-03 0. -1.
         11    1    4    4    0    0 -0.74933306935E-02 -0.43982752111E-01  0.45548972165E-01  0.63762077087E-01  0.51100000000E-03 0.  1.
</event>
<event>
 8    1  0.9952977E+004  0.1043930E+01  0.7957747E-01            NaN
         13   -1    0    0    0    0  0.00000000000E+00  0.00000000000E+00  0.74505805969E-08  0.10566000000E+00  0.10566000000E+00 0. -1.
     999900   -1    0    0    0    0 -0.00000000000E+00 -0.00000000000E+00 -0.74505805969E-08  0.93827000000E+00  0.93827000000E+00 0. -1.
     999902    2    1    2    0    0  0.43232956357E-02  0.23023833429E-01 -0.67047189342E-02  0.10195631979E+01  0.10192719820E+01 0.  0.
     999903    2    3    3    0    0  0.42644579175E-01  0.12314814713E+00  0.16131935140E-01  0.13276281911E+00  0.19537157717E-01 0.  0.
         14    1    1    2    0    0 -0.43232956357E-02 -0.23023833429E-01  0.67047189342E-02  0.24366802148E-01  0.00000000000E+00 0.  1.
     999901    1    3    3    0    0 -0.38321283540E-01 -0.10012431370E+00 -0.22836654074E-01  0.88680037874E+00  0.88000000000E+00 0.  1.
        -11    1    4    4    0    0  0.30907513583E-02  0.28524400738E-01  0.84596281208E-02  0.29916895066E-01  0.51100000000E-03 0.  1.
         11    1    4    4    0    0  0.39553827817E-01  0.94623746395E-01  0.76723070188E-02  0.10284592405E+00  0.51100000000E-03 0. -1.
</event>
<event>
 8    1  0.9952977E+004  0.1043930E+01  0.7957747E-01            NaN
         13   -1    0    0    0    0  0.00000000000E+00  0.00000000000E+00  0.74505805969E-08  0.10566000000E+00  0.10566000000E+00 0.  1.
     999900   -1    0    0    0    0 -0.00000000000E+00 -0.00000000000E+00 -0.74505805969E-08  0.93827000000E+00  0.93827000000E+00 0.  1.
     999902    2    1    2    0    0  0.13250212707E-01 -0.18766869367E-01 -0.19832790733E-02  0.10208714459E+01  0.10206109994E+01 0.  0.
     999903    2    3    3    0    0  0.54484840145E-01 -0.10065932686E+00 -0.66326398205E-01  0.13377127899E+00  0.19866204826E-01 0.  0.
         14    1    1    2    0    0 -0.13250212707E-01  0.18766869367E-01  0.19832790733E-02  0.23058554129E-01  0.00000000000E+00 0. -1.
     999901    1    3    3    0    0 -0.41234627438E-01  0.81892457497E-01  0.64343119131E-01  0.88710016688E+00  0.88000000000E+00 0.  1.
        -11    1    4    4    0    0  0.26551399318E-01 -0.50958321016E-01 -0.44664146699E-01  0.72779629072E-01  0.51100000000E-03 0. -1.
         11    1    4    4    0    0  0.27933440827E-01 -0.49701005849E-01 -0.21662251506E-01  0.60991649921E-01  0.51100000000E-03 0.  1.
</event>
<event>
 8    1  0.9952977E+004  0.1043930E+01  0.7957747E-01            NaN
         13   -1    0    0    0    0  0.00000000000E+00  0.00000000000E+00  0.74505805969E-08  0.10566000000E+00  0.10566000000E+00 0. -1.
     999900   -1    0    0    0    0 -0.00000000000E+00 -0.00000000000E+00 -0.74505805969E-08  0.93827000000E+00  0.93827000000E+00 0.  1.
     999902    2    1    2    0    0  0.72655935887E-02 -0.85619162445E-02  0.21191098634E-01  0.10199475497E+01  0.10196655561E+01 0.  0.
     999903    2    3    3    0    0 -0.76277422198E-01  0.33414164906E-01  0.10031658285E+00  0.13146442150E+00  0.16873819176E-01 0.  0.
         14    1    1    2    0    0 -0.72655935887E-02  0.85619162445E-02 -0.21191098634E-01  0.23982450277E-01  0.00000000000E+00 0.  1.
     999901    1    3    3    0    0  0.83543015787E-01 -0.41976081151E-01 -0.79125484214E-01  0.88848312822E+00  0.88000000000E+00 0.  1.
        -11    1    4    4    0    0 -0.27669570632E-01  0.58168192937E-02  0.42465003530E-01  0.51019390152E-01  0.51100000000E-03 0. -1.
         11    1    4    4    0    0 -0.48607851566E-01  0.27597345613E-01  0.57851579318E-01  0.80445031353E-01  0.51100000000E-03 0.  1.
</event>
<event>
 8    1  0.9952977E+004  0.1043930E+01  0.7957747E-01            NaN
         13   -1    0    0    0    0  0.00000000000E+00  0.00000000000E+00  0.74505805969E-08  0.10566000000E+00  0.10566000000E+00 0. -1.
     999900   -1    0    0    0    0 -0.00000000000E+00 -0.00000000000E+00 -0.74505805969E-08  0.93827000000E+00  0.93827000000E+00 0. -1.
     999902    2    1    2    0    0  0.66350366092E-02 -0.24574290642E-01 -0.58383800667E-02  0.10178147525E+01  0.10174796628E+01 0.  0.
     999903    2    3    3    0    0 -0.12147385174E-01 -0.63312799868E-02  0.12534228196E+00  0.12770579685E+00  0.20259289895E-01 0.  0.
         14    1    1    2    0    0 -0.66350366092E-02  0.24574290642E-01  0.58383800667E-02  0.26115247522E-01  0.00000000000E+00 0.  1.
     999901    1    3    3    0    0  0.18782421783E-01 -0.18243010655E-01 -0.13118066203E+00  0.89010895563E+00  0.88000000000E+00 0. -1.
        -11    1    4    4    0    0 -0.10261845008E-01 -0.11412262234E-01  0.53572727269E-01  0.55730094386E-01  0.51100000000E-03 0. -1.
         11    1    4    4    0    0 -0.18855401663E-02  0.50809822470E-02  0.71769554696E-01  0.71975702460E-01  0.51100000000E-03 0.  1.
</event>
<event>
 8    1  0.9952977E+004  0.1043930E+01  0.7957747E-01            NaN
         13   -1    0    0    0    0  0.00000000000E+00  0.00000000000E+00  0.74505805969E-08  0.10566000000E+00  0.10566000000E+00 0. -1.
     999900   -1    0    0    0    0 -0.00000000000E+00 -0.00000000000E+00 -0.74505805969E-08  0.93827000000E+00  0.93827000000E+00 0. -1.
     999902    2    1    2    0    0 -0.16025826352E-01 -0.85935509130E-02 -0.15382738364E-01  0.10201118375E+01  0.10198337394E+01 0.  0.
     999903    2    3    3    0    0 -0.65376383360E-01 -0.13800230418E-01 -0.11353753648E+00  0.13326520393E+00  0.20107822573E-01 0.  0.
         14    1    1    2    0    0  0.16025826352E-01  0.85935509130E-02  0.15382738364E-01  0.23818162547E-01  0.00000000000E+00 0. -1.
     999901    1    3    3    0    0  0.49350557008E-01  0.52066795047E-02  0.98154798118E-01  0.88684663352E+00  0.88000000000E+00 0.  1.
        -11    1    4    4    0    0 -0.44566438429E-01 -0.14722315350E-01 -0.92092694102E-01  0.10336459467E+00  0.51100000000E-03 0.  1.
         11    1    4    4    0    0 -0.20809944931E-01  0.92208493277E-03 -0.21444842380E-01  0.29900609264E-01  0.51100000000E-03 0. -1.
</event>
<event>
 8    1  0.9952977E+004  0.1043930E+01  0.7957747E-01            NaN
         13   -1    0    0    0    0  0.00000000000E+00  0.00000000000E+00  0.74505805969E-08  0.10566000000E+00  0.10566000000E+00 0.  1.
     999900   -1    0    0    0    0 -0.00000000000E+00 -0.00000000000E+00 -0.74505805969E-08  0.93827000000E+00  0.93827000000E+00 0.  1.
     999902    2    1    2    0    0 -0.11364395705E-01  0.33710186354E-02  0.20340791983E-01  0.10203872501E+01  0.10201156204E+01 0.  0.
     999903    2    3    3    0    0 -0.38394275465E-01  0.94854421584E-02  0.12601012729E+00  0.13363248745E+00  0.20371438853E-01 0.  0.
         14    1    1    2    0    0  0.11364395705E-01 -0.33710186354E-02 -0.20340791983E-01  0.23542749943E-01  0.00000000000E+00 0. -1.
     999901    1    3    3    0    0  0.27029879760E-01 -0.61144235231E-02 -0.10566933531E+00  0.88675476260E+00  0.88000000000E+00 0.  1.
        -11    1    4    4    0    0 -0.14486170059E-01  0.73489249351E-02  0.81052269081E-01  0.82665514363E-01  0.51100000000E-03 0. -1.
         11    1    4    4    0    0 -0.23908105405E-01  0.21365172234E-02  0.44957858213E-01  0.50966973091E-01  0.51100000000E-03 0.  1.
</event>
<event>
 7    1  0.9952977E+004  0.1043930E+01  0.7957747E-01            NaN
         13   -1    0    0    0    0  0.00000000000E+00  0.00000000000E+00  0.74505805969E-08  0.10566000000E+00  0.10566000000E+00 0. -1.
     999900   -1    0    0    0    0 -0.00000000000E+00 -0.00000000000E+00 -0.74505805969E-08  0.93827000000E+00  0.93827000000E+00 0.  1.
     999903    2    1    2    0    0  0.53257115226E-01  0.20363137264E-01 -0.54373836661E-01  0.81021224732E-01  0.18893042695E-01 0.  0.
         14    1    1    2    0    0  0.50116964888E-01  0.38335853708E-01 -0.31956884696E-01  0.70728992136E-01  0.00000000000E+00 0. -1.
     999901    1    1    2    0    0 -0.10337408011E+00 -0.58698990972E-01  0.86330721357E-01  0.89217978313E+00  0.88000000000E+00 0.  1.
        -11    1    3    3    0    0  0.35718098657E-01  0.12206846109E-01 -0.23134418588E-01  0.44274734420E-01  0.51100000000E-03 0. -1.
         11    1    3    3    0    0  0.17539016570E-01  0.81562911545E-02 -0.31239418073E-01  0.36746490311E-01  0.51100000000E-03 0.  1.
</event>
<event>
 7    1  0.1353589E+005  0.1043930E+01  0.7957747E-01            NaN
         13   -1    0    0    0    0  0.00000000000E+00  0.00000000000E+00  0.74505805969E-08  0.10566000000E+00  0.10566000000E+00 0.  1.
     999900   -1    0    0    0    0 -0.00000000000E+00 -0.00000000000E+00 -0.74505805969E-08  0.93827000000E+00  0.93827000000E+00 0.  1.
     999903    2    1    2    0    0 -0.26458566875E-01  0.13655281908E-01  0.68926014095E-01  0.77654638708E-01  0.19822336109E-01 0.  0.
         14    1    1    2    0    0  0.59742265954E-01  0.26528328943E-01  0.42121354912E-01  0.77763096116E-01  0.00000000000E+00 0.  1.
     999901    1    1    2    0    0 -0.33283699080E-01 -0.40183610851E-01 -0.11104736901E+00  0.88851226518E+00  0.88000000000E+00 0. -1.
        -11    1    3    3    0    0 -0.11204647997E-01  0.15230561321E-01  0.48868226879E-01  0.52401134093E-01  0.51100000000E-03 0. -1.
         11    1    3    3    0    0 -0.15253918878E-01 -0.15752794130E-02  0.20057787215E-01  0.25253504615E-01  0.51100000000E-03 0.  1.
</event>
<event>
 8    1  0.9952977E+004  0.1043930E+01  0.7957747E-01            NaN
         13   -1    0    0    0    0  0.00000000000E+00  0.00000000000E+00  0.74505805969E-08  0.10566000000E+00  0.10566000000E+00 0.  1.
     999900   -1    0    0    0    0 -0.00000000000E+00 -0.00000000000E+00 -0.74505805969E-08  0.93827000000E+00  0.93827000000E+00 0.  1.
     999902    2    1    2    0    0 -0.13092552975E-01  0.20412501147E-01  0.25186448612E-02  0.10195490911E+01  0.10192575339E+01 0.  0.
     999903    2    3    3    0    0 -0.60548837652E-01  0.40792306184E-01  0.10786177771E+00  0.13176273671E+00  0.19926909182E-01 0.  0.
         14    1    1    2    0    0  0.13092552975E-01 -0.20412501147E-01 -0.25186448612E-02  0.24380908893E-01  0.00000000000E+00 0. -1.
     999901    1    3    3    0    0  0.47456284677E-01 -0.20379805036E-01 -0.10534313285E+00  0.88778635439E+00  0.88000000000E+00 0.  1.
        -11    1    4    4    0    0 -0.33464101190E-01  0.29914045304E-01  0.78055407215E-01  0.90042233932E-01  0.51100000000E-03 0. -1.
         11    1    4    4    0    0 -0.27084736462E-01  0.10878260880E-01  0.29806370500E-01  0.41720502781E-01  0.51100000000E-03 0.  1.
</event>
<event>
 8    1  0.9952977E+004  0.1043930E+01  0.7957747E-01            NaN
         13   -1    0    0    0    0  0.00000000000E+00  0.00000000000E+00  0.74505805969E-08  0.10566000000E+00  0.10566000000E+00 0.  1.
     999900   -1    0    0    0    0 -0.00000000000E+00 -0.00000000000E+00 -0.74505805969E-08  0.93827000000E+00  0.93827000000E+00 0.  1.
     999902    2    1    2    0    0 -0.23476199623E-01 -0.33643706000E-02 -0.10263968642E-02  0.10201917518E+01  0.10199155386E+01 0.  0.
     999903    2    3    3    0    0 -0.81584148942E-01 -0.17992259518E-01 -0.10056921534E+00  0.13255484311E+00  0.21838603366E-01 0.  0.
         14    1    1    2    0    0  0.23476199623E-01  0.33643706000E-02  0.10263968642E-02  0.23738248225E-01  0.00000000000E+00 0. -1.
     999901    1    3    3    0    0  0.58107949319E-01  0.14627888918E-01  0.99542818478E-01  0.88763690866E+00  0.88000000000E+00 0. -1.
        -11    1    4    4    0    0 -0.33082452687E-01 -0.11804785353E-01 -0.27402092758E-01  0.44552636751E-01  0.51100000000E-03 0.  1.
         11    1    4    4    0    0 -0.48501696255E-01 -0.61874741651E-02 -0.73167122585E-01  0.88002206362E-01  0.51100000000E-03 0. -1.
</event>
<event>
 8    1  0.9952977E+004  0.1043930E+01  0.7957747E-01            NaN
         13   -1    0    0    0    0  0.00000000000E+00  0.00000000000E+00  0.74505805969E-08  0.10566000000E+00  0.10566000000E+00 0.  1.
     999900   -1    0    0    0    0 -0.00000000000E+00 -0.00000000000E+00 -0.74505805969E-08  0.93827000000E+00  0.93827000000E+00 0. -1.
     999902    2    1    2    0    0  0.24488609392E-01 -0.48981174811E-03  0.23987807106E-02  0.10193193102E+01  0.10190221636E+01 0.  0.
     999903    2    3    3    0    0 -0.31555087719E-01 -0.81101077793E-01  0.93366600421E-01  0.12919897199E+00  0.20048538825E-01 0.  0.
         14    1    1    2    0    0 -0.24488609392E-01  0.48981174811E-03 -0.23987807106E-02  0.24610689840E-01  0.00000000000E+00 0. -1.
     999901    1    3    3    0    0  0.56043697111E-01  0.80611266045E-01 -0.90967819711E-01  0.89012033817E+00  0.88000000000E+00 0.  1.
        -11    1    4    4    0    0 -0.14084777585E-01 -0.61253822963E-01  0.66186950673E-01  0.91276422737E-01  0.51100000000E-03 0.  1.
         11    1    4    4    0    0 -0.17470310134E-01 -0.19847254830E-01  0.27179649748E-01  0.37922549254E-01  0.51100000000E-03 0. -1.
</event>
<event>
 7    1  0.9952977E+004  0.1043930E+01  0.7957747E-01            NaN
         13   -1    0    0    0    0  0.00000000000E+00  0.00000000000E+00  0.74505805969E-08  0.10566000000E+00  0.10566000000E+00 0. -1.
     999900   -1    0    0    0    0 -0.00000000000E+00 -0.00000000000E+00 -0.74505805969E-08  0.93827000000E+00  0.93827000000E+00 0. -1.
     999903    2    1    2    0    0 -0.25304920246E-01  0.55847043027E-01 -0.89826450753E-01  0.11058073401E+00  0.20001906820E-01 0.  0.
         14    1    1    2    0    0  0.35465807488E-01  0.25057469342E-01 -0.80902718376E-02  0.44171854941E-01  0.00000000000E+00 0.  1.
     999901    1    1    2    0    0 -0.10160887241E-01 -0.80904512369E-01  0.97916722590E-01  0.88917741105E+00  0.88000000000E+00 0.  1.
        -11    1    3    3    0    0 -0.25459950331E-01  0.33216072948E-01 -0.57976500091E-01  0.71505609967E-01  0.51100000000E-03 0. -1.
         11    1    3    3    0    0  0.15503008460E-03  0.22630970079E-01 -0.31849950662E-01  0.39075124046E-01  0.51100000000E-03 0.  1.
</event>
<event>
 8    1  0.9952977E+004  0.1043930E+01  0.7957747E-01            NaN
         13   -1    0    0    0    0  0.00000000000E+00  0.00000000000E+00  0.74505805969E-08  0.10566000000E+00  0.10566000000E+00 0.  1.
     999900   -1    0    0    0    0 -0.00000000000E+00 -0.00000000000E+00 -0.74505805969E-08  0.93827000000E+00  0.93827000000E+00 0. -1.
     999902    2    1    2    0    0 -0.31115737145E-02  0.19995213953E-01 -0.13194438721E-01  0.10197725232E+01  0.10194863488E+01 0.  0.
     999903    2    3    3    0    0 -0.93601641165E-01  0.34948452887E-01  0.80838291223E-01  0.13002300454E+00  0.19710169802E-01 0.  0.
         14    1    1    2    0    0  0.31115737145E-02 -0.19995213953E-01  0.13194438721E-01  0.24157476796E-01  0.00000000000E+00 0.  1.
     999901    1    3    3    0    0  0.90490067451E-01 -0.14953238934E-01 -0.94032729944E-01  0.88974951866E+00  0.88000000000E+00 0. -1.
        -11    1    4    4    0    0 -0.86591589129E-01  0.33064995250E-01  0.80451825744E-01  0.12273611777E+00  0.51100000000E-03 0.  1.
         11    1    4    4    0    0 -0.70100520368E-02  0.18834576374E-02  0.38646547908E-03  0.72868867698E-02  0.51100000000E-03 0. -1.
</event>
<event>
 8    1  0.9952977E+004  0.1043930E+01  0.7957747E-01            NaN
         13   -1    0    0    0    0  0.00000000000E+00  0.00000000000E+00  0.74505805969E-08  0.10566000000E+00  0.10566000000E+00 0. -1.
     999900   -1    0    0    0    0 -0.00000000000E+00 -0.00000000000E+00 -0.74505805969E-08  0.93827000000E+00  0.93827000000E+00 0.  1.
     999902    2    1    2    0    0  0.10277789861E-01 -0.94626420155E-02 -0.21365739604E-01  0.10184021841E+01  0.10180821868E+01 0.  0.
     999903    2    3    3    0    0 -0.11767328587E+00 -0.40950249699E-01  0.19077486806E-01  0.12767293126E+00  0.20310138216E-01 0.  0.
         14    1    1    2    0    0 -0.10277789861E-01  0.94626420155E-02  0.21365739604E-01  0.25527815949E-01  0.00000000000E+00 0. -1.
     999901    1    3    3    0    0  0.12795107573E+00  0.31487607684E-01 -0.40443226410E-01  0.89072925279E+00  0.88000000000E+00 0.  1.
        -11    1    4    4    0    0 -0.37842055491E-01 -0.49110424213E-02  0.66818171337E-03  0.38168666328E-01  0.51100000000E-03 0. -1.
         11    1    4    4    0    0 -0.79831230382E-01 -0.36039207278E-01  0.18409305093E-01  0.89504264929E-01  0.51100000000E-03 0.  1.
</event>
<event>
 8    1  0.9952977E+004  0.1043930E+01  0.7957747E-01            NaN
         13   -1    0    0    0    0  0.00000000000E+00  0.00000000000E+00  0.74505805969E-08  0.10566000000E+00  0.10566000000E+00 0.  1.
     999900   -1    0    0    0    0 -0.00000000000E+00 -0.00000000000E+00 -0.74505805969E-08  0.93827000000E+00  0.93827000000E+00 0. -1.
     999902    2    1    2    0    0 -0.42033514179E-02  0.14014724179E-01 -0.17367629221E-01  0.10212206363E+01  0.10209681056E+01 0.  0.
     999903    2    3    3    0    0  0.78398734071E-02  0.86689002529E-01 -0.10018803838E+00  0.13426753142E+00  0.20339129441E-01 0.  0.
         14    1    1    2    0    0  0.42033514179E-02 -0.14014724179E-01  0.17367629221E-01  0.22709363745E-01  0.00000000000E+00 0. -1.
     999901    1    3    3    0    0 -0.12043224825E-01 -0.72674278351E-01  0.82820409154E-01  0.88695310483E+00  0.88000000000E+00 0.  1.
        -11    1    4    4    0    0 -0.52424369987E-02  0.49975578210E-01 -0.52454147087E-01  0.72641174487E-01  0.51100000000E-03 0. -1.
         11    1    4    4    0    0  0.13082310406E-01  0.36713424319E-01 -0.47733891288E-01  0.61626356936E-01  0.51100000000E-03 0.  1.
</event>
<event>
 8    1  0.9952977E+004  0.1043930E+01  0.7957747E-01            NaN
         13   -1    0    0    0    0  0.00000000000E+00  0.00000000000E+00  0.74505805969E-08  0.10566000000E+00  0.10566000000E+00 0.  1.
     999900   -1    0    0    0    0 -0.00000000000E+00 -0.00000000000E+00 -0.74505805969E-08  0.93827000000E+00  0.93827000000E+00 0.  1.
     999902    2    1    2    0    0  0.71873604691E-02  0.19224217195E-02 -0.22119175109E-01  0.10205930815E+01  0.10203262352E+01 0.  0.
     999903    2    3    3    0    0 -0.88990262836E-01  0.86227337974E-01  0.32741829423E-01  0.12965695367E+00  0.19608098994E-01 0.  0.
         14    1    1    2    0    0 -0.71873604691E-02 -0.19224217195E-02  0.22119175109E-01  0.23336918462E-01  0.00000000000E+00 0.  1.
     999901    1    3    3    0    0  0.96177623305E-01 -0.84304916255E-01 -0.54861004533E-01  0.89093612787E+00  0.88000000000E+00 0. -1.
        -11    1    4    4    0    0 -0.67341684186E-01  0.75809214900E-01  0.27446633456E-01  0.10505007521E+00  0.51100000000E-03 0.  1.
         11    1    4    4    0    0 -0.21648578651E-01  0.10418123075E-01  0.52951959668E-02  0.24606878455E-01  0.51100000000E-03 0. -1.
</event>
<event>
 8    1  0.9952977E+004  0.1043930E+01  0.7957747E-01            NaN
         13   -1    0    0    0    0  0.00000000000E+00  0.00000000000E+00  0.74505805969E-08  0.10566000000E+00  0.10566000000E+00 0. -1.
     999900   -1    0    0    0    0 -0.00000000000E+00 -0.00000000000E+00 -0.74505805969E-08  0.93827000000E+00  0.93827000000E+00 0. -1.
     999902    2    1    2    0    0  0.49608291748E-02 -0.34086136690E-03 -0.23110667019E-01  0.10202904369E+01  0.10200165424E+01 0.  0.
     999903    2    3    3    0    0 -0.39940965221E-01  0.26987310260E-01 -0.12251159176E+00  0.13313569058E+00  0.19809754500E-01 0.  0.
         14    1    1    2    0    0 -0.49608291748E-02  0.34086136690E-03  0.23110667019E-01  0.23639563081E-01  0.00000000000E+00 0. -1.
     999901    1    3    3    0    0  0.44901794396E-01 -0.27328171626E-01  0.99400924743E-01  0.88715474633E+00  0.88000000000E+00 0.  1.
        -11    1    4    4    0    0 -0.30819119403E-01  0.14396899442E-01 -0.10109608475E+00  0.10666662227E+00  0.51100000000E-03 0.  1.
         11    1    4    4    0    0 -0.91218458178E-02  0.12590410818E-01 -0.21415507014E-01  0.26469068313E-01  0.51100000000E-03 0. -1.
</event>
<event>
 8    1  0.9952977E+004  0.1043930E+01  0.7957747E-01            NaN
         13   -1    0    0    0    0  0.00000000000E+00  0.00000000000E+00  0.74505805969E-08  0.10566000000E+00  0.10566000000E+00 0.  1.
     999900   -1    0    0    0    0 -0.00000000000E+00 -0.00000000000E+00 -0.74505805969E-08  0.93827000000E+00  0.93827000000E+00 0. -1.
     999902    2    1    2    0    0  0.20156969842E-02 -0.13856203166E-01 -0.18935978749E-01  0.10203794439E+01  0.10201076320E+01 0.  0.
     999903    2    3    3    0    0 -0.10714116170E+00 -0.35634393568E-01 -0.65709722573E-01  0.13213550643E+00  0.19823871575E-01 0.  0.
         14    1    1    2    0    0 -0.20156969842E-02  0.13856203166E-01  0.18935978749E-01  0.23550556080E-01  0.00000000000E+00 0.  1.
     999901    1    3    3    0    0  0.10915685868E+00  0.21778190402E-01  0.46773743823E-01  0.88824393749E+00  0.88000000000E+00 0.  1.
        -11    1    4    4    0    0 -0.49452422023E-01 -0.77377435685E-02 -0.34971381368E-01  0.61062863962E-01  0.51100000000E-03 0.  1.
         11    1    4    4    0    0 -0.57688739674E-01 -0.27896649999E-01 -0.30738341205E-01  0.71072642468E-01  0.51100000000E-03 0. -1.
</event>
<event>
 8    1  0.9952977E+004  0.1043930E+01  0.7957747E-01            NaN
         13   -1    0    0    0    0  0.00000000000E+00  0.00000000000E+00  0.74505805969E-08  0.10566000000E+00  0.10566000000E+00 0. -1.
     999900   -1    0    0    0    0 -0.00000000000E+00 -0.00000000000E+00 -0.74505805969E-08  0.93827000000E+00  0.93827000000E+00 0.  1.
     999902    2    1    2    0    0 -0.20525708638E-01  0.38064623806E-02 -0.84787823828E-02  0.10213981643E+01  0.10211496102E+01 0.  0.
     999903    2    3    3    0    0  0.10217742472E+00 -0.79664807339E-02 -0.77780810824E-01  0.13010840651E+00  0.19355928692E-01 0.  0.
         14    1    1    2    0    0  0.20525708638E-01 -0.38064623806E-02  0.84787823828E-02  0.22531835736E-01  0.00000000000E+00 0. -1.
     999901    1    3    3    0    0 -0.12270313336E+00  0.11772943115E-01  0.69302028441E-01  0.89128975775E+00  0.88000000000E+00 0. -1.
        -11    1    4    4    0    0  0.64946208523E-01 -0.14187339299E-01 -0.51866288037E-01  0.84318820874E-01  0.51100000000E-03 0.  1.
         11    1    4    4    0    0  0.37231216195E-01  0.62208585655E-02 -0.25914522788E-01  0.45789585639E-01  0.51100000000E-03 0. -1.
</event>
<event>
 8    1  0.9952977E+004  0.1043930E+01  0.7957747E-01            NaN
         13   -1    0    0    0    0  0.00000000000E+00  0.00000000000E+00  0.74505805969E-08  0.10566000000E+00  0.10566000000E+00 0. -1.
     999900   -1    0    0    0    0 -0.00000000000E+00 -0.00000000000E+00 -0.74505805969E-08  0.93827000000E+00  0.93827000000E+00 0. -1.
     999902    2    1    2    0    0  0.20273192837E-01 -0.14104310804E-01 -0.33112761818E-02  0.10190121654E+01  0.10187074628E+01 0.  0.
     999903    2    3    3    0    0 -0.71460590295E-01  0.96792002232E-01  0.34120472329E-01  0.12653571473E+00  0.19281410953E-01 0.  0.
         14    1    1    2    0    0 -0.20273192837E-01  0.14104310804E-01  0.33112761818E-02  0.24917834598E-01  0.00000000000E+00 0. -1.
     999901    1    3    3    0    0  0.91733783132E-01 -0.11089631304E+00 -0.37431748510E-01  0.89247645067E+00  0.88000000000E+00 0. -1.
        -11    1    4    4    0    0 -0.23031227552E-01  0.47246064549E-01  0.14681540051E-01  0.54575056548E-01  0.51100000000E-03 0. -1.
         11    1    4    4    0    0 -0.48429362743E-01  0.49545937682E-01  0.19438932278E-01  0.71960658179E-01  0.51100000000E-03 0.  1.
</event>
<event>
 8    1  0.9952977E+004  0.1043930E+01  0.7957747E-01            NaN
         13   -1    0    0    0    0  0.00000000000E+00  0.00000000000E+00  0.74505805969E-08  0.10566000000E+00  0.10566000000E+00 0. -1.
     999900   -1    0    0    0    0 -0.00000000000E+00 -0.00000000000E+00 -0.74505805969E-08  0.93827000000E+00  0.93827000000E+00 0.  1.
     999902    2    1    2    0    0  0.22335262310E-01  0.50522380219E-02 -0.30363675218E-02  0.10208300308E+01  0.10205686371E+01 0.  0.
     999903    2    3    3    0    0 -0.47624293335E-01  0.11607261334E+00 -0.31598828585E-01  0.13064146795E+00  0.18104758974E-01 0.  0.
         14    1    1    2    0    0 -0.22335262310E-01 -0.50522380219E-02  0.30363675218E-02  0.23099969247E-01  0.00000000000E+00 0.  1.
     999901    1    3    3    0    0  0.69959555645E-01 -0.11102037532E+00  0.28562461063E-01  0.89018856280E+00  0.88000000000E+00 0.  1.
        -11    1    4    4    0    0 -0.15697727687E-01  0.53068704691E-01 -0.21111104943E-01  0.59233824333E-01  0.51100000000E-03 0. -1.
         11    1    4    4    0    0 -0.31926565648E-01  0.63003908647E-01 -0.10487723642E-01  0.71407643618E-01  0.51100000000E-03 0.  1.
</event>
<event>
 8    1  0.9952977E+004  0.1043930E+01  0.7957747E-01            NaN
         13   -1    0    0    0    0  0.00000000000E+00  0.00000000000E+00  0.74505805969E-08  0.10566000000E+00  0.10566000000E+00 0.  1.
     999900   -1    0    0    0    0 -0.00000000000E+00 -0.00000000000E+00 -0.74505805969E-08  0.93827000000E+00  0.93827000000E+00 0. -1.
     999902    2    1    2    0    0  0.82140729753E-02 -0.17503892379E-01  0.15454347593E-01  0.10191773415E+01  0.10188767145E+01 0.  0.
     999903    2    3    3    0    0 -0.93726199173E-01 -0.85352308801E-01  0.24933732238E-01  0.13064760906E+00  0.19429094700E-01 0.  0.
         14    1    1    2    0    0 -0.82140729753E-02  0.17503892379E-01 -0.15454347593E-01  0.24752658499E-01  0.00000000000E+00 0. -1.
     999901    1    3    3    0    0  0.10194027215E+00  0.67848416423E-01 -0.94793846444E-02  0.88852973244E+00  0.88000000000E+00 0.  1.
        -11    1    4    4    0    0 -0.46647757472E-01 -0.51173804835E-01  0.61837548336E-02  0.69521734179E-01  0.51100000000E-03 0.  1.
         11    1    4    4    0    0 -0.47078441701E-01 -0.34178503967E-01  0.18749977404E-01  0.61125874882E-01  0.51100000000E-03 0. -1.
</event>
<event>
 8    1  0.9952977E+004  0.1043930E+01  0.7957747E-01            NaN
         13   -1    0    0    0    0  0.00000000000E+00  0.00000000000E+00  0.74505805969E-08  0.10566000000E+00  0.10566000000E+00 0. -1.
     999900   -1    0    0    0    0 -0.00000000000E+00 -0.00000000000E+00 -0.74505805969E-08  0.93827000000E+00  0.93827000000E+00 0. -1.
     999902    2    1    2    0    0 -0.82461674364E-02 -0.99590803102E-02 -0.15698090459E-01  0.10235925321E+01  0.10233904724E+01 0.  0.
     999903    2    3    3    0    0 -0.24609240142E-01 -0.10326729985E+00 -0.82904826546E-01  0.13596033382E+00  0.18500059177E-01 0.  0.
         14    1    1    2    0    0  0.82461674364E-02  0.99590803102E-02  0.15698090459E-01  0.20337467937E-01  0.00000000000E+00 0. -1.
     999901    1    3    3    0    0  0.16363072705E-01  0.93308219539E-01  0.67206736087E-01  0.88763219824E+00  0.88000000000E+00 0.  1.
        -11    1    4    4    0    0 -0.12311287650E-01 -0.70344379810E-01 -0.45741518311E-01  0.84808296722E-01  0.51100000000E-03 0.  1.
         11    1    4    4    0    0 -0.12297952492E-01 -0.32922920039E-01 -0.37163308235E-01  0.51152037099E-01  0.51100000000E-03 0. -1.
</event>
<event>
 8    1  0.9952977E+004  0.1043930E+01  0.7957747E-01            NaN
         13   -1    0    0    0    0  0.00000000000E+00  0.00000000000E+00  0.74505805969E-08  0.10566000000E+00  0.10566000000E+00 0. -1.
     999900   -1    0    0    0    0 -0.00000000000E+00 -0.00000000000E+00 -0.74505805969E-08  0.93827000000E+00  0.93827000000E+00 0.  1.
     999902    2    1    2    0    0 -0.20039491568E-01 -0.13881555057E-01  0.16177822099E-01  0.10146725100E+01  0.10142506110E+01 0.  0.
     999903    2    3    3    0    0  0.76815223107E-01 -0.42518722993E-01  0.88147933816E-01  0.12597648766E+00  0.19788807492E-01 0.  0.
         14    1    1    2    0    0  0.20039491568E-01  0.13881555057E-01 -0.16177822099E-01  0.29257489998E-01  0.00000000000E+00 0.  1.
     999901    1    3    3    0    0 -0.96854714674E-01  0.28637167935E-01 -0.71970111717E-01  0.88869602234E+00  0.88000000000E+00 0.  1.
        -11    1    4    4    0    0  0.62820188287E-01 -0.42668240655E-01  0.72822974131E-01  0.10521597550E+00  0.51100000000E-03 0.  1.
         11    1    4    4    0    0  0.13995034819E-01  0.14951766232E-03  0.15324959684E-01  0.20760512167E-01  0.51100000000E-03 0. -1.
</event>
<event>
 8    1  0.9952977E+004  0.1043930E+01  0.7957747E-01            NaN
         13   -1    0    0    0    0  0.00000000000E+00  0.00000000000E+00  0.74505805969E-08  0.10566000000E+00  0.10566000000E+00 0. -1.
     999900   -1    0    0    0    0 -0.00000000000E+00 -0.00000000000E+00 -0.74505805969E-08  0.93827000000E+00  0.93827000000E+00 0.  1.
     999902    2    1    2    0    0 -0.13588762249E-01  0.11013526897E-01 -0.15422919865E-01  0.10206100795E+01  0.10203436263E+01 0.  0.
     999903    2    3    3    0    0 -0.76322853865E-01  0.15615230666E-01  0.10276208481E+00  0.13048400010E+00  0.19925229161E-01 0.  0.
         14    1    1    2    0    0  0.13588762249E-01 -0.11013526897E-01  0.15422919865E-01  0.23319920484E-01  0.00000000000E+00 0.  1.
     999901    1    3    3    0    0  0.62734091616E-01 -0.46017037690E-02 -0.11818500467E+00  0.89012607942E+00  0.88000000000E+00 0. -1.
        -11    1    4    4    0    0 -0.68940786668E-01  0.15435748578E-01  0.80918993465E-01  0.10742085005E+00  0.51100000000E-03 0.  1.
         11    1    4    4    0    0 -0.73820671976E-02  0.17948208796E-03  0.21843091343E-01  0.23063150052E-01  0.51100000000E-03 0. -1.
</event>
<event>
 7    1  0.9952977E+004  0.1043930E+01  0.7957747E-01            NaN
         13   -1    0    0    0    0  0.00000000000E+00  0.00000000000E+00  0.74505805969E-08  0.10566000000E+00  0.10566000000E+00 0. -1.
     999900   -1    0    0    0    0 -0.00000000000E+00 -0.00000000000E+00 -0.74505805969E-08  0.93827000000E+00  0.93827000000E+00 0. -1.
     999902    2    1    2    0    0 -0.14165885175E-01 -0.17779606384E-01  0.72766283828E-02  0.10200608562E+01  0.10197815522E+01 0.  0.
         14    1    1    2    0    0  0.14165885175E-01  0.17779606384E-01 -0.72766283828E-02  0.23869143818E-01  0.00000000000E+00 0.  1.
     999901    1    3    3    0    0 -0.29788121396E-01 -0.58780134168E-02  0.12385754864E+00  0.88919209149E+00  0.88000000000E+00 0.  1.
        -11    1    3    3    0    0  0.36620466626E-01 -0.86697485133E-02 -0.82905126752E-01  0.91048032807E-01  0.51100000000E-03 0.  1.
         11    1    3    3    0    0 -0.20998230405E-01 -0.32318444538E-02 -0.33675793502E-01  0.39820731883E-01  0.51100000000E-03 0. -1.
</event>
<event>
 8    1  0.9952977E+004  0.1043930E+01  0.7957747E-01            NaN
         13   -1    0    0    0    0  0.00000000000E+00  0.00000000000E+00  0.74505805969E-08  0.10566000000E+00  0.10566000000E+00 0.  1.
     999900   -1    0    0    0    0 -0.00000000000E+00 -0.00000000000E+00 -0.74505805969E-08  0.93827000000E+00  0.93827000000E+00 0.  1.
     999902    2    1    2    0    0 -0.93927062913E-03  0.15688898404E-01  0.15657153580E-01  0.10217450902E+01  0.10215042140E+01 0.  0.
     999903    2    3    3    0    0  0.20539196680E-01 -0.40089171367E-01 -0.11968054283E+00  0.12939492933E+00  0.19763985998E-01 0.  0.
         14    1    1    2    0    0  0.93927062913E-03 -0.15688898404E-01 -0.15657153580E-01  0.22184909751E-01  0.00000000000E+00 0. -1.
     999901    1    3    3    0    0 -0.21478467309E-01  0.55778069771E-01  0.13533769641E+00  0.89235016092E+00  0.88000000000E+00 0. -1.
        -11    1    4    4    0    0  0.10812491464E-01 -0.13521444001E-01 -0.71051397494E-01  0.73132083427E-01  0.51100000000E-03 0.  1.
         11    1    4    4    0    0  0.97267052156E-02 -0.26567727366E-01 -0.48629145336E-01  0.56262845901E-01  0.51100000000E-03 0. -1.
</event>
<event>
 8    1  0.9952977E+004  0.1043930E+01  0.7957747E-01            NaN
         13   -1    0    0    0    0  0.00000000000E+00  0.00000000000E+00  0.74505805969E-08  0.10566000000E+00  0.10566000000E+00 0.  1.
     999900   -1    0    0    0    0 -0.00000000000E+00 -0.00000000000E+00 -0.74505805969E-08  0.93827000000E+00  0.93827000000E+00 0. -1.
     999902    2    1    2    0    0  0.28942734723E-02  0.96009491855E-02  0.19180066058E-01  0.10222867568E+01  0.10220576222E+01 0.  0.
     999903    2    3    3    0    0 -0.43428499865E-01  0.11755549553E+00  0.43311094899E-01  0.13415259462E+00  0.20389668233E-01 0.  0.
         14    1    1    2    0    0 -0.28942734723E-02 -0.96009491855E-02 -0.19180066058E-01  0.21643243245E-01  0.00000000000E+00 0. -1.
     999901    1    3    3    0    0  0.46322773338E-01 -0.10795454635E+00 -0.24131028842E-01  0.88813416214E+00  0.88000000000E+00 0.  1.
        -11    1    4    4    0    0 -0.34647833378E-01  0.84556572752E-01  0.22325072730E-01  0.94068891493E-01  0.51100000000E-03 0.  1.
         11    1    4    4    0    0 -0.87806664876E-02  0.32998922779E-01  0.20986022169E-01  0.40083703122E-01  0.51100000000E-03 0. -1.
</event>
<event>
 8    1  0.9952977E+004  0.1043930E+01  0.7957747E-01            NaN
         13   -1    0    0    0    0  0.00000000000E+00  0.00000000000E+00  0.74505805969E-08  0.10566000000E+00  0.10566000000E+00 0. -1.
     999900   -1    0    0    0    0 -0.00000000000E+00 -0.00000000000E+00 -0.74505805969E-08  0.93827000000E+00  0.93827000000E+00 0. -1.
     999902    2    1    2    0    0  0.20587398329E-01  0.11408320916E-01  0.30786280159E-02  0.10201925042E+01  0.10199163088E+01 0.  0.
     999903    2    3    3    0    0  0.92981348589E-01  0.57294763751E-01  0.73509018993E-01  0.13322751637E+00  0.20439523152E-01 0.  0.
         14    1    1    2    0    0 -0.20587398329E-01 -0.11408320916E-01 -0.30786280159E-02  0.23737495794E-01  0.00000000000E+00 0.  1.
     999901    1    3    3    0    0 -0.72393950260E-01 -0.45886442835E-01 -0.70430390977E-01  0.88696498783E+00  0.88000000000E+00 0. -1.
        -11    1    4    4    0    0  0.28091343333E-01  0.14665018296E-01  0.32603854233E-01  0.45469316728E-01  0.51100000000E-03 0. -1.
         11    1    4    4    0    0  0.64890005257E-01  0.42629745455E-01  0.40905164759E-01  0.87758199645E-01  0.51100000000E-03 0.  1.
</event>
<event>
 8    1  0.9952977E+004  0.1043930E+01  0.7957747E-01            NaN
         13   -1    0    0    0    0  0.00000000000E+00  0.00000000000E+00  0.74505805969E-08  0.10566000000E+00  0.10566000000E+00 0. -1.
     999900   -1    0    0    0    0 -0.00000000000E+00 -0.00000000000E+00 -0.74505805969E-08  0.93827000000E+00  0.93827000000E+00 0. -1.
     999902    2    1    2    0    0  0.13532505810E-01  0.18093612196E-01 -0.83938361560E-02  0.10198268052E+01  0.10195419307E+01 0.  0.
     999903    2    3    3    0    0  0.76560605144E-01  0.10123765270E-01  0.10335306039E+00  0.13048804594E+00  0.19525833101E-01 0.  0.
         14    1    1    2    0    0 -0.13532505810E-01 -0.18093612196E-01  0.83938361560E-02  0.24103194834E-01  0.00000000000E+00 0. -1.
     999901    1    3    3    0    0 -0.63028099335E-01  0.79698469252E-02 -0.11174689655E+00  0.88933875922E+00  0.88000000000E+00 0. -1.
        -11    1    4    4    0    0  0.42906477843E-01  0.11487230179E-01  0.71200783561E-01  0.83921004514E-01  0.51100000000E-03 0. -1.
         11    1    4    4    0    0  0.33654127302E-01 -0.13634649083E-02  0.32152276833E-01  0.46567041430E-01  0.51100000000E-03 0.  1.
</event>
<event>
 8    1  0.9952977E+004  0.1043930E+01  0.7957747E-01            NaN
         13   -1    0    0    0    0  0.00000000000E+00  0.00000000000E+00  0.74505805969E-08  0.10566000000E+00  0.10566000000E+00 0. -1.
     999900   -1    0    0    0    0 -0.00000000000E+00 -0.00000000000E+00 -0.74505805969E-08  0.93827000000E+00  0.93827000000E+00 0.  1.
     999902    2    1    2    0    0 -0.12893357563E-01 -0.19326787049E-02  0.20924420487E-01  0.10192762926E+01  0.10189780937E+01 0.  0.
     999903    2    3    3    0    0  0.79983611346E-01 -0.15466637360E-01 -0.94930982475E-01  0.12673398335E+00  0.20322798706E-01 0.  0.
         14    1    1    2    0    0  0.12893357563E-01  0.19326787049E-02 -0.20924420487E-01  0.24653707408E-01  0.00000000000E+00 0.  1.
     999901    1    3    3    0    0 -0.92876968908E-01  0.13533958655E-01  0.11585540296E+00  0.89254230924E+00  0.88000000000E+00 0. -1.
        -11    1    4    4    0    0  0.24116283134E-01 -0.43810371475E-02 -0.43787295428E-01  0.50183433128E-01  0.51100000000E-03 0. -1.
         11    1    4    4    0    0  0.55867328212E-01 -0.11085600212E-01 -0.51143687047E-01  0.76550550223E-01  0.51100000000E-03 0.  1.
</event>
<event>
 8    1  0.9952977E+004  0.1043930E+01  0.7957747E-01            NaN
         13   -1    0    0    0    0  0.00000000000E+00  0.00000000000E+00  0.74505805969E-08  0.10566000000E+00  0.10566000000E+00 0. -1.
     999900   -1    0    0    0    0 -0.00000000000E+00 -0.00000000000E+00 -0.74505805969E-08  0.93827000000E+00  0.93827000000E+00 0. -1.
     999902    2    1    2    0    0  0.13450313780E-01 -0.29182444138E-02 -0.21601662475E-01  0.10183163530E+01  0.10179941728E+01 0.  0.
     999903    2    3    3    0    0 -0.40307039574E-01  0.60590257906E-01 -0.10634674682E+00  0.13033836215E+00  0.19560707995E-01 0.  0.
         14    1    1    2    0    0 -0.13450313780E-01  0.29182444138E-02  0.21601662475E-01  0.25613647005E-01  0.00000000000E+00 0. -1.
     999901    1    3    3    0    0  0.53757353354E-01 -0.63508502319E-01  0.84745084340E-01  0.88797799085E+00  0.88000000000E+00 0. -1.
        -11    1    4    4    0    0 -0.28748766259E-01  0.35138647987E-01 -0.79646682116E-01  0.91679175589E-01  0.51100000000E-03 0. -1.
         11    1    4    4    0    0 -0.11558273315E-01  0.25451609919E-01 -0.26700064699E-01  0.38659186560E-01  0.51100000000E-03 0.  1.
</event>
<event>
 8    1  0.9952977E+004  0.1043930E+01  0.7957747E-01            NaN
         13   -1    0    0    0    0  0.00000000000E+00  0.00000000000E+00  0.74505805969E-08  0.10566000000E+00  0.10566000000E+00 0.  1.
     999900   -1    0    0    0    0 -0.00000000000E+00 -0.00000000000E+00 -0.74505805969E-08  0.93827000000E+00  0.93827000000E+00 0. -1.
     999902    2    1    2    0    0 -0.10011496933E-01 -0.10285433681E-01 -0.18803388200E-01  0.10202743955E+01  0.10200001247E+01 0.  0.
     999903    2    3    3    0    0  0.12338154621E+00 -0.23490390754E-01  0.22498572040E-01  0.12916613789E+00  0.20072394731E-01 0.  0.
         14    1    1    2    0    0  0.10011496933E-01  0.10285433681E-01  0.18803388200E-01  0.23655604508E-01  0.00000000000E+00 0.  1.
     999901    1    3    3    0    0 -0.13339304314E+00  0.13204957074E-01 -0.41301960241E-01  0.89110825760E+00  0.88000000000E+00 0. -1.
        -11    1    4    4    0    0  0.29161751426E-01 -0.13659723445E-01  0.21882227487E-02  0.32280725374E-01  0.51100000000E-03 0.  1.
         11    1    4    4    0    0  0.94219794783E-01 -0.98306673089E-02  0.20310349292E-01  0.96885412514E-01  0.51100000000E-03 0. -1.
</event>
<event>
 8    1  0.9952977E+004  0.1043930E+01  0.7957747E-01            NaN
         13   -1    0    0    0    0  0.00000000000E+00  0.00000000000E+00  0.74505805969E-08  0.10566000000E+00  0.10566000000E+00 0.  1.
     999900   -1    0    0    0    0 -0.00000000000E+00 -0.00000000000E+00 -0.74505805969E-08  0.93827000000E+00  0.93827000000E+00 0. -1.
     999902    2    1    2    0    0  0.13815804052E-01 -0.19819552611E-01  0.86318504501E-03  0.10197548848E+01  0.10194682873E+01 0.  0.
     999903    2    3    3    0    0 -0.21555584024E-01 -0.29147593595E-01 -0.12345378055E+00  0.13026466259E+00  0.20342590084E-01 0.  0.
         14    1    1    2    0    0 -0.13815804052E-01  0.19819552611E-01 -0.86318504501E-03  0.24175115216E-01  0.00000000000E+00 0. -1.
     999901    1    3    3    0    0  0.35371388076E-01  0.93280409844E-02  0.12431696560E+00  0.88949022219E+00  0.88000000000E+00 0.  1.
        -11    1    4    4    0    0 -0.20634400050E-01 -0.12183773151E-01 -0.82842669306E-01  0.86240314078E-01  0.51100000000E-03 0.  1.
         11    1    4    4    0    0 -0.92118397402E-03 -0.16963820444E-01 -0.40611111249E-01  0.44024348511E-01  0.51100000000E-03 0. -1.
</event>
<event>
 8    1  0.9952977E+004  0.1043930E+01  0.7957747E-01            NaN
         13   -1    0    0    0    0  0.00000000000E+00  0.00000000000E+00  0.74505805969E-08  0.10566000000E+00  0.10566000000E+00 0.  1.
     999900   -1    0    0    0    0 -0.00000000000E+00 -0.00000000000E+00 -0.74505805969E-08  0.93827000000E+00  0.93827000000E+00 0.  1.
     999902    2    1    2    0    0 -0.17133716917E-01  0.16432591614E-01 -0.13136395841E-02  0.10201535417E+01  0.10198764281E+01 0.  0.
     999903    2    3    3    0    0  0.11023800870E+00 -0.54627484338E-01  0.28968258095E-01  0.12763458712E+00  0.17743935445E-01 0.  0.
         14    1    1    2    0    0  0.17133716917E-01 -0.16432591614E-01  0.13136395841E-02  0.23776458346E-01  0.00000000000E+00 0. -1.
     999901    1    3    3    0    0 -0.12737172561E+00  0.71060075951E-01 -0.30281897679E-01  0.89251895454E+00  0.88000000000E+00 0. -1.
        -11    1    4    4    0    0  0.71775553295E-01 -0.27400511911E-01  0.22565786308E-01  0.80074927015E-01  0.51100000000E-03 0. -1.
         11    1    4    4    0    0  0.38462455402E-01 -0.27226972427E-01  0.64024717872E-02  0.47559660103E-01  0.51100000000E-03 0.  1.
</event>
<event>
 8    1  0.9952977E+004  0.1043930E+01  0.7957747E-01            NaN
         13   -1    0    0    0    0  0.00000000000E+00  0.00000000000E+00  0.74505805969E-08  0.10566000000E+00  0.10566000000E+00 0. -1.
     999900   -1    0    0    0    0 -0.00000000000E+00 -0.00000000000E+00 -0.74505805969E-08  0.93827000000E+00  0.93827000000E+00 0. -1.
     999902    2    1    2    0    0 -0.16633048611E-01 -0.30318826273E-03  0.17301127095E-01  0.10199283495E+01  0.10196458987E+01 0.  0.
     999903    2    3    3    0    0 -0.57438667160E-01  0.43256992223E-01 -0.10635471190E+00  0.12928063329E+00  0.15224635901E-01 0.  0.
         14    1    1    2    0    0  0.16633048611E-01  0.30318826273E-03 -0.17301127095E-01  0.24001650527E-01  0.00000000000E+00 0.  1.
     999901    1    3    3    0    0  0.40805618549E-01 -0.43560180486E-01  0.12365583900E+00  0.89064771619E+00  0.88000000000E+00 0.  1.
        -11    1    4    4    0    0 -0.24182165299E-01  0.98406799452E-02 -0.33018313709E-01  0.42096154949E-01  0.51100000000E-03 0. -1.
         11    1    4    4    0    0 -0.33256501861E-01  0.33416312278E-01 -0.73336398192E-01  0.87184478338E-01  0.51100000000E-03 0.  1.
</event>
<event>
 8    1  0.9952977E+004  0.1043930E+01  0.7957747E-01            NaN
         13   -1    0    0    0    0  0.00000000000E+00  0.00000000000E+00  0.74505805969E-08  0.10566000000E+00  0.10566000000E+00 0. -1.
     999900   -1    0    0    0    0 -0.00000000000E+00 -0.00000000000E+00 -0.74505805969E-08  0.93827000000E+00  0.93827000000E+00 0.  1.
     999902    2    1    2    0    0 -0.22748427069E-01 -0.66307906599E-02 -0.36843345522E-02  0.10199501618E+01  0.10196682303E+01 0.  0.
     999903    2    3    3    0    0 -0.82843449292E-01  0.56242592157E-01 -0.83457622912E-01  0.13207165012E+00  0.21248051236E-01 0.  0.
         14    1    1    2    0    0  0.22748427069E-01  0.66307906599E-02  0.36843345522E-02  0.23979838198E-01  0.00000000000E+00 0. -1.
     999901    1    3    3    0    0  0.60095022223E-01 -0.62873382817E-01  0.79773288360E-01  0.88787851168E+00  0.88000000000E+00 0.  1.
        -11    1    4    4    0    0 -0.35973217211E-01  0.31154874693E-01 -0.51122223075E-01  0.69845840154E-01  0.51100000000E-03 0. -1.
         11    1    4    4    0    0 -0.46870232081E-01  0.25087717464E-01 -0.32335399837E-01  0.62225809971E-01  0.51100000000E-03 0.  1.
</event>
<event>
 8    1  0.9952977E+004  0.1043930E+01  0.7957747E-01            NaN
         13   -1    0    0    0    0  0.00000000000E+00  0.00000000000E+00  0.74505805969E-08  0.10566000000E+00  0.10566000000E+00 0. -1.
     999900   -1    0    0    0    0 -0.00000000000E+00 -0.00000000000E+00 -0.74505805969E-08  0.93827000000E+00  0.93827000000E+00 0. -1.
     999902    2    1    2    0    0 -0.22761626094E-01 -0.32809293090E-02 -0.73383782973E-02  0.10197906563E+01  0.10195049165E+01 0.  0.
     999903    2    3    3    0    0  0.26044319782E-01 -0.89558627444E-01 -0.89152603783E-01  0.13045414570E+00  0.19262477155E-01 0.  0.
         14    1    1    2    0    0  0.22761626094E-01  0.32809293090E-02  0.73383782973E-02  0.24139343728E-01  0.00000000000E+00 0. -1.
     999901    1    3    3    0    0 -0.48805945875E-01  0.86277698135E-01  0.81814225486E-01  0.88933651057E+00  0.88000000000E+00 0.  1.
        -11    1    4    4    0    0  0.19329394350E-01 -0.52797221191E-01 -0.65053546007E-01  0.85984865066E-01  0.51100000000E-03 0. -1.
         11    1    4    4    0    0  0.67149254319E-02 -0.36761406253E-01 -0.24099057776E-01  0.44469280632E-01  0.51100000000E-03 0.  1.
</event>
<event>
 8    1  0.9952977E+004  0.1043930E+01  0.7957747E-01            NaN
         13   -1    0    0    0    0  0.00000000000E+00  0.00000000000E+00  0.74505805969E-08  0.10566000000E+00  0.10566000000E+00 0.  1.
     999900   -1    0    0    0    0 -0.00000000000E+00 -0.00000000000E+00 -0.74505805969E-08  0.93827000000E+00  0.93827000000E+00 0.  1.
     999902    2    1    2    0    0  0.17373099123E-01 -0.33380757925E-02  0.15977216016E-01  0.10200922410E+01  0.10198136797E+01 0.  0.
     999903    2    3    3    0    0  0.30136862149E-01  0.75307306554E-01  0.10259317851E+00  0.13225760843E+00  0.19679782258E-01 0.  0.
         14    1    1    2    0    0 -0.17373099123E-01  0.33380757925E-02 -0.15977216016E-01  0.23837759013E-01  0.00000000000E+00 0. -1.
     999901    1    3    3    0    0 -0.12763763026E-01 -0.78645382346E-01 -0.86615962495E-01  0.88783463256E+00  0.88000000000E+00 0.  1.
        -11    1    4    4    0    0  0.17535208342E-01  0.19409503864E-01  0.32521884982E-01  0.41739028447E-01  0.51100000000E-03 0. -1.
         11    1    4    4    0    0  0.12601653807E-01  0.55897802690E-01  0.70071293529E-01  0.90518579982E-01  0.51100000000E-03 0.  1.
</event>
<event>
 8    1  0.9952977E+004  0.1043930E+01  0.7957747E-01            NaN
         13   -1    0    0    0    0  0.00000000000E+00  0.00000000000E+00  0.74505805969E-08  0.10566000000E+00  0.10566000000E+00 0. -1.
     999900   -1    0    0    0    0 -0.00000000000E+00 -0.00000000000E+00 -0.74505805969E-08  0.93827000000E+00  0.93827000000E+00 0.  1.
     999902    2    1    2    0    0  0.22152011631E-01 -0.58332319728E-02 -0.70811815911E-02  0.10199533166E+01  0.10196714602E+01 0.  0.
     999903    2    3    3    0    0 -0.97140326135E-01  0.37123169724E-01  0.72900915228E-01  0.12727585518E+00  0.83801658234E-02 0.  0.
         14    1    1    2    0    0 -0.22152011631E-01  0.58332319728E-02  0.70811815911E-02  0.23976683408E-01  0.00000000000E+00 0. -1.
     999901    1    3    3    0    0  0.11929233777E+00 -0.42956401697E-01 -0.79982096819E-01  0.89267746141E+00  0.88000000000E+00 0.  1.
        -11    1    4    4    0    0 -0.21211966877E-01  0.73340420049E-02  0.11788335202E-01  0.25356689034E-01  0.51100000000E-03 0. -1.
         11    1    4    4    0    0 -0.75928359258E-01  0.29789127719E-01  0.61112580027E-01  0.10191916615E+00  0.51100000000E-03 0.  1.
</event>
<event>
 8    1  0.9952977E+004  0.1043930E+01  0.7957747E-01            NaN
         13   -1    0    0    0    0  0.00000000000E+00  0.00000000000E+00  0.74505805969E-08  0.10566000000E+00  0.10566000000E+00 0.  1.
     999900   -1    0    0    0    0 -0.00000000000E+00 -0.00000000000E+00 -0.74505805969E-08  0.93827000000E+00  0.93827000000E+00 0.  1.
     999902    2    1    2    0    0  0.11739060420E-01 -0.90327125683E-03 -0.20226112655E-01  0.10205266440E+01  0.10202582585E+01 0.  0.
     999903    2    3    3    0    0 -0.51643826660E-01  0.46348205901E-01  0.10549983190E+00  0.12808218882E+00  0.21438086198E-01 0.  0.
         14    1    1    2    0    0 -0.11739060420E-01  0.90327125683E-03  0.20226112655E-01  0.23403355991E-01  0.00000000000E+00 0.  1.
     999901    1    3    3    0    0  0.63382887080E-01 -0.47251477158E-01 -0.12572594455E+00  0.89244445519E+00  0.88000000000E+00 0.  1.
        -11    1    4    4    0    0 -0.45505533180E-01  0.34721068207E-01  0.96296978220E-01  0.11202533313E+00  0.51100000000E-03 0. -1.
         11    1    4    4    0    0 -0.61382934804E-02  0.11627137694E-01  0.92028536756E-02  0.16056855688E-01  0.51100000000E-03 0.  1.
</event>
<event>
 8    1  0.9952977E+004  0.1043930E+01  0.7957747E-01            NaN
         13   -1    0    0    0    0  0.00000000000E+00  0.00000000000E+00  0.74505805969E-08  0.10566000000E+00  0.10566000000E+00 0. -1.
     999900   -1    0    0    0    0 -0.00000000000E+00 -0.00000000000E+00 -0.74505805969E-08  0.93827000000E+00  0.93827000000E+00 0.  1.
     999902    2    1    2    0    0  0.19841020950E-01 -0.90192090377E-02  0.10206093796E-01  0.10198639119E+01  0.10195799244E+01 0.  0.
     999903    2    3    3    0    0  0.64748551837E-01  0.11132344637E+00 -0.56194742164E-02  0.13039806681E+00  0.19667045036E-01 0.  0.
         14    1    1    2    0    0 -0.19841020950E-01  0.90192090377E-02 -0.10206093796E-01  0.24066088061E-01  0.00000000000E+00 0.  1.
     999901    1    3    3    0    0 -0.44907530887E-01 -0.12034265541E+00  0.15825568013E-01  0.88946584513E+00  0.88000000000E+00 0. -1.
        -11    1    4    4    0    0  0.72983190273E-02  0.20339074389E-01  0.52547925290E-02  0.22244490850E-01  0.51100000000E-03 0.  1.
         11    1    4    4    0    0  0.57450232810E-01  0.90984371985E-01 -0.10874266745E-01  0.10815357596E+00  0.51100000000E-03 0. -1.
</event>
<event>
 8    1  0.9952977E+004  0.1043930E+01  0.7957747E-01            NaN
         13   -1    0    0    0    0  0.00000000000E+00  0.00000000000E+00  0.74505805969E-08  0.10566000000E+00  0.10566000000E+00 0.  1.
     999900   -1    0    0    0    0 -0.00000000000E+00 -0.00000000000E+00 -0.74505805969E-08  0.93827000000E+00  0.93827000000E+00 0.  1.
     999902    2    1    2    0    0 -0.53895687428E-02  0.18253164767E-01 -0.14045118801E-01  0.10202764413E+01  0.10200022186E+01 0.  0.
     999903    2    3    3    0    0 -0.66398750153E-01  0.82647755558E-01 -0.78577510169E-01  0.13346574391E+00  0.19980845124E-01 0.  0.
         14    1    1    2    0    0  0.53895687428E-02 -0.18253164767E-01  0.14045118801E-01  0.23653558662E-01  0.00000000000E+00 0.  1.
     999901    1    3    3    0    0  0.61009181411E-01 -0.64394590791E-01  0.64532391368E-01  0.88681069743E+00  0.88000000000E+00 0. -1.
        -11    1    4    4    0    0 -0.29505053339E-01  0.23850409925E-01 -0.34168024276E-01  0.51059820114E-01  0.51100000000E-03 0.  1.
         11    1    4    4    0    0 -0.36893696815E-01  0.58797345633E-01 -0.44409485893E-01  0.82405923794E-01  0.51100000000E-03 0. -1.
</event>
<event>
 8    1  0.9952977E+004  0.1043930E+01  0.7957747E-01            NaN
         13   -1    0    0    0    0  0.00000000000E+00  0.00000000000E+00  0.74505805969E-08  0.10566000000E+00  0.10566000000E+00 0.  1.
     999900   -1    0    0    0    0 -0.00000000000E+00 -0.00000000000E+00 -0.74505805969E-08  0.93827000000E+00  0.93827000000E+00 0. -1.
     999902    2    1    2    0    0  0.55521771706E-02  0.17451860399E-01 -0.15436845992E-01  0.10199781667E+01  0.10196969012E+01 0.  0.
     999903    2    3    3    0    0 -0.12041605492E+00 -0.38839168945E-01  0.10962980308E-01  0.12883641240E+00  0.21682409815E-01 0.  0.
         14    1    1    2    0    0 -0.55521771706E-02 -0.17451860399E-01  0.15436845992E-01  0.23951833268E-01  0.00000000000E+00 0.  1.
     999901    1    3    3    0    0  0.12596823210E+00  0.56291029344E-01 -0.26399826301E-01  0.89114175433E+00  0.88000000000E+00 0.  1.
        -11    1    4    4    0    0 -0.47495218789E-01 -0.25305621438E-01 -0.29314605835E-03  0.53819302669E-01  0.51100000000E-03 0. -1.
         11    1    4    4    0    0 -0.72920836136E-01 -0.13533547507E-01  0.11256126367E-01  0.75017109733E-01  0.51100000000E-03 0.  1.
</event>
<event>
 8    1  0.9952977E+004  0.1043930E+01  0.7957747E-01            NaN
         13   -1    0    0    0    0  0.00000000000E+00  0.00000000000E+00  0.74505805969E-08  0.10566000000E+00  0.10566000000E+00 0. -1.
     999900   -1    0    0    0    0 -0.00000000000E+00 -0.00000000000E+00 -0.74505805969E-08  0.93827000000E+00  0.93827000000E+00 0. -1.
     999902    2    1    2    0    0 -0.22211643187E-01  0.12977696588E-02  0.81074892045E-02  0.10202493606E+01  0.10199745022E+01 0.  0.
     999903    2    3    3    0    0  0.67603774656E-01 -0.29737197193E-02  0.10922885420E+00  0.12990640124E+00  0.19121117564E-01 0.  0.
         14    1    1    2    0    0  0.22211643187E-01 -0.12977696588E-02 -0.81074892045E-02  0.23680639357E-01  0.00000000000E+00 0.  1.
     999901    1    3    3    0    0 -0.89815417842E-01  0.42714893781E-02 -0.10112136499E+00  0.89034295940E+00  0.88000000000E+00 0. -1.
        -11    1    4    4    0    0  0.44087202645E-01 -0.22962507702E-02  0.86873565192E-01  0.97448610328E-01  0.51100000000E-03 0.  1.
         11    1    4    4    0    0  0.23516572011E-01 -0.67746894907E-03  0.22355289005E-01  0.32457790911E-01  0.51100000000E-03 0. -1.
</event>
<event>
 8    1  0.9952977E+004  0.1043930E+01  0.7957747E-01            NaN
         13   -1    0    0    0    0  0.00000000000E+00  0.00000000000E+00  0.74505805969E-08  0.10566000000E+00  0.10566000000E+00 0.  1.
     999900   -1    0    0    0    0 -0.00000000000E+00 -0.00000000000E+00 -0.74505805969E-08  0.93827000000E+00  0.93827000000E+00 0. -1.
     999902    2    1    2    0    0 -0.16160829593E-01  0.17294217930E-01 -0.50426693556E-02  0.10197289483E+01  0.10194417282E+01 0.  0.
     999903    2    3    3    0    0 -0.22504085178E-01 -0.12131824341E+00 -0.29878817370E-01  0.12851040861E+00  0.19940696073E-01 0.  0.
         14    1    1    2    0    0  0.16160829593E-01 -0.17294217930E-01  0.50426693556E-02  0.24201051654E-01  0.00000000000E+00 0. -1.
     999901    1    3    3    0    0  0.63432555857E-02  0.13861246134E+00  0.24836148014E-01  0.89121853974E+00  0.88000000000E+00 0. -1.
        -11    1    4    4    0    0 -0.77758413975E-02 -0.85767730374E-01 -0.25266865989E-01  0.89751005125E-01  0.51100000000E-03 0.  1.
         11    1    4    4    0    0 -0.14728243781E-01 -0.35550513031E-01 -0.46119513805E-02  0.38759403481E-01  0.51100000000E-03 0. -1.
</event>
<event>
 8    1  0.9952977E+004  0.1043930E+01  0.7957747E-01            NaN
         13   -1    0    0    0    0  0.00000000000E+00  0.00000000000E+00  0.74505805969E-08  0.10566000000E+00  0.10566000000E+00 0. -1.
     999900   -1    0    0    0    0 -0.00000000000E+00 -0.00000000000E+00 -0.74505805969E-08  0.93827000000E+00  0.93827000000E+00 0. -1.
     999902    2    1    2    0    0 -0.82906408701E-02 -0.22309425542E-01 -0.76422981790E-03  0.10201176242E+01  0.10198396629E+01 0.  0.
     999903    2    3    3    0    0 -0.47610432657E-02  0.85516791665E-01 -0.94401986910E-01  0.12859814560E+00  0.17028174549E-01 0.  0.
         14    1    1    2    0    0  0.82906408701E-02  0.22309425542E-01  0.76422981790E-03  0.23812375801E-01  0.00000000000E+00 0.  1.
     999901    1    3    3    0    0 -0.35295976044E-02 -0.10782621721E+00  0.93637757092E-01  0.89151947860E+00  0.88000000000E+00 0.  1.
        -11    1    4    4    0    0  0.43842692559E-02  0.20221368980E-01 -0.29860158696E-01  0.36332021395E-01  0.51100000000E-03 0. -1.
         11    1    4    4    0    0 -0.91453125216E-02  0.65295422686E-01 -0.64541828214E-01  0.92266124201E-01  0.51100000000E-03 0.  1.
</event>
<event>
 8    1  0.9952977E+004  0.1043930E+01  0.7957747E-01            NaN
         13   -1    0    0    0    0  0.00000000000E+00  0.00000000000E+00  0.74505805969E-08  0.10566000000E+00  0.10566000000E+00 0. -1.
     999900   -1    0    0    0    0 -0.00000000000E+00 -0.00000000000E+00 -0.74505805969E-08  0.93827000000E+00  0.93827000000E+00 0.  1.
     999902    2    1    2    0    0 -0.78722573606E-02 -0.21709149226E-01  0.31837825349E-02  0.10206191427E+01  0.10203528990E+01 0.  0.
     999903    2    3    3    0    0  0.90849350101E-02 -0.61828880704E-01 -0.11431863858E+00  0.13174122186E+00  0.19535912466E-01 0.  0.
         14    1    1    2    0    0  0.78722573606E-02  0.21709149226E-01 -0.31837825349E-02  0.23310857284E-01  0.00000000000E+00 0.  1.
     999901    1    3    3    0    0 -0.16957192371E-01  0.40119731478E-01  0.11750242111E+00  0.88887792086E+00  0.88000000000E+00 0. -1.
        -11    1    4    4    0    0  0.14150931778E-01 -0.30267590810E-01 -0.61866296511E-01  0.70314121544E-01  0.51100000000E-03 0. -1.
         11    1    4    4    0    0 -0.50659967677E-02 -0.31561289894E-01 -0.52452342069E-01  0.61427100311E-01  0.51100000000E-03 0.  1.
</event>
<event>
 8    1  0.9952977E+004  0.1043930E+01  0.7957747E-01            NaN
         13   -1    0    0    0    0  0.00000000000E+00  0.00000000000E+00  0.74505805969E-08  0.10566000000E+00  0.10566000000E+00 0. -1.
     999900   -1    0    0    0    0 -0.00000000000E+00 -0.00000000000E+00 -0.74505805969E-08  0.93827000000E+00  0.93827000000E+00 0.  1.
     999902    2    1    2    0    0  0.17550000524E-01  0.81309625607E-02  0.12637334391E-01  0.10208255136E+01  0.10205640166E+01 0.  0.
     999903    2    3    3    0    0  0.12637722911E+00 -0.26102660043E-01 -0.23437420733E-01  0.13272828101E+00  0.20369854947E-01 0.  0.
         14    1    1    2    0    0 -0.17550000524E-01 -0.81309625607E-02 -0.12637334391E-01  0.23104486384E-01  0.00000000000E+00 0. -1.
     999901    1    3    3    0    0 -0.10882722859E+00  0.34233622604E-01  0.36074755124E-01  0.88809723260E+00  0.88000000000E+00 0. -1.
        -11    1    4    4    0    0  0.41725718007E-01 -0.55013480164E-02 -0.16911810835E-01  0.45360454582E-01  0.51100000000E-03 0. -1.
         11    1    4    4    0    0  0.84651511107E-01 -0.20601312026E-01 -0.65256098984E-02  0.87367826432E-01  0.51100000000E-03 0.  1.
</event>
<event>
 8    1  0.9952977E+004  0.1043930E+01  0.7957747E-01            NaN
         13   -1    0    0    0    0  0.00000000000E+00  0.00000000000E+00  0.74505805969E-08  0.10566000000E+00  0.10566000000E+00 0. -1.
     999900   -1    0    0    0    0 -0.00000000000E+00 -0.00000000000E+00 -0.74505805969E-08  0.93827000000E+00  0.93827000000E+00 0. -1.
     999902    2    1    2    0    0 -0.16083495171E-01 -0.13193347499E-01 -0.11677758074E-01  0.10200739050E+01  0.10197949100E+01 0.  0.
     999903    2    3    3    0    0 -0.58791279951E-02 -0.89225480370E-01  0.93160298272E-01  0.13053692859E+00  0.19112772124E-01 0.  0.
         14    1    1    2    0    0  0.16083495171E-01  0.13193347499E-01  0.11677758074E-01  0.23856095003E-01  0.00000000000E+00 0. -1.
     999901    1    3    3    0    0 -0.10204367176E-01  0.76032132871E-01 -0.10483805635E+00  0.88953697641E+00  0.88000000000E+00 0. -1.
        -11    1    4    4    0    0  0.11002098610E-02 -0.58584640037E-01  0.49296981871E-01  0.76575610037E-01  0.51100000000E-03 0. -1.
         11    1    4    4    0    0 -0.69793378560E-02 -0.30640840333E-01  0.43863316401E-01  0.53961318552E-01  0.51100000000E-03 0.  1.
</event>
<event>
 8    1  0.9952977E+004  0.1043930E+01  0.7957747E-01            NaN
         13   -1    0    0    0    0  0.00000000000E+00  0.00000000000E+00  0.74505805969E-08  0.10566000000E+00  0.10566000000E+00 0.  1.
     999900   -1    0    0    0    0 -0.00000000000E+00 -0.00000000000E+00 -0.74505805969E-08  0.93827000000E+00  0.93827000000E+00 0.  1.
     999902    2    1    2    0    0  0.12683621799E-01 -0.99064006512E-02  0.17334010796E-01  0.10202766923E+01  0.10200024754E+01 0.  0.
     999903    2    3    3    0    0  0.96071361291E-02  0.10083281002E+00  0.80563929514E-01  0.13108005477E+00  0.20781755865E-01 0.  0.
         14    1    1    2    0    0 -0.12683621799E-01  0.99064006512E-02 -0.17334010796E-01  0.23653307720E-01  0.00000000000E+00 0. -1.
     999901    1    3    3    0    0  0.30764856697E-02 -0.11073921068E+00 -0.63229918718E-01  0.88919663751E+00  0.88000000000E+00 0.  1.
        -11    1    4    4    0    0  0.19521787275E-02  0.89739807953E-01  0.67576576876E-01  0.11235612576E+00  0.51100000000E-03 0. -1.
         11    1    4    4    0    0  0.76549574015E-02  0.11093002071E-01  0.12987352638E-01  0.18723929003E-01  0.51100000000E-03 0.  1.
</event>
<event>
 8    1  0.9952977E+004  0.1043930E+01  0.7957747E-01            NaN
         13   -1    0    0    0    0  0.00000000000E+00  0.00000000000E+00  0.74505805969E-08  0.10566000000E+00  0.10566000000E+00 0. -1.
     999900   -1    0    0    0    0 -0.00000000000E+00 -0.00000000000E+00 -0.74505805969E-08  0.93827000000E+00  0.93827000000E+00 0.  1.
     999902    2    1    2    0    0 -0.83932422482E-02  0.22025414229E-01 -0.43254759764E-02  0.10199659617E+01  0.10196844061E+01 0.  0.
     999903    2    3    3    0    0  0.69029609283E-01  0.10966321118E+00 -0.92445650885E-02  0.13221662841E+00  0.24589997971E-01 0.  0.
         14    1    1    2    0    0  0.83932422482E-02 -0.22025414229E-01  0.43254759764E-02  0.23964038262E-01  0.00000000000E+00 0.  1.
     999901    1    3    3    0    0 -0.77422851532E-01 -0.87637796947E-01  0.49190891121E-02  0.88774933333E+00  0.88000000000E+00 0. -1.
        -11    1    4    4    0    0  0.14907694906E-01  0.42044063693E-01  0.31434743171E-02  0.44722312228E-01  0.51100000000E-03 0. -1.
         11    1    4    4    0    0  0.54121914377E-01  0.67619147483E-01 -0.12388039406E-01  0.87494316178E-01  0.51100000000E-03 0.  1.
</event>
<event>
 8    1  0.9952977E+004  0.1043930E+01  0.7957747E-01            NaN
         13   -1    0    0    0    0  0.00000000000E+00  0.00000000000E+00  0.74505805969E-08  0.10566000000E+00  0.10566000000E+00 0. -1.
     999900   -1    0    0    0    0 -0.00000000000E+00 -0.00000000000E+00 -0.74505805969E-08  0.93827000000E+00  0.93827000000E+00 0.  1.
     999902    2    1    2    0    0 -0.13905581043E-02 -0.58292043463E-02  0.23094489770E-01  0.10200706468E+01  0.10197915747E+01 0.  0.
     999903    2    3    3    0    0  0.94283014804E-01 -0.66517038105E-03  0.90529963071E-01  0.13230511313E+00  0.20475336728E-01 0.  0.
         14    1    1    2    0    0  0.13905581043E-02  0.58292043463E-02 -0.23094489770E-01  0.23859353153E-01  0.00000000000E+00 0.  1.
     999901    1    3    3    0    0 -0.95673572908E-01 -0.51640339653E-02 -0.67435473301E-01  0.88776553372E+00  0.88000000000E+00 0.  1.
        -11    1    4    4    0    0  0.52717129221E-01 -0.76886730371E-02  0.40768274970E-01  0.67085950626E-01  0.51100000000E-03 0.  1.
         11    1    4    4    0    0  0.41565885583E-01  0.70235026561E-02  0.49761688101E-01  0.65219162503E-01  0.51100000000E-03 0. -1.
</event>
<event>
 8    1  0.9952977E+004  0.1043930E+01  0.7957747E-01            NaN
         13   -1    0    0    0    0  0.00000000000E+00  0.00000000000E+00  0.74505805969E-08  0.10566000000E+00  0.10566000000E+00 0.  1.
     999900   -1    0    0    0    0 -0.00000000000E+00 -0.00000000000E+00 -0.74505805969E-08  0.93827000000E+00  0.93827000000E+00 0. -1.
     999902    2    1    2    0    0 -0.22863868611E-01  0.65725813319E-02  0.47727732027E-02  0.10196661446E+01  0.10193774138E+01 0.  0.
     999903    2    3    3    0    0 -0.12284204459E+00 -0.33472354906E-01  0.32191827032E-01  0.13267627034E+00  0.18870943814E-01 0.  0.
         14    1    1    2    0    0  0.22863868611E-01 -0.65725813319E-02 -0.47727732027E-02  0.24263855367E-01  0.00000000000E+00 0. -1.
     999901    1    3    3    0    0  0.99978175981E-01  0.40044936238E-01 -0.27419053829E-01  0.88698987430E+00  0.88000000000E+00 0.  1.
        -11    1    4    4    0    0 -0.82007736982E-01 -0.22995346502E-01  0.30546006421E-01  0.90484111948E-01  0.51100000000E-03 0. -1.
         11    1    4    4    0    0 -0.40834307610E-01 -0.10477008404E-01  0.16458206107E-02  0.42192158389E-01  0.51100000000E-03 0.  1.
</event>
<event>
 8    1  0.9952977E+004  0.1043930E+01  0.7957747E-01            NaN
         13   -1    0    0    0    0  0.00000000000E+00  0.00000000000E+00  0.74505805969E-08  0.10566000000E+00  0.10566000000E+00 0.  1.
     999900   -1    0    0    0    0 -0.00000000000E+00 -0.00000000000E+00 -0.74505805969E-08  0.93827000000E+00  0.93827000000E+00 0. -1.
     999902    2    1    2    0    0 -0.21813376366E-01 -0.64557196559E-03  0.86100261072E-02  0.10204699765E+01  0.10202002746E+01 0.  0.
     999903    2    3    3    0    0  0.93849386718E-01 -0.55852766788E-01  0.66836439624E-01  0.12928199167E+00  0.17874136725E-01 0.  0.
         14    1    1    2    0    0  0.21813376366E-01  0.64557196559E-03 -0.86100261072E-02  0.23460023470E-01  0.00000000000E+00 0. -1.
     999901    1    3    3    0    0 -0.11566276308E+00  0.55207194822E-01 -0.58226413517E-01  0.89118798486E+00  0.88000000000E+00 0. -1.
        -11    1    4    4    0    0  0.20402286508E-01 -0.41344498946E-02  0.11864723885E-01  0.23966221325E-01  0.51100000000E-03 0. -1.
         11    1    4    4    0    0  0.73447100210E-01 -0.51718316893E-01  0.54971715739E-01  0.10531577035E+00  0.51100000000E-03 0.  1.
</event>
<event>
 8    1  0.9952977E+004  0.1043930E+01  0.7957747E-01            NaN
         13   -1    0    0    0    0  0.00000000000E+00  0.00000000000E+00  0.74505805969E-08  0.10566000000E+00  0.10566000000E+00 0.  1.
     999900   -1    0    0    0    0 -0.00000000000E+00 -0.00000000000E+00 -0.74505805969E-08  0.93827000000E+00  0.93827000000E+00 0.  1.
     999902    2    1    2    0    0  0.17003560397E-01  0.31914983562E-02 -0.17577078894E-01  0.10192670636E+01  0.10189686387E+01 0.  0.
     999903    2    3    3    0    0 -0.15679402546E-01 -0.81543619697E-02 -0.12888893861E+00  0.13158061295E+00  0.19717046526E-01 0.  0.
         14    1    1    2    0    0 -0.17003560397E-01 -0.31914983562E-02  0.17577078894E-01  0.24662936369E-01  0.00000000000E+00 0.  1.
     999901    1    3    3    0    0  0.32682962943E-01  0.11345860326E-01  0.11131185972E+00  0.88768645068E+00  0.88000000000E+00 0. -1.
        -11    1    4    4    0    0 -0.14608145406E-01  0.32360350246E-02 -0.77199749093E-01  0.78637982019E-01  0.51100000000E-03 0.  1.
         11    1    4    4    0    0 -0.10712571399E-02 -0.11390396994E-01 -0.51689189519E-01  0.52942630929E-01  0.51100000000E-03 0. -1.
</event>
<event>
 8    1  0.9952977E+004  0.1043930E+01  0.7957747E-01            NaN
         13   -1    0    0    0    0  0.00000000000E+00  0.00000000000E+00  0.74505805969E-08  0.10566000000E+00  0.10566000000E+00 0.  1.
     999900   -1    0    0    0    0 -0.00000000000E+00 -0.00000000000E+00 -0.74505805969E-08  0.93827000000E+00  0.93827000000E+00 0. -1.
     999902    2    1    2    0    0 -0.74175617029E-02 -0.13162545866E-01 -0.17862151304E-01  0.10205349303E+01  0.10202667371E+01 0.  0.
     999903    2    3    3    0    0 -0.49022695978E-01 -0.12195619443E+00  0.38237152346E-03  0.13267238029E+00  0.18035415207E-01 0.  0.
         14    1    1    2    0    0  0.74175617029E-02  0.13162545866E-01  0.17862151304E-01  0.23395069662E-01  0.00000000000E+00 0. -1.
     999901    1    3    3    0    0  0.41605134275E-01  0.10879364857E+00 -0.18244522827E-01  0.88786255005E+00  0.88000000000E+00 0. -1.
        -11    1    4    4    0    0 -0.65448039473E-02 -0.22432756773E-01 -0.64470781915E-02  0.24246421867E-01  0.51100000000E-03 0.  1.
         11    1    4    4    0    0 -0.42477892031E-01 -0.99523437661E-01  0.68294497149E-02  0.10842595842E+00  0.51100000000E-03 0. -1.
</event>
<event>
 8    1  0.9952977E+004  0.1043930E+01  0.7957747E-01            NaN
         13   -1    0    0    0    0  0.00000000000E+00  0.00000000000E+00  0.74505805969E-08  0.10566000000E+00  0.10566000000E+00 0. -1.
     999900   -1    0    0    0    0 -0.00000000000E+00 -0.00000000000E+00 -0.74505805969E-08  0.93827000000E+00  0.93827000000E+00 0.  1.
     999902    2    1    2    0    0  0.16317101950E-01 -0.10562995806E-01 -0.79203573447E-02  0.10229405561E+01  0.10227251950E+01 0.  0.
     999903    2    3    3    0    0 -0.92899674554E-01  0.98174154460E-02  0.89124856872E-01  0.13066176609E+00  0.20063046287E-01 0.  0.
         14    1    1    2    0    0 -0.16317101950E-01  0.10562995806E-01  0.79203573447E-02  0.20989443940E-01  0.00000000000E+00 0. -1.
     999901    1    3    3    0    0  0.10921677650E+00 -0.20380411252E-01 -0.97045214216E-01  0.89227878997E+00  0.88000000000E+00 0. -1.
        -11    1    4    4    0    0 -0.59960533435E-01 -0.31515814716E-03  0.65916197316E-01  0.89109882079E-01  0.51100000000E-03 0.  1.
         11    1    4    4    0    0 -0.32939141119E-01  0.10132573593E-01  0.23208659556E-01  0.41551884009E-01  0.51100000000E-03 0. -1.
</event>
<event>
 8    1  0.9952977E+004  0.1043930E+01  0.7957747E-01            NaN
         13   -1    0    0    0    0  0.00000000000E+00  0.00000000000E+00  0.74505805969E-08  0.10566000000E+00  0.10566000000E+00 0.  1.
     999900   -1    0    0    0    0 -0.00000000000E+00 -0.00000000000E+00 -0.74505805969E-08  0.93827000000E+00  0.93827000000E+00 0. -1.
     999902    2    1    2    0    0  0.34027935261E-02 -0.54498009946E-03 -0.22859908215E-01  0.10208117948E+01  0.10205499836E+01 0.  0.
     999903    2    3    3    0    0 -0.87081370199E-01  0.50586206467E-01 -0.83887246542E-01  0.13259666427E+00  0.20066786526E-01 0.  0.
         14    1    1    2    0    0 -0.34027935261E-02  0.54498009946E-03  0.22859908215E-01  0.23118205179E-01  0.00000000000E+00 0.  1.
     999901    1    3    3    0    0  0.90484163725E-01 -0.51131186566E-01  0.61027338327E-01  0.88821513056E+00  0.88000000000E+00 0.  1.
        -11    1    4    4    0    0 -0.40109175834E-01  0.13716056180E-01 -0.27979077016E-01  0.50793366249E-01  0.51100000000E-03 0.  1.
         11    1    4    4    0    0 -0.46972194365E-01  0.36870150287E-01 -0.55908169526E-01  0.81803298017E-01  0.51100000000E-03 0. -1.
</event>
<event>
 8    1  0.9952977E+004  0.1043930E+01  0.7957747E-01            NaN
         13   -1    0    0    0    0  0.00000000000E+00  0.00000000000E+00  0.74505805969E-08  0.10566000000E+00  0.10566000000E+00 0.  1.
     999900   -1    0    0    0    0 -0.00000000000E+00 -0.00000000000E+00 -0.74505805969E-08  0.93827000000E+00  0.93827000000E+00 0.  1.
     999902    2    1    2    0    0  0.37792330280E-02  0.21633509048E-01  0.64919797531E-02  0.10210294079E+01  0.10207725578E+01 0.  0.
     999903    2    3    3    0    0 -0.72394774295E-01  0.78881615147E-01  0.76837695337E-01  0.13309453152E+00  0.18622844642E-01 0.  0.
         14    1    1    2    0    0 -0.37792330280E-02 -0.21633509048E-01 -0.64919797531E-02  0.22900592070E-01  0.00000000000E+00 0.  1.
     999901    1    3    3    0    0  0.76174007323E-01 -0.57248106099E-01 -0.70345715584E-01  0.88793487641E+00  0.88000000000E+00 0.  1.
        -11    1    4    4    0    0 -0.18733002520E-01  0.33048178700E-01  0.24060661124E-01  0.44969812469E-01  0.51100000000E-03 0.  1.
         11    1    4    4    0    0 -0.53661771774E-01  0.45833436448E-01  0.52777034214E-01  0.88124719052E-01  0.51100000000E-03 0. -1.
</event>
<event>
 8    1  0.9952977E+004  0.1043930E+01  0.7957747E-01            NaN
         13   -1    0    0    0    0  0.00000000000E+00  0.00000000000E+00  0.74505805969E-08  0.10566000000E+00  0.10566000000E+00 0. -1.
     999900   -1    0    0    0    0 -0.00000000000E+00 -0.00000000000E+00 -0.74505805969E-08  0.93827000000E+00  0.93827000000E+00 0.  1.
     999902    2    1    2    0    0  0.36785381185E-02 -0.20100756586E-01 -0.11878900452E-01  0.10202935803E+01  0.10200197595E+01 0.  0.
     999903    2    3    3    0    0 -0.11750975155E+00  0.24773696274E-01 -0.46291201736E-01  0.13018992091E+00  0.19602612331E-01 0.  0.
         14    1    1    2    0    0 -0.36785381185E-02  0.20100756586E-01  0.11878900452E-01  0.23636419653E-01  0.00000000000E+00 0.  1.
     999901    1    3    3    0    0  0.12118828967E+00 -0.44874452860E-01  0.34412301283E-01  0.89010365944E+00  0.88000000000E+00 0.  1.
        -11    1    4    4    0    0 -0.25946325868E-01  0.65883589910E-02 -0.19324094617E-01  0.33019691913E-01  0.51100000000E-03 0.  1.
         11    1    4    4    0    0 -0.91563425684E-01  0.18185337283E-01 -0.26967107119E-01  0.97170228992E-01  0.51100000000E-03 0. -1.
</event>
<event>
 8    1  0.9952977E+004  0.1043930E+01  0.7957747E-01            NaN
         13   -1    0    0    0    0  0.00000000000E+00  0.00000000000E+00  0.74505805969E-08  0.10566000000E+00  0.10566000000E+00 0.  1.
     999900   -1    0    0    0    0 -0.00000000000E+00 -0.00000000000E+00 -0.74505805969E-08  0.93827000000E+00  0.93827000000E+00 0.  1.
     999902    2    1    2    0    0  0.18807758739E-01  0.50390174946E-02 -0.83355502558E-02  0.10227497053E+01  0.10225303686E+01 0.  0.
     999903    2    3    3    0    0 -0.40504969812E-01  0.53456079337E-01 -0.11330065779E+00  0.13321056312E+00  0.20243766299E-01 0.  0.
         14    1    1    2    0    0 -0.18807758739E-01 -0.50390174946E-02  0.83355502558E-02  0.21180294714E-01  0.00000000000E+00 0.  1.
     999901    1    3    3    0    0  0.59312728551E-01 -0.48417061842E-01  0.10496510753E+00  0.88953914217E+00  0.88000000000E+00 0.  1.
        -11    1    4    4    0    0 -0.86268200948E-02  0.15317023789E-02 -0.19122318494E-01  0.21040254816E-01  0.51100000000E-03 0.  1.
         11    1    4    4    0    0 -0.31878149717E-01  0.51924376958E-01 -0.94178339295E-01  0.11217030830E+00  0.51100000000E-03 0. -1.
</event>
<event>
 8    1  0.9952977E+004  0.1043930E+01  0.7957747E-01            NaN
         13   -1    0    0    0    0  0.00000000000E+00  0.00000000000E+00  0.74505805969E-08  0.10566000000E+00  0.10566000000E+00 0.  1.
     999900   -1    0    0    0    0 -0.00000000000E+00 -0.00000000000E+00 -0.74505805969E-08  0.93827000000E+00  0.93827000000E+00 0.  1.
     999902    2    1    2    0    0 -0.48850828346E-02  0.13274759450E-01 -0.18301288752E-01  0.10207994911E+01  0.10205373979E+01 0.  0.
     999903    2    3    3    0    0 -0.87656625949E-01 -0.35684805243E-01 -0.90794620659E-01  0.13259712085E+00  0.19525468443E-01 0.  0.
         14    1    1    2    0    0  0.48850828346E-02 -0.13274759450E-01  0.18301288752E-01  0.23130508916E-01  0.00000000000E+00 0.  1.
     999901    1    3    3    0    0  0.82771543115E-01  0.48959564693E-01  0.72493331907E-01  0.88820237024E+00  0.88000000000E+00 0. -1.
        -11    1    4    4    0    0 -0.46861993325E-01 -0.18047102510E-01 -0.34764647801E-01  0.61078524746E-01  0.51100000000E-03 0.  1.
         11    1    4    4    0    0 -0.40794632625E-01 -0.17637702733E-01 -0.56029972858E-01  0.71518596100E-01  0.51100000000E-03 0. -1.
</event>
<event>
 8    1  0.9952977E+004  0.1043930E+01  0.7957747E-01            NaN
         13   -1    0    0    0    0  0.00000000000E+00  0.00000000000E+00  0.74505805969E-08  0.10566000000E+00  0.10566000000E+00 0.  1.
     999900   -1    0    0    0    0 -0.00000000000E+00 -0.00000000000E+00 -0.74505805969E-08  0.93827000000E+00  0.93827000000E+00 0.  1.
     999902    2    1    2    0    0  0.13241088866E-01 -0.18824174526E-01 -0.89820397306E-02  0.10192246763E+01  0.10189252121E+01 0.  0.
     999903    2    3    3    0    0 -0.10816138741E+00 -0.57699104383E-01 -0.37079853782E-01  0.12959592870E+00  0.19801939429E-01 0.  0.
         14    1    1    2    0    0 -0.13241088866E-01  0.18824174526E-01  0.89820397306E-02  0.24705323691E-01  0.00000000000E+00 0.  1.
     999901    1    3    3    0    0  0.12140247628E+00  0.38874929858E-01  0.28097814051E-01  0.88962874761E+00  0.88000000000E+00 0. -1.
        -11    1    4    4    0    0 -0.57545587987E-01 -0.24232720916E-01 -0.10372999479E-01  0.63297548917E-01  0.51100000000E-03 0.  1.
         11    1    4    4    0    0 -0.50615799427E-01 -0.33466383468E-01 -0.26706854303E-01  0.66298379783E-01  0.51100000000E-03 0. -1.
</event>
<event>
 8    1  0.9952977E+004  0.1043930E+01  0.7957747E-01            NaN
         13   -1    0    0    0    0  0.00000000000E+00  0.00000000000E+00  0.74505805969E-08  0.10566000000E+00  0.10566000000E+00 0. -1.
     999900   -1    0    0    0    0 -0.00000000000E+00 -0.00000000000E+00 -0.74505805969E-08  0.93827000000E+00  0.93827000000E+00 0.  1.
     999902    2    1    2    0    0  0.11861223595E-01  0.18527234971E-01  0.83682072432E-02  0.10203933487E+01  0.10201218614E+01 0.  0.
     999903    2    3    3    0    0 -0.49701773506E-01 -0.92300774738E-01  0.72235703914E-01  0.12901693694E+00  0.20920654651E-01 0.  0.
         14    1    1    2    0    0 -0.11861223595E-01 -0.18527234971E-01 -0.83682072432E-02  0.23536651277E-01  0.00000000000E+00 0.  1.
     999901    1    3    3    0    0  0.61562997101E-01  0.11082800971E+00 -0.63867496671E-01  0.89137641178E+00  0.88000000000E+00 0.  1.
        -11    1    4    4    0    0 -0.16746755711E-01 -0.22144570164E-01  0.29461333877E-01  0.40485394026E-01  0.51100000000E-03 0. -1.
         11    1    4    4    0    0 -0.32955017794E-01 -0.70156204574E-01  0.42774370038E-01  0.88531542917E-01  0.51100000000E-03 0.  1.
</event>
<event>
 8    1  0.9952977E+004  0.1043930E+01  0.7957747E-01            NaN
         13   -1    0    0    0    0  0.00000000000E+00  0.00000000000E+00  0.74505805969E-08  0.10566000000E+00  0.10566000000E+00 0.  1.
     999900   -1    0    0    0    0 -0.00000000000E+00 -0.00000000000E+00 -0.74505805969E-08  0.93827000000E+00  0.93827000000E+00 0. -1.
     999902    2    1    2    0    0  0.88053416305E-02 -0.13507550377E-01  0.17916451522E-01  0.10198263241E+01  0.10195414381E+01 0.  0.
     999903    2    3    3    0    0 -0.12331929203E+00  0.26856284459E-01 -0.14794241910E-01  0.12844753396E+00  0.18734769382E-01 0.  0.
         14    1    1    2    0    0 -0.88053416305E-02  0.13507550377E-01 -0.17916451522E-01  0.24103675935E-01  0.00000000000E+00 0. -1.
     999901    1    3    3    0    0  0.13212463367E+00 -0.40363834837E-01  0.32710693432E-01  0.89137879010E+00  0.88000000000E+00 0.  1.
        -11    1    4    4    0    0 -0.37583227734E-01  0.37743226433E-02  0.29895014161E-02  0.37893835357E-01  0.51100000000E-03 0.  1.
         11    1    4    4    0    0 -0.85736064301E-01  0.23081961816E-01 -0.17783743326E-01  0.90553698603E-01  0.51100000000E-03 0. -1.
</event>
<event>
 8    1  0.9952977E+004  0.1043930E+01  0.7957747E-01            NaN
         13   -1    0    0    0    0  0.00000000000E+00  0.00000000000E+00  0.74505805969E-08  0.10566000000E+00  0.10566000000E+00 0.  1.
     999900   -1    0    0    0    0 -0.00000000000E+00 -0.00000000000E+00 -0.74505805969E-08  0.93827000000E+00  0.93827000000E+00 0.  1.
     999902    2    1    2    0    0  0.58680830324E-02 -0.78825176510E-02  0.21784177380E-01  0.10200319066E+01  0.10197519167E+01 0.  0.
     999903    2    3    3    0    0 -0.42843131082E-01 -0.65826200448E-01  0.10524031836E+00  0.13284805858E+00  0.20111178829E-01 0.  0.
         14    1    1    2    0    0 -0.58680830324E-02  0.78825176510E-02 -0.21784177380E-01  0.23898093379E-01  0.00000000000E+00 0. -1.
     999901    1    3    3    0    0  0.48711214115E-01  0.57943682797E-01 -0.83456140980E-01  0.88718384804E+00  0.88000000000E+00 0.  1.
        -11    1    4    4    0    0 -0.24929607700E-01 -0.20897480830E-01  0.38149088606E-01  0.50137851246E-01  0.51100000000E-03 0. -1.
         11    1    4    4    0    0 -0.17913523382E-01 -0.44928719618E-01  0.67091229754E-01  0.82710207335E-01  0.51100000000E-03 0.  1.
</event>
<event>
 8    1  0.9952977E+004  0.1043930E+01  0.7957747E-01            NaN
         13   -1    0    0    0    0  0.00000000000E+00  0.00000000000E+00  0.74505805969E-08  0.10566000000E+00  0.10566000000E+00 0. -1.
     999900   -1    0    0    0    0 -0.00000000000E+00 -0.00000000000E+00 -0.74505805969E-08  0.93827000000E+00  0.93827000000E+00 0. -1.
     999902    2    1    2    0    0 -0.86425808742E-03 -0.18361347143E-01  0.15408359705E-01  0.10199445136E+01  0.10196624477E+01 0.  0.
     999903    2    3    3    0    0 -0.25576032563E-01 -0.66324453574E-01 -0.10686042016E+00  0.12985418898E+00  0.19745744249E-01 0.  0.
         14    1    1    2    0    0  0.86425808742E-03  0.18361347143E-01 -0.15408359705E-01  0.23985486440E-01  0.00000000000E+00 0.  1.
     999901    1    3    3    0    0  0.24711774476E-01  0.47963106431E-01  0.12226877987E+00  0.89009032458E+00  0.88000000000E+00 0. -1.
        -11    1    4    4    0    0 -0.25148131557E-01 -0.50761120874E-01 -0.71564190447E-01  0.91273295046E-01  0.51100000000E-03 0.  1.
         11    1    4    4    0    0 -0.42790100633E-03 -0.15563332700E-01 -0.35296229713E-01  0.38580893937E-01  0.51100000000E-03 0. -1.
</event>
<event>
 8    1  0.9952977E+004  0.1043930E+01  0.7957747E-01            NaN
         13   -1    0    0    0    0  0.00000000000E+00  0.00000000000E+00  0.74505805969E-08  0.10566000000E+00  0.10566000000E+00 0. -1.
     999900   -1    0    0    0    0 -0.00000000000E+00 -0.00000000000E+00 -0.74505805969E-08  0.93827000000E+00  0.93827000000E+00 0. -1.
     999902    2    1    2    0    0  0.16292236487E-01  0.11184849425E-01  0.12983000894E-01  0.10202847861E+01  0.10200107591E+01 0.  0.
     999903    2    3    3    0    0  0.10656888728E+00  0.65419108415E-01 -0.38799038995E-01  0.13249392778E+00  0.20314723457E-01 0.  0.
         14    1    1    2    0    0 -0.16292236487E-01 -0.11184849425E-01 -0.12983000894E-01  0.23645213862E-01  0.00000000000E+00 0.  1.
     999901    1    3    3    0    0 -0.90276650797E-01 -0.54234258989E-01  0.51782039889E-01  0.88779085836E+00  0.88000000000E+00 0.  1.
        -11    1    4    4    0    0  0.76562123583E-02  0.67533023592E-02 -0.91780574210E-02  0.13737632236E-01  0.51100000000E-03 0. -1.
         11    1    4    4    0    0  0.98912674925E-01  0.58665806055E-01 -0.29620981574E-01  0.11875629554E+00  0.51100000000E-03 0.  1.
</event>
<event>
 8    1  0.1390472E+005  0.1043930E+01  0.7957747E-01            NaN
         13   -1    0    0    0    0  0.00000000000E+00  0.00000000000E+00  0.74505805969E-08  0.10566000000E+00  0.10566000000E+00 0.  1.
     999900   -1    0    0    0    0 -0.00000000000E+00 -0.00000000000E+00 -0.74505805969E-08  0.93827000000E+00  0.93827000000E+00 0. -1.
     999902    2    1    2    0    0  0.25392145521E-02  0.19050888413E-01  0.13502600373E-01  0.10204416161E+01  0.10201712541E+01 0.  0.
     999903    2    3    3    0    0  0.68176438840E-01 -0.10217165118E+00  0.35546254542E-01  0.12943708640E+00  0.20083575497E-01 0.  0.
         14    1    1    2    0    0 -0.25392145521E-02 -0.19050888413E-01 -0.13502600373E-01  0.23488383867E-01  0.00000000000E+00 0. -1.
     999901    1    3    3    0    0 -0.65637224288E-01  0.12122253960E+00 -0.22043654169E-01  0.89100452973E+00  0.88000000000E+00 0.  1.
        -11    1    4    4    0    0  0.36220854712E-01 -0.38194141613E-01  0.19553866816E-01  0.56154764696E-01  0.51100000000E-03 0. -1.
         11    1    4    4    0    0  0.31955584128E-01 -0.63977509571E-01  0.15992387726E-01  0.73282321702E-01  0.51100000000E-03 0.  1.
</event>
<event>
 8    1  0.9952977E+004  0.1043930E+01  0.7957747E-01            NaN
         13   -1    0    0    0    0  0.00000000000E+00  0.00000000000E+00  0.74505805969E-08  0.10566000000E+00  0.10566000000E+00 0. -1.
     999900   -1    0    0    0    0 -0.00000000000E+00 -0.00000000000E+00 -0.74505805969E-08  0.93827000000E+00  0.93827000000E+00 0. -1.
     999902    2    1    2    0    0 -0.94665572447E-02  0.67450869472E-02  0.20219160322E-01  0.10206077714E+01  0.10203412648E+01 0.  0.
     999903    2    3    3    0    0 -0.78665598004E-01  0.89363721160E-01 -0.51146062159E-01  0.13116561983E+00  0.20355568827E-01 0.  0.
         14    1    1    2    0    0  0.94665572447E-02 -0.67450869472E-02 -0.20219160322E-01  0.23322228627E-01  0.00000000000E+00 0.  1.
     999901    1    3    3    0    0  0.69199040759E-01 -0.82618634213E-01  0.71365222480E-01  0.88944215154E+00  0.88000000000E+00 0.  1.
        -11    1    4    4    0    0 -0.32985092170E-01  0.23557252481E-01 -0.14252109707E-01  0.42969107531E-01  0.51100000000E-03 0.  1.
         11    1    4    4    0    0 -0.45680505834E-01  0.65806468680E-01 -0.36893952452E-01  0.88196512300E-01  0.51100000000E-03 0. -1.
</event>
<event>
 8    1  0.9952977E+004  0.1043930E+01  0.7957747E-01            NaN
         13   -1    0    0    0    0  0.00000000000E+00  0.00000000000E+00  0.74505805969E-08  0.10566000000E+00  0.10566000000E+00 0.  1.
     999900   -1    0    0    0    0 -0.00000000000E+00 -0.00000000000E+00 -0.74505805969E-08  0.93827000000E+00  0.93827000000E+00 0.  1.
     999902    2    1    2    0    0  0.63347306153E-02 -0.11209602904E-01 -0.17338600899E-01  0.10223334473E+01  0.10221053108E+01 0.  0.
     999903    2    3    3    0    0  0.77799444255E-01  0.82064512675E-01 -0.67491999694E-01  0.13310758768E+00  0.19368069286E-01 0.  0.
         14    1    1    2    0    0 -0.63347306153E-02  0.11209602904E-01  0.17338600899E-01  0.21596552742E-01  0.00000000000E+00 0. -1.
     999901    1    3    3    0    0 -0.71464713640E-01 -0.93274115580E-01  0.50153398796E-01  0.88922585958E+00  0.88000000000E+00 0. -1.
        -11    1    4    4    0    0  0.55820779927E-01  0.51697634790E-01 -0.53849634252E-01  0.93212923699E-01  0.51100000000E-03 0.  1.
         11    1    4    4    0    0  0.21978664328E-01  0.30366877886E-01 -0.13642365442E-01  0.39894663979E-01  0.51100000000E-03 0. -1.
</event>
<event>
 8    1  0.9952977E+004  0.1043930E+01  0.7957747E-01            NaN
         13   -1    0    0    0    0  0.00000000000E+00  0.00000000000E+00  0.74505805969E-08  0.10566000000E+00  0.10566000000E+00 0. -1.
     999900   -1    0    0    0    0 -0.00000000000E+00 -0.00000000000E+00 -0.74505805969E-08  0.93827000000E+00  0.93827000000E+00 0. -1.
     999902    2    1    2    0    0 -0.16409011570E-01  0.13568741720E-04  0.17342105234E-01  0.10200552338E+01  0.10197757968E+01 0.  0.
     999903    2    3    3    0    0  0.65154260418E-01 -0.10133022566E+00 -0.39981096985E-01  0.12864675200E+00  0.20942932028E-01 0.  0.
         14    1    1    2    0    0  0.16409011570E-01 -0.13568741720E-04 -0.17342105234E-01  0.23874766151E-01  0.00000000000E+00 0.  1.
     999901    1    3    3    0    0 -0.81563271988E-01  0.10134379440E+00  0.57323202219E-01  0.89140848185E+00  0.88000000000E+00 0. -1.
        -11    1    4    4    0    0  0.52989439867E-01 -0.78939195362E-01 -0.22387167624E-01  0.97676628202E-01  0.51100000000E-03 0. -1.
         11    1    4    4    0    0  0.12164820552E-01 -0.22391030293E-01 -0.17593929361E-01  0.30970123797E-01  0.51100000000E-03 0.  1.
</event>
<event>
 8    1  0.9952977E+004  0.1043930E+01  0.7957747E-01            NaN
         13   -1    0    0    0    0  0.00000000000E+00  0.00000000000E+00  0.74505805969E-08  0.10566000000E+00  0.10566000000E+00 0.  1.
     999900   -1    0    0    0    0 -0.00000000000E+00 -0.00000000000E+00 -0.74505805969E-08  0.93827000000E+00  0.93827000000E+00 0. -1.
     999902    2    1    2    0    0  0.22801976733E-01  0.55985799391E-02  0.58436594776E-02  0.10197344922E+01  0.10194474052E+01 0.  0.
     999903    2    3    3    0    0  0.25063952948E-01 -0.46240111229E-02  0.12721496084E+00  0.13134234306E+00  0.20434813497E-01 0.  0.
         14    1    1    2    0    0 -0.22801976733E-01 -0.55985799391E-02 -0.58436594776E-02  0.24195507773E-01  0.00000000000E+00 0.  1.
     999901    1    3    3    0    0 -0.22619762142E-02  0.10222591062E-01 -0.12137130136E+00  0.88839214917E+00  0.88000000000E+00 0. -1.
        -11    1    4    4    0    0  0.16054045385E-02  0.18071799679E-02  0.56595759193E-01  0.56649662866E-01  0.51100000000E-03 0. -1.
         11    1    4    4    0    0  0.23458548409E-01 -0.64311910908E-02  0.70619201649E-01  0.74692680196E-01  0.51100000000E-03 0.  1.
</event>
<event>
 8    1  0.9952977E+004  0.1043930E+01  0.7957747E-01            NaN
         13   -1    0    0    0    0  0.00000000000E+00  0.00000000000E+00  0.74505805969E-08  0.10566000000E+00  0.10566000000E+00 0.  1.
     999900   -1    0    0    0    0 -0.00000000000E+00 -0.00000000000E+00 -0.74505805969E-08  0.93827000000E+00  0.93827000000E+00 0.  1.
     999902    2    1    2    0    0  0.14837428564E-01 -0.20501378618E-03  0.19577903962E-01  0.10193640553E+01  0.10190680014E+01 0.  0.
     999903    2    3    3    0    0  0.84668882736E-01  0.56419434775E-01  0.82645172158E-01  0.13253811942E+00  0.19599905493E-01 0.  0.
         14    1    1    2    0    0 -0.14837428564E-01  0.20501378618E-03 -0.19577903962E-01  0.24565944732E-01  0.00000000000E+00 0. -1.
     999901    1    3    3    0    0 -0.69831454172E-01 -0.56624448561E-01 -0.63067268196E-01  0.88682593584E+00  0.88000000000E+00 0.  1.
        -11    1    4    4    0    0  0.30996057246E-01  0.11999442845E-01  0.34100763507E-01  0.47622110266E-01  0.51100000000E-03 0.  1.
         11    1    4    4    0    0  0.53672825490E-01  0.44419991930E-01  0.48544408651E-01  0.84916009158E-01  0.51100000000E-03 0. -1.
</event>
<event>
 8    1  0.9952977E+004  0.1043930E+01  0.7957747E-01            NaN
         13   -1    0    0    0    0  0.00000000000E+00  0.00000000000E+00  0.74505805969E-08  0.10566000000E+00  0.10566000000E+00 0.  1.
     999900   -1    0    0    0    0 -0.00000000000E+00 -0.00000000000E+00 -0.74505805969E-08  0.93827000000E+00  0.93827000000E+00 0. -1.
     999902    2    1    2    0    0 -0.24237056805E-01 -0.79624950867E-03 -0.44816796204E-02  0.10192692136E+01  0.10189708412E+01 0.  0.
     999903    2    3    3    0    0  0.38465981310E-01 -0.11946197817E+00 -0.24192876067E-01  0.12887505510E+00  0.16513286389E-01 0.  0.
         14    1    1    2    0    0  0.24237056805E-01  0.79624950867E-03  0.44816796204E-02  0.24660786445E-01  0.00000000000E+00 0.  1.
     999901    1    3    3    0    0 -0.62703038115E-01  0.11866572866E+00  0.19711196447E-01  0.89039415846E+00  0.88000000000E+00 0.  1.
        -11    1    4    4    0    0  0.16644097181E-01 -0.54534342552E-01 -0.27007556503E-02  0.57083935487E-01  0.51100000000E-03 0. -1.
         11    1    4    4    0    0  0.21821884129E-01 -0.64927635620E-01 -0.21492120417E-01  0.71791119612E-01  0.51100000000E-03 0.  1.
</event>
<event>
 8    1  0.9952977E+004  0.1043930E+01  0.7957747E-01            NaN
         13   -1    0    0    0    0  0.00000000000E+00  0.00000000000E+00  0.74505805969E-08  0.10566000000E+00  0.10566000000E+00 0.  1.
     999900   -1    0    0    0    0 -0.00000000000E+00 -0.00000000000E+00 -0.74505805969E-08  0.93827000000E+00  0.93827000000E+00 0. -1.
     999902    2    1    2    0    0 -0.11477231027E-01 -0.18183847624E-01  0.48865249138E-02  0.10218787580E+01  0.10216408072E+01 0.  0.
     999903    2    3    3    0    0  0.62438747485E-01  0.10831803439E+00 -0.25884192769E-01  0.12923485642E+00  0.20006571797E-01 0.  0.
         14    1    1    2    0    0  0.11477231027E-01  0.18183847624E-01 -0.48865249138E-02  0.22051241965E-01  0.00000000000E+00 0. -1.
     999901    1    3    3    0    0 -0.73915978512E-01 -0.12650188202E+00  0.30770717683E-01  0.89264390162E+00  0.88000000000E+00 0. -1.
        -11    1    4    4    0    0  0.30710605878E-01  0.58132984738E-01 -0.23464195168E-01  0.69809847470E-01  0.51100000000E-03 0. -1.
         11    1    4    4    0    0  0.31728141607E-01  0.50185049655E-01 -0.24199976011E-02  0.59425008945E-01  0.51100000000E-03 0.  1.
</event>
<event>
 8    1  0.9952977E+004  0.1043930E+01  0.7957747E-01            NaN
         13   -1    0    0    0    0  0.00000000000E+00  0.00000000000E+00  0.74505805969E-08  0.10566000000E+00  0.10566000000E+00 0.  1.
     999900   -1    0    0    0    0 -0.00000000000E+00 -0.00000000000E+00 -0.74505805969E-08  0.93827000000E+00  0.93827000000E+00 0.  1.
     999902    2    1    2    0    0 -0.58725766010E-02 -0.20706458838E-01 -0.39879593251E-02  0.10220405410E+01  0.10218061064E+01 0.  0.
     999903    2    3    3    0    0  0.87727229460E-01 -0.82049551389E-01  0.53652538342E-01  0.13308254110E+00  0.20104034521E-01 0.  0.
         14    1    1    2    0    0  0.58725766010E-02  0.20706458838E-01  0.39879593251E-02  0.21889458950E-01  0.00000000000E+00 0. -1.
     999901    1    3    3    0    0 -0.93599806061E-01  0.61343092550E-01 -0.57640497667E-01  0.88895799995E+00  0.88000000000E+00 0. -1.
        -11    1    4    4    0    0  0.48241895131E-01 -0.57463975168E-01  0.29031028148E-01  0.80451541963E-01  0.51100000000E-03 0.  1.
         11    1    4    4    0    0  0.39485334329E-01 -0.24585576220E-01  0.24621510194E-01  0.52630999139E-01  0.51100000000E-03 0. -1.
</event>
<event>
 8    1  0.9952977E+004  0.1043930E+01  0.7957747E-01            NaN
         13   -1    0    0    0    0  0.00000000000E+00  0.00000000000E+00  0.74505805969E-08  0.10566000000E+00  0.10566000000E+00 0.  1.
     999900   -1    0    0    0    0 -0.00000000000E+00 -0.00000000000E+00 -0.74505805969E-08  0.93827000000E+00  0.93827000000E+00 0. -1.
     999902    2    1    2    0    0 -0.41005944929E-02 -0.15980466461E-01 -0.17073720176E-01  0.10201875885E+01  0.10199112773E+01 0.  0.
     999903    2    3    3    0    0 -0.12268118779E+00 -0.10735003457E-01 -0.42648294016E-01  0.13185041668E+00  0.19993530464E-01 0.  0.
         14    1    1    2    0    0  0.41005944929E-02  0.15980466461E-01  0.17073720176E-01  0.23742411507E-01  0.00000000000E+00 0.  1.
     999901    1    3    3    0    0  0.11858059330E+00 -0.52454630035E-02  0.25574573840E-01  0.88833717181E+00  0.88000000000E+00 0.  1.
        -11    1    4    4    0    0 -0.11116009755E+00 -0.38745814955E-02 -0.39782295035E-01  0.11812904719E+00  0.51100000000E-03 0. -1.
         11    1    4    4    0    0 -0.11521090238E-01 -0.68604219620E-02 -0.28659989816E-02  0.13721369499E-01  0.51100000000E-03 0.  1.
</event>
<event>
 8    1  0.9952977E+004  0.1043930E+01  0.7957747E-01            NaN
         13   -1    0    0    0    0  0.00000000000E+00  0.00000000000E+00  0.74505805969E-08  0.10566000000E+00  0.10566000000E+00 0. -1.
     999900   -1    0    0    0    0 -0.00000000000E+00 -0.00000000000E+00 -0.74505805969E-08  0.93827000000E+00  0.93827000000E+00 0. -1.
     999902    2    1    2    0    0  0.23113111332E-01  0.22617727659E-02  0.10985575862E-01  0.10182392544E+01  0.10179151069E+01 0.  0.
     999903    2    3    3    0    0 -0.90783416718E-01 -0.67473291211E-01  0.54034561994E-01  0.12712275617E+00  0.21123150041E-01 0.  0.
         14    1    1    2    0    0 -0.23113111332E-01 -0.22617727659E-02 -0.10985575862E-01  0.25690745581E-01  0.00000000000E+00 0. -1.
     999901    1    3    3    0    0  0.11389652805E+00  0.69735063977E-01 -0.43048986132E-01  0.89111649825E+00  0.88000000000E+00 0. -1.
        -11    1    4    4    0    0 -0.14298914174E-01 -0.81253019845E-02  0.42493947521E-03  0.16459683273E-01  0.51100000000E-03 0. -1.
         11    1    4    4    0    0 -0.76484502545E-01 -0.59347989226E-01  0.53609622519E-01  0.11066307289E+00  0.51100000000E-03 0.  1.
</event>
<event>
 8    1  0.9952977E+004  0.1043930E+01  0.7957747E-01            NaN
         13   -1    0    0    0    0  0.00000000000E+00  0.00000000000E+00  0.74505805969E-08  0.10566000000E+00  0.10566000000E+00 0. -1.
     999900   -1    0    0    0    0 -0.00000000000E+00 -0.00000000000E+00 -0.74505805969E-08  0.93827000000E+00  0.93827000000E+00 0. -1.
     999902    2    1    2    0    0 -0.11297426172E-02  0.19826055547E-01 -0.12368197476E-01  0.10205351051E+01  0.10202669159E+01 0.  0.
     999903    2    3    3    0    0  0.23888413247E-01  0.90977882848E-01 -0.92818154623E-01  0.13365253892E+00  0.20003996532E-01 0.  0.
         14    1    1    2    0    0  0.11297426172E-02 -0.19826055547E-01  0.12368197476E-01  0.23394894865E-01  0.00000000000E+00 0. -1.
     999901    1    3    3    0    0 -0.25018155864E-01 -0.71151827301E-01  0.80449957147E-01  0.88688256621E+00  0.88000000000E+00 0. -1.
        -11    1    4    4    0    0  0.74517460440E-02  0.54836096099E-01 -0.43851387802E-01  0.70609711001E-01  0.51100000000E-03 0. -1.
         11    1    4    4    0    0  0.16436667203E-01  0.36141786749E-01 -0.48966766821E-01  0.63042827919E-01  0.51100000000E-03 0.  1.
</event>
<event>
 8    1  0.9952977E+004  0.1043930E+01  0.7957747E-01            NaN
         13   -1    0    0    0    0  0.00000000000E+00  0.00000000000E+00  0.74505805969E-08  0.10566000000E+00  0.10566000000E+00 0. -1.
     999900   -1    0    0    0    0 -0.00000000000E+00 -0.00000000000E+00 -0.74505805969E-08  0.93827000000E+00  0.93827000000E+00 0. -1.
     999902    2    1    2    0    0 -0.16934930624E-01  0.20221111596E-01  0.24444852553E-02  0.10174411205E+01  0.10170962457E+01 0.  0.
     999903    2    3    3    0    0 -0.40729150808E-01 -0.55363291525E-01  0.10604868875E+00  0.12782716046E+00  0.19222403368E-01 0.  0.
         14    1    1    2    0    0  0.16934930624E-01 -0.20221111596E-01 -0.24444852553E-02  0.26488879508E-01  0.00000000000E+00 0. -1.
     999901    1    3    3    0    0  0.23794220184E-01  0.75584403120E-01 -0.10360420349E+00  0.88961396004E+00  0.88000000000E+00 0. -1.
        -11    1    4    4    0    0 -0.17144017466E-01 -0.32315248737E-01  0.69890990373E-01  0.78887288533E-01  0.51100000000E-03 0. -1.
         11    1    4    4    0    0 -0.23585133342E-01 -0.23048042787E-01  0.36157698375E-01  0.48939871923E-01  0.51100000000E-03 0.  1.
</event>
<event>
 8    1  0.9952977E+004  0.1043930E+01  0.7957747E-01            NaN
         13   -1    0    0    0    0  0.00000000000E+00  0.00000000000E+00  0.74505805969E-08  0.10566000000E+00  0.10566000000E+00 0. -1.
     999900   -1    0    0    0    0 -0.00000000000E+00 -0.00000000000E+00 -0.74505805969E-08  0.93827000000E+00  0.93827000000E+00 0.  1.
     999902    2    1    2    0    0 -0.18267424472E-01 -0.28761810861E-02  0.13975809826E-01  0.10207503867E+01  0.10204871667E+01 0.  0.
     999903    2    3    3    0    0 -0.40957578226E-01  0.12272321606E+00 -0.93677261461E-02  0.13123649002E+00  0.19918610492E-01 0.  0.
         14    1    1    2    0    0  0.18267424472E-01  0.28761810861E-02 -0.13975809826E-01  0.23179613344E-01  0.00000000000E+00 0.  1.
     999901    1    3    3    0    0  0.22690153754E-01 -0.12559939715E+00  0.23343535973E-01  0.88951389664E+00  0.88000000000E+00 0. -1.
        -11    1    4    4    0    0 -0.32906113845E-01  0.68898153687E-01 -0.26894661332E-02  0.76401978108E-01  0.51100000000E-03 0.  1.
         11    1    4    4    0    0 -0.80514643815E-02  0.53825062376E-01 -0.66782600129E-02  0.54834511909E-01  0.51100000000E-03 0. -1.
</event>
<event>
 8    1  0.9952977E+004  0.1043930E+01  0.7957747E-01            NaN
         13   -1    0    0    0    0  0.00000000000E+00  0.00000000000E+00  0.74505805969E-08  0.10566000000E+00  0.10566000000E+00 0.  1.
     999900   -1    0    0    0    0 -0.00000000000E+00 -0.00000000000E+00 -0.74505805969E-08  0.93827000000E+00  0.93827000000E+00 0.  1.
     999902    2    1    2    0    0  0.57810990705E-02 -0.16156362402E-01 -0.13990257349E-02  0.10267135420E+01  0.10265691847E+01 0.  0.
     999903    2    3    3    0    0  0.19506502684E-01 -0.18756847638E-01 -0.13272734345E+00  0.13685834241E+00  0.19527806029E-01 0.  0.
         14    1    1    2    0    0 -0.57810990705E-02  0.16156362402E-01  0.13990257349E-02  0.17216457985E-01  0.00000000000E+00 0. -1.
     999901    1    3    3    0    0 -0.13725403613E-01  0.26004852356E-02  0.13132831771E+00  0.88985519960E+00  0.88000000000E+00 0. -1.
        -11    1    4    4    0    0 -0.38940774429E-02 -0.35707401813E-02 -0.16689598752E-01  0.17513362101E-01  0.51100000000E-03 0. -1.
         11    1    4    4    0    0  0.23400580127E-01 -0.15186107456E-01 -0.11603774470E+00  0.11934498031E+00  0.51100000000E-03 0.  1.
</event>
<event>
 8    1  0.9952977E+004  0.1043930E+01  0.7957747E-01            NaN
         13   -1    0    0    0    0  0.00000000000E+00  0.00000000000E+00  0.74505805969E-08  0.10566000000E+00  0.10566000000E+00 0.  1.
     999900   -1    0    0    0    0 -0.00000000000E+00 -0.00000000000E+00 -0.74505805969E-08  0.93827000000E+00  0.93827000000E+00 0.  1.
     999902    2    1    2    0    0 -0.20801216016E-01 -0.16396052409E-02  0.87441235391E-02  0.10213061500E+01  0.10210555388E+01 0.  0.
     999903    2    3    3    0    0 -0.12060633774E+00  0.36758458865E-01 -0.41289232712E-01  0.13342169219E+00  0.14123533815E-01 0.  0.
         14    1    1    2    0    0  0.20801216016E-01  0.16396052409E-02 -0.87441235391E-02  0.22623850016E-01  0.00000000000E+00 0.  1.
     999901    1    3    3    0    0  0.99805121727E-01 -0.38398064106E-01  0.50033356252E-01  0.88788445779E+00  0.88000000000E+00 0.  1.
        -11    1    4    4    0    0 -0.88964005119E-01  0.24207501904E-01 -0.35950940286E-01  0.98961247889E-01  0.51100000000E-03 0. -1.
         11    1    4    4    0    0 -0.31642332624E-01  0.12550956962E-01 -0.53382924261E-02  0.34460444303E-01  0.51100000000E-03 0.  1.
</event>
<event>
 8    1  0.9952977E+004  0.1043930E+01  0.7957747E-01            NaN
         13   -1    0    0    0    0  0.00000000000E+00  0.00000000000E+00  0.74505805969E-08  0.10566000000E+00  0.10566000000E+00 0. -1.
     999900   -1    0    0    0    0 -0.00000000000E+00 -0.00000000000E+00 -0.74505805969E-08  0.93827000000E+00  0.93827000000E+00 0. -1.
     999902    2    1    2    0    0 -0.21251080941E-01  0.10280461779E-01  0.62132405920E-02  0.10195189227E+01  0.10192266348E+01 0.  0.
     999903    2    3    3    0    0 -0.12421687392E+00  0.28131612737E-01  0.32734859399E-01  0.13293896897E+00  0.19493051329E-01 0.  0.
         14    1    1    2    0    0  0.21251080941E-01 -0.10280461779E-01 -0.62132405920E-02  0.24411077285E-01  0.00000000000E+00 0. -1.
     999901    1    3    3    0    0  0.10296579298E+00 -0.17851150958E-01 -0.26521618807E-01  0.88657995374E+00  0.88000000000E+00 0. -1.
        -11    1    4    4    0    0 -0.17372198335E-01 -0.26837840391E-02  0.30982039293E-02  0.17856538308E-01  0.51100000000E-03 0. -1.
         11    1    4    4    0    0 -0.10684467558E+00  0.30815396776E-01  0.29636655470E-01  0.11508243066E+00  0.51100000000E-03 0.  1.
</event>
<event>
 8    1  0.9952977E+004  0.1043930E+01  0.7957747E-01            NaN
         13   -1    0    0    0    0  0.00000000000E+00  0.00000000000E+00  0.74505805969E-08  0.10566000000E+00  0.10566000000E+00 0. -1.
     999900   -1    0    0    0    0 -0.00000000000E+00 -0.00000000000E+00 -0.74505805969E-08  0.93827000000E+00  0.93827000000E+00 0. -1.
     999902    2    1    2    0    0 -0.81522952995E-02 -0.78281489652E-02  0.21432093006E-01  0.10197003808E+01  0.10194124740E+01 0.  0.
     999903    2    3    3    0    0 -0.12794101741E+00 -0.11230655200E-01 -0.17935689962E-01  0.13070615287E+00  0.16351693234E-01 0.  0.
         14    1    1    2    0    0  0.81522952995E-02  0.78281489652E-02 -0.21432093006E-01  0.24229619178E-01  0.00000000000E+00 0.  1.
     999901    1    3    3    0    0  0.11978872211E+00  0.34025062349E-02  0.39367782968E-01  0.88899422795E+00  0.88000000000E+00 0.  1.
        -11    1    4    4    0    0 -0.29267144042E-01 -0.73213648249E-02  0.83760494098E-03  0.30184943371E-01  0.51100000000E-03 0. -1.
         11    1    4    4    0    0 -0.98673873369E-01 -0.39092903752E-02 -0.18773294903E-01  0.10052120950E+00  0.51100000000E-03 0.  1.
</event>
<event>
 8    1  0.1632187E+005  0.1043930E+01  0.7957747E-01            NaN
         13   -1    0    0    0    0  0.00000000000E+00  0.00000000000E+00  0.74505805969E-08  0.10566000000E+00  0.10566000000E+00 0.  1.
     999900   -1    0    0    0    0 -0.00000000000E+00 -0.00000000000E+00 -0.74505805969E-08  0.93827000000E+00  0.93827000000E+00 0. -1.
     999902    2    1    2    0    0  0.68016483735E-02 -0.10338173968E-01 -0.23994874205E-01  0.10169319584E+01  0.10165735162E+01 0.  0.
     999903    2    3    3    0    0  0.42317501112E-01 -0.39107877408E-01  0.10986135879E+00  0.12563707862E+00  0.19873610460E-01 0.  0.
         14    1    1    2    0    0 -0.68016483735E-02  0.10338173968E-01  0.23994874205E-01  0.26998041590E-01  0.00000000000E+00 0.  1.
     999901    1    3    3    0    0 -0.35515852738E-01  0.28769703441E-01 -0.13385623300E+00  0.89129487979E+00  0.88000000000E+00 0. -1.
        -11    1    4    4    0    0  0.25837786950E-01 -0.10705892425E-01  0.46331507576E-01  0.54120948647E-01  0.51100000000E-03 0. -1.
         11    1    4    4    0    0  0.16479714161E-01 -0.28401984983E-01  0.63529851214E-01  0.71516129971E-01  0.51100000000E-03 0.  1.
</event>
<event>
 8    1  0.9952977E+004  0.1043930E+01  0.7957747E-01            NaN
         13   -1    0    0    0    0  0.00000000000E+00  0.00000000000E+00  0.74505805969E-08  0.10566000000E+00  0.10566000000E+00 0.  1.
     999900   -1    0    0    0    0 -0.00000000000E+00 -0.00000000000E+00 -0.74505805969E-08  0.93827000000E+00  0.93827000000E+00 0. -1.
     999902    2    1    2    0    0  0.16969194407E-01 -0.43556755793E-02 -0.15741680648E-01  0.10203773785E+01  0.10201055184E+01 0.  0.
     999903    2    3    3    0    0  0.11882003726E+00  0.22381358402E-01 -0.52433749675E-01  0.13334030427E+00  0.20278367286E-01 0.  0.
         14    1    1    2    0    0 -0.16969194407E-01  0.43556755793E-02  0.15741680648E-01  0.23552621472E-01  0.00000000000E+00 0.  1.
     999901    1    3    3    0    0 -0.10185084285E+00 -0.26737033981E-01  0.36692069027E-01  0.88703707426E+00  0.88000000000E+00 0.  1.
        -11    1    4    4    0    0  0.88897483749E-01  0.17113015878E-01 -0.48487070957E-01  0.10269798002E+00  0.51100000000E-03 0.  1.
         11    1    4    4    0    0  0.29922553512E-01  0.52683425238E-02 -0.39466787179E-02  0.30642324251E-01  0.51100000000E-03 0. -1.
</event>
<event>
 8    1  0.9952977E+004  0.1043930E+01  0.7957747E-01            NaN
         13   -1    0    0    0    0  0.00000000000E+00  0.00000000000E+00  0.74505805969E-08  0.10566000000E+00  0.10566000000E+00 0.  1.
     999900   -1    0    0    0    0 -0.00000000000E+00 -0.00000000000E+00 -0.74505805969E-08  0.93827000000E+00  0.93827000000E+00 0.  1.
     999902    2    1    2    0    0  0.10018673393E-02 -0.17369425483E-02 -0.27055428069E-01  0.10168003687E+01  0.10164383763E+01 0.  0.
     999903    2    3    3    0    0  0.71505059635E-02 -0.48174061338E-01  0.11415338828E+00  0.12431275444E+00  0.71270567804E-02 0.  0.
         14    1    1    2    0    0 -0.10018673393E-02  0.17369425483E-02  0.27055428069E-01  0.27129631320E-01  0.00000000000E+00 0.  1.
     999901    1    3    3    0    0 -0.61486386242E-02  0.46437118790E-01 -0.14120881635E+00  0.89248761424E+00  0.88000000000E+00 0.  1.
        -11    1    4    4    0    0  0.12622451760E-02 -0.30447527514E-01  0.67839097406E-01  0.74371025625E-01  0.51100000000E-03 0. -1.
         11    1    4    4    0    0  0.58882607875E-02 -0.17726533825E-01  0.46314290877E-01  0.49941728814E-01  0.51100000000E-03 0.  1.
</event>
<event>
 8    1  0.9952977E+004  0.1043930E+01  0.7957747E-01            NaN
         13   -1    0    0    0    0  0.00000000000E+00  0.00000000000E+00  0.74505805969E-08  0.10566000000E+00  0.10566000000E+00 0.  1.
     999900   -1    0    0    0    0 -0.00000000000E+00 -0.00000000000E+00 -0.74505805969E-08  0.93827000000E+00  0.93827000000E+00 0. -1.
     999902    2    1    2    0    0 -0.12225969348E-01  0.11719006501E-01  0.12727896402E-01  0.10227448923E+01  0.10225254549E+01 0.  0.
     999903    2    3    3    0    0 -0.66203011104E-01  0.70178015846E-01  0.92803601299E-01  0.13553404067E+00  0.21193753270E-01 0.  0.
         14    1    1    2    0    0  0.12225969348E-01 -0.11719006501E-01 -0.12727896402E-01  0.21185107662E-01  0.00000000000E+00 0. -1.
     999901    1    3    3    0    0  0.53977041756E-01 -0.58459009345E-01 -0.80075704898E-01  0.88721085167E+00  0.88000000000E+00 0. -1.
        -11    1    4    4    0    0 -0.26154940647E-01  0.38209106094E-01  0.33482634025E-01  0.57143368916E-01  0.51100000000E-03 0. -1.
         11    1    4    4    0    0 -0.40048070457E-01  0.31968909751E-01  0.59320967274E-01  0.78390671750E-01  0.51100000000E-03 0.  1.
</event>
<event>
 8    1  0.9952977E+004  0.1043930E+01  0.7957747E-01            NaN
         13   -1    0    0    0    0  0.00000000000E+00  0.00000000000E+00  0.74505805969E-08  0.10566000000E+00  0.10566000000E+00 0. -1.
     999900   -1    0    0    0    0 -0.00000000000E+00 -0.00000000000E+00 -0.74505805969E-08  0.93827000000E+00  0.93827000000E+00 0. -1.
     999902    2    1    2    0    0 -0.62284688688E-02  0.10945922960E-01  0.20454999065E-01  0.10199088834E+01  0.10196259689E+01 0.  0.
     999903    2    3    3    0    0 -0.98122072186E-01  0.79982886732E-02  0.87160003935E-01  0.13260809986E+00  0.17208375571E-01 0.  0.
         14    1    1    2    0    0  0.62284688688E-02 -0.10945922960E-01 -0.20454999065E-01  0.24021116557E-01  0.00000000000E+00 0.  1.
     999901    1    3    3    0    0  0.91893603318E-01  0.29476342867E-02 -0.66705004871E-01  0.88730078359E+00  0.88000000000E+00 0. -1.
        -11    1    4    4    0    0 -0.68853018861E-01  0.56290519999E-03  0.68383083375E-01  0.97044125435E-01  0.51100000000E-03 0. -1.
         11    1    4    4    0    0 -0.29269053325E-01  0.74353834732E-02  0.18776920560E-01  0.35563974422E-01  0.51100000000E-03 0.  1.
</event>
<event>
 8    1  0.9952977E+004  0.1043930E+01  0.7957747E-01            NaN
         13   -1    0    0    0    0  0.00000000000E+00  0.00000000000E+00  0.74505805969E-08  0.10566000000E+00  0.10566000000E+00 0. -1.
     999900   -1    0    0    0    0 -0.00000000000E+00 -0.00000000000E+00 -0.74505805969E-08  0.93827000000E+00  0.93827000000E+00 0. -1.
     999902    2    1    2    0    0  0.13641472346E-01 -0.13371673433E-01 -0.14627757357E-01  0.10198704343E+01  0.10195866025E+01 0.  0.
     999903    2    3    3    0    0  0.51030360102E-02  0.10850551465E+00  0.64658862779E-01  0.12789884166E+00  0.19438556467E-01 0.  0.
         14    1    1    2    0    0 -0.13641472346E-01  0.13371673433E-01  0.14627757357E-01  0.24059565737E-01  0.00000000000E+00 0. -1.
     999901    1    3    3    0    0  0.85384363356E-02 -0.12187718808E+00 -0.79286620137E-01  0.89197159260E+00  0.88000000000E+00 0. -1.
        -11    1    4    4    0    0 -0.72543110383E-02  0.33200605396E-01  0.21703159830E-01  0.40326089507E-01  0.51100000000E-03 0.  1.
         11    1    4    4    0    0  0.12357347049E-01  0.75304909252E-01  0.42955702950E-01  0.87572752158E-01  0.51100000000E-03 0. -1.
</event>
